<LesHouchesEvents version="3.0">
<header>
<!--
#*********************************************************************
#                                                                    *
#                        MadGraph5_aMC@NLO                           *
#                                                                    *
#                           Going Beyond                             *
#                                                                    *
#                   http://madgraph.hep.uiuc.edu                     *
#                   http://madgraph.phys.ucl.ac.be                   *
#                   http://amcatnlo.cern.ch                          *
#                                                                    *
#                     The MadGraph5_aMC@NLO team                     *
#                                                                    *
#....................................................................*
#                                                                    *
# This file contains all the information necessary to reproduce      *
# the events generated:                                              *
#                                                                    *
# 1. software version                                                *
# 2. proc_card          : code generation info including model       *
# 3. param_card         : model primary parameters in the LH format  *
# 4. run_card           : running parameters (collider and cuts)     *
# 5. pythia_card        : present only if pythia has been run        *
# 6. pgs_card           : present only if pgs has been run           *
# 7. delphes_cards      : present only if delphes has been run       *
#                                                                    *
#                                                                    *
#*********************************************************************
-->
<MGVersion>
#5.2.2.3
</MGVersion>
<MG5ProcCard>
#************************************************************
#*                     MadGraph5_aMC@NLO                    *
#*                                                          *
#*                *                       *                 *
#*                  *        * *        *                   *
#*                    * * * * 5 * * * *                     *
#*                  *        * *        *                   *
#*                *                       *                 *
#*                                                          *
#*                                                          *
#*         VERSION 2.2.3                 2015-02-10         *
#*                                                          *
#*    The MadGraph5_aMC@NLO Development Team - Find us at   *
#*    https://server06.fynu.ucl.ac.be/projects/madgraph     *
#*                                                          *
#************************************************************
#*                                                          *
#*               Command File for MadGraph5_aMC@NLO         *
#*                                                          *
#*     run as ./bin/mg5_aMC  filename                       *
#*                                                          *
#************************************************************
set group_subprocesses Auto
set ignore_six_quark_processes False
set loop_optimized_output True
set gauge unitary
set complex_mass_scheme False
import model sm
define p = g u c d s u~ c~ d~ s~
define j = g u c d s u~ c~ d~ s~
define l+ = e+ mu+
define l- = e- mu-
define vl = ve vm vt
define vl~ = ve~ vm~ vt~
import model Zprime_UFO
generate p p > zph, zph > j j
add process p p > zph, zph > b b~
output Dijet_signal
</MG5ProcCard>
<MGProcCard>
#*********************************************************************
#                        MadGraph/MadEvent                           *
#                   http://madgraph.hep.uiuc.edu                     *
#                                                                    *
#                          proc_card.dat                             *
#*********************************************************************
#                                                                    *
#            This Files is generated by MADGRAPH 5                   *
#                                                                    *
# WARNING: This Files is generated for MADEVENT (compatibility issue)*
#          This files is NOT a valid MG4 proc_card.dat               *
#          Running this in MG4 will NEVER reproduce the result of MG5*
#                                                                    *
#*********************************************************************
#*********************************************************************
# Process(es) requested : mg2 input                                  *
#*********************************************************************
# Begin PROCESS # This is TAG. Do not modify this line
p p > zph , zph > j j           #Process
# Be carefull the coupling are here in MG5 convention
          
end_coup           # End the couplings input

done               # this tells MG there are no more procs
# End PROCESS  # This is TAG. Do not modify this line
#*********************************************************************
# Model information                                                  *
#*********************************************************************
# Begin MODEL  # This is TAG. Do not modify this line
Zprime_UFO
# End   MODEL  # This is TAG. Do not modify this line
#*********************************************************************
# Start multiparticle definitions                                    *
#*********************************************************************
# Begin MULTIPARTICLES # This is TAG. Do not modify this line

# End  MULTIPARTICLES # This is TAG. Do not modify this line
</MGProcCard>
<MGRunCard>
#*********************************************************************
#                       MadGraph5_aMC@NLO                            *
#                                                                    *
#                     run_card.dat MadEvent                          *
#                                                                    *
#  This file is used to set the parameters of the run.               *
#                                                                    *
#  Some notation/conventions:                                        *
#                                                                    *
#   Lines starting with a '# ' are info or comments                  *
#                                                                    *
#   mind the format:   value    = variable     ! comment             *
#*********************************************************************
#
#*******************                                                 
# Running parameters
#*******************                                                 
#                                                                    
#*********************************************************************
# Tag name for the run (one word)                                    *
#*********************************************************************
  tag_1     = run_tag ! name of the run 
#*********************************************************************
# Run to generate the grid pack                                      *
#*********************************************************************
  .false.     = gridpack  !True = setting up the grid pack
#*********************************************************************
# Number of events and rnd seed                                      *
# Warning: Do not generate more than 1M events in a single run       *
# If you want to run Pythia, avoid more than 50k events in a run.    *
#*********************************************************************
  2000 = nevents ! Number of unweighted events requested 
 903 = iseed   ! rnd seed (0=assigned automatically=default))
#*********************************************************************
# Collider type and energy                                           *
# lpp: 0=No PDF, 1=proton, -1=antiproton, 2=photon from proton,      *
#                                         3=photon from electron     *
#*********************************************************************
        1     = lpp1    ! beam 1 type 
        1     = lpp2    ! beam 2 type
     4000     = ebeam1  ! beam 1 total energy in GeV
     4000     = ebeam2  ! beam 2 total energy in GeV
#*********************************************************************
# Beam polarization from -100 (left-handed) to 100 (right-handed)    *
#*********************************************************************
        0     = polbeam1 ! beam polarization for beam 1
        0     = polbeam2 ! beam polarization for beam 2
#*********************************************************************
# PDF CHOICE: this automatically fixes also alpha_s and its evol.    *
#*********************************************************************
 'nn23lo1'    = pdlabel     ! PDF set                                     
 230000    = lhaid     ! if pdlabel=lhapdf, this is the lhapdf number
#*********************************************************************
# Renormalization and factorization scales                           *
#*********************************************************************
 F        = fixed_ren_scale  ! if .true. use fixed ren scale
 F        = fixed_fac_scale  ! if .true. use fixed fac scale
 91.1880  = scale            ! fixed ren scale
 91.1880  = dsqrt_q2fact1    ! fixed fact scale for pdf1
 91.1880  = dsqrt_q2fact2    ! fixed fact scale for pdf2
 1        = scalefact        ! scale factor for event-by-event scales
#*********************************************************************
# Matching - Warning! ickkw > 1 is still beta
#*********************************************************************
 0        = ickkw            ! 0 no matching, 1 MLM, 2 CKKW matching
 1        = highestmult      ! for ickkw=2, highest mult group
 1        = ktscheme         ! for ickkw=1, 1 Durham kT, 2 Pythia pTE
 1        = alpsfact         ! scale factor for QCD emission vx
 F        = chcluster        ! cluster only according to channel diag
 T        = pdfwgt           ! for ickkw=1, perform pdf reweighting
 5        = asrwgtflavor     ! highest quark flavor for a_s reweight
 T        = clusinfo         ! include clustering tag in output
 3.0      = lhe_version       ! Change the way clustering information pass to shower.        
#*********************************************************************
#**********************************************************
#
#**********************************************************
# Automatic ptj and mjj cuts if xqcut > 0
# (turn off for VBF and single top processes)
#**********************************************************
   T  = auto_ptj_mjj  ! Automatic setting of ptj and mjj
#**********************************************************
#                                                                    
#**********************************
# BW cutoff (M+/-bwcutoff*Gamma)
#**********************************
  15  = bwcutoff      ! (M+/-bwcutoff*Gamma)
#**********************************************************
# Apply pt/E/eta/dr/mij cuts on decay products or not
# (note that etmiss/ptll/ptheavy/ht/sorted cuts always apply)
#**********************************************************
   T  = cut_decays    ! Cut decay products 
#*************************************************************
# Number of helicities to sum per event (0 = all helicities)
# 0 gives more stable result, but longer run time (needed for
# long decay chains e.g.).
# Use >=2 if most helicities contribute, e.g. pure QCD.
#*************************************************************
   0  = nhel          ! Number of helicities used per event
#*******************                                                 
# Standard Cuts
#*******************                                                 
#                                                                    
#*********************************************************************
# Minimum and maximum pt's (for max, -1 means no cut)                *
#*********************************************************************
 20  = ptj       ! minimum pt for the jets 
  0  = ptb       ! minimum pt for the b 
 10  = pta       ! minimum pt for the photons 
 10  = ptl       ! minimum pt for the charged leptons 
  0  = misset    ! minimum missing Et (sum of neutrino's momenta)
  0  = ptheavy   ! minimum pt for one heavy final state
 1.0 = ptonium   ! minimum pt for the quarkonium states
 -1  = ptjmax    ! maximum pt for the jets
 -1  = ptbmax    ! maximum pt for the b
 -1  = ptamax    ! maximum pt for the photons
 -1  = ptlmax    ! maximum pt for the charged leptons
 -1  = missetmax ! maximum missing Et (sum of neutrino's momenta)
#*********************************************************************
# Minimum and maximum E's (in the center of mass frame)              *
#*********************************************************************
  0  = ej     ! minimum E for the jets 
  0  = eb     ! minimum E for the b 
  0  = ea     ! minimum E for the photons 
  0  = el     ! minimum E for the charged leptons 
 -1   = ejmax ! maximum E for the jets
 -1   = ebmax ! maximum E for the b
 -1   = eamax ! maximum E for the photons
 -1   = elmax ! maximum E for the charged leptons
#*********************************************************************
# Maximum and minimum absolute rapidity (for max, -1 means no cut)   *
#*********************************************************************
   5  = etaj    ! max rap for the jets 
  -1  = etab    ! max rap for the b
 2.5  = etaa    ! max rap for the photons 
 2.5  = etal    ! max rap for the charged leptons 
 0.6  = etaonium ! max rap for the quarkonium states
   0  = etajmin ! min rap for the jets
   0  = etabmin ! min rap for the b
   0  = etaamin ! min rap for the photons
   0  = etalmin ! main rap for the charged leptons
#*********************************************************************
# Minimum and maximum DeltaR distance                                *
#*********************************************************************
 0.4 = drjj    ! min distance between jets 
 0   = drbb    ! min distance between b's 
 0.4 = drll    ! min distance between leptons 
 0.4 = draa    ! min distance between gammas 
 0   = drbj    ! min distance between b and jet 
 0.4 = draj    ! min distance between gamma and jet 
 0.4 = drjl    ! min distance between jet and lepton 
 0   = drab    ! min distance between gamma and b 
 0   = drbl    ! min distance between b and lepton 
 0.4 = dral    ! min distance between gamma and lepton 
 -1  = drjjmax ! max distance between jets
 -1  = drbbmax ! max distance between b's
 -1  = drllmax ! max distance between leptons
 -1  = draamax ! max distance between gammas
 -1  = drbjmax ! max distance between b and jet
 -1  = drajmax ! max distance between gamma and jet
 -1  = drjlmax ! max distance between jet and lepton
 -1  = drabmax ! max distance between gamma and b
 -1  = drblmax ! max distance between b and lepton
 -1  = dralmax ! maxdistance between gamma and lepton
#*********************************************************************
# Minimum and maximum invariant mass for pairs                       *
# WARNING: for four lepton final state mmll cut require to have      *
#          different lepton masses for each flavor!                  *           
#*********************************************************************
 0   = mmjj    ! min invariant mass of a jet pair 
 0   = mmbb    ! min invariant mass of a b pair 
 0   = mmaa    ! min invariant mass of gamma gamma pair
 0   = mmll    ! min invariant mass of l+l- (same flavour) lepton pair
 -1  = mmjjmax ! max invariant mass of a jet pair
 -1  = mmbbmax ! max invariant mass of a b pair
 -1  = mmaamax ! max invariant mass of gamma gamma pair
 -1  = mmllmax ! max invariant mass of l+l- (same flavour) lepton pair
#*********************************************************************
# Minimum and maximum invariant mass for all letpons                 *
#*********************************************************************
 0   = mmnl    ! min invariant mass for all letpons (l+- and vl) 
 -1  = mmnlmax ! max invariant mass for all letpons (l+- and vl) 
#*********************************************************************
# Minimum and maximum pt for 4-momenta sum of leptons                *
#*********************************************************************
 0   = ptllmin  ! Minimum pt for 4-momenta sum of leptons(l and vl)
 -1  = ptllmax  ! Maximum pt for 4-momenta sum of leptons(l and vl)
#*********************************************************************
# Inclusive cuts                                                     *
#*********************************************************************
 0  = xptj ! minimum pt for at least one jet  
 0  = xptb ! minimum pt for at least one b 
 0  = xpta ! minimum pt for at least one photon 
 0  = xptl ! minimum pt for at least one charged lepton 
#*********************************************************************
# Control the pt's of the jets sorted by pt                          *
#*********************************************************************
 0   = ptj1min ! minimum pt for the leading jet in pt
 0   = ptj2min ! minimum pt for the second jet in pt
 0   = ptj3min ! minimum pt for the third jet in pt
 0   = ptj4min ! minimum pt for the fourth jet in pt
 -1  = ptj1max ! maximum pt for the leading jet in pt 
 -1  = ptj2max ! maximum pt for the second jet in pt
 -1  = ptj3max ! maximum pt for the third jet in pt
 -1  = ptj4max ! maximum pt for the fourth jet in pt
 0   = cutuse  ! reject event if fails any (0) / all (1) jet pt cuts
#*********************************************************************
# Control the pt's of leptons sorted by pt                           *
#*********************************************************************
 0   = ptl1min ! minimum pt for the leading lepton in pt
 0   = ptl2min ! minimum pt for the second lepton in pt
 0   = ptl3min ! minimum pt for the third lepton in pt
 0   = ptl4min ! minimum pt for the fourth lepton in pt
 -1  = ptl1max ! maximum pt for the leading lepton in pt 
 -1  = ptl2max ! maximum pt for the second lepton in pt
 -1  = ptl3max ! maximum pt for the third lepton in pt
 -1  = ptl4max ! maximum pt for the fourth lepton in pt
#*********************************************************************
# Control the Ht(k)=Sum of k leading jets                            *
#*********************************************************************
 0   = htjmin ! minimum jet HT=Sum(jet pt)
 -1  = htjmax ! maximum jet HT=Sum(jet pt)
 0   = ihtmin  !inclusive Ht for all partons (including b)
 -1  = ihtmax  !inclusive Ht for all partons (including b)
 0   = ht2min ! minimum Ht for the two leading jets
 0   = ht3min ! minimum Ht for the three leading jets
 0   = ht4min ! minimum Ht for the four leading jets
 -1  = ht2max ! maximum Ht for the two leading jets
 -1  = ht3max ! maximum Ht for the three leading jets
 -1  = ht4max ! maximum Ht for the four leading jets
#***********************************************************************
# Photon-isolation cuts, according to hep-ph/9801442                   *
# When ptgmin=0, all the other parameters are ignored                  *
# When ptgmin>0, pta and draj are not going to be used                 *
#***********************************************************************
   0 = ptgmin ! Min photon transverse momentum
 0.4 = R0gamma ! Radius of isolation code
 1.0 = xn ! n parameter of eq.(3.4) in hep-ph/9801442
 1.0 = epsgamma ! epsilon_gamma parameter of eq.(3.4) in hep-ph/9801442
 .true. = isoEM ! isolate photons from EM energy (photons and leptons)
#*********************************************************************
# WBF cuts                                                           *
#*********************************************************************
 0   = xetamin ! minimum rapidity for two jets in the WBF case  
 0   = deltaeta ! minimum rapidity for two jets in the WBF case 
#*********************************************************************
# KT DURHAM CUT                                                      *
#*********************************************************************
 -1    =  ktdurham        
 0.4  =  dparameter 
#*********************************************************************
# maximal pdg code for quark to be considered as a light jet         *
# (otherwise b cuts are applied)                                     *
#*********************************************************************
 4 = maxjetflavor    ! Maximum jet pdg code
#*********************************************************************
# Jet measure cuts                                                   *
#*********************************************************************
 0   = xqcut   ! minimum kt jet measure between partons
#*********************************************************************
#
#*********************************************************************
# Store info for systematics studies                                 *
# WARNING: If use_syst is T, matched Pythia output is                *
#          meaningful ONLY if plotted taking matchscale              *
#          reweighting into account!                                 *
#*********************************************************************
   F  = use_syst      ! Enable systematics studies
#
#**************************************
# Parameter of the systematics study
#  will be used by SysCalc (if installed)
#**************************************                                  
#
0.5 1 2 = sys_scalefact  # factorization/renormalization scale factor
0.5 1 2 = sys_alpsfact  # \alpha_s emission scale factors
30 50 = sys_matchscale # variation of merging scale
# PDF sets and number of members (0 or none for all members).
CT10nlo.LHgrid = sys_pdf # matching scales
# MSTW2008nlo68cl.LHgrid 1  = sys_pdf
</MGRunCard>
<slha>
######################################################################
## PARAM_CARD AUTOMATICALY GENERATED BY MG5 FOLLOWING UFO MODEL   ####
######################################################################
##                                                                  ##
##  Width set on Auto will be computed following the information    ##
##        present in the decay.py files of the model.               ##
##        See  arXiv:1402.1178 for more details.                    ##
##                                                                  ##
######################################################################

###################################
## INFORMATION FOR CKMBLOCK
###################################
Block ckmblock 
    1 2.277360e-01 # cabi 

###################################
## INFORMATION FOR FRBLOCK
###################################
Block frblock 
    1 4.000000e-01 # gz 

###################################
## INFORMATION FOR MASS
###################################
Block mass 
    1 5.040000e-03 # MD 
    2 2.550000e-03 # MU 
    3 1.010000e-01 # MS 
    4 1.270000e+00 # MC 
    5 4.700000e+00 # MB 
    6 1.720000e+02 # MT 
   11 5.110000e-04 # Me 
   13 1.056600e-01 # MM 
   15 1.777000e+00 # MTA 
   23 9.118760e+01 # MZ 
   25 1.200000e+02 # MH 
  10030 1.400000e+03 # MZph 
  10031 3.000000e+02 # MZpl 
## Dependent parameters, given by model restrictions.
## Those values should be edited following the 
## analytical expression. MG5 ignores those values 
## but they are important for interfacing the output of MG5
## to external program such as Pythia.
  12 0.000000 # ve : 0.0 
  14 0.000000 # vm : 0.0 
  16 0.000000 # vt : 0.0 
  21 0.000000 # g : 0.0 
  22 0.000000 # a : 0.0 
  24 79.824360 # w+ : cmath.sqrt(MZ__exp__2/2. + cmath.sqrt(MZ__exp__4/4. - (aEW*cmath.pi*MZ__exp__2)/(Gf*sqrt__2))) 

###################################
## INFORMATION FOR SMINPUTS
###################################
Block sminputs 
    1 1.279000e+02 # aEWM1 
    2 1.166370e-05 # Gf 
    3 1.184000e-01 # aS 

###################################
## INFORMATION FOR YUKAWA
###################################
Block yukawa 
    1 5.040000e-03 # ymdo 
    2 2.550000e-03 # ymup 
    3 1.010000e-01 # yms 
    4 1.270000e+00 # ymc 
    5 4.700000e+00 # ymb 
    6 1.720000e+02 # ymt 
   11 5.110000e-04 # yme 
   13 1.056600e-01 # ymm 
   15 1.777000e+00 # ymtau 

###################################
## INFORMATION FOR DECAY
###################################
DECAY   6 1.508336e+00 # WT 
DECAY  23 2.495200e+00 # WZ 
DECAY  24 2.085000e+00 # WW 
DECAY  25 5.753088e-03 # WH 
## Dependent parameters, given by model restrictions.
## Those values should be edited following the 
## analytical expression. MG5 ignores those values 
## but they are important for interfacing the output of MG5
## to external program such as Pythia.
DECAY  1 0.000000 # d : 0.0 
DECAY  2 0.000000 # u : 0.0 
DECAY  3 0.000000 # s : 0.0 
DECAY  4 0.000000 # c : 0.0 
DECAY  5 0.000000 # b : 0.0 
DECAY  11 0.000000 # e- : 0.0 
DECAY  12 0.000000 # ve : 0.0 
DECAY  13 0.000000 # mu- : 0.0 
DECAY  14 0.000000 # vm : 0.0 
DECAY  15 0.000000 # ta- : 0.0 
DECAY  16 0.000000 # vt : 0.0 
DECAY  21 0.000000 # g : 0.0 
DECAY  22 0.000000 # a : 0.0 
DECAY  10030 0.308725 # zph : (gz__exp__2*MZph*(5 + cmath.sqrt(1 - (4*MT__exp__2)/MZph__exp__2)))/(144.*cmath.pi) 
DECAY  10031 0.132629 # zpl : (5*gz__exp__2*MZpl)/(144.*cmath.pi) 
#===========================================================
# QUANTUM NUMBERS OF NEW STATE(S) (NON SM PDG CODE)
#===========================================================

Block QNUMBERS 10030  # zph 
        1 0  # 3 times electric charge
        2 3  # number of spin states (2S+1)
        3 1  # colour rep (1: singlet, 3: triplet, 8: octet)
        4 0  # Particle/Antiparticle distinction (0=own anti)
Block QNUMBERS 10031  # zpl 
        1 0  # 3 times electric charge
        2 3  # number of spin states (2S+1)
        3 1  # colour rep (1: singlet, 3: triplet, 8: octet)
        4 0  # Particle/Antiparticle distinction (0=own anti)
</slha>
## END BANNER##
<MGGenerationInfo>
#  Number of Events        :         4156
#  Integrated weight (pb)  :  0.53371E-01
#  Max wgt                 :  0.18337E-04
#  Average wgt             :  0.12842E-04
</MGGenerationInfo>
</header>
<init>
     2212     2212  0.40000000000E+04  0.40000000000E+04 0 0  247000  247000 2   1
  0.53427606653E-01  0.11069728399E-03  0.18336810000E-04   0
</init>
<event>
 5   0  0.1712327E-04  0.1399131E+04  0.7818609E-02  0.8954448E-01
        2   -1    0    0  501    0  0.00000000000E+00  0.00000000000E+00  0.87497716749E+03  0.87497716749E+03  0.25500000920E-02 0.  1.
       -2   -1    0    0    0  501  0.00000000000E+00  0.00000000000E+00 -0.55931974838E+03  0.55931974839E+03  0.25500000920E-02 0. -1.
    10030    2    1    2    0    0  0.00000000000E+00  0.00000000000E+00  0.31565741911E+03  0.14342969159E+04  0.13991311721E+04 0.  0.
        1    1    3    3  502    0 -0.67973815509E+03  0.16231831374E+03  0.12539792415E+03  0.71001115052E+03  0.50400001928E-02 0. -1.
       -1    1    3    3    0  502  0.67973815509E+03 -0.16231831374E+03  0.19025949496E+03  0.72428576536E+03  0.50400001928E-02 0.  1.
</event>
<event>
 5   0  0.6671375E-05  0.1400884E+04  0.7818609E-02  0.8953179E-01
        3   -1    0    0  501    0  0.00000000000E+00  0.00000000000E+00  0.79934363828E+03  0.79934364466E+03  0.10100000352E+00 0. -1.
       -3   -1    0    0    0  501  0.00000000000E+00  0.00000000000E+00 -0.61377715676E+03  0.61377716507E+03  0.10100000352E+00 0.  1.
    10030    2    1    2    0    0  0.00000000000E+00  0.00000000000E+00  0.18556648152E+03  0.14131208097E+04  0.14008838295E+04 0.  0.
        4    1    3    3  502    0 -0.34748804123E+03 -0.58873801671E+03  0.24661741352E+03  0.72676141385E+03  0.12699999809E+01 0.  1.
       -4    1    3    3    0  502  0.34748804123E+03  0.58873801671E+03 -0.61050932003E+02  0.68635939588E+03  0.12699999809E+01 0. -1.
</event>
<event>
 5   0  0.1712327E-04  0.1400154E+04  0.7818609E-02  0.8953707E-01
       -2   -1    0    0    0  501  0.00000000000E+00  0.00000000000E+00  0.92944551658E+03  0.92944551658E+03  0.25500000920E-02 0. -1.
        2   -1    0    0  501    0  0.00000000000E+00  0.00000000000E+00 -0.52731185141E+03  0.52731185142E+03  0.25500000920E-02 0.  1.
    10030    2    1    2    0    0  0.00000000000E+00  0.00000000000E+00  0.40213366517E+03  0.14567573680E+04  0.14001537575E+04 0.  0.
        1    1    3    3  502    0 -0.28574994231E+03 -0.24075851180E+03 -0.41488857896E+03  0.55834597116E+03  0.50400001928E-02 0.  1.
       -1    1    3    3    0  502  0.28574994231E+03  0.24075851180E+03  0.81702224413E+03  0.89841139683E+03  0.50400001928E-02 0. -1.
</event>
<event>
 5   0  0.1766237E-04  0.1397411E+04  0.7818609E-02  0.8955695E-01
        2   -1    0    0  501    0  0.00000000000E+00  0.00000000000E+00  0.86925787411E+03  0.86925787411E+03  0.25500000920E-02 0. -1.
       -2   -1    0    0    0  501  0.00000000000E+00  0.00000000000E+00 -0.56161651043E+03  0.56161651044E+03  0.25500000920E-02 0.  1.
    10030    2    1    2    0    0  0.00000000000E+00  0.00000000000E+00  0.30764136368E+03  0.14308743846E+04  0.13974112837E+04 0.  0.
        3    1    3    3  502    0 -0.62365603950E+03  0.29302626234E+03  0.35386240500E+02  0.68997350837E+03  0.10100000352E+00 0. -1.
       -3    1    3    3    0  502  0.62365603950E+03 -0.29302626234E+03  0.27225512318E+03  0.74090087618E+03  0.10100000352E+00 0.  1.
</event>
<event>
 5   0  0.1712327E-04  0.1397012E+04  0.7818609E-02  0.8955984E-01
        2   -1    0    0  501    0  0.00000000000E+00  0.00000000000E+00  0.12402410833E+04  0.12402410833E+04  0.25500000920E-02 0.  1.
       -2   -1    0    0    0  501  0.00000000000E+00  0.00000000000E+00 -0.39339973354E+03  0.39339973355E+03  0.25500000920E-02 0. -1.
    10030    2    1    2    0    0  0.00000000000E+00  0.00000000000E+00  0.84684134975E+03  0.16336408168E+04  0.13970118277E+04 0.  0.
        1    1    3    3  502    0  0.40863319971E+03  0.47311684618E+03  0.59049970859E+02  0.62793912215E+03  0.50400001928E-02 0.  1.
       -1    1    3    3    0  502 -0.40863319971E+03 -0.47311684618E+03  0.78779137889E+03  0.10057016947E+04  0.50400001928E-02 0. -1.
</event>
<event>
 5   0  0.1766237E-04  0.1408829E+04  0.7818609E-02  0.8947453E-01
        2   -1    0    0  501    0  0.00000000000E+00  0.00000000000E+00  0.35713216126E+03  0.35713216127E+03  0.25500000920E-02 0.  1.
       -2   -1    0    0    0  501  0.00000000000E+00  0.00000000000E+00 -0.13894002540E+04  0.13894002540E+04  0.25500000920E-02 0. -1.
    10030    2    1    2    0    0  0.00000000000E+00  0.00000000000E+00 -0.10322680928E+04  0.17465324153E+04  0.14088286135E+04 0.  0.
        3    1    3    3  502    0  0.70080846192E+03  0.48487558176E+02 -0.58074115632E+03  0.91145150417E+03  0.10100000352E+00 0.  1.
       -3    1    3    3    0  502 -0.70080846192E+03 -0.48487558176E+02 -0.45152693644E+03  0.83508091113E+03  0.10100000352E+00 0. -1.
</event>
<event>
 5   0  0.9260916E-05  0.1399770E+04  0.7818609E-02  0.8953985E-01
        1   -1    0    0  501    0  0.00000000000E+00  0.00000000000E+00  0.44316622578E+03  0.44316622581E+03  0.50400001928E-02 0. -1.
       -1   -1    0    0    0  501  0.00000000000E+00  0.00000000000E+00 -0.11053163493E+04  0.11053163493E+04  0.50400001928E-02 0.  1.
    10030    2    1    2    0    0  0.00000000000E+00  0.00000000000E+00 -0.66215012354E+03  0.15484825751E+04  0.13997698023E+04 0.  0.
        1    1    3    3  502    0 -0.68896883047E+03  0.12268217190E+03 -0.31947744824E+03  0.76928200591E+03  0.50400001928E-02 0.  1.
       -1    1    3    3    0  502  0.68896883047E+03 -0.12268217190E+03 -0.34267267530E+03  0.77920056923E+03  0.50400001928E-02 0. -1.
</event>
<event>
 5   0  0.9900839E-05  0.1399670E+04  0.7818609E-02  0.8954057E-01
       -1   -1    0    0    0  501  0.00000000000E+00  0.00000000000E+00  0.33590803546E+03  0.33590803550E+03  0.50400001928E-02 0. -1.
        1   -1    0    0  501    0  0.00000000000E+00  0.00000000000E+00 -0.14580454695E+04  0.14580454695E+04  0.50400001928E-02 0.  1.
    10030    2    1    2    0    0  0.00000000000E+00  0.00000000000E+00 -0.11221374340E+04  0.17939535050E+04  0.13996702316E+04 0.  0.
        3    1    3    3  502    0  0.16631556627E+03  0.33751072777E+03 -0.13173730873E+04  0.13700533641E+04  0.10100000352E+00 0.  1.
       -3    1    3    3    0  502 -0.16631556627E+03 -0.33751072777E+03  0.19523565331E+03  0.42390014092E+03  0.10100000352E+00 0. -1.
</event>
<event>
 5   0  0.1712327E-04  0.1410457E+04  0.7818609E-02  0.8946284E-01
        2   -1    0    0  501    0  0.00000000000E+00  0.00000000000E+00  0.21388713602E+04  0.21388713602E+04  0.25500000920E-02 0. -1.
       -2   -1    0    0    0  501  0.00000000000E+00  0.00000000000E+00 -0.23252786194E+03  0.23252786196E+03  0.25500000920E-02 0.  1.
    10030    2    1    2    0    0  0.00000000000E+00  0.00000000000E+00  0.19063434983E+04  0.23713992222E+04  0.14104569251E+04 0.  0.
        1    1    3    3  502    0 -0.31504825809E+03  0.32121269489E+03  0.40125711795E+02  0.45171127178E+03  0.50400001928E-02 0.  1.
       -1    1    3    3    0  502  0.31504825809E+03 -0.32121269489E+03  0.18662177865E+04  0.19196879504E+04  0.50400001928E-02 0. -1.
</event>
<event>
 5   0  0.9978422E-05  0.1399592E+04  0.7818609E-02  0.8954114E-01
        1   -1    0    0  501    0  0.00000000000E+00  0.00000000000E+00  0.29970187303E+03  0.29970187307E+03  0.50400001928E-02 0.  1.
       -1   -1    0    0    0  501  0.00000000000E+00  0.00000000000E+00 -0.16340056646E+04  0.16340056646E+04  0.50400001928E-02 0. -1.
    10030    2    1    2    0    0  0.00000000000E+00  0.00000000000E+00 -0.13343037916E+04  0.19337075377E+04  0.13995921667E+04 0.  0.
        2    1    3    3  502    0  0.95409739464E+02  0.54580809512E+03 -0.76591147124E+02  0.55935292875E+03  0.25500000920E-02 0.  1.
       -2    1    3    3    0  502 -0.95409739464E+02 -0.54580809512E+03 -0.12577126445E+04  0.13743546090E+04  0.25500000920E-02 0. -1.
</event>
<event>
 5   0  0.1712327E-04  0.1402639E+04  0.7818609E-02  0.8951911E-01
       -2   -1    0    0    0  501  0.00000000000E+00  0.00000000000E+00  0.58379365098E+03  0.58379365098E+03  0.25500000920E-02 0.  1.
        2   -1    0    0  501    0  0.00000000000E+00  0.00000000000E+00 -0.84250452364E+03  0.84250452365E+03  0.25500000920E-02 0. -1.
    10030    2    1    2    0    0  0.00000000000E+00  0.00000000000E+00 -0.25871087267E+03  0.14262981746E+04  0.14026386446E+04 0.  0.
        1    1    3    3  502    0  0.56667996248E+03 -0.33901248208E+03 -0.36954545889E+03  0.75671625402E+03  0.50400001928E-02 0. -1.
       -1    1    3    3    0  502 -0.56667996248E+03  0.33901248208E+03  0.11083458622E+03  0.66958192061E+03  0.50400001928E-02 0.  1.
</event>
<event>
 5   0  0.6671375E-05  0.1402032E+04  0.7818609E-02  0.8952349E-01
       -4   -1    0    0    0  501  0.00000000000E+00  0.00000000000E+00  0.58446183382E+03  0.58446321363E+03  0.12699999809E+01 0. -1.
        4   -1    0    0  501    0  0.00000000000E+00  0.00000000000E+00 -0.84081071872E+03  0.84081167785E+03  0.12699999809E+01 0.  1.
    10030    2    1    2    0    0  0.00000000000E+00  0.00000000000E+00 -0.25634888490E+03  0.14252748915E+04  0.14020320130E+04 0.  0.
        1    1    3    3  502    0  0.39583337280E+03  0.27437607848E+03 -0.64598812968E+03  0.80577103148E+03  0.50400001928E-02 0.  1.
       -1    1    3    3    0  502 -0.39583337280E+03 -0.27437607848E+03  0.38963924478E+03  0.61950386000E+03  0.50400001928E-02 0. -1.
</event>
<event>
 5   0  0.1780171E-04  0.1399973E+04  0.7818609E-02  0.8953838E-01
       -2   -1    0    0    0  501  0.00000000000E+00  0.00000000000E+00  0.66774201714E+03  0.66774201714E+03  0.25500000920E-02 0.  1.
        2   -1    0    0  501    0  0.00000000000E+00  0.00000000000E+00 -0.73378825887E+03  0.73378825888E+03  0.25500000920E-02 0. -1.
    10030    2    1    2    0    0  0.00000000000E+00  0.00000000000E+00 -0.66046241738E+02  0.14015302760E+04  0.13999732171E+04 0.  0.
        5    1    3    3  502    0 -0.43197432321E+03  0.20651907830E+03 -0.54418597105E+03  0.72485336910E+03  0.46999998093E+01 0. -1.
       -5    1    3    3    0  502  0.43197432321E+03 -0.20651907830E+03  0.47813972931E+03  0.67667690692E+03  0.46999998093E+01 0.  1.
</event>
<event>
 5   0  0.6671375E-05  0.1397358E+04  0.7818609E-02  0.8955733E-01
        1   -1    0    0  501    0  0.00000000000E+00  0.00000000000E+00  0.98804357711E+03  0.98804357712E+03  0.50400001928E-02 0.  1.
       -1   -1    0    0    0  501  0.00000000000E+00  0.00000000000E+00 -0.49405967281E+03  0.49405967284E+03  0.50400001928E-02 0. -1.
    10030    2    1    2    0    0  0.00000000000E+00  0.00000000000E+00  0.49398390430E+03  0.14821032500E+04  0.13973582024E+04 0.  0.
        5    1    3    3  502    0  0.18260859145E+03  0.28350935888E+03  0.89598890458E+03  0.95736182365E+03  0.46999998093E+01 0.  1.
       -5    1    3    3    0  502 -0.18260859145E+03 -0.28350935888E+03 -0.40200500029E+03  0.52474142632E+03  0.46999998093E+01 0. -1.
</event>
<event>
 5   0  0.6671375E-05  0.1402129E+04  0.7818609E-02  0.8952279E-01
        1   -1    0    0  501    0  0.00000000000E+00  0.00000000000E+00  0.11929595565E+04  0.11929595565E+04  0.50400001928E-02 0. -1.
       -1   -1    0    0    0  501  0.00000000000E+00  0.00000000000E+00 -0.41199312051E+03  0.41199312054E+03  0.50400001928E-02 0.  1.
    10030    2    1    2    0    0  0.00000000000E+00  0.00000000000E+00  0.78096643600E+03  0.16049526771E+04  0.14021285681E+04 0.  0.
        5    1    3    3  502    0 -0.66911648458E+03 -0.68362376156E+02  0.16420395355E+03  0.69236934707E+03  0.46999998093E+01 0.  1.
       -5    1    3    3    0  502  0.66911648458E+03  0.68362376156E+02  0.61676248245E+03  0.91258332998E+03  0.46999998093E+01 0. -1.
</event>
<event>
 5   0  0.6671375E-05  0.1401110E+04  0.7818609E-02  0.8953015E-01
       -3   -1    0    0    0  501  0.00000000000E+00  0.00000000000E+00  0.41368299039E+03  0.41368300272E+03  0.10100000352E+00 0. -1.
        3   -1    0    0  501    0  0.00000000000E+00  0.00000000000E+00 -0.11863608162E+04  0.11863608205E+04  0.10100000352E+00 0.  1.
    10030    2    1    2    0    0  0.00000000000E+00  0.00000000000E+00 -0.77267782581E+03  0.16000438232E+04  0.14011099934E+04 0.  0.
        5    1    3    3  502    0 -0.68869516726E+03 -0.97410513750E+02 -0.48164744913E+03  0.84604739633E+03  0.46999998093E+01 0. -1.
       -5    1    3    3    0  502  0.68869516726E+03  0.97410513750E+02 -0.29103037669E+03  0.75399642688E+03  0.46999998093E+01 0.  1.
</event>
<event>
 5   0  0.9260916E-05  0.1401326E+04  0.7818609E-02  0.8952859E-01
       -1   -1    0    0    0  501  0.00000000000E+00  0.00000000000E+00  0.29276302345E+03  0.29276302349E+03  0.50400001928E-02 0. -1.
        1   -1    0    0  501    0  0.00000000000E+00  0.00000000000E+00 -0.16768814011E+04  0.16768814011E+04  0.50400001928E-02 0.  1.
    10030    2    1    2    0    0  0.00000000000E+00  0.00000000000E+00 -0.13841183777E+04  0.19696444246E+04  0.14013263275E+04 0.  0.
        1    1    3    3  502    0  0.18807389406E+03  0.34701097375E+03  0.12163643928E+03  0.41301795229E+03  0.50400001928E-02 0. -1.
       -1    1    3    3    0  502 -0.18807389406E+03 -0.34701097375E+03 -0.15057548170E+04  0.15566264723E+04  0.50400001928E-02 0.  1.
</event>
<event>
 5   0  0.9900839E-05  0.1405469E+04  0.7818609E-02  0.8949869E-01
        1   -1    0    0  501    0  0.00000000000E+00  0.00000000000E+00  0.69957839828E+03  0.69957839829E+03  0.50400001928E-02 0. -1.
       -1   -1    0    0    0  501  0.00000000000E+00  0.00000000000E+00 -0.70590465468E+03  0.70590465470E+03  0.50400001928E-02 0.  1.
    10030    2    1    2    0    0  0.00000000000E+00  0.00000000000E+00 -0.63262564076E+01  0.14054830530E+04  0.14054688153E+04 0.  0.
        3    1    3    3  502    0 -0.13683897552E+03  0.65859820123E+03  0.20020840264E+03  0.70182612560E+03  0.10100000352E+00 0.  1.
       -3    1    3    3    0  502  0.13683897552E+03 -0.65859820123E+03 -0.20653465905E+03  0.70365692740E+03  0.10100000352E+00 0. -1.
</event>
<event>
 5   0  0.9900839E-05  0.1401091E+04  0.7818609E-02  0.8953030E-01
       -1   -1    0    0    0  501  0.00000000000E+00  0.00000000000E+00  0.28118986424E+03  0.28118986428E+03  0.50400001928E-02 0.  1.
        1   -1    0    0  501    0  0.00000000000E+00  0.00000000000E+00 -0.17453106155E+04  0.17453106155E+04  0.50400001928E-02 0. -1.
    10030    2    1    2    0    0  0.00000000000E+00  0.00000000000E+00 -0.14641207513E+04  0.20265004798E+04  0.14010905111E+04 0.  0.
        3    1    3    3  502    0  0.13060064750E+03 -0.65948511494E+03 -0.10169133830E+04  0.12190529048E+04  0.10100000352E+00 0.  1.
       -3    1    3    3    0  502 -0.13060064750E+03  0.65948511494E+03 -0.44720736827E+03  0.80744757501E+03  0.10100000352E+00 0. -1.
</event>
<event>
 5   0  0.1712327E-04  0.1400179E+04  0.7818609E-02  0.8953689E-01
        2   -1    0    0  501    0  0.00000000000E+00  0.00000000000E+00  0.14715321568E+04  0.14715321568E+04  0.25500000920E-02 0. -1.
       -2   -1    0    0    0  501  0.00000000000E+00  0.00000000000E+00 -0.33307144937E+03  0.33307144938E+03  0.25500000920E-02 0.  1.
    10030    2    1    2    0    0  0.00000000000E+00  0.00000000000E+00  0.11384607074E+04  0.18046036062E+04  0.14001790575E+04 0.  0.
        1    1    3    3  502    0  0.45179637207E+03  0.33386469335E+03  0.11076804038E+04  0.12419909309E+04  0.50400001928E-02 0. -1.
       -1    1    3    3    0  502 -0.45179637207E+03 -0.33386469335E+03  0.30780303570E+02  0.56261267529E+03  0.50400001928E-02 0.  1.
</event>
<event>
 5   0  0.9828111E-05  0.1399554E+04  0.7818609E-02  0.8954142E-01
       -1   -1    0    0    0  501  0.00000000000E+00  0.00000000000E+00  0.57205162472E+03  0.57205162474E+03  0.50400001928E-02 0. -1.
        1   -1    0    0  501    0  0.00000000000E+00  0.00000000000E+00 -0.85602006689E+03  0.85602006691E+03  0.50400001928E-02 0.  1.
    10030    2    1    2    0    0  0.00000000000E+00  0.00000000000E+00 -0.28396844217E+03  0.14280716916E+04  0.13995537433E+04 0.  0.
        4    1    3    3  502    0 -0.51374242431E+03  0.47066860456E+03 -0.75653132308E+02  0.70084607667E+03  0.12699999809E+01 0. -1.
       -4    1    3    3    0  502  0.51374242431E+03 -0.47066860456E+03 -0.20831530987E+03  0.72722561498E+03  0.12699999809E+01 0.  1.
</event>
<event>
 5   0  0.9260916E-05  0.1398715E+04  0.7818609E-02  0.8954749E-01
        1   -1    0    0  501    0  0.00000000000E+00  0.00000000000E+00  0.14669254969E+04  0.14669254969E+04  0.50400001928E-02 0.  1.
       -1   -1    0    0    0  501  0.00000000000E+00  0.00000000000E+00 -0.33341912548E+03  0.33341912552E+03  0.50400001928E-02 0. -1.
    10030    2    1    2    0    0  0.00000000000E+00  0.00000000000E+00  0.11335063714E+04  0.18003446224E+04  0.13987151481E+04 0.  0.
        1    1    3    3  502    0 -0.60157240276E+03  0.31711833082E+03  0.77686749027E+03  0.10324613741E+04  0.50400001928E-02 0.  1.
       -1    1    3    3    0  502  0.60157240276E+03 -0.31711833082E+03  0.35663888113E+03  0.76788324833E+03  0.50400001928E-02 0. -1.
</event>
<event>
 5   0  0.1794185E-04  0.1400616E+04  0.7818609E-02  0.8953373E-01
        2   -1    0    0  501    0  0.00000000000E+00  0.00000000000E+00  0.99422330316E+03  0.99422330316E+03  0.25500000920E-02 0.  1.
       -2   -1    0    0    0  501  0.00000000000E+00  0.00000000000E+00 -0.49328055219E+03  0.49328055220E+03  0.25500000920E-02 0. -1.
    10030    2    1    2    0    0  0.00000000000E+00  0.00000000000E+00  0.50094275096E+03  0.14875038554E+04  0.14006156075E+04 0.  0.
        2    1    3    3  502    0  0.37569301220E+02  0.33081095534E+03 -0.40385270588E+03  0.52339693219E+03  0.25500000920E-02 0. -1.
       -2    1    3    3    0  502 -0.37569301220E+02 -0.33081095534E+03  0.90479545685E+03  0.96410692317E+03  0.25500000920E-02 0.  1.
</event>
<event>
 5   0  0.9900839E-05  0.1397788E+04  0.7818609E-02  0.8955421E-01
       -1   -1    0    0    0  501  0.00000000000E+00  0.00000000000E+00  0.37244661070E+03  0.37244661074E+03  0.50400001928E-02 0.  1.
        1   -1    0    0  501    0  0.00000000000E+00  0.00000000000E+00 -0.13114706021E+04  0.13114706021E+04  0.50400001928E-02 0. -1.
    10030    2    1    2    0    0  0.00000000000E+00  0.00000000000E+00 -0.93902399137E+03  0.16839172128E+04  0.13977879393E+04 0.  0.
        3    1    3    3  502    0  0.40927373760E+03  0.56641330835E+03 -0.45611094626E+03  0.83448561022E+03  0.10100000352E+00 0.  1.
       -3    1    3    3    0  502 -0.40927373760E+03 -0.56641330835E+03 -0.48291304511E+03  0.84943160260E+03  0.10100000352E+00 0. -1.
</event>
<event>
 5   0  0.6671375E-05  0.1402264E+04  0.7818609E-02  0.8952181E-01
       -1   -1    0    0    0  501  0.00000000000E+00  0.00000000000E+00  0.35104462695E+03  0.35104462698E+03  0.50400001928E-02 0. -1.
        1   -1    0    0  501    0  0.00000000000E+00  0.00000000000E+00 -0.14003521431E+04  0.14003521431E+04  0.50400001928E-02 0.  1.
    10030    2    1    2    0    0  0.00000000000E+00  0.00000000000E+00 -0.10493075161E+04  0.17513967701E+04  0.14022640204E+04 0.  0.
        5    1    3    3  502    0  0.55232611371E+03 -0.11234589325E+03 -0.10454614729E+04  0.11877278800E+04  0.46999998093E+01 0.  1.
       -5    1    3    3    0  502 -0.55232611371E+03  0.11234589325E+03 -0.38460432620E+01  0.56366889009E+03  0.46999998093E+01 0. -1.
</event>
<event>
 5   0  0.1766237E-04  0.1396123E+04  0.7818609E-02  0.8956630E-01
       -2   -1    0    0    0  501  0.00000000000E+00  0.00000000000E+00  0.56539032474E+03  0.56539032474E+03  0.25500000920E-02 0.  1.
        2   -1    0    0  501    0  0.00000000000E+00  0.00000000000E+00 -0.86186433328E+03  0.86186433328E+03  0.25500000920E-02 0. -1.
    10030    2    1    2    0    0  0.00000000000E+00  0.00000000000E+00 -0.29647400854E+03  0.14272546580E+04  0.13961228532E+04 0.  0.
        3    1    3    3  502    0  0.52373149837E+03 -0.21220769410E+03 -0.56720860801E+03  0.80065748171E+03  0.10100000352E+00 0. -1.
       -3    1    3    3    0  502 -0.52373149837E+03  0.21220769410E+03  0.27073459947E+03  0.62659717632E+03  0.10100000352E+00 0.  1.
</event>
<event>
 5   0  0.9260916E-05  0.1396772E+04  0.7818609E-02  0.8956158E-01
        1   -1    0    0  501    0  0.00000000000E+00  0.00000000000E+00  0.59381504511E+03  0.59381504513E+03  0.50400001928E-02 0. -1.
       -1   -1    0    0    0  501  0.00000000000E+00  0.00000000000E+00 -0.82137224254E+03  0.82137224256E+03  0.50400001928E-02 0.  1.
    10030    2    1    2    0    0  0.00000000000E+00  0.00000000000E+00 -0.22755719744E+03  0.14151872877E+04  0.13967722725E+04 0.  0.
        1    1    3    3  502    0  0.65912703722E+03  0.20947296219E+03 -0.15464129832E+02  0.69178501894E+03  0.50400001928E-02 0.  1.
       -1    1    3    3    0  502 -0.65912703722E+03 -0.20947296219E+03 -0.21209306761E+03  0.72340226875E+03  0.50400001928E-02 0. -1.
</event>
<event>
 5   0  0.1794185E-04  0.1395609E+04  0.7818609E-02  0.8957003E-01
        2   -1    0    0  501    0  0.00000000000E+00  0.00000000000E+00  0.40389420379E+03  0.40389420380E+03  0.25500000920E-02 0. -1.
       -2   -1    0    0    0  501  0.00000000000E+00  0.00000000000E+00 -0.12055916110E+04  0.12055916110E+04  0.25500000920E-02 0.  1.
    10030    2    1    2    0    0  0.00000000000E+00  0.00000000000E+00 -0.80169740723E+03  0.16094858148E+04  0.13956094924E+04 0.  0.
        2    1    3    3  502    0  0.79466701572E+02 -0.26734466448E+02  0.39806416564E+03  0.40679819116E+03  0.25500000920E-02 0. -1.
       -2    1    3    3    0  502 -0.79466701572E+02  0.26734466448E+02 -0.11997615729E+04  0.12026876237E+04  0.25500000920E-02 0.  1.
</event>
<event>
 5   0  0.9978422E-05  0.1398125E+04  0.7818609E-02  0.8955177E-01
       -1   -1    0    0    0  501  0.00000000000E+00  0.00000000000E+00  0.44498352013E+03  0.44498352016E+03  0.50400001928E-02 0. -1.
        1   -1    0    0  501    0  0.00000000000E+00  0.00000000000E+00 -0.10982172588E+04  0.10982172588E+04  0.50400001928E-02 0.  1.
    10030    2    1    2    0    0  0.00000000000E+00  0.00000000000E+00 -0.65323373868E+03  0.15432007790E+04  0.13981252901E+04 0.  0.
        2    1    3    3  502    0  0.39975139138E+03 -0.48240604761E+03  0.15677883547E+02  0.62670771953E+03  0.25500000920E-02 0. -1.
       -2    1    3    3    0  502 -0.39975139138E+03  0.48240604761E+03 -0.66891162223E+03  0.91649305946E+03  0.25500000920E-02 0.  1.
</event>
<event>
 5   0  0.1766237E-04  0.1398266E+04  0.7818609E-02  0.8955075E-01
       -2   -1    0    0    0  501  0.00000000000E+00  0.00000000000E+00  0.28103782363E+03  0.28103782364E+03  0.25500000920E-02 0.  1.
        2   -1    0    0  501    0  0.00000000000E+00  0.00000000000E+00 -0.17392216602E+04  0.17392216602E+04  0.25500000920E-02 0. -1.
    10030    2    1    2    0    0  0.00000000000E+00  0.00000000000E+00 -0.14581838366E+04  0.20202594838E+04  0.13982661695E+04 0.  0.
        3    1    3    3  502    0 -0.62440122527E+02 -0.43732500793E+03  0.53835151686E+02  0.44502827463E+03  0.10100000352E+00 0.  1.
       -3    1    3    3    0  502  0.62440122527E+02  0.43732500793E+03 -0.15120189883E+04  0.15752312092E+04  0.10100000352E+00 0. -1.
</event>
<event>
 5   0  0.1780171E-04  0.1389647E+04  0.7818609E-02  0.8961347E-01
        2   -1    0    0  501    0  0.00000000000E+00  0.00000000000E+00  0.20520524581E+04  0.20520524581E+04  0.25500000920E-02 0. -1.
       -2   -1    0    0    0  501  0.00000000000E+00  0.00000000000E+00 -0.23526667308E+03  0.23526667309E+03  0.25500000920E-02 0.  1.
    10030    2    1    2    0    0  0.00000000000E+00  0.00000000000E+00  0.18167857850E+04  0.22873191312E+04  0.13896467966E+04 0.  0.
        5    1    3    3  502    0  0.18217842835E+03 -0.47510615366E+03  0.16871351282E+04  0.17622036964E+04  0.46999998093E+01 0. -1.
       -5    1    3    3    0  502 -0.18217842835E+03  0.47510615366E+03  0.12965065685E+03  0.52511543476E+03  0.46999998093E+01 0.  1.
</event>
<event>
 5   0  0.9978422E-05  0.1400122E+04  0.7818609E-02  0.8953730E-01
        1   -1    0    0  501    0  0.00000000000E+00  0.00000000000E+00  0.93914841677E+03  0.93914841679E+03  0.50400001928E-02 0. -1.
       -1   -1    0    0    0  501  0.00000000000E+00  0.00000000000E+00 -0.52184045968E+03  0.52184045970E+03  0.50400001928E-02 0.  1.
    10030    2    1    2    0    0  0.00000000000E+00  0.00000000000E+00  0.41730795709E+03  0.14609888765E+04  0.14001223397E+04 0.  0.
        2    1    3    3  502    0  0.12519534747E+03  0.60706800347E+03 -0.13088396380E+03  0.63351089008E+03  0.25500000920E-02 0.  1.
       -2    1    3    3    0  502 -0.12519534747E+03 -0.60706800347E+03  0.54819192089E+03  0.82747798641E+03  0.25500000920E-02 0. -1.
</event>
<event>
 5   0  0.1766237E-04  0.1400496E+04  0.7818609E-02  0.8953460E-01
        2   -1    0    0  501    0  0.00000000000E+00  0.00000000000E+00  0.14298366034E+04  0.14298366034E+04  0.25500000920E-02 0. -1.
       -2   -1    0    0    0  501  0.00000000000E+00  0.00000000000E+00 -0.34293912486E+03  0.34293912487E+03  0.25500000920E-02 0.  1.
    10030    2    1    2    0    0  0.00000000000E+00  0.00000000000E+00  0.10868974785E+04  0.17727757282E+04  0.14004955030E+04 0.  0.
        3    1    3    3  502    0 -0.28733188060E+03 -0.35411830287E+03  0.12161075405E+04  0.12987982685E+04  0.10100000352E+00 0. -1.
       -3    1    3    3    0  502  0.28733188060E+03  0.35411830287E+03 -0.12921006196E+03  0.47397745975E+03  0.10100000352E+00 0.  1.
</event>
<event>
 5   0  0.1712327E-04  0.1402467E+04  0.7818609E-02  0.8952035E-01
        2   -1    0    0  501    0  0.00000000000E+00  0.00000000000E+00  0.91167007608E+03  0.91167007609E+03  0.25500000920E-02 0. -1.
       -2   -1    0    0    0  501  0.00000000000E+00  0.00000000000E+00 -0.53937092913E+03  0.53937092914E+03  0.25500000920E-02 0.  1.
    10030    2    1    2    0    0  0.00000000000E+00  0.00000000000E+00  0.37229914695E+03  0.14510410052E+04  0.14024668780E+04 0.  0.
        1    1    3    3  502    0 -0.66832452945E+03 -0.19872735777E+03  0.10887616178E+03  0.70569416748E+03  0.50400001928E-02 0. -1.
       -1    1    3    3    0  502  0.66832452945E+03  0.19872735777E+03  0.26342298517E+03  0.74534683774E+03  0.50400001928E-02 0.  1.
</event>
<event>
 5   0  0.6671375E-05  0.1405417E+04  0.7818609E-02  0.8949907E-01
       -1   -1    0    0    0  501  0.00000000000E+00  0.00000000000E+00  0.34658146872E+03  0.34658146876E+03  0.50400001928E-02 0. -1.
        1   -1    0    0  501    0  0.00000000000E+00  0.00000000000E+00 -0.14247707185E+04  0.14247707185E+04  0.50400001928E-02 0.  1.
    10030    2    1    2    0    0  0.00000000000E+00  0.00000000000E+00 -0.10781892497E+04  0.17713521872E+04  0.14054168467E+04 0.  0.
        5    1    3    3  502    0  0.28282393025E+03 -0.15406822712E+03  0.24806038254E+03  0.40654942813E+03  0.46999998093E+01 0. -1.
       -5    1    3    3    0  502 -0.28282393025E+03  0.15406822712E+03 -0.13262496323E+04  0.13648027591E+04  0.46999998093E+01 0.  1.
</event>
<event>
 5   0  0.1766237E-04  0.1392978E+04  0.7818609E-02  0.8958917E-01
        2   -1    0    0  501    0  0.00000000000E+00  0.00000000000E+00  0.20451135163E+04  0.20451135163E+04  0.25500000920E-02 0. -1.
       -2   -1    0    0    0  501  0.00000000000E+00  0.00000000000E+00 -0.23719820771E+03  0.23719820772E+03  0.25500000920E-02 0.  1.
    10030    2    1    2    0    0  0.00000000000E+00  0.00000000000E+00  0.18079153086E+04  0.22823117240E+04  0.13929784789E+04 0.  0.
        3    1    3    3  502    0 -0.48360314017E+03 -0.10439746339E+03  0.17071717393E+04  0.17774155916E+04  0.10100000352E+00 0. -1.
       -3    1    3    3    0  502  0.48360314017E+03  0.10439746339E+03  0.10074356922E+03  0.50489613237E+03  0.10100000352E+00 0.  1.
</event>
<event>
 5   0  0.9828111E-05  0.1396295E+04  0.7818609E-02  0.8956505E-01
       -1   -1    0    0    0  501  0.00000000000E+00  0.00000000000E+00  0.35020078885E+03  0.35020078889E+03  0.50400001928E-02 0.  1.
        1   -1    0    0  501    0  0.00000000000E+00  0.00000000000E+00 -0.13918008244E+04  0.13918008245E+04  0.50400001928E-02 0. -1.
    10030    2    1    2    0    0  0.00000000000E+00  0.00000000000E+00 -0.10416000356E+04  0.17420016133E+04  0.13962947349E+04 0.  0.
        4    1    3    3  502    0 -0.78183911600E+02  0.55151064749E+03 -0.10458724885E+04  0.11849588995E+04  0.12699999809E+01 0. -1.
       -4    1    3    3    0  502  0.78183911600E+02 -0.55151064749E+03  0.42724529120E+01  0.55704271387E+03  0.12699999809E+01 0.  1.
</event>
<event>
 5   0  0.9260916E-05  0.1402532E+04  0.7818609E-02  0.8951988E-01
        1   -1    0    0  501    0  0.00000000000E+00  0.00000000000E+00  0.55166178195E+03  0.55166178197E+03  0.50400001928E-02 0. -1.
       -1   -1    0    0    0  501  0.00000000000E+00  0.00000000000E+00 -0.89144147907E+03  0.89144147908E+03  0.50400001928E-02 0.  1.
    10030    2    1    2    0    0  0.00000000000E+00  0.00000000000E+00 -0.33977969712E+03  0.14431032611E+04  0.14025322740E+04 0.  0.
        1    1    3    3  502    0  0.21178078282E+03  0.38851016485E+03  0.38989081057E+03  0.58975087313E+03  0.50400001928E-02 0. -1.
       -1    1    3    3    0  502 -0.21178078282E+03 -0.38851016485E+03 -0.72967050769E+03  0.85335238793E+03  0.50400001928E-02 0.  1.
</event>
<event>
 5   0  0.9900839E-05  0.1408225E+04  0.7818609E-02  0.8947886E-01
        1   -1    0    0  501    0  0.00000000000E+00  0.00000000000E+00  0.92008851994E+03  0.92008851995E+03  0.50400001928E-02 0. -1.
       -1   -1    0    0    0  501  0.00000000000E+00  0.00000000000E+00 -0.53883331985E+03  0.53883331988E+03  0.50400001928E-02 0.  1.
    10030    2    1    2    0    0  0.00000000000E+00  0.00000000000E+00  0.38125520009E+03  0.14589218398E+04  0.14082249135E+04 0.  0.
        3    1    3    3  502    0 -0.55264740865E+03  0.41607945806E+03  0.54626850616E+02  0.69392029565E+03  0.10100000352E+00 0.  1.
       -3    1    3    3    0  502  0.55264740865E+03 -0.41607945806E+03  0.32662834947E+03  0.76500154418E+03  0.10100000352E+00 0. -1.
</event>
<event>
 5   0  0.1833681E-04  0.1395161E+04  0.7818609E-02  0.8957328E-01
        2   -1    0    0  501    0  0.00000000000E+00  0.00000000000E+00  0.33539884994E+03  0.33539884995E+03  0.25500000920E-02 0.  1.
       -2   -1    0    0    0  501  0.00000000000E+00  0.00000000000E+00 -0.14508661228E+04  0.14508661228E+04  0.25500000920E-02 0. -1.
    10030    2    1    2    0    0  0.00000000000E+00  0.00000000000E+00 -0.11154672729E+04  0.17862649728E+04  0.13951613943E+04 0.  0.
        4    1    3    3  502    0 -0.16343712274E+02  0.38013206713E+03 -0.13063150505E+04  0.13605984454E+04  0.12699999809E+01 0. -1.
       -4    1    3    3    0  502  0.16343712274E+02 -0.38013206713E+03  0.19084777768E+03  0.42566652739E+03  0.12699999809E+01 0.  1.
</event>
<event>
 5   0  0.1833681E-04  0.1399744E+04  0.7818609E-02  0.8954004E-01
       -2   -1    0    0    0  501  0.00000000000E+00  0.00000000000E+00  0.32039983986E+03  0.32039983987E+03  0.25500000920E-02 0. -1.
        2   -1    0    0  501    0  0.00000000000E+00  0.00000000000E+00 -0.15287801462E+04  0.15287801462E+04  0.25500000920E-02 0.  1.
    10030    2    1    2    0    0  0.00000000000E+00  0.00000000000E+00 -0.12083803063E+04  0.18491799861E+04  0.13997441395E+04 0.  0.
        4    1    3    3  502    0 -0.20759666287E+02 -0.24488150735E+03  0.26151970004E+03  0.35887613851E+03  0.12699999809E+01 0. -1.
       -4    1    3    3    0  502  0.20759666287E+02  0.24488150735E+03 -0.14699000064E+04  0.14903038475E+04  0.12699999809E+01 0.  1.
</event>
<event>
 5   0  0.6671375E-05  0.1399352E+04  0.7818609E-02  0.8954288E-01
       -4   -1    0    0    0  501  0.00000000000E+00  0.00000000000E+00  0.37909120663E+03  0.37909333395E+03  0.12699999809E+01 0.  1.
        4   -1    0    0  501    0  0.00000000000E+00  0.00000000000E+00 -0.12913626401E+04  0.12913632645E+04  0.12699999809E+01 0. -1.
    10030    2    1    2    0    0  0.00000000000E+00  0.00000000000E+00 -0.91227143342E+03  0.16704565985E+04  0.13993520212E+04 0.  0.
        5    1    3    3  502    0  0.28114810938E+03 -0.12042810440E+03  0.29504309637E+03  0.42499377225E+03  0.46999998093E+01 0.  1.
       -5    1    3    3    0  502 -0.28114810938E+03  0.12042810440E+03 -0.12073145298E+04  0.12454628263E+04  0.46999998093E+01 0. -1.
</event>
<event>
 5   0  0.9900839E-05  0.1396906E+04  0.7818609E-02  0.8956061E-01
        1   -1    0    0  501    0  0.00000000000E+00  0.00000000000E+00  0.73597034824E+03  0.73597034826E+03  0.50400001928E-02 0. -1.
       -1   -1    0    0    0  501  0.00000000000E+00  0.00000000000E+00 -0.66284784399E+03  0.66284784401E+03  0.50400001928E-02 0.  1.
    10030    2    1    2    0    0  0.00000000000E+00  0.00000000000E+00  0.73122504252E+02  0.13988181923E+04  0.13969056641E+04 0.  0.
        3    1    3    3  502    0  0.80755425862E+02 -0.23274724907E+02  0.73088867351E+03  0.73570470631E+03  0.10100000352E+00 0. -1.
       -3    1    3    3    0  502 -0.80755425862E+02  0.23274724907E+02 -0.65776616926E+03  0.66311348595E+03  0.10100000352E+00 0.  1.
</event>
<event>
 5   0  0.6671375E-05  0.1402212E+04  0.7818609E-02  0.8952219E-01
        1   -1    0    0  501    0  0.00000000000E+00  0.00000000000E+00  0.14778141054E+04  0.14778141054E+04  0.50400001928E-02 0. -1.
       -1   -1    0    0    0  501  0.00000000000E+00  0.00000000000E+00 -0.33261953895E+03  0.33261953898E+03  0.50400001928E-02 0.  1.
    10030    2    1    2    0    0  0.00000000000E+00  0.00000000000E+00  0.11451945665E+04  0.18104336444E+04  0.14022123184E+04 0.  0.
        5    1    3    3  502    0 -0.41045016750E+03  0.20393249242E+03 -0.11239370125E+03  0.47192397221E+03  0.46999998093E+01 0.  1.
       -5    1    3    3    0  502  0.41045016750E+03 -0.20393249242E+03  0.12575882677E+04  0.13385096722E+04  0.46999998093E+01 0. -1.
</event>
<event>
 5   0  0.1794185E-04  0.1404274E+04  0.7818609E-02  0.8950731E-01
       -2   -1    0    0    0  501  0.00000000000E+00  0.00000000000E+00  0.63300505113E+03  0.63300505113E+03  0.25500000920E-02 0. -1.
        2   -1    0    0  501    0  0.00000000000E+00  0.00000000000E+00 -0.77881849243E+03  0.77881849243E+03  0.25500000920E-02 0.  1.
    10030    2    1    2    0    0  0.00000000000E+00  0.00000000000E+00 -0.14581344130E+03  0.14118235436E+04  0.14042735341E+04 0.  0.
        2    1    3    3  502    0  0.48937705096E+03  0.32117890315E+03  0.31692824666E+03  0.66564953194E+03  0.25500000920E-02 0. -1.
       -2    1    3    3    0  502 -0.48937705096E+03 -0.32117890315E+03 -0.46274168796E+03  0.74617401162E+03  0.25500000920E-02 0.  1.
</event>
<event>
 5   0  0.1766237E-04  0.1380983E+04  0.7818609E-02  0.8967700E-01
        2   -1    0    0  501    0  0.00000000000E+00  0.00000000000E+00  0.14501383183E+04  0.14501383183E+04  0.25500000920E-02 0.  1.
       -2   -1    0    0    0  501  0.00000000000E+00  0.00000000000E+00 -0.32878128325E+03  0.32878128326E+03  0.25500000920E-02 0. -1.
    10030    2    1    2    0    0  0.00000000000E+00  0.00000000000E+00  0.11213570350E+04  0.17789196016E+04  0.13809827475E+04 0.  0.
        3    1    3    3  502    0 -0.45634304663E+03  0.41052468095E+02  0.12261000126E+04  0.13089138751E+04  0.10100000352E+00 0.  1.
       -3    1    3    3    0  502  0.45634304663E+03 -0.41052468095E+02 -0.10474297757E+03  0.47000572645E+03  0.10100000352E+00 0. -1.
</event>
<event>
 5   0  0.1712327E-04  0.1399903E+04  0.7818609E-02  0.8953889E-01
       -2   -1    0    0    0  501  0.00000000000E+00  0.00000000000E+00  0.51153243928E+03  0.51153243929E+03  0.25500000920E-02 0.  1.
        2   -1    0    0  501    0  0.00000000000E+00  0.00000000000E+00 -0.95777328523E+03  0.95777328524E+03  0.25500000920E-02 0. -1.
    10030    2    1    2    0    0  0.00000000000E+00  0.00000000000E+00 -0.44624084595E+03  0.14693057245E+04  0.13999030036E+04 0.  0.
        1    1    3    3  502    0 -0.24553570671E+03  0.47520606046E+03  0.25073011262E+03  0.59074035969E+03  0.50400001928E-02 0.  1.
       -1    1    3    3    0  502  0.24553570671E+03 -0.47520606046E+03 -0.69697095857E+03  0.87856536483E+03  0.50400001928E-02 0. -1.
</event>
<event>
 5   0  0.1794185E-04  0.1398638E+04  0.7818609E-02  0.8954805E-01
        2   -1    0    0  501    0  0.00000000000E+00  0.00000000000E+00  0.63562146452E+03  0.63562146452E+03  0.25500000920E-02 0. -1.
       -2   -1    0    0    0  501  0.00000000000E+00  0.00000000000E+00 -0.76940006047E+03  0.76940006048E+03  0.25500000920E-02 0.  1.
    10030    2    1    2    0    0  0.00000000000E+00  0.00000000000E+00 -0.13377859596E+03  0.14050215250E+04  0.13986381852E+04 0.  0.
        2    1    3    3  502    0  0.49297799040E+03 -0.20169232999E+03  0.38832351674E+03  0.65916784559E+03  0.25500000920E-02 0. -1.
       -2    1    3    3    0  502 -0.49297799040E+03  0.20169232999E+03 -0.52210211270E+03  0.74585367941E+03  0.25500000920E-02 0.  1.
</event>
<event>
 5   0  0.1766237E-04  0.1401999E+04  0.7818609E-02  0.8952373E-01
       -2   -1    0    0    0  501  0.00000000000E+00  0.00000000000E+00  0.21500519281E+03  0.21500519283E+03  0.25500000920E-02 0.  1.
        2   -1    0    0  501    0  0.00000000000E+00  0.00000000000E+00 -0.22855281659E+04  0.22855281659E+04  0.25500000920E-02 0. -1.
    10030    2    1    2    0    0  0.00000000000E+00  0.00000000000E+00 -0.20705229731E+04  0.25005333587E+04  0.14019991783E+04 0.  0.
        3    1    3    3  502    0 -0.60293529179E+02 -0.66031869487E+03 -0.62955097680E+03  0.91432517795E+03  0.10100000352E+00 0.  1.
       -3    1    3    3    0  502  0.60293529179E+02  0.66031869487E+03 -0.14409719963E+04  0.15862081808E+04  0.10100000352E+00 0. -1.
</event>
<event>
 5   0  0.9900839E-05  0.1404345E+04  0.7818609E-02  0.8950679E-01
        1   -1    0    0  501    0  0.00000000000E+00  0.00000000000E+00  0.14015359668E+04  0.14015359668E+04  0.50400001928E-02 0.  1.
       -1   -1    0    0    0  501  0.00000000000E+00  0.00000000000E+00 -0.35178992141E+03  0.35178992144E+03  0.50400001928E-02 0. -1.
    10030    2    1    2    0    0  0.00000000000E+00  0.00000000000E+00  0.10497460454E+04  0.17533258882E+04  0.14043450112E+04 0.  0.
        3    1    3    3  502    0 -0.43353310654E+02  0.18966739127E+03  0.13672114459E+04  0.13809852920E+04  0.10100000352E+00 0.  1.
       -3    1    3    3    0  502  0.43353310654E+02 -0.18966739127E+03 -0.31746540051E+03  0.37234059620E+03  0.10100000352E+00 0. -1.
</event>
<event>
 5   0  0.1780171E-04  0.1400747E+04  0.7818609E-02  0.8953278E-01
        2   -1    0    0  501    0  0.00000000000E+00  0.00000000000E+00  0.11132158911E+04  0.11132158911E+04  0.25500000920E-02 0. -1.
       -2   -1    0    0    0  501  0.00000000000E+00  0.00000000000E+00 -0.44063585787E+03  0.44063585788E+03  0.25500000920E-02 0.  1.
    10030    2    1    2    0    0  0.00000000000E+00  0.00000000000E+00  0.67258003322E+03  0.15538517490E+04  0.14007467140E+04 0.  0.
        5    1    3    3  502    0 -0.52587784023E+02 -0.54029825077E+03  0.82716490065E+03  0.98939958443E+03  0.46999998093E+01 0. -1.
       -5    1    3    3    0  502  0.52587784023E+02  0.54029825077E+03 -0.15458486743E+03  0.56445216454E+03  0.46999998093E+01 0.  1.
</event>
<event>
 5   0  0.6671375E-05  0.1395903E+04  0.7818609E-02  0.8956790E-01
       -1   -1    0    0    0  501  0.00000000000E+00  0.00000000000E+00  0.32208435249E+03  0.32208435253E+03  0.50400001928E-02 0.  1.
        1   -1    0    0  501    0  0.00000000000E+00  0.00000000000E+00 -0.15124490531E+04  0.15124490531E+04  0.50400001928E-02 0. -1.
    10030    2    1    2    0    0  0.00000000000E+00  0.00000000000E+00 -0.11903647006E+04  0.18345334057E+04  0.13959028247E+04 0.  0.
        5    1    3    3  502    0 -0.31310815202E+03  0.27180870160E+03  0.14265689385E+03  0.43850856832E+03  0.46999998093E+01 0.  1.
       -5    1    3    3    0  502  0.31310815202E+03 -0.27180870160E+03 -0.13330215945E+04  0.13960248373E+04  0.46999998093E+01 0. -1.
</event>
<event>
 5   0  0.9900839E-05  0.1399180E+04  0.7818609E-02  0.8954412E-01
       -1   -1    0    0    0  501  0.00000000000E+00  0.00000000000E+00  0.99149714466E+03  0.99149714468E+03  0.50400001928E-02 0. -1.
        1   -1    0    0  501    0  0.00000000000E+00  0.00000000000E+00 -0.49362336974E+03  0.49362336976E+03  0.50400001928E-02 0.  1.
    10030    2    1    2    0    0  0.00000000000E+00  0.00000000000E+00  0.49787377493E+03  0.14851205144E+04  0.13991799908E+04 0.  0.
        3    1    3    3  502    0 -0.24862903868E+03  0.19683383845E+03  0.91083052331E+03  0.96445435933E+03  0.10100000352E+00 0. -1.
       -3    1    3    3    0  502  0.24862903868E+03 -0.19683383845E+03 -0.41295674839E+03  0.52066615511E+03  0.10100000352E+00 0.  1.
</event>
<event>
 5   0  0.6671375E-05  0.1401301E+04  0.7818609E-02  0.8952877E-01
        3   -1    0    0  501    0  0.00000000000E+00  0.00000000000E+00  0.10599146303E+04  0.10599146351E+04  0.10100000352E+00 0.  1.
       -3   -1    0    0    0  501  0.00000000000E+00  0.00000000000E+00 -0.46316092918E+03  0.46316094020E+03  0.10100000352E+00 0. -1.
    10030    2    1    2    0    0  0.00000000000E+00  0.00000000000E+00  0.59675370113E+03  0.15230755753E+04  0.14013009057E+04 0.  0.
        3    1    3    3  502    0  0.40305255520E+03 -0.42321073131E+03 -0.12166841878E+03  0.59696055119E+03  0.10100000352E+00 0.  1.
       -3    1    3    3    0  502 -0.40305255520E+03  0.42321073131E+03  0.71842211991E+03  0.92611502413E+03  0.10100000352E+00 0. -1.
</event>
<event>
 5   0  0.1766237E-04  0.1436138E+04  0.7818609E-02  0.8928068E-01
        2   -1    0    0  501    0  0.00000000000E+00  0.00000000000E+00  0.10313216609E+04  0.10313216609E+04  0.25500000920E-02 0. -1.
       -2   -1    0    0    0  501  0.00000000000E+00  0.00000000000E+00 -0.49996330832E+03  0.49996330833E+03  0.25500000920E-02 0.  1.
    10030    2    1    2    0    0  0.00000000000E+00  0.00000000000E+00  0.53135835257E+03  0.15312849692E+04  0.14361378618E+04 0.  0.
        3    1    3    3  502    0  0.31095514307E+03  0.35034268155E+03  0.84596905846E+03  0.96700400908E+03  0.10100000352E+00 0. -1.
       -3    1    3    3    0  502 -0.31095514307E+03 -0.35034268155E+03 -0.31461070589E+03  0.56428096014E+03  0.10100000352E+00 0.  1.
</event>
<event>
 5   0  0.9260916E-05  0.1396718E+04  0.7818609E-02  0.8956198E-01
        1   -1    0    0  501    0  0.00000000000E+00  0.00000000000E+00  0.99485325158E+03  0.99485325159E+03  0.50400001928E-02 0. -1.
       -1   -1    0    0    0  501  0.00000000000E+00  0.00000000000E+00 -0.49022838596E+03  0.49022838598E+03  0.50400001928E-02 0.  1.
    10030    2    1    2    0    0  0.00000000000E+00  0.00000000000E+00  0.50462486562E+03  0.14850816376E+04  0.13967180157E+04 0.  0.
        1    1    3    3  502    0  0.45117530716E+03 -0.12195848456E+03  0.80405617013E+03  0.93002115809E+03  0.50400001928E-02 0. -1.
       -1    1    3    3    0  502 -0.45117530716E+03  0.12195848456E+03 -0.29943130451E+03  0.55506047949E+03  0.50400001928E-02 0.  1.
</event>
<event>
 5   0  0.9900839E-05  0.1398020E+04  0.7818609E-02  0.8955253E-01
       -1   -1    0    0    0  501  0.00000000000E+00  0.00000000000E+00  0.98017526411E+03  0.98017526412E+03  0.50400001928E-02 0.  1.
        1   -1    0    0  501    0  0.00000000000E+00  0.00000000000E+00 -0.49849771131E+03  0.49849771133E+03  0.50400001928E-02 0. -1.
    10030    2    1    2    0    0  0.00000000000E+00  0.00000000000E+00  0.48167755280E+03  0.14786729755E+04  0.13980202085E+04 0.  0.
        3    1    3    3  502    0  0.60614488873E+03 -0.30638480159E+03  0.65977701310E+02  0.68237551250E+03  0.10100000352E+00 0.  1.
       -3    1    3    3    0  502 -0.60614488873E+03  0.30638480159E+03  0.41569985149E+03  0.79629746296E+03  0.10100000352E+00 0. -1.
</event>
<event>
 5   0  0.9978422E-05  0.1400710E+04  0.7818609E-02  0.8953305E-01
       -1   -1    0    0    0  501  0.00000000000E+00  0.00000000000E+00  0.23631923850E+03  0.23631923855E+03  0.50400001928E-02 0. -1.
        1   -1    0    0  501    0  0.00000000000E+00  0.00000000000E+00 -0.20755706820E+04  0.20755706821E+04  0.50400001928E-02 0.  1.
    10030    2    1    2    0    0  0.00000000000E+00  0.00000000000E+00 -0.18392514435E+04  0.23118899206E+04  0.14007102243E+04 0.  0.
        2    1    3    3  502    0 -0.61123028915E+02 -0.88951341603E+02  0.22251103307E+03  0.24730452014E+03  0.25500000920E-02 0. -1.
       -2    1    3    3    0  502  0.61123028915E+02  0.88951341603E+02 -0.20617624766E+04  0.20645854005E+04  0.25500000920E-02 0.  1.
</event>
<event>
 5   0  0.6671375E-05  0.1401201E+04  0.7818609E-02  0.8952950E-01
        1   -1    0    0  501    0  0.00000000000E+00  0.00000000000E+00  0.59873555655E+03  0.59873555657E+03  0.50400001928E-02 0. -1.
       -1   -1    0    0    0  501  0.00000000000E+00  0.00000000000E+00 -0.81979602768E+03  0.81979602770E+03  0.50400001928E-02 0.  1.
    10030    2    1    2    0    0  0.00000000000E+00  0.00000000000E+00 -0.22106047114E+03  0.14185315843E+04  0.14012009576E+04 0.  0.
        5    1    3    3  502    0 -0.91962185406E+02  0.54964421826E+03 -0.54034367685E+03  0.77624686107E+03  0.46999998093E+01 0.  1.
       -5    1    3    3    0  502  0.91962185406E+02 -0.54964421826E+03  0.31928320571E+03  0.64228472320E+03  0.46999998093E+01 0. -1.
</event>
<event>
 5   0  0.1833681E-04  0.1404230E+04  0.7818609E-02  0.8950762E-01
       -2   -1    0    0    0  501  0.00000000000E+00  0.00000000000E+00  0.33413540502E+03  0.33413540503E+03  0.25500000920E-02 0. -1.
        2   -1    0    0  501    0  0.00000000000E+00  0.00000000000E+00 -0.14753473176E+04  0.14753473176E+04  0.25500000920E-02 0.  1.
    10030    2    1    2    0    0  0.00000000000E+00  0.00000000000E+00 -0.11412119126E+04  0.18094827227E+04  0.14042304277E+04 0.  0.
        4    1    3    3  502    0 -0.16044922732E+03 -0.33648012678E+03  0.19608176582E+03  0.42120363490E+03  0.12699999809E+01 0. -1.
       -4    1    3    3    0  502  0.16044922732E+03  0.33648012678E+03 -0.13372936784E+04  0.13882790878E+04  0.12699999809E+01 0.  1.
</event>
<event>
 5   0  0.1712327E-04  0.1391270E+04  0.7818609E-02  0.8960162E-01
        2   -1    0    0  501    0  0.00000000000E+00  0.00000000000E+00  0.19822731880E+04  0.19822731880E+04  0.25500000920E-02 0.  1.
       -2   -1    0    0    0  501  0.00000000000E+00  0.00000000000E+00 -0.24411761909E+03  0.24411761910E+03  0.25500000920E-02 0. -1.
    10030    2    1    2    0    0  0.00000000000E+00  0.00000000000E+00  0.17381555689E+04  0.22263908071E+04  0.13912696519E+04 0.  0.
        1    1    3    3  502    0  0.57276026911E+02  0.20255795698E+03 -0.19192791266E+03  0.28486241044E+03  0.50400001928E-02 0. -1.
       -1    1    3    3    0  502 -0.57276026911E+02 -0.20255795698E+03  0.19300834815E+04  0.19415283966E+04  0.50400001928E-02 0.  1.
</event>
<event>
 5   0  0.9828111E-05  0.1400089E+04  0.7818609E-02  0.8953754E-01
       -1   -1    0    0    0  501  0.00000000000E+00  0.00000000000E+00  0.23296927821E+03  0.23296927826E+03  0.50400001928E-02 0.  1.
        1   -1    0    0  501    0  0.00000000000E+00  0.00000000000E+00 -0.21035497862E+04  0.21035497862E+04  0.50400001928E-02 0. -1.
    10030    2    1    2    0    0  0.00000000000E+00  0.00000000000E+00 -0.18705805080E+04  0.23365190645E+04  0.14000892478E+04 0.  0.
        4    1    3    3  502    0 -0.38391521234E+03  0.14925046895E+03  0.93272276883E+01  0.41201359544E+03  0.12699999809E+01 0.  1.
       -4    1    3    3    0  502  0.38391521234E+03 -0.14925046895E+03 -0.18799077357E+04  0.19245054690E+04  0.12699999809E+01 0. -1.
</event>
<event>
 5   0  0.1794185E-04  0.1398695E+04  0.7818609E-02  0.8954764E-01
       -2   -1    0    0    0  501  0.00000000000E+00  0.00000000000E+00  0.32685151874E+03  0.32685151875E+03  0.25500000920E-02 0.  1.
        2   -1    0    0  501    0  0.00000000000E+00  0.00000000000E+00 -0.14963580486E+04  0.14963580486E+04  0.25500000920E-02 0. -1.
    10030    2    1    2    0    0  0.00000000000E+00  0.00000000000E+00 -0.11695065299E+04  0.18232095674E+04  0.13986949643E+04 0.  0.
        2    1    3    3  502    0 -0.31211086436E+03 -0.96785803275E+02  0.22121744704E+03  0.39461100117E+03  0.25500000920E-02 0.  1.
       -2    1    3    3    0  502  0.31211086436E+03  0.96785803275E+02 -0.13907239769E+04  0.14285985662E+04  0.25500000920E-02 0. -1.
</event>
<event>
 5   0  0.6671375E-05  0.1404850E+04  0.7818609E-02  0.8950315E-01
       -1   -1    0    0    0  501  0.00000000000E+00  0.00000000000E+00  0.55498405440E+03  0.55498405442E+03  0.50400001928E-02 0.  1.
        1   -1    0    0  501    0  0.00000000000E+00  0.00000000000E+00 -0.88903607588E+03  0.88903607589E+03  0.50400001928E-02 0. -1.
    10030    2    1    2    0    0  0.00000000000E+00  0.00000000000E+00 -0.33405202148E+03  0.14440201303E+04  0.14048499506E+04 0.  0.
        5    1    3    3  502    0 -0.44686805307E+03  0.52437577831E+03 -0.30765343999E+03  0.75454207494E+03  0.46999998093E+01 0. -1.
       -5    1    3    3    0  502  0.44686805307E+03 -0.52437577831E+03 -0.26398581498E+02  0.68947805537E+03  0.46999998093E+01 0.  1.
</event>
<event>
 5   0  0.1794185E-04  0.1400279E+04  0.7818609E-02  0.8953616E-01
        2   -1    0    0  501    0  0.00000000000E+00  0.00000000000E+00  0.35476070872E+03  0.35476070873E+03  0.25500000920E-02 0.  1.
       -2   -1    0    0    0  501  0.00000000000E+00  0.00000000000E+00 -0.13817636148E+04  0.13817636148E+04  0.25500000920E-02 0. -1.
    10030    2    1    2    0    0  0.00000000000E+00  0.00000000000E+00 -0.10270029060E+04  0.17365243235E+04  0.14002791711E+04 0.  0.
        2    1    3    3  502    0  0.18172332539E+03  0.62733195157E+03 -0.82631526732E+03  0.10532642904E+04  0.25500000920E-02 0. -1.
       -2    1    3    3    0  502 -0.18172332539E+03 -0.62733195157E+03 -0.20068763872E+03  0.68326003307E+03  0.25500000920E-02 0.  1.
</event>
<event>
 5   0  0.9828111E-05  0.1397316E+04  0.7818609E-02  0.8955764E-01
        1   -1    0    0  501    0  0.00000000000E+00  0.00000000000E+00  0.54886827109E+03  0.54886827111E+03  0.50400001928E-02 0. -1.
       -1   -1    0    0    0  501  0.00000000000E+00  0.00000000000E+00 -0.88932655886E+03  0.88932655888E+03  0.50400001928E-02 0.  1.
    10030    2    1    2    0    0  0.00000000000E+00  0.00000000000E+00 -0.34045828778E+03  0.14381948300E+04  0.13973161859E+04 0.  0.
        4    1    3    3  502    0 -0.60588496613E+03 -0.20605449734E+03 -0.45872637774E+03  0.78739224697E+03  0.12699999809E+01 0.  1.
       -4    1    3    3    0  502  0.60588496613E+03  0.20605449734E+03  0.11826808997E+03  0.65080258301E+03  0.12699999809E+01 0. -1.
</event>
<event>
 5   0  0.9978422E-05  0.1399621E+04  0.7818609E-02  0.8954093E-01
       -1   -1    0    0    0  501  0.00000000000E+00  0.00000000000E+00  0.48903919700E+03  0.48903919702E+03  0.50400001928E-02 0.  1.
        1   -1    0    0  501    0  0.00000000000E+00  0.00000000000E+00 -0.10014226312E+04  0.10014226312E+04  0.50400001928E-02 0. -1.
    10030    2    1    2    0    0  0.00000000000E+00  0.00000000000E+00 -0.51238343419E+03  0.14904618282E+04  0.13996212623E+04 0.  0.
        2    1    3    3  502    0  0.25819651893E+03  0.47375911051E+03 -0.73078737856E+03  0.90838501190E+03  0.25500000920E-02 0. -1.
       -2    1    3    3    0  502 -0.25819651893E+03 -0.47375911051E+03  0.21840394437E+03  0.58207681632E+03  0.25500000920E-02 0.  1.
</event>
<event>
 5   0  0.9978422E-05  0.1397705E+04  0.7818609E-02  0.8955482E-01
       -1   -1    0    0    0  501  0.00000000000E+00  0.00000000000E+00  0.39185398694E+03  0.39185398697E+03  0.50400001928E-02 0.  1.
        1   -1    0    0  501    0  0.00000000000E+00  0.00000000000E+00 -0.12463690746E+04  0.12463690746E+04  0.50400001928E-02 0. -1.
    10030    2    1    2    0    0  0.00000000000E+00  0.00000000000E+00 -0.85451508762E+03  0.16382230615E+04  0.13977048202E+04 0.  0.
        2    1    3    3  502    0  0.16379968270E+02 -0.25392332735E+03  0.33563054666E+03  0.42118074907E+03  0.25500000920E-02 0.  1.
       -2    1    3    3    0  502 -0.16379968270E+02  0.25392332735E+03 -0.11901456343E+04  0.12170423125E+04  0.25500000920E-02 0. -1.
</event>
<event>
 5   0  0.1833681E-04  0.1393808E+04  0.7818609E-02  0.8958313E-01
        2   -1    0    0  501    0  0.00000000000E+00  0.00000000000E+00  0.21170522705E+04  0.21170522705E+04  0.25500000920E-02 0. -1.
       -2   -1    0    0    0  501  0.00000000000E+00  0.00000000000E+00 -0.22941111936E+03  0.22941111937E+03  0.25500000920E-02 0.  1.
    10030    2    1    2    0    0  0.00000000000E+00  0.00000000000E+00  0.18876411512E+04  0.23464633899E+04  0.13938082094E+04 0.  0.
        4    1    3    3  502    0 -0.53094699667E+03  0.39070702325E+03  0.56319886406E+03  0.86703590737E+03  0.12699999809E+01 0.  1.
       -4    1    3    3    0  502  0.53094699667E+03 -0.39070702325E+03  0.13244422871E+04  0.14794274825E+04  0.12699999809E+01 0. -1.
</event>
<event>
 5   0  0.6671375E-05  0.1401328E+04  0.7818609E-02  0.8952858E-01
       -1   -1    0    0    0  501  0.00000000000E+00  0.00000000000E+00  0.38730138330E+03  0.38730138333E+03  0.50400001928E-02 0.  1.
        1   -1    0    0  501    0  0.00000000000E+00  0.00000000000E+00 -0.12675654745E+04  0.12675654745E+04  0.50400001928E-02 0. -1.
    10030    2    1    2    0    0  0.00000000000E+00  0.00000000000E+00 -0.88026409117E+03  0.16548668578E+04  0.14013277443E+04 0.  0.
        5    1    3    3  502    0 -0.63513395187E+03  0.29460675958E+03 -0.47180848456E+03  0.84428290029E+03  0.46999998093E+01 0. -1.
       -5    1    3    3    0  502  0.63513395187E+03 -0.29460675958E+03 -0.40845560661E+03  0.81058395752E+03  0.46999998093E+01 0.  1.
</event>
<event>
 5   0  0.1780171E-04  0.1403029E+04  0.7818609E-02  0.8951629E-01
        2   -1    0    0  501    0  0.00000000000E+00  0.00000000000E+00  0.41903486402E+03  0.41903486402E+03  0.25500000920E-02 0. -1.
       -2   -1    0    0    0  501  0.00000000000E+00  0.00000000000E+00 -0.11744190885E+04  0.11744190885E+04  0.25500000920E-02 0.  1.
    10030    2    1    2    0    0  0.00000000000E+00  0.00000000000E+00 -0.75538422448E+03  0.15934539525E+04  0.14030289278E+04 0.  0.
        5    1    3    3  502    0 -0.12001335171E+02 -0.63032473523E+03 -0.28289086962E+02  0.63109085426E+03  0.46999998093E+01 0. -1.
       -5    1    3    3    0  502  0.12001335171E+02  0.63032473523E+03 -0.72709513752E+03  0.96236309826E+03  0.46999998093E+01 0.  1.
</event>
<event>
 5   0  0.1780171E-04  0.1436759E+04  0.7818609E-02  0.8927632E-01
       -2   -1    0    0    0  501  0.00000000000E+00  0.00000000000E+00  0.31413470647E+03  0.31413470648E+03  0.25500000920E-02 0. -1.
        2   -1    0    0  501    0  0.00000000000E+00  0.00000000000E+00 -0.16428270981E+04  0.16428270981E+04  0.25500000920E-02 0.  1.
    10030    2    1    2    0    0  0.00000000000E+00  0.00000000000E+00 -0.13286923916E+04  0.19569618046E+04  0.14367588639E+04 0.  0.
        5    1    3    3  502    0  0.68950109856E+03 -0.11652989673E+03 -0.44030403650E+03  0.82636596996E+03  0.46999998093E+01 0.  1.
       -5    1    3    3    0  502 -0.68950109856E+03  0.11652989673E+03 -0.88838835513E+03  0.11305958346E+04  0.46999998093E+01 0. -1.
</event>
<event>
 5   0  0.1833681E-04  0.1399893E+04  0.7818609E-02  0.8953896E-01
        2   -1    0    0  501    0  0.00000000000E+00  0.00000000000E+00  0.73862511620E+03  0.73862511621E+03  0.25500000920E-02 0.  1.
       -2   -1    0    0    0  501  0.00000000000E+00  0.00000000000E+00 -0.66329349268E+03  0.66329349268E+03  0.25500000920E-02 0. -1.
    10030    2    1    2    0    0  0.00000000000E+00  0.00000000000E+00  0.75331623528E+02  0.14019186089E+04  0.13998931861E+04 0.  0.
        4    1    3    3  502    0  0.38185913450E+03 -0.69102040252E+02  0.62103084263E+03  0.73230622759E+03  0.12699999809E+01 0.  1.
       -4    1    3    3    0  502 -0.38185913450E+03  0.69102040252E+02 -0.54569921910E+03  0.66961238130E+03  0.12699999809E+01 0. -1.
</event>
<event>
 5   0  0.9828111E-05  0.1397524E+04  0.7818609E-02  0.8955613E-01
        1   -1    0    0  501    0  0.00000000000E+00  0.00000000000E+00  0.77955449377E+03  0.77955449378E+03  0.50400001928E-02 0. -1.
       -1   -1    0    0    0  501  0.00000000000E+00  0.00000000000E+00 -0.62634299683E+03  0.62634299685E+03  0.50400001928E-02 0.  1.
    10030    2    1    2    0    0  0.00000000000E+00  0.00000000000E+00  0.15321149694E+03  0.14058974906E+04  0.13975242364E+04 0.  0.
        4    1    3    3  502    0 -0.52516675780E+03  0.18369737063E+03 -0.34868247882E+03  0.65660180582E+03  0.12699999809E+01 0.  1.
       -4    1    3    3    0  502  0.52516675780E+03 -0.18369737063E+03  0.50189397576E+03  0.74929568481E+03  0.12699999809E+01 0. -1.
</event>
<event>
 5   0  0.9978422E-05  0.1399871E+04  0.7818609E-02  0.8953912E-01
        1   -1    0    0  501    0  0.00000000000E+00  0.00000000000E+00  0.84095106913E+03  0.84095106915E+03  0.50400001928E-02 0. -1.
       -1   -1    0    0    0  501  0.00000000000E+00  0.00000000000E+00 -0.58256650255E+03  0.58256650257E+03  0.50400001928E-02 0.  1.
    10030    2    1    2    0    0  0.00000000000E+00  0.00000000000E+00  0.25838456659E+03  0.14235175717E+04  0.13998713129E+04 0.  0.
        2    1    3    3  502    0 -0.55631695368E+03  0.21511974162E+03  0.50163694015E+03  0.77936171058E+03  0.25500000920E-02 0. -1.
       -2    1    3    3    0  502  0.55631695368E+03 -0.21511974162E+03 -0.24325237356E+03  0.64415586114E+03  0.25500000920E-02 0.  1.
</event>
<event>
 5   0  0.6671375E-05  0.1399314E+04  0.7818609E-02  0.8954315E-01
       -1   -1    0    0    0  501  0.00000000000E+00  0.00000000000E+00  0.26554630494E+03  0.26554630499E+03  0.50400001928E-02 0. -1.
        1   -1    0    0  501    0  0.00000000000E+00  0.00000000000E+00 -0.18434441063E+04  0.18434441063E+04  0.50400001928E-02 0.  1.
    10030    2    1    2    0    0  0.00000000000E+00  0.00000000000E+00 -0.15778978013E+04  0.21089904113E+04  0.13993137902E+04 0.  0.
        5    1    3    3  502    0  0.63244615865E+03 -0.39395745427E+00 -0.12398629536E+04  0.13918586611E+04  0.46999998093E+01 0.  1.
       -5    1    3    3    0  502 -0.63244615865E+03  0.39395745427E+00 -0.33803484771E+03  0.71713175014E+03  0.46999998093E+01 0. -1.
</event>
<event>
 5   0  0.1794185E-04  0.1400295E+04  0.7818609E-02  0.8953605E-01
        2   -1    0    0  501    0  0.00000000000E+00  0.00000000000E+00  0.57303017866E+03  0.57303017866E+03  0.25500000920E-02 0.  1.
       -2   -1    0    0    0  501  0.00000000000E+00  0.00000000000E+00 -0.85546314084E+03  0.85546314084E+03  0.25500000920E-02 0. -1.
    10030    2    1    2    0    0  0.00000000000E+00  0.00000000000E+00 -0.28243296218E+03  0.14284933195E+04  0.14002945354E+04 0.  0.
        2    1    3    3  502    0  0.53066983210E+03  0.45570095894E+03 -0.17236597861E+03  0.72040534789E+03  0.25500000920E-02 0. -1.
       -2    1    3    3    0  502 -0.53066983210E+03 -0.45570095894E+03 -0.11006698357E+03  0.70808797162E+03  0.25500000920E-02 0.  1.
</event>
<event>
 5   0  0.9978422E-05  0.1399696E+04  0.7818609E-02  0.8954038E-01
        1   -1    0    0  501    0  0.00000000000E+00  0.00000000000E+00  0.99805743818E+03  0.99805743819E+03  0.50400001928E-02 0. -1.
       -1   -1    0    0    0  501  0.00000000000E+00  0.00000000000E+00 -0.49074073414E+03  0.49074073416E+03  0.50400001928E-02 0.  1.
    10030    2    1    2    0    0  0.00000000000E+00  0.00000000000E+00  0.50731670404E+03  0.14887981724E+04  0.13996963098E+04 0.  0.
        2    1    3    3  502    0 -0.28243479363E+03  0.10001709288E+03 -0.41907031597E+03  0.51516284926E+03  0.25500000920E-02 0.  1.
       -2    1    3    3    0  502  0.28243479363E+03 -0.10001709288E+03  0.92638702001E+03  0.97363532309E+03  0.25500000920E-02 0. -1.
</event>
<event>
 5   0  0.1766237E-04  0.1404611E+04  0.7818609E-02  0.8950487E-01
       -2   -1    0    0    0  501  0.00000000000E+00  0.00000000000E+00  0.55762038896E+03  0.55762038897E+03  0.25500000920E-02 0.  1.
        2   -1    0    0  501    0  0.00000000000E+00  0.00000000000E+00 -0.88453212023E+03  0.88453212023E+03  0.25500000920E-02 0. -1.
    10030    2    1    2    0    0  0.00000000000E+00  0.00000000000E+00 -0.32691173127E+03  0.14421525092E+04  0.14046111845E+04 0.  0.
        3    1    3    3  502    0  0.16631817444E+03  0.31751473448E+03 -0.78354792024E+03  0.86164069964E+03  0.10100000352E+00 0. -1.
       -3    1    3    3    0  502 -0.16631817444E+03 -0.31751473448E+03  0.45663618897E+03  0.58051180956E+03  0.10100000352E+00 0.  1.
</event>
<event>
 5   0  0.1780171E-04  0.1410481E+04  0.7818609E-02  0.8946267E-01
        2   -1    0    0  501    0  0.00000000000E+00  0.00000000000E+00  0.54509718246E+03  0.54509718246E+03  0.25500000920E-02 0. -1.
       -2   -1    0    0    0  501  0.00000000000E+00  0.00000000000E+00 -0.91243182154E+03  0.91243182155E+03  0.25500000920E-02 0.  1.
    10030    2    1    2    0    0  0.00000000000E+00  0.00000000000E+00 -0.36733463909E+03  0.14575290040E+04  0.14104807905E+04 0.  0.
        5    1    3    3  502    0  0.64243991468E+01  0.70359766771E+03 -0.23269431612E+03  0.74112056082E+03  0.46999998093E+01 0. -1.
       -5    1    3    3    0  502 -0.64243991468E+01 -0.70359766771E+03 -0.13464032297E+03  0.71640844319E+03  0.46999998093E+01 0.  1.
</event>
<event>
 5   0  0.6671375E-05  0.1401758E+04  0.7818609E-02  0.8952547E-01
       -1   -1    0    0    0  501  0.00000000000E+00  0.00000000000E+00  0.22946355467E+03  0.22946355473E+03  0.50400001928E-02 0.  1.
        1   -1    0    0  501    0  0.00000000000E+00  0.00000000000E+00 -0.21407816523E+04  0.21407816523E+04  0.50400001928E-02 0. -1.
    10030    2    1    2    0    0  0.00000000000E+00  0.00000000000E+00 -0.19113180977E+04  0.23702452071E+04  0.14017579931E+04 0.  0.
        5    1    3    3  502    0 -0.43165413782E+03 -0.40216454266E+03 -0.31590599440E+03  0.66923859823E+03  0.46999998093E+01 0.  1.
       -5    1    3    3    0  502  0.43165413782E+03  0.40216454266E+03 -0.15954121033E+04  0.17010066088E+04  0.46999998093E+01 0. -1.
</event>
<event>
 5   0  0.9900839E-05  0.1382768E+04  0.7818609E-02  0.8966387E-01
       -1   -1    0    0    0  501  0.00000000000E+00  0.00000000000E+00  0.61917873935E+03  0.61917873937E+03  0.50400001928E-02 0. -1.
        1   -1    0    0  501    0  0.00000000000E+00  0.00000000000E+00 -0.77200905716E+03  0.77200905718E+03  0.50400001928E-02 0.  1.
    10030    2    1    2    0    0  0.00000000000E+00  0.00000000000E+00 -0.15283031781E+03  0.13911877965E+04  0.13827676519E+04 0.  0.
        3    1    3    3  502    0  0.11166735611E+03  0.49890647512E+03 -0.54468929741E+03  0.74703661908E+03  0.10100000352E+00 0.  1.
       -3    1    3    3    0  502 -0.11166735611E+03 -0.49890647512E+03  0.39185897960E+03  0.64415117747E+03  0.10100000352E+00 0. -1.
</event>
<event>
 5   0  0.1766237E-04  0.1399950E+04  0.7818609E-02  0.8953855E-01
       -2   -1    0    0    0  501  0.00000000000E+00  0.00000000000E+00  0.30646237665E+03  0.30646237666E+03  0.25500000920E-02 0. -1.
        2   -1    0    0  501    0  0.00000000000E+00  0.00000000000E+00 -0.15987775746E+04  0.15987775746E+04  0.25500000920E-02 0.  1.
    10030    2    1    2    0    0  0.00000000000E+00  0.00000000000E+00 -0.12923151980E+04  0.19052399513E+04  0.13999502495E+04 0.  0.
        3    1    3    3  502    0 -0.57268948456E+03  0.30359929308E+02 -0.11923487609E+04  0.13230988432E+04  0.10100000352E+00 0. -1.
       -3    1    3    3    0  502  0.57268948456E+03 -0.30359929308E+02 -0.99966437108E+02  0.58214110813E+03  0.10100000352E+00 0.  1.
</event>
<event>
 5   0  0.1712327E-04  0.1400836E+04  0.7818609E-02  0.8953214E-01
       -2   -1    0    0    0  501  0.00000000000E+00  0.00000000000E+00  0.42407278804E+03  0.42407278805E+03  0.25500000920E-02 0. -1.
        2   -1    0    0  501    0  0.00000000000E+00  0.00000000000E+00 -0.11568416832E+04  0.11568416832E+04  0.25500000920E-02 0.  1.
    10030    2    1    2    0    0  0.00000000000E+00  0.00000000000E+00 -0.73276889512E+03  0.15809144712E+04  0.14008355762E+04 0.  0.
        1    1    3    3  502    0  0.31376228548E+03 -0.57268308520E+03 -0.65227204788E+03  0.92296885773E+03  0.50400001928E-02 0.  1.
       -1    1    3    3    0  502 -0.31376228548E+03  0.57268308520E+03 -0.80496847239E+02  0.65794561349E+03  0.50400001928E-02 0. -1.
</event>
<event>
 5   0  0.1712327E-04  0.1398651E+04  0.7818609E-02  0.8954796E-01
        2   -1    0    0  501    0  0.00000000000E+00  0.00000000000E+00  0.11688475496E+04  0.11688475496E+04  0.25500000920E-02 0. -1.
       -2   -1    0    0    0  501  0.00000000000E+00  0.00000000000E+00 -0.41840862942E+03  0.41840862943E+03  0.25500000920E-02 0.  1.
    10030    2    1    2    0    0  0.00000000000E+00  0.00000000000E+00  0.75043892015E+03  0.15872561790E+04  0.13986506372E+04 0.  0.
        1    1    3    3  502    0  0.42112662476E+03 -0.49663288324E+03  0.66469262765E+03  0.93048812140E+03  0.50400001928E-02 0. -1.
       -1    1    3    3    0  502 -0.42112662476E+03  0.49663288324E+03  0.85746292497E+02  0.65676805761E+03  0.50400001928E-02 0.  1.
</event>
<event>
 5   0  0.1794185E-04  0.1373709E+04  0.7818609E-02  0.8973072E-01
       -2   -1    0    0    0  501  0.00000000000E+00  0.00000000000E+00  0.32724952613E+03  0.32724952614E+03  0.25500000920E-02 0. -1.
        2   -1    0    0  501    0  0.00000000000E+00  0.00000000000E+00 -0.14416194772E+04  0.14416194772E+04  0.25500000920E-02 0.  1.
    10030    2    1    2    0    0  0.00000000000E+00  0.00000000000E+00 -0.11143699510E+04  0.17688690033E+04  0.13737092717E+04 0.  0.
        2    1    3    3  502    0 -0.55056807771E+03 -0.21336115631E+03 -0.10090066751E+04  0.11690776970E+04  0.25500000920E-02 0.  1.
       -2    1    3    3    0  502  0.55056807771E+03  0.21336115631E+03 -0.10536327596E+03  0.59979130633E+03  0.25500000920E-02 0. -1.
</event>
<event>
 5   0  0.9260916E-05  0.1401084E+04  0.7818609E-02  0.8953034E-01
        1   -1    0    0  501    0  0.00000000000E+00  0.00000000000E+00  0.17863251692E+04  0.17863251692E+04  0.50400001928E-02 0.  1.
       -1   -1    0    0    0  501  0.00000000000E+00  0.00000000000E+00 -0.27473113036E+03  0.27473113041E+03  0.50400001928E-02 0. -1.
    10030    2    1    2    0    0  0.00000000000E+00  0.00000000000E+00  0.15115940389E+04  0.20610562996E+04  0.14010840560E+04 0.  0.
        1    1    3    3  502    0 -0.69893853833E+03 -0.30818907684E+02  0.70287525236E+03  0.99171493174E+03  0.50400001928E-02 0. -1.
       -1    1    3    3    0  502  0.69893853833E+03  0.30818907684E+02  0.80871878649E+03  0.10693413679E+04  0.50400001928E-02 0.  1.
</event>
<event>
 5   0  0.1712327E-04  0.1401579E+04  0.7818609E-02  0.8952676E-01
       -2   -1    0    0    0  501  0.00000000000E+00  0.00000000000E+00  0.20715121071E+03  0.20715121072E+03  0.25500000920E-02 0. -1.
        2   -1    0    0  501    0  0.00000000000E+00  0.00000000000E+00 -0.23707613881E+04  0.23707613881E+04  0.25500000920E-02 0.  1.
    10030    2    1    2    0    0  0.00000000000E+00  0.00000000000E+00 -0.21636101773E+04  0.25779125988E+04  0.14015792405E+04 0.  0.
        1    1    3    3  502    0  0.25133366290E+03 -0.24556972018E+03 -0.21970179604E+04  0.22249406770E+04  0.50400001928E-02 0.  1.
       -1    1    3    3    0  502 -0.25133366290E+03  0.24556972018E+03  0.33407783095E+02  0.35297192179E+03  0.50400001928E-02 0. -1.
</event>
<event>
 5   0  0.1833681E-04  0.1399797E+04  0.7818609E-02  0.8953966E-01
        2   -1    0    0  501    0  0.00000000000E+00  0.00000000000E+00  0.11849687375E+04  0.11849687375E+04  0.25500000920E-02 0.  1.
       -2   -1    0    0    0  501  0.00000000000E+00  0.00000000000E+00 -0.41339298190E+03  0.41339298191E+03  0.25500000920E-02 0. -1.
    10030    2    1    2    0    0  0.00000000000E+00  0.00000000000E+00  0.77157575557E+03  0.15983617194E+04  0.13997967850E+04 0.  0.
        4    1    3    3  502    0 -0.20471262658E+03  0.61182073607E+03  0.69561582654E+03  0.94874383455E+03  0.12699999809E+01 0.  1.
       -4    1    3    3    0  502  0.20471262658E+03 -0.61182073607E+03  0.75959929037E+02  0.64961788483E+03  0.12699999809E+01 0. -1.
</event>
<event>
 5   0  0.1766237E-04  0.1364935E+04  0.7818609E-02  0.8979599E-01
       -2   -1    0    0    0  501  0.00000000000E+00  0.00000000000E+00  0.32421253253E+03  0.32421253254E+03  0.25500000920E-02 0.  1.
        2   -1    0    0  501    0  0.00000000000E+00  0.00000000000E+00 -0.14365952545E+04  0.14365952545E+04  0.25500000920E-02 0. -1.
    10030    2    1    2    0    0  0.00000000000E+00  0.00000000000E+00 -0.11123827219E+04  0.17608077870E+04  0.13649354354E+04 0.  0.
        3    1    3    3  502    0  0.20234154585E+03 -0.63654586572E+03 -0.37545158374E+03  0.76622231909E+03  0.10100000352E+00 0.  1.
       -3    1    3    3    0  502 -0.20234154585E+03  0.63654586572E+03 -0.73693113819E+03  0.99458546791E+03  0.10100000352E+00 0. -1.
</event>
<event>
 5   0  0.6671375E-05  0.1385532E+04  0.7818609E-02  0.8964359E-01
       -1   -1    0    0    0  501  0.00000000000E+00  0.00000000000E+00  0.50844225838E+03  0.50844225841E+03  0.50400001928E-02 0.  1.
        1   -1    0    0  501    0  0.00000000000E+00  0.00000000000E+00 -0.94391151626E+03  0.94391151628E+03  0.50400001928E-02 0. -1.
    10030    2    1    2    0    0  0.00000000000E+00  0.00000000000E+00 -0.43546925788E+03  0.14523537747E+04  0.13855316713E+04 0.  0.
        5    1    3    3  502    0 -0.11985540206E+03  0.33319580873E+03  0.40639512968E+03  0.53903975344E+03  0.46999998093E+01 0.  1.
       -5    1    3    3    0  502  0.11985540206E+03 -0.33319580873E+03 -0.84186438756E+03  0.91331402125E+03  0.46999998093E+01 0. -1.
</event>
<event>
 5   0  0.9978422E-05  0.1399306E+04  0.7818609E-02  0.8954321E-01
        1   -1    0    0  501    0  0.00000000000E+00  0.00000000000E+00  0.14555205829E+04  0.14555205829E+04  0.50400001928E-02 0.  1.
       -1   -1    0    0    0  501  0.00000000000E+00  0.00000000000E+00 -0.33631550535E+03  0.33631550539E+03  0.50400001928E-02 0. -1.
    10030    2    1    2    0    0  0.00000000000E+00  0.00000000000E+00  0.11192050776E+04  0.17918360883E+04  0.13993057428E+04 0.  0.
        2    1    3    3  502    0 -0.50007086217E+03 -0.41881548364E+03  0.23556099675E+03  0.69351731033E+03  0.25500000920E-02 0. -1.
       -2    1    3    3    0  502  0.50007086217E+03  0.41881548364E+03  0.88364408084E+03  0.10983187780E+04  0.25500000920E-02 0.  1.
</event>
<event>
 5   0  0.1712327E-04  0.1397961E+04  0.7818609E-02  0.8955296E-01
        2   -1    0    0  501    0  0.00000000000E+00  0.00000000000E+00  0.10989367055E+04  0.10989367055E+04  0.25500000920E-02 0. -1.
       -2   -1    0    0    0  501  0.00000000000E+00  0.00000000000E+00 -0.44458749677E+03  0.44458749678E+03  0.25500000920E-02 0.  1.
    10030    2    1    2    0    0  0.00000000000E+00  0.00000000000E+00  0.65434920872E+03  0.15435242023E+04  0.13979606847E+04 0.  0.
        1    1    3    3  502    0 -0.45461040019E+03 -0.23508994910E+03  0.85280753877E+03  0.99459469049E+03  0.50400001928E-02 0. -1.
       -1    1    3    3    0  502  0.45461040019E+03  0.23508994910E+03 -0.19845833005E+03  0.54892951180E+03  0.50400001928E-02 0.  1.
</event>
<event>
 5   0  0.1833681E-04  0.1406045E+04  0.7818609E-02  0.8949455E-01
        2   -1    0    0  501    0  0.00000000000E+00  0.00000000000E+00  0.10303925220E+04  0.10303925220E+04  0.25500000920E-02 0. -1.
       -2   -1    0    0    0  501  0.00000000000E+00  0.00000000000E+00 -0.47966228194E+03  0.47966228195E+03  0.25500000920E-02 0.  1.
    10030    2    1    2    0    0  0.00000000000E+00  0.00000000000E+00  0.55073024009E+03  0.15100548040E+04  0.14060447054E+04 0.  0.
        4    1    3    3  502    0 -0.68004854267E+02  0.34721196757E+03 -0.37707535423E+03  0.51707663484E+03  0.12699999809E+01 0.  1.
       -4    1    3    3    0  502  0.68004854267E+02 -0.34721196757E+03  0.92780559432E+03  0.99297816914E+03  0.12699999809E+01 0. -1.
</event>
<event>
 5   0  0.1766237E-04  0.1400448E+04  0.7818609E-02  0.8953494E-01
       -2   -1    0    0    0  501  0.00000000000E+00  0.00000000000E+00  0.30852516791E+03  0.30852516792E+03  0.25500000920E-02 0. -1.
        2   -1    0    0  501    0  0.00000000000E+00  0.00000000000E+00 -0.15892187252E+04  0.15892187252E+04  0.25500000920E-02 0.  1.
    10030    2    1    2    0    0  0.00000000000E+00  0.00000000000E+00 -0.12806935573E+04  0.18977438931E+04  0.14004484625E+04 0.  0.
        3    1    3    3  502    0  0.57658791617E+03 -0.70821763728E+02 -0.11056679595E+03  0.59134962067E+03  0.10100000352E+00 0. -1.
       -3    1    3    3    0  502 -0.57658791617E+03  0.70821763728E+02 -0.11701267613E+04  0.13063942724E+04  0.10100000352E+00 0.  1.
</event>
<event>
 5   0  0.9260916E-05  0.1400676E+04  0.7818609E-02  0.8953330E-01
       -1   -1    0    0    0  501  0.00000000000E+00  0.00000000000E+00  0.71321800986E+03  0.71321800988E+03  0.50400001928E-02 0. -1.
        1   -1    0    0  501    0  0.00000000000E+00  0.00000000000E+00 -0.68769020947E+03  0.68769020949E+03  0.50400001928E-02 0.  1.
    10030    2    1    2    0    0  0.00000000000E+00  0.00000000000E+00  0.25527800391E+02  0.14009082194E+04  0.14006756122E+04 0.  0.
        1    1    3    3  502    0  0.40239373047E+03  0.45849661902E+03  0.35681692601E+03  0.70672355464E+03  0.50400001928E-02 0. -1.
       -1    1    3    3    0  502 -0.40239373047E+03 -0.45849661902E+03 -0.33128912562E+03  0.69418466473E+03  0.50400001928E-02 0.  1.
</event>
<event>
 5   0  0.1794185E-04  0.1399987E+04  0.7818609E-02  0.8953828E-01
        2   -1    0    0  501    0  0.00000000000E+00  0.00000000000E+00  0.90449487788E+03  0.90449487789E+03  0.25500000920E-02 0. -1.
       -2   -1    0    0    0  501  0.00000000000E+00  0.00000000000E+00 -0.54172838758E+03  0.54172838759E+03  0.25500000920E-02 0.  1.
    10030    2    1    2    0    0  0.00000000000E+00  0.00000000000E+00  0.36276649030E+03  0.14462232655E+04  0.13999865025E+04 0.  0.
        2    1    3    3  502    0 -0.52587957492E+03  0.22415285676E+03 -0.23593484368E+03  0.61843276189E+03  0.25500000920E-02 0.  1.
       -2    1    3    3    0  502  0.52587957492E+03 -0.22415285676E+03  0.59870133398E+03  0.82779050359E+03  0.25500000920E-02 0. -1.
</event>
<event>
 5   0  0.9260916E-05  0.1398383E+04  0.7818609E-02  0.8954990E-01
       -1   -1    0    0    0  501  0.00000000000E+00  0.00000000000E+00  0.48077002249E+03  0.48077002251E+03  0.50400001928E-02 0. -1.
        1   -1    0    0  501    0  0.00000000000E+00  0.00000000000E+00 -0.10168454200E+04  0.10168454200E+04  0.50400001928E-02 0.  1.
    10030    2    1    2    0    0  0.00000000000E+00  0.00000000000E+00 -0.53607539755E+03  0.14976154426E+04  0.13983830598E+04 0.  0.
        1    1    3    3  502    0  0.14320007830E+03 -0.50957900154E+03  0.22120778011E+03  0.57368101175E+03  0.50400001928E-02 0. -1.
       -1    1    3    3    0  502 -0.14320007830E+03  0.50957900154E+03 -0.75728317766E+03  0.92393443081E+03  0.50400001928E-02 0.  1.
</event>
<event>
 5   0  0.9978422E-05  0.1400347E+04  0.7818609E-02  0.8953567E-01
       -1   -1    0    0    0  501  0.00000000000E+00  0.00000000000E+00  0.47855020794E+03  0.47855020797E+03  0.50400001928E-02 0. -1.
        1   -1    0    0  501    0  0.00000000000E+00  0.00000000000E+00 -0.10244340467E+04  0.10244340468E+04  0.50400001928E-02 0.  1.
    10030    2    1    2    0    0  0.00000000000E+00  0.00000000000E+00 -0.54588383880E+03  0.15029842547E+04  0.14003472800E+04 0.  0.
        2    1    3    3  502    0  0.62671143502E+03 -0.20259528075E+02  0.61446343955E+02  0.63004231957E+03  0.25500000920E-02 0. -1.
       -2    1    3    3    0  502 -0.62671143502E+03  0.20259528075E+02 -0.60733018276E+03  0.87294193516E+03  0.25500000920E-02 0.  1.
</event>
<event>
 5   0  0.1780171E-04  0.1398086E+04  0.7818609E-02  0.8955205E-01
        2   -1    0    0  501    0  0.00000000000E+00  0.00000000000E+00  0.71454856268E+03  0.71454856269E+03  0.25500000920E-02 0.  1.
       -2   -1    0    0    0  501  0.00000000000E+00  0.00000000000E+00 -0.68387380819E+03  0.68387380819E+03  0.25500000920E-02 0. -1.
    10030    2    1    2    0    0  0.00000000000E+00  0.00000000000E+00  0.30674754495E+02  0.13984223709E+04  0.13980859011E+04 0.  0.
        5    1    3    3  502    0  0.42887878541E+03  0.16140447942E+03 -0.51266326379E+03  0.68762935553E+03  0.46999998093E+01 0. -1.
       -5    1    3    3    0  502 -0.42887878541E+03 -0.16140447942E+03  0.54333801828E+03  0.71079301535E+03  0.46999998093E+01 0.  1.
</event>
<event>
 5   0  0.9260916E-05  0.1412833E+04  0.7818609E-02  0.8944581E-01
       -1   -1    0    0    0  501  0.00000000000E+00  0.00000000000E+00  0.31441837189E+03  0.31441837193E+03  0.50400001928E-02 0. -1.
        1   -1    0    0  501    0  0.00000000000E+00  0.00000000000E+00 -0.15871352328E+04  0.15871352328E+04  0.50400001928E-02 0.  1.
    10030    2    1    2    0    0  0.00000000000E+00  0.00000000000E+00 -0.12727168609E+04  0.19015536048E+04  0.14128332894E+04 0.  0.
        1    1    3    3  502    0 -0.44249394280E+03 -0.43105196337E+03 -0.17516341283E+03  0.64209727126E+03  0.50400001928E-02 0. -1.
       -1    1    3    3    0  502  0.44249394280E+03  0.43105196337E+03 -0.10975534481E+04  0.12594563335E+04  0.50400001928E-02 0.  1.
</event>
<event>
 5   0  0.1833681E-04  0.1402092E+04  0.7818609E-02  0.8952305E-01
       -2   -1    0    0    0  501  0.00000000000E+00  0.00000000000E+00  0.34026290845E+03  0.34026290846E+03  0.25500000920E-02 0.  1.
        2   -1    0    0  501    0  0.00000000000E+00  0.00000000000E+00 -0.14443704950E+04  0.14443704950E+04  0.25500000920E-02 0. -1.
    10030    2    1    2    0    0  0.00000000000E+00  0.00000000000E+00 -0.11041075866E+04  0.17846334035E+04  0.14020923016E+04 0.  0.
        4    1    3    3  502    0 -0.23647790648E+03 -0.51510900489E+03 -0.10771738143E+04  0.12171951882E+04  0.12699999809E+01 0. -1.
       -4    1    3    3    0  502  0.23647790648E+03  0.51510900489E+03 -0.26933772309E+02  0.56743821528E+03  0.12699999809E+01 0.  1.
</event>
<event>
 5   0  0.6671375E-05  0.1397599E+04  0.7818609E-02  0.8955558E-01
       -1   -1    0    0    0  501  0.00000000000E+00  0.00000000000E+00  0.10541339920E+04  0.10541339920E+04  0.50400001928E-02 0. -1.
        1   -1    0    0  501    0  0.00000000000E+00  0.00000000000E+00 -0.46324341087E+03  0.46324341090E+03  0.50400001928E-02 0.  1.
    10030    2    1    2    0    0  0.00000000000E+00  0.00000000000E+00  0.59089058109E+03  0.15173774029E+04  0.13975988351E+04 0.  0.
        5    1    3    3  502    0 -0.55678813000E+03  0.37396496548E+03  0.50829770762E+03  0.84157677409E+03  0.46999998093E+01 0. -1.
       -5    1    3    3    0  502  0.55678813000E+03 -0.37396496548E+03  0.82592873475E+02  0.67580062878E+03  0.46999998093E+01 0.  1.
</event>
<event>
 5   0  0.1766237E-04  0.1402509E+04  0.7818609E-02  0.8952005E-01
        2   -1    0    0  501    0  0.00000000000E+00  0.00000000000E+00  0.10508664301E+04  0.10508664301E+04  0.25500000920E-02 0.  1.
       -2   -1    0    0    0  501  0.00000000000E+00  0.00000000000E+00 -0.46795447930E+03  0.46795447930E+03  0.25500000920E-02 0. -1.
    10030    2    1    2    0    0  0.00000000000E+00  0.00000000000E+00  0.58291195083E+03  0.15188209094E+04  0.14025086854E+04 0.  0.
        3    1    3    3  502    0  0.53822445055E+02  0.69144819121E+03  0.17912205871E+03  0.71629754909E+03  0.10100000352E+00 0. -1.
       -3    1    3    3    0  502 -0.53822445055E+02 -0.69144819121E+03  0.40378989212E+03  0.80252336034E+03  0.10100000352E+00 0.  1.
</event>
<event>
 5   0  0.1766237E-04  0.1401107E+04  0.7818609E-02  0.8953018E-01
        2   -1    0    0  501    0  0.00000000000E+00  0.00000000000E+00  0.10775985016E+04  0.10775985016E+04  0.25500000920E-02 0.  1.
       -2   -1    0    0    0  501  0.00000000000E+00  0.00000000000E+00 -0.45543405832E+03  0.45543405833E+03  0.25500000920E-02 0. -1.
    10030    2    1    2    0    0  0.00000000000E+00  0.00000000000E+00  0.62216444324E+03  0.15330325599E+04  0.14011067894E+04 0.  0.
        3    1    3    3  502    0  0.36048911433E+03  0.24353190338E+02  0.96778646217E+03  0.10330324903E+04  0.10100000352E+00 0.  1.
       -3    1    3    3    0  502 -0.36048911433E+03 -0.24353190338E+02 -0.34562201893E+03  0.50000006960E+03  0.10100000352E+00 0. -1.
</event>
<event>
 5   0  0.9900839E-05  0.1398709E+04  0.7818609E-02  0.8954754E-01
        1   -1    0    0  501    0  0.00000000000E+00  0.00000000000E+00  0.60490813331E+03  0.60490813334E+03  0.50400001928E-02 0.  1.
       -1   -1    0    0    0  501  0.00000000000E+00  0.00000000000E+00 -0.80854655143E+03  0.80854655144E+03  0.50400001928E-02 0. -1.
    10030    2    1    2    0    0  0.00000000000E+00  0.00000000000E+00 -0.20363841811E+03  0.14134546848E+04  0.13987085260E+04 0.  0.
        3    1    3    3  502    0  0.54577214501E+03 -0.15498370210E+03  0.31140403470E+03  0.64719368447E+03  0.10100000352E+00 0.  1.
       -3    1    3    3    0  502 -0.54577214501E+03  0.15498370210E+03 -0.51504245282E+03  0.76626100031E+03  0.10100000352E+00 0. -1.
</event>
<event>
 5   0  0.1794185E-04  0.1398490E+04  0.7818609E-02  0.8954912E-01
        2   -1    0    0  501    0  0.00000000000E+00  0.00000000000E+00  0.90542451445E+03  0.90542451446E+03  0.25500000920E-02 0. -1.
       -2   -1    0    0    0  501  0.00000000000E+00  0.00000000000E+00 -0.54001618481E+03  0.54001618482E+03  0.25500000920E-02 0.  1.
    10030    2    1    2    0    0  0.00000000000E+00  0.00000000000E+00  0.36540832964E+03  0.14454406993E+04  0.13984904604E+04 0.  0.
        2    1    3    3  502    0  0.40657088948E+03 -0.53779504561E+03 -0.90519897755E+01  0.67424427159E+03  0.25500000920E-02 0.  1.
       -2    1    3    3    0  502 -0.40657088948E+03  0.53779504561E+03  0.37446031941E+03  0.77119642768E+03  0.25500000920E-02 0. -1.
</event>
<event>
 5   0  0.1833681E-04  0.1400372E+04  0.7818609E-02  0.8953549E-01
       -2   -1    0    0    0  501  0.00000000000E+00  0.00000000000E+00  0.65097222225E+03  0.65097222226E+03  0.25500000920E-02 0. -1.
        2   -1    0    0  501    0  0.00000000000E+00  0.00000000000E+00 -0.75312012141E+03  0.75312012142E+03  0.25500000920E-02 0.  1.
    10030    2    1    2    0    0  0.00000000000E+00  0.00000000000E+00 -0.10214789916E+03  0.14040923437E+04  0.14003717779E+04 0.  0.
        4    1    3    3  502    0  0.24662096729E+03 -0.20175038577E+03 -0.67621545140E+03  0.74752529675E+03  0.12699999809E+01 0.  1.
       -4    1    3    3    0  502 -0.24662096729E+03  0.20175038577E+03  0.57406755225E+03  0.65656704693E+03  0.12699999809E+01 0. -1.
</event>
<event>
 5   0  0.1833681E-04  0.1398842E+04  0.7818609E-02  0.8954657E-01
       -2   -1    0    0    0  501  0.00000000000E+00  0.00000000000E+00  0.58373468988E+03  0.58373468989E+03  0.25500000920E-02 0.  1.
        2   -1    0    0  501    0  0.00000000000E+00  0.00000000000E+00 -0.83803483906E+03  0.83803483906E+03  0.25500000920E-02 0. -1.
    10030    2    1    2    0    0  0.00000000000E+00  0.00000000000E+00 -0.25430014917E+03  0.14217695289E+04  0.13988423884E+04 0.  0.
        4    1    3    3  502    0  0.25031674132E+03  0.36601146897E+03  0.42260847829E+03  0.61255400189E+03  0.12699999809E+01 0.  1.
       -4    1    3    3    0  502 -0.25031674132E+03 -0.36601146897E+03 -0.67690862747E+03  0.80921552706E+03  0.12699999809E+01 0. -1.
</event>
<event>
 5   0  0.9828111E-05  0.1377214E+04  0.7818609E-02  0.8970480E-01
       -1   -1    0    0    0  501  0.00000000000E+00  0.00000000000E+00  0.48595392751E+03  0.48595392753E+03  0.50400001928E-02 0.  1.
        1   -1    0    0  501    0  0.00000000000E+00  0.00000000000E+00 -0.97577019092E+03  0.97577019093E+03  0.50400001928E-02 0. -1.
    10030    2    1    2    0    0  0.00000000000E+00  0.00000000000E+00 -0.48981626341E+03  0.14617241185E+04  0.13772136460E+04 0.  0.
        4    1    3    3  502    0  0.41106080035E+03  0.54662171799E+03 -0.15992307856E+03  0.70238400332E+03  0.12699999809E+01 0. -1.
       -4    1    3    3    0  502 -0.41106080035E+03 -0.54662171799E+03 -0.32989318485E+03  0.75934011515E+03  0.12699999809E+01 0.  1.
</event>
<event>
 5   0  0.9900839E-05  0.1398587E+04  0.7818609E-02  0.8954842E-01
       -1   -1    0    0    0  501  0.00000000000E+00  0.00000000000E+00  0.47652411785E+03  0.47652411787E+03  0.50400001928E-02 0.  1.
        1   -1    0    0  501    0  0.00000000000E+00  0.00000000000E+00 -0.10262055582E+04  0.10262055582E+04  0.50400001928E-02 0. -1.
    10030    2    1    2    0    0  0.00000000000E+00  0.00000000000E+00 -0.54968144031E+03  0.15027296760E+04  0.13985874279E+04 0.  0.
        3    1    3    3  502    0 -0.14364687380E+03 -0.23571509148E+03 -0.96519071282E+03  0.10038870210E+04  0.10100000352E+00 0. -1.
       -3    1    3    3    0  502  0.14364687380E+03  0.23571509148E+03  0.41550927251E+03  0.49884265500E+03  0.10100000352E+00 0.  1.
</event>
<event>
 5   0  0.9260916E-05  0.1398833E+04  0.7818609E-02  0.8954664E-01
        1   -1    0    0  501    0  0.00000000000E+00  0.00000000000E+00  0.48690459000E+03  0.48690459003E+03  0.50400001928E-02 0. -1.
       -1   -1    0    0    0  501  0.00000000000E+00  0.00000000000E+00 -0.10046803004E+04  0.10046803004E+04  0.50400001928E-02 0.  1.
    10030    2    1    2    0    0  0.00000000000E+00  0.00000000000E+00 -0.51777571043E+03  0.14915848905E+04  0.13988330133E+04 0.  0.
        1    1    3    3  502    0  0.24086805787E+03 -0.47530142660E+03  0.22420268443E+03  0.57809662788E+03  0.50400001928E-02 0. -1.
       -1    1    3    3    0  502 -0.24086805787E+03  0.47530142660E+03 -0.74197839486E+03  0.91348826259E+03  0.50400001928E-02 0.  1.
</event>
<event>
 5   0  0.9828111E-05  0.1403193E+04  0.7818609E-02  0.8951511E-01
       -1   -1    0    0    0  501  0.00000000000E+00  0.00000000000E+00  0.57602818916E+03  0.57602818919E+03  0.50400001928E-02 0.  1.
        1   -1    0    0  501    0  0.00000000000E+00  0.00000000000E+00 -0.85453682339E+03  0.85453682341E+03  0.50400001928E-02 0. -1.
    10030    2    1    2    0    0  0.00000000000E+00  0.00000000000E+00 -0.27850863423E+03  0.14305650126E+04  0.14031925014E+04 0.  0.
        4    1    3    3  502    0  0.27936548842E+03  0.62689447277E+03 -0.28767556940E+03  0.74417780284E+03  0.12699999809E+01 0. -1.
       -4    1    3    3    0  502 -0.27936548842E+03 -0.62689447277E+03  0.91669351665E+01  0.68638720975E+03  0.12699999809E+01 0.  1.
</event>
<event>
 5   0  0.9260916E-05  0.1399593E+04  0.7818609E-02  0.8954113E-01
       -1   -1    0    0    0  501  0.00000000000E+00  0.00000000000E+00  0.97562123954E+03  0.97562123955E+03  0.50400001928E-02 0. -1.
        1   -1    0    0  501    0  0.00000000000E+00  0.00000000000E+00 -0.50195223825E+03  0.50195223827E+03  0.50400001928E-02 0.  1.
    10030    2    1    2    0    0  0.00000000000E+00  0.00000000000E+00  0.47366900129E+03  0.14775734778E+04  0.13995931765E+04 0.  0.
        1    1    3    3  502    0  0.16830392054E+03 -0.58095421439E+03 -0.13474356576E+03  0.61966913545E+03  0.50400001928E-02 0.  1.
       -1    1    3    3    0  502 -0.16830392054E+03  0.58095421439E+03  0.60841256706E+03  0.85790434237E+03  0.50400001928E-02 0. -1.
</event>
<event>
 5   0  0.1794185E-04  0.1399686E+04  0.7818609E-02  0.8954046E-01
       -2   -1    0    0    0  501  0.00000000000E+00  0.00000000000E+00  0.66821260450E+03  0.66821260451E+03  0.25500000920E-02 0. -1.
        2   -1    0    0  501    0  0.00000000000E+00  0.00000000000E+00 -0.73297100890E+03  0.73297100890E+03  0.25500000920E-02 0.  1.
    10030    2    1    2    0    0  0.00000000000E+00  0.00000000000E+00 -0.64758404393E+02  0.14011836134E+04  0.13996863461E+04 0.  0.
        2    1    3    3  502    0 -0.52980114647E+02  0.69782798304E+03 -0.29264537085E+02  0.70044785645E+03  0.25500000920E-02 0.  1.
       -2    1    3    3    0  502  0.52980114647E+02 -0.69782798304E+03 -0.35493867308E+02  0.70073575696E+03  0.25500000920E-02 0. -1.
</event>
<event>
 5   0  0.9828111E-05  0.1407348E+04  0.7818609E-02  0.8948517E-01
        1   -1    0    0  501    0  0.00000000000E+00  0.00000000000E+00  0.12374148436E+04  0.12374148436E+04  0.50400001928E-02 0. -1.
       -1   -1    0    0    0  501  0.00000000000E+00  0.00000000000E+00 -0.40015453125E+03  0.40015453128E+03  0.50400001928E-02 0.  1.
    10030    2    1    2    0    0  0.00000000000E+00  0.00000000000E+00  0.83726031235E+03  0.16375693749E+04  0.14073480831E+04 0.  0.
        4    1    3    3  502    0 -0.34371115047E+03  0.78032243569E+01  0.11330347854E+04  0.11840471625E+04  0.12699999809E+01 0. -1.
       -4    1    3    3    0  502  0.34371115047E+03 -0.78032243569E+01 -0.29577447307E+03  0.45352221234E+03  0.12699999809E+01 0.  1.
</event>
<event>
 5   0  0.1833681E-04  0.1399536E+04  0.7818609E-02  0.8954155E-01
        2   -1    0    0  501    0  0.00000000000E+00  0.00000000000E+00  0.71981493314E+03  0.71981493314E+03  0.25500000920E-02 0.  1.
       -2   -1    0    0    0  501  0.00000000000E+00  0.00000000000E+00 -0.68027902312E+03  0.68027902312E+03  0.25500000920E-02 0. -1.
    10030    2    1    2    0    0  0.00000000000E+00  0.00000000000E+00  0.39535910025E+02  0.14000939563E+04  0.13995356366E+04 0.  0.
        4    1    3    3  502    0 -0.23411756428E+03  0.56501329065E+03  0.35993644774E+03  0.70965266985E+03  0.12699999809E+01 0.  1.
       -4    1    3    3    0  502  0.23411756428E+03 -0.56501329065E+03 -0.32040053772E+03  0.69044128641E+03  0.12699999809E+01 0. -1.
</event>
<event>
 5   0  0.9260916E-05  0.1377570E+04  0.7818609E-02  0.8970216E-01
       -1   -1    0    0    0  501  0.00000000000E+00  0.00000000000E+00  0.72597640074E+03  0.72597640076E+03  0.50400001928E-02 0.  1.
        1   -1    0    0  501    0  0.00000000000E+00  0.00000000000E+00 -0.65349903965E+03  0.65349903967E+03  0.50400001928E-02 0. -1.
    10030    2    1    2    0    0  0.00000000000E+00  0.00000000000E+00  0.72477361098E+02  0.13794754404E+04  0.13775701517E+04 0.  0.
        1    1    3    3  502    0  0.51994010224E+03  0.12147488919E+03  0.47196233595E+03  0.71263055309E+03  0.50400001928E-02 0. -1.
       -1    1    3    3    0  502 -0.51994010224E+03 -0.12147488919E+03 -0.39948497485E+03  0.66684488734E+03  0.50400001928E-02 0.  1.
</event>
<event>
 5   0  0.9900839E-05  0.1393556E+04  0.7818609E-02  0.8958496E-01
       -1   -1    0    0    0  501  0.00000000000E+00  0.00000000000E+00  0.45125190886E+03  0.45125190888E+03  0.50400001928E-02 0. -1.
        1   -1    0    0  501    0  0.00000000000E+00  0.00000000000E+00 -0.10758949027E+04  0.10758949027E+04  0.50400001928E-02 0.  1.
    10030    2    1    2    0    0  0.00000000000E+00  0.00000000000E+00 -0.62464299380E+03  0.15271468115E+04  0.13935560679E+04 0.  0.
        3    1    3    3  502    0 -0.39706702601E+03 -0.53736363076E+03 -0.52895267988E+03  0.85218122636E+03  0.10100000352E+00 0. -1.
       -3    1    3    3    0  502  0.39706702601E+03  0.53736363076E+03 -0.95690313916E+02  0.67496558519E+03  0.10100000352E+00 0.  1.
</event>
<event>
 5   0  0.1794185E-04  0.1402198E+04  0.7818609E-02  0.8952229E-01
        2   -1    0    0  501    0  0.00000000000E+00  0.00000000000E+00  0.49724053588E+03  0.49724053589E+03  0.25500000920E-02 0.  1.
       -2   -1    0    0    0  501  0.00000000000E+00  0.00000000000E+00 -0.98853483736E+03  0.98853483736E+03  0.25500000920E-02 0. -1.
    10030    2    1    2    0    0  0.00000000000E+00  0.00000000000E+00 -0.49129430148E+03  0.14857753733E+04  0.14021976926E+04 0.  0.
        2    1    3    3  502    0 -0.47726240196E+03 -0.39331486943E+03 -0.59557929081E+03  0.85859808903E+03  0.25500000920E-02 0. -1.
       -2    1    3    3    0  502  0.47726240196E+03  0.39331486943E+03  0.10428498933E+03  0.62717728422E+03  0.25500000920E-02 0.  1.
</event>
<event>
 5   0  0.1766237E-04  0.1399350E+04  0.7818609E-02  0.8954289E-01
       -2   -1    0    0    0  501  0.00000000000E+00  0.00000000000E+00  0.25404140105E+03  0.25404140107E+03  0.25500000920E-02 0.  1.
        2   -1    0    0  501    0  0.00000000000E+00  0.00000000000E+00 -0.19270283034E+04  0.19270283034E+04  0.25500000920E-02 0. -1.
    10030    2    1    2    0    0  0.00000000000E+00  0.00000000000E+00 -0.16729869024E+04  0.21810697045E+04  0.13993498063E+04 0.  0.
        3    1    3    3  502    0  0.57471878644E+03 -0.18310687569E+03 -0.28386013970E+03  0.66663813311E+03  0.10100000352E+00 0.  1.
       -3    1    3    3    0  502 -0.57471878644E+03  0.18310687569E+03 -0.13891267627E+04  0.15144315714E+04  0.10100000352E+00 0. -1.
</event>
<event>
 5   0  0.1780171E-04  0.1416943E+04  0.7818609E-02  0.8941645E-01
        2   -1    0    0  501    0  0.00000000000E+00  0.00000000000E+00  0.15638332724E+04  0.15638332724E+04  0.25500000920E-02 0.  1.
       -2   -1    0    0    0  501  0.00000000000E+00  0.00000000000E+00 -0.32096245067E+03  0.32096245068E+03  0.25500000920E-02 0. -1.
    10030    2    1    2    0    0  0.00000000000E+00  0.00000000000E+00  0.12428708217E+04  0.18847957231E+04  0.14169428493E+04 0.  0.
        5    1    3    3  502    0 -0.13674133379E+03 -0.18932699069E+03 -0.26826504618E+03  0.35571214032E+03  0.46999998093E+01 0. -1.
       -5    1    3    3    0  502  0.13674133379E+03  0.18932699069E+03  0.15111358679E+04  0.15290835828E+04  0.46999998093E+01 0.  1.
</event>
<event>
 5   0  0.9828111E-05  0.1398590E+04  0.7818609E-02  0.8954840E-01
       -1   -1    0    0    0  501  0.00000000000E+00  0.00000000000E+00  0.32791331556E+03  0.32791331559E+03  0.50400001928E-02 0. -1.
        1   -1    0    0  501    0  0.00000000000E+00  0.00000000000E+00 -0.14912886862E+04  0.14912886862E+04  0.50400001928E-02 0.  1.
    10030    2    1    2    0    0  0.00000000000E+00  0.00000000000E+00 -0.11633753706E+04  0.18192020018E+04  0.13985898864E+04 0.  0.
        4    1    3    3  502    0  0.35365187936E+03 -0.28043860217E+03  0.11307845448E+03  0.46529970033E+03  0.12699999809E+01 0. -1.
       -4    1    3    3    0  502 -0.35365187936E+03  0.28043860217E+03 -0.12764538251E+04  0.13539023014E+04  0.12699999809E+01 0.  1.
</event>
<event>
 5   0  0.9260916E-05  0.1400219E+04  0.7818609E-02  0.8953660E-01
       -1   -1    0    0    0  501  0.00000000000E+00  0.00000000000E+00  0.27470115996E+03  0.27470116000E+03  0.50400001928E-02 0.  1.
        1   -1    0    0  501    0  0.00000000000E+00  0.00000000000E+00 -0.17843153115E+04  0.17843153115E+04  0.50400001928E-02 0. -1.
    10030    2    1    2    0    0  0.00000000000E+00  0.00000000000E+00 -0.15096141516E+04  0.20590164715E+04  0.14002192483E+04 0.  0.
        1    1    3    3  502    0  0.16937095307E+03 -0.42871861666E+03  0.20058124453E+02  0.46139841828E+03  0.50400001928E-02 0.  1.
       -1    1    3    3    0  502 -0.16937095307E+03  0.42871861666E+03 -0.15296722760E+04  0.15976180533E+04  0.50400001928E-02 0. -1.
</event>
<event>
 5   0  0.9900839E-05  0.1399820E+04  0.7818609E-02  0.8953949E-01
       -1   -1    0    0    0  501  0.00000000000E+00  0.00000000000E+00  0.28930478409E+03  0.28930478413E+03  0.50400001928E-02 0. -1.
        1   -1    0    0  501    0  0.00000000000E+00  0.00000000000E+00 -0.16932793245E+04  0.16932793245E+04  0.50400001928E-02 0.  1.
    10030    2    1    2    0    0  0.00000000000E+00  0.00000000000E+00 -0.14039745404E+04  0.19825841086E+04  0.13998197161E+04 0.  0.
        3    1    3    3  502    0 -0.21647094722E+03 -0.52500311554E+03 -0.12814411760E+04  0.14016345601E+04  0.10100000352E+00 0.  1.
       -3    1    3    3    0  502  0.21647094722E+03  0.52500311554E+03 -0.12253336437E+03  0.58094954850E+03  0.10100000352E+00 0. -1.
</event>
<event>
 5   0  0.1766237E-04  0.1399286E+04  0.7818609E-02  0.8954336E-01
        2   -1    0    0  501    0  0.00000000000E+00  0.00000000000E+00  0.59752443422E+03  0.59752443422E+03  0.25500000920E-02 0. -1.
       -2   -1    0    0    0  501  0.00000000000E+00  0.00000000000E+00 -0.81921349294E+03  0.81921349294E+03  0.25500000920E-02 0.  1.
    10030    2    1    2    0    0  0.00000000000E+00  0.00000000000E+00 -0.22168905872E+03  0.14167379272E+04  0.13992856447E+04 0.  0.
        3    1    3    3  502    0 -0.17726887339E+03 -0.28148458048E+03  0.51233380082E+03  0.61085493874E+03  0.10100000352E+00 0. -1.
       -3    1    3    3    0  502  0.17726887339E+03  0.28148458048E+03 -0.73402285954E+03  0.80588298843E+03  0.10100000352E+00 0.  1.
</event>
<event>
 5   0  0.1794185E-04  0.1400559E+04  0.7818609E-02  0.8953414E-01
        2   -1    0    0  501    0  0.00000000000E+00  0.00000000000E+00  0.16504763484E+04  0.16504763484E+04  0.25500000920E-02 0. -1.
       -2   -1    0    0    0  501  0.00000000000E+00  0.00000000000E+00 -0.29712112072E+03  0.29712112073E+03  0.25500000920E-02 0.  1.
    10030    2    1    2    0    0  0.00000000000E+00  0.00000000000E+00  0.13533552276E+04  0.19475974691E+04  0.14005590061E+04 0.  0.
        2    1    3    3  502    0  0.51472238318E+03  0.60022167954E+02  0.21699020509E+02  0.51866428438E+03  0.25500000920E-02 0.  1.
       -2    1    3    3    0  502 -0.51472238318E+03 -0.60022167954E+02  0.13316562071E+04  0.14289331847E+04  0.25500000920E-02 0. -1.
</event>
<event>
 5   0  0.6671375E-05  0.1399048E+04  0.7818609E-02  0.8954508E-01
       -4   -1    0    0    0  501  0.00000000000E+00  0.00000000000E+00  0.90849725572E+03  0.90849814340E+03  0.12699999809E+01 0.  1.
        4   -1    0    0  501    0  0.00000000000E+00  0.00000000000E+00 -0.53861688401E+03  0.53861838127E+03  0.12699999809E+01 0. -1.
    10030    2    1    2    0    0  0.00000000000E+00  0.00000000000E+00  0.36988037171E+03  0.14471165247E+04  0.13990478000E+04 0.  0.
        5    1    3    3  502    0  0.89104464524E+02  0.68327152351E+03  0.60335370127E+02  0.69170949634E+03  0.46999998093E+01 0.  1.
       -5    1    3    3    0  502 -0.89104464524E+02 -0.68327152351E+03  0.30954500159E+03  0.75540702833E+03  0.46999998093E+01 0. -1.
</event>
<event>
 5   0  0.9978422E-05  0.1400763E+04  0.7818609E-02  0.8953267E-01
        1   -1    0    0  501    0  0.00000000000E+00  0.00000000000E+00  0.14554517261E+04  0.14554517261E+04  0.50400001928E-02 0.  1.
       -1   -1    0    0    0  501  0.00000000000E+00  0.00000000000E+00 -0.33703224386E+03  0.33703224390E+03  0.50400001928E-02 0. -1.
    10030    2    1    2    0    0  0.00000000000E+00  0.00000000000E+00  0.11184194822E+04  0.17924839700E+04  0.14007628795E+04 0.  0.
        2    1    3    3  502    0 -0.37383328874E+03  0.59201735496E+03  0.58131044930E+03  0.91003171089E+03  0.25500000920E-02 0. -1.
       -2    1    3    3    0  502  0.37383328874E+03 -0.59201735496E+03  0.53710903292E+03  0.88245225910E+03  0.25500000920E-02 0.  1.
</event>
<event>
 5   0  0.1712327E-04  0.1400924E+04  0.7818609E-02  0.8953150E-01
       -2   -1    0    0    0  501  0.00000000000E+00  0.00000000000E+00  0.66642621599E+03  0.66642621599E+03  0.25500000920E-02 0.  1.
        2   -1    0    0  501    0  0.00000000000E+00  0.00000000000E+00 -0.73623613449E+03  0.73623613450E+03  0.25500000920E-02 0. -1.
    10030    2    1    2    0    0  0.00000000000E+00  0.00000000000E+00 -0.69809918504E+02  0.14026623505E+04  0.14009240682E+04 0.  0.
        1    1    3    3  502    0 -0.64715195210E+03 -0.11661120194E+03 -0.27654077416E+03  0.71335728869E+03  0.50400001928E-02 0. -1.
       -1    1    3    3    0  502  0.64715195210E+03  0.11661120194E+03  0.20673085566E+03  0.68930506180E+03  0.50400001928E-02 0.  1.
</event>
<event>
 5   0  0.9900839E-05  0.1400486E+04  0.7818609E-02  0.8953467E-01
       -1   -1    0    0    0  501  0.00000000000E+00  0.00000000000E+00  0.35873024985E+03  0.35873024989E+03  0.50400001928E-02 0.  1.
        1   -1    0    0  501    0  0.00000000000E+00  0.00000000000E+00 -0.13668777185E+04  0.13668777185E+04  0.50400001928E-02 0. -1.
    10030    2    1    2    0    0  0.00000000000E+00  0.00000000000E+00 -0.10081474686E+04  0.17256079684E+04  0.14004861806E+04 0.  0.
        3    1    3    3  502    0  0.44542965903E+03  0.16063109508E+03  0.13156534547E+03  0.49144621291E+03  0.10100000352E+00 0.  1.
       -3    1    3    3    0  502 -0.44542965903E+03 -0.16063109508E+03 -0.11397128141E+04  0.12341617554E+04  0.10100000352E+00 0. -1.
</event>
<event>
 5   0  0.1712327E-04  0.1399021E+04  0.7818609E-02  0.8954528E-01
        2   -1    0    0  501    0  0.00000000000E+00  0.00000000000E+00  0.20426767368E+04  0.20426767368E+04  0.25500000920E-02 0. -1.
       -2   -1    0    0    0  501  0.00000000000E+00  0.00000000000E+00 -0.23954583540E+03  0.23954583542E+03  0.25500000920E-02 0.  1.
    10030    2    1    2    0    0  0.00000000000E+00  0.00000000000E+00  0.18031309014E+04  0.22822225722E+04  0.13990206652E+04 0.  0.
        1    1    3    3  502    0 -0.25299370357E+02  0.36337768175E+03 -0.72624398073E+02  0.37142657546E+03  0.50400001928E-02 0.  1.
       -1    1    3    3    0  502  0.25299370357E+02 -0.36337768175E+03  0.18757552995E+04  0.19107959968E+04  0.50400001928E-02 0. -1.
</event>
<event>
 5   0  0.9978422E-05  0.1399187E+04  0.7818609E-02  0.8954407E-01
        1   -1    0    0  501    0  0.00000000000E+00  0.00000000000E+00  0.13256258917E+04  0.13256258918E+04  0.50400001928E-02 0. -1.
       -1   -1    0    0    0  501  0.00000000000E+00  0.00000000000E+00 -0.36920770960E+03  0.36920770964E+03  0.50400001928E-02 0.  1.
    10030    2    1    2    0    0  0.00000000000E+00  0.00000000000E+00  0.95641818214E+03  0.16948336014E+04  0.13991873346E+04 0.  0.
        2    1    3    3  502    0  0.39555060808E+03 -0.53955938627E+03  0.72599792242E+03  0.98724748581E+03  0.25500000920E-02 0. -1.
       -2    1    3    3    0  502 -0.39555060808E+03  0.53955938627E+03  0.23042025972E+03  0.70758611558E+03  0.25500000920E-02 0.  1.
</event>
<event>
 5   0  0.9828111E-05  0.1399057E+04  0.7818609E-02  0.8954502E-01
        1   -1    0    0  501    0  0.00000000000E+00  0.00000000000E+00  0.86146969644E+03  0.86146969645E+03  0.50400001928E-02 0.  1.
       -1   -1    0    0    0  501  0.00000000000E+00  0.00000000000E+00 -0.56802904715E+03  0.56802904717E+03  0.50400001928E-02 0. -1.
    10030    2    1    2    0    0  0.00000000000E+00  0.00000000000E+00  0.29344064929E+03  0.14294987436E+04  0.13990565547E+04 0.  0.
        4    1    3    3  502    0 -0.56147256248E+02 -0.69444262256E+03  0.21081587973E+03  0.72790660010E+03  0.12699999809E+01 0. -1.
       -4    1    3    3    0  502  0.56147256248E+02  0.69444262256E+03  0.82624769559E+02  0.70159214353E+03  0.12699999809E+01 0.  1.
</event>
<event>
 5   0  0.1833681E-04  0.1399792E+04  0.7818609E-02  0.8953969E-01
       -2   -1    0    0    0  501  0.00000000000E+00  0.00000000000E+00  0.79748253852E+03  0.79748253852E+03  0.25500000920E-02 0. -1.
        2   -1    0    0  501    0  0.00000000000E+00  0.00000000000E+00 -0.61425095013E+03  0.61425095013E+03  0.25500000920E-02 0.  1.
    10030    2    1    2    0    0  0.00000000000E+00  0.00000000000E+00  0.18323158839E+03  0.14117334887E+04  0.13997919946E+04 0.  0.
        4    1    3    3  502    0  0.45673997032E+03 -0.52681499419E+03  0.30208306692E+02  0.69789654913E+03  0.12699999809E+01 0.  1.
       -4    1    3    3    0  502 -0.45673997032E+03  0.52681499419E+03  0.15302328170E+03  0.71383693953E+03  0.12699999809E+01 0. -1.
</event>
<event>
 5   0  0.1794185E-04  0.1400529E+04  0.7818609E-02  0.8953436E-01
        2   -1    0    0  501    0  0.00000000000E+00  0.00000000000E+00  0.50885068401E+03  0.50885068402E+03  0.25500000920E-02 0.  1.
       -2   -1    0    0    0  501  0.00000000000E+00  0.00000000000E+00 -0.96368201569E+03  0.96368201570E+03  0.25500000920E-02 0. -1.
    10030    2    1    2    0    0  0.00000000000E+00  0.00000000000E+00 -0.45483133169E+03  0.14725326997E+04  0.14005288328E+04 0.  0.
        2    1    3    3  502    0 -0.17325534183E+03  0.61895681087E+03  0.64803664796E+02  0.64600654963E+03  0.25500000920E-02 0.  1.
       -2    1    3    3    0  502  0.17325534183E+03 -0.61895681087E+03 -0.51963499648E+03  0.82652615008E+03  0.25500000920E-02 0. -1.
</event>
<event>
 5   0  0.6671375E-05  0.1399568E+04  0.7818609E-02  0.8954132E-01
        1   -1    0    0  501    0  0.00000000000E+00  0.00000000000E+00  0.48337143750E+03  0.48337143752E+03  0.50400001928E-02 0.  1.
       -1   -1    0    0    0  501  0.00000000000E+00  0.00000000000E+00 -0.10130870898E+04  0.10130870898E+04  0.50400001928E-02 0. -1.
    10030    2    1    2    0    0  0.00000000000E+00  0.00000000000E+00 -0.52971565227E+03  0.14964585273E+04  0.13995675945E+04 0.  0.
        5    1    3    3  502    0 -0.61748246481E+03  0.16255993024E+03  0.41257370454E+02  0.63987075717E+03  0.46999998093E+01 0.  1.
       -5    1    3    3    0  502  0.61748246481E+03 -0.16255993024E+03 -0.57097302272E+03  0.85658777013E+03  0.46999998093E+01 0. -1.
</event>
<event>
 5   0  0.1780171E-04  0.1397206E+04  0.7818609E-02  0.8955844E-01
       -2   -1    0    0    0  501  0.00000000000E+00  0.00000000000E+00  0.25080107879E+03  0.25080107881E+03  0.25500000920E-02 0. -1.
        2   -1    0    0  501    0  0.00000000000E+00  0.00000000000E+00 -0.19459483492E+04  0.19459483492E+04  0.25500000920E-02 0.  1.
    10030    2    1    2    0    0  0.00000000000E+00  0.00000000000E+00 -0.16951472704E+04  0.21967494280E+04  0.13972057046E+04 0.  0.
        5    1    3    3  502    0  0.14037597619E+03  0.34341047886E+03 -0.17782412203E+04  0.18165351908E+04  0.46999998093E+01 0.  1.
       -5    1    3    3    0  502 -0.14037597619E+03 -0.34341047886E+03  0.83093949920E+02  0.38021423723E+03  0.46999998093E+01 0. -1.
</event>
<event>
 5   0  0.1794185E-04  0.1400076E+04  0.7818609E-02  0.8953763E-01
        2   -1    0    0  501    0  0.00000000000E+00  0.00000000000E+00  0.12583712020E+04  0.12583712020E+04  0.25500000920E-02 0. -1.
       -2   -1    0    0    0  501  0.00000000000E+00  0.00000000000E+00 -0.38943456132E+03  0.38943456133E+03  0.25500000920E-02 0.  1.
    10030    2    1    2    0    0  0.00000000000E+00  0.00000000000E+00  0.86893664073E+03  0.16478057634E+04  0.14000760509E+04 0.  0.
        2    1    3    3  502    0  0.32674081400E+03  0.14422216235E+02 -0.29398604154E+03  0.43976738452E+03  0.25500000920E-02 0.  1.
       -2    1    3    3    0  502 -0.32674081400E+03 -0.14422216235E+02  0.11629226823E+04  0.12080383789E+04  0.25500000920E-02 0. -1.
</event>
<event>
 5   0  0.6671375E-05  0.1398568E+04  0.7818609E-02  0.8954856E-01
        4   -1    0    0  501    0  0.00000000000E+00  0.00000000000E+00  0.81967082587E+03  0.81967180974E+03  0.12699999809E+01 0.  1.
       -4   -1    0    0    0  501  0.00000000000E+00  0.00000000000E+00 -0.59657680773E+03  0.59657815952E+03  0.12699999809E+01 0. -1.
    10030    2    1    2    0    0  0.00000000000E+00  0.00000000000E+00  0.22309401814E+03  0.14162499693E+04  0.13985682087E+04 0.  0.
        4    1    3    3  502    0  0.48332865322E+03  0.50463244172E+03  0.13902225697E+03  0.71245300834E+03  0.12699999809E+01 0. -1.
       -4    1    3    3    0  502 -0.48332865322E+03 -0.50463244172E+03  0.84071761172E+02  0.70379696091E+03  0.12699999809E+01 0.  1.
</event>
<event>
 5   0  0.9900839E-05  0.1401052E+04  0.7818609E-02  0.8953058E-01
       -1   -1    0    0    0  501  0.00000000000E+00  0.00000000000E+00  0.42287273702E+03  0.42287273705E+03  0.50400001928E-02 0. -1.
        1   -1    0    0  501    0  0.00000000000E+00  0.00000000000E+00 -0.11604826504E+04  0.11604826505E+04  0.50400001928E-02 0.  1.
    10030    2    1    2    0    0  0.00000000000E+00  0.00000000000E+00 -0.73760991343E+03  0.15833553875E+04  0.14010517117E+04 0.  0.
        3    1    3    3  502    0  0.17243900036E+03 -0.55898087425E+03  0.66755398416E+02  0.58877085529E+03  0.10100000352E+00 0. -1.
       -3    1    3    3    0  502 -0.17243900036E+03  0.55898087425E+03 -0.80436531185E+03  0.99458453222E+03  0.10100000352E+00 0.  1.
</event>
<event>
 5   0  0.1712327E-04  0.1408055E+04  0.7818609E-02  0.8948009E-01
        2   -1    0    0  501    0  0.00000000000E+00  0.00000000000E+00  0.71740516128E+03  0.71740516128E+03  0.25500000920E-02 0.  1.
       -2   -1    0    0    0  501  0.00000000000E+00  0.00000000000E+00 -0.69089888747E+03  0.69089888748E+03  0.25500000920E-02 0. -1.
    10030    2    1    2    0    0  0.00000000000E+00  0.00000000000E+00  0.26506273803E+02  0.14083040488E+04  0.14080545839E+04 0.  0.
        1    1    3    3  502    0  0.49417142213E+03  0.27180615746E+02 -0.48754531751E+03  0.69472628924E+03  0.50400001928E-02 0. -1.
       -1    1    3    3    0  502 -0.49417142213E+03 -0.27180615746E+02  0.51405159131E+03  0.71357775951E+03  0.50400001928E-02 0.  1.
</event>
<event>
 5   0  0.9900839E-05  0.1393544E+04  0.7818609E-02  0.8958505E-01
       -1   -1    0    0    0  501  0.00000000000E+00  0.00000000000E+00  0.26695147182E+03  0.26695147187E+03  0.50400001928E-02 0. -1.
        1   -1    0    0  501    0  0.00000000000E+00  0.00000000000E+00 -0.18186486725E+04  0.18186486725E+04  0.50400001928E-02 0.  1.
    10030    2    1    2    0    0  0.00000000000E+00  0.00000000000E+00 -0.15516972006E+04  0.20856001443E+04  0.13935435980E+04 0.  0.
        3    1    3    3  502    0 -0.31395097147E+02 -0.37717272786E+03  0.99698845004E+02  0.39138828376E+03  0.10100000352E+00 0. -1.
       -3    1    3    3    0  502  0.31395097147E+02  0.37717272786E+03 -0.16513960456E+04  0.16942118606E+04  0.10100000352E+00 0.  1.
</event>
<event>
 5   0  0.1794185E-04  0.1401447E+04  0.7818609E-02  0.8952772E-01
        2   -1    0    0  501    0  0.00000000000E+00  0.00000000000E+00  0.42174285332E+03  0.42174285332E+03  0.25500000920E-02 0. -1.
       -2   -1    0    0    0  501  0.00000000000E+00  0.00000000000E+00 -0.11642485197E+04  0.11642485197E+04  0.25500000920E-02 0.  1.
    10030    2    1    2    0    0  0.00000000000E+00  0.00000000000E+00 -0.74250566633E+03  0.15859913730E+04  0.14014470988E+04 0.  0.
        2    1    3    3  502    0  0.57965519695E+03 -0.13269820177E+02 -0.81656221660E+03  0.10014739583E+04  0.25500000920E-02 0.  1.
       -2    1    3    3    0  502 -0.57965519695E+03  0.13269820177E+02  0.74056550266E+02  0.58451741473E+03  0.25500000920E-02 0. -1.
</event>
<event>
 5   0  0.1766237E-04  0.1399200E+04  0.7818609E-02  0.8954398E-01
       -2   -1    0    0    0  501  0.00000000000E+00  0.00000000000E+00  0.11471509005E+04  0.11471509005E+04  0.25500000920E-02 0.  1.
        2   -1    0    0  501    0  0.00000000000E+00  0.00000000000E+00 -0.42665692168E+03  0.42665692169E+03  0.25500000920E-02 0. -1.
    10030    2    1    2    0    0  0.00000000000E+00  0.00000000000E+00  0.72049397886E+03  0.15738078222E+04  0.13991995883E+04 0.  0.
        3    1    3    3  502    0 -0.18295911187E+03  0.67478121347E+03  0.33187772542E+03  0.77391637629E+03  0.10100000352E+00 0. -1.
       -3    1    3    3    0  502  0.18295911187E+03 -0.67478121347E+03  0.38861625344E+03  0.79989144595E+03  0.10100000352E+00 0.  1.
</event>
<event>
 5   0  0.1712327E-04  0.1398191E+04  0.7818609E-02  0.8955129E-01
       -2   -1    0    0    0  501  0.00000000000E+00  0.00000000000E+00  0.25467198137E+03  0.25467198138E+03  0.25500000920E-02 0.  1.
        2   -1    0    0  501    0  0.00000000000E+00  0.00000000000E+00 -0.19190742694E+04  0.19190742694E+04  0.25500000920E-02 0. -1.
    10030    2    1    2    0    0  0.00000000000E+00  0.00000000000E+00 -0.16644022880E+04  0.21737462508E+04  0.13981908977E+04 0.  0.
        1    1    3    3  502    0 -0.41472587008E+02  0.60321363341E+02  0.24869714467E+03  0.25924681704E+03  0.50400001928E-02 0.  1.
       -1    1    3    3    0  502  0.41472587008E+02 -0.60321363341E+02 -0.19130994327E+04  0.19144994337E+04  0.50400001928E-02 0. -1.
</event>
<event>
 5   0  0.1780171E-04  0.1403677E+04  0.7818609E-02  0.8951161E-01
       -2   -1    0    0    0  501  0.00000000000E+00  0.00000000000E+00  0.61856951214E+03  0.61856951215E+03  0.25500000920E-02 0. -1.
        2   -1    0    0  501    0  0.00000000000E+00  0.00000000000E+00 -0.79631704038E+03  0.79631704038E+03  0.25500000920E-02 0.  1.
    10030    2    1    2    0    0  0.00000000000E+00  0.00000000000E+00 -0.17774752824E+03  0.14148865525E+04  0.14036772324E+04 0.  0.
        5    1    3    3  502    0  0.26895973951E+03 -0.69774182915E+02 -0.73849498427E+03  0.78905304630E+03  0.46999998093E+01 0.  1.
       -5    1    3    3    0  502 -0.26895973951E+03  0.69774182915E+02  0.56074745604E+03  0.62583350623E+03  0.46999998093E+01 0. -1.
</event>
<event>
 5   0  0.9828111E-05  0.1398488E+04  0.7818609E-02  0.8954914E-01
        1   -1    0    0  501    0  0.00000000000E+00  0.00000000000E+00  0.85818124989E+03  0.85818124990E+03  0.50400001928E-02 0.  1.
       -1   -1    0    0    0  501  0.00000000000E+00  0.00000000000E+00 -0.56974234730E+03  0.56974234732E+03  0.50400001928E-02 0. -1.
    10030    2    1    2    0    0  0.00000000000E+00  0.00000000000E+00  0.28843890259E+03  0.14279235972E+04  0.13984880403E+04 0.  0.
        4    1    3    3  502    0  0.81692605326E+02 -0.23055640535E+03 -0.52463382705E+03  0.57885421584E+03  0.12699999809E+01 0. -1.
       -4    1    3    3    0  502 -0.81692605326E+02  0.23055640535E+03  0.81307272964E+03  0.84906938138E+03  0.12699999809E+01 0.  1.
</event>
<event>
 5   0  0.6671375E-05  0.1399379E+04  0.7818609E-02  0.8954268E-01
       -1   -1    0    0    0  501  0.00000000000E+00  0.00000000000E+00  0.63268958293E+03  0.63268958295E+03  0.50400001928E-02 0. -1.
        1   -1    0    0  501    0  0.00000000000E+00  0.00000000000E+00 -0.77378462413E+03  0.77378462415E+03  0.50400001928E-02 0.  1.
    10030    2    1    2    0    0  0.00000000000E+00  0.00000000000E+00 -0.14109504121E+03  0.14064742071E+04  0.13993791068E+04 0.  0.
        5    1    3    3  502    0 -0.46865114819E+02 -0.65422927427E+03  0.17426723067E+03  0.67867771437E+03  0.46999998093E+01 0.  1.
       -5    1    3    3    0  502  0.46865114819E+02  0.65422927427E+03 -0.31536227188E+03  0.72779649273E+03  0.46999998093E+01 0. -1.
</event>
<event>
 5   0  0.6671375E-05  0.1389557E+04  0.7818609E-02  0.8961413E-01
        1   -1    0    0  501    0  0.00000000000E+00  0.00000000000E+00  0.17067298929E+04  0.17067298929E+04  0.50400001928E-02 0.  1.
       -1   -1    0    0    0  501  0.00000000000E+00  0.00000000000E+00 -0.28283147181E+03  0.28283147185E+03  0.50400001928E-02 0. -1.
    10030    2    1    2    0    0  0.00000000000E+00  0.00000000000E+00  0.14238984211E+04  0.19895613647E+04  0.13895566597E+04 0.  0.
        5    1    3    3  502    0 -0.41717367236E+03 -0.17277406032E+03  0.14679727558E+04  0.15358550877E+04  0.46999998093E+01 0.  1.
       -5    1    3    3    0  502  0.41717367236E+03  0.17277406032E+03 -0.44074334685E+02  0.45370627702E+03  0.46999998093E+01 0. -1.
</event>
<event>
 5   0  0.1833681E-04  0.1402210E+04  0.7818609E-02  0.8952221E-01
        2   -1    0    0  501    0  0.00000000000E+00  0.00000000000E+00  0.10005280271E+04  0.10005280271E+04  0.25500000920E-02 0. -1.
       -2   -1    0    0    0  501  0.00000000000E+00  0.00000000000E+00 -0.49128849932E+03  0.49128849933E+03  0.25500000920E-02 0.  1.
    10030    2    1    2    0    0  0.00000000000E+00  0.00000000000E+00  0.50923952778E+03  0.14918165264E+04  0.14022095606E+04 0.  0.
        4    1    3    3  502    0 -0.88913613532E+02 -0.28011714807E+03 -0.42259097875E+03  0.51473876436E+03  0.12699999809E+01 0.  1.
       -4    1    3    3    0  502  0.88913613532E+02  0.28011714807E+03  0.93183050654E+03  0.97707776207E+03  0.12699999809E+01 0. -1.
</event>
<event>
 5   0  0.9828111E-05  0.1400912E+04  0.7818609E-02  0.8953159E-01
       -1   -1    0    0    0  501  0.00000000000E+00  0.00000000000E+00  0.59246263014E+03  0.59246263016E+03  0.50400001928E-02 0. -1.
        1   -1    0    0  501    0  0.00000000000E+00  0.00000000000E+00 -0.82813411773E+03  0.82813411775E+03  0.50400001928E-02 0.  1.
    10030    2    1    2    0    0  0.00000000000E+00  0.00000000000E+00 -0.23567148759E+03  0.14205967479E+04  0.14009118709E+04 0.  0.
        4    1    3    3  502    0 -0.30405749803E+03  0.47275307851E+03 -0.54166858595E+03  0.78061059771E+03  0.12699999809E+01 0.  1.
       -4    1    3    3    0  502  0.30405749803E+03 -0.47275307851E+03  0.30599709836E+03  0.63998615020E+03  0.12699999809E+01 0. -1.
</event>
<event>
 5   0  0.6671375E-05  0.1401011E+04  0.7818609E-02  0.8953087E-01
        1   -1    0    0  501    0  0.00000000000E+00  0.00000000000E+00  0.50387739130E+03  0.50387739132E+03  0.50400001928E-02 0. -1.
       -1   -1    0    0    0  501  0.00000000000E+00  0.00000000000E+00 -0.97386369691E+03  0.97386369692E+03  0.50400001928E-02 0.  1.
    10030    2    1    2    0    0  0.00000000000E+00  0.00000000000E+00 -0.46998630561E+03  0.14777410882E+04  0.14010109195E+04 0.  0.
        5    1    3    3  502    0 -0.44163109958E+02  0.73639383769E+02 -0.96827497463E+03  0.97208623878E+03  0.46999998093E+01 0.  1.
       -5    1    3    3    0  502  0.44163109958E+02 -0.73639383769E+02  0.49828866902E+03  0.50565484947E+03  0.46999998093E+01 0. -1.
</event>
<event>
 5   0  0.9260916E-05  0.1398552E+04  0.7818609E-02  0.8954867E-01
        1   -1    0    0  501    0  0.00000000000E+00  0.00000000000E+00  0.60702293871E+03  0.60702293873E+03  0.50400001928E-02 0. -1.
       -1   -1    0    0    0  501  0.00000000000E+00  0.00000000000E+00 -0.80554929318E+03  0.80554929320E+03  0.50400001928E-02 0.  1.
    10030    2    1    2    0    0  0.00000000000E+00  0.00000000000E+00 -0.19852635448E+03  0.14125722319E+04  0.13985519644E+04 0.  0.
        1    1    3    3  502    0 -0.27926360865E+03 -0.24937336354E+03  0.49726031979E+03  0.62244924550E+03  0.50400001928E-02 0. -1.
       -1    1    3    3    0  502  0.27926360865E+03  0.24937336354E+03 -0.69578667427E+03  0.79012298643E+03  0.50400001928E-02 0.  1.
</event>
<event>
 5   0  0.1712327E-04  0.1398961E+04  0.7818609E-02  0.8954571E-01
        2   -1    0    0  501    0  0.00000000000E+00  0.00000000000E+00  0.21036793212E+04  0.21036793212E+04  0.25500000920E-02 0.  1.
       -2   -1    0    0    0  501  0.00000000000E+00  0.00000000000E+00 -0.23257977011E+03  0.23257977012E+03  0.25500000920E-02 0. -1.
    10030    2    1    2    0    0  0.00000000000E+00  0.00000000000E+00  0.18710995511E+04  0.23362590913E+04  0.13989614046E+04 0.  0.
        1    1    3    3  502    0 -0.58016057787E+03 -0.22792568398E+03  0.14655907353E+04  0.15926370010E+04  0.50400001928E-02 0.  1.
       -1    1    3    3    0  502  0.58016057787E+03  0.22792568398E+03  0.40550881583E+03  0.74362209036E+03  0.50400001928E-02 0. -1.
</event>
<event>
 5   0  0.6671375E-05  0.1397122E+04  0.7818609E-02  0.8955904E-01
       -1   -1    0    0    0  501  0.00000000000E+00  0.00000000000E+00  0.68023949907E+03  0.68023949909E+03  0.50400001928E-02 0.  1.
        1   -1    0    0  501    0  0.00000000000E+00  0.00000000000E+00 -0.71737595040E+03  0.71737595042E+03  0.50400001928E-02 0. -1.
    10030    2    1    2    0    0  0.00000000000E+00  0.00000000000E+00 -0.37136451329E+02  0.13976154495E+04  0.13971219806E+04 0.  0.
        5    1    3    3  502    0 -0.40749399169E+03 -0.44333194229E+03 -0.37277068388E+03  0.70821934249E+03  0.46999998093E+01 0. -1.
       -5    1    3    3    0  502  0.40749399169E+03  0.44333194229E+03  0.33563423255E+03  0.68939610702E+03  0.46999998093E+01 0.  1.
</event>
<event>
 5   0  0.1833681E-04  0.1406215E+04  0.7818609E-02  0.8949332E-01
        2   -1    0    0  501    0  0.00000000000E+00  0.00000000000E+00  0.20495543818E+04  0.20495543818E+04  0.25500000920E-02 0. -1.
       -2   -1    0    0    0  501  0.00000000000E+00  0.00000000000E+00 -0.24120359232E+03  0.24120359234E+03  0.25500000920E-02 0.  1.
    10030    2    1    2    0    0  0.00000000000E+00  0.00000000000E+00  0.18083507894E+04  0.22907579741E+04  0.14062146060E+04 0.  0.
        4    1    3    3  502    0  0.18880174238E+03  0.31325021166E+03  0.18823858902E+04  0.19175896447E+04  0.12699999809E+01 0. -1.
       -4    1    3    3    0  502 -0.18880174238E+03 -0.31325021166E+03 -0.74035100733E+02  0.37316832941E+03  0.12699999809E+01 0.  1.
</event>
<event>
 5   0  0.1712327E-04  0.1400941E+04  0.7818609E-02  0.8953138E-01
       -2   -1    0    0    0  501  0.00000000000E+00  0.00000000000E+00  0.38085776530E+03  0.38085776531E+03  0.25500000920E-02 0. -1.
        2   -1    0    0  501    0  0.00000000000E+00  0.00000000000E+00 -0.12882998964E+04  0.12882998964E+04  0.25500000920E-02 0.  1.
    10030    2    1    2    0    0  0.00000000000E+00  0.00000000000E+00 -0.90744213113E+03  0.16691576617E+04  0.14009411402E+04 0.  0.
        1    1    3    3  502    0  0.51550000599E+03 -0.19374695051E+03  0.62029973177E+02  0.55418936710E+03  0.50400001928E-02 0. -1.
       -1    1    3    3    0  502 -0.51550000599E+03  0.19374695051E+03 -0.96947210430E+03  0.11149682946E+04  0.50400001928E-02 0.  1.
</event>
<event>
 5   0  0.1766237E-04  0.1396326E+04  0.7818609E-02  0.8956482E-01
       -2   -1    0    0    0  501  0.00000000000E+00  0.00000000000E+00  0.38380290008E+03  0.38380290008E+03  0.25500000920E-02 0. -1.
        2   -1    0    0  501    0  0.00000000000E+00  0.00000000000E+00 -0.12700048605E+04  0.12700048606E+04  0.25500000920E-02 0.  1.
    10030    2    1    2    0    0  0.00000000000E+00  0.00000000000E+00 -0.88620196047E+03  0.16538077606E+04  0.13963259628E+04 0.  0.
        3    1    3    3  502    0  0.55748444531E+03 -0.32813600736E+03 -0.13205369730E+03  0.66022748751E+03  0.10100000352E+00 0. -1.
       -3    1    3    3    0  502 -0.55748444531E+03  0.32813600736E+03 -0.75414826317E+03  0.99358027312E+03  0.10100000352E+00 0.  1.
</event>
<event>
 5   0  0.1794185E-04  0.1399178E+04  0.7818609E-02  0.8954413E-01
        2   -1    0    0  501    0  0.00000000000E+00  0.00000000000E+00  0.70110154357E+03  0.70110154358E+03  0.25500000920E-02 0.  1.
       -2   -1    0    0    0  501  0.00000000000E+00  0.00000000000E+00 -0.69808011328E+03  0.69808011328E+03  0.25500000920E-02 0. -1.
    10030    2    1    2    0    0  0.00000000000E+00  0.00000000000E+00  0.30214302937E+01  0.13991816569E+04  0.13991783946E+04 0.  0.
        2    1    3    3  502    0 -0.47497375229E+03  0.50117289645E+02  0.51269997111E+03  0.70069470418E+03  0.25500000920E-02 0.  1.
       -2    1    3    3    0  502  0.47497375229E+03 -0.50117289645E+02 -0.50967854082E+03  0.69848695268E+03  0.25500000920E-02 0. -1.
</event>
<event>
 5   0  0.1712327E-04  0.1401173E+04  0.7818609E-02  0.8952970E-01
       -2   -1    0    0    0  501  0.00000000000E+00  0.00000000000E+00  0.26313813157E+03  0.26313813159E+03  0.25500000920E-02 0.  1.
        2   -1    0    0  501    0  0.00000000000E+00  0.00000000000E+00 -0.18652628646E+04  0.18652628646E+04  0.25500000920E-02 0. -1.
    10030    2    1    2    0    0  0.00000000000E+00  0.00000000000E+00 -0.16021247330E+04  0.21284009962E+04  0.14011734869E+04 0.  0.
        1    1    3    3  502    0  0.22946133107E+03 -0.45988420960E+03 -0.77852874336E+02  0.51981444647E+03  0.50400001928E-02 0.  1.
       -1    1    3    3    0  502 -0.22946133107E+03  0.45988420960E+03 -0.15242718587E+04  0.16085865497E+04  0.50400001928E-02 0. -1.
</event>
<event>
 5   0  0.1780171E-04  0.1399535E+04  0.7818609E-02  0.8954155E-01
        2   -1    0    0  501    0  0.00000000000E+00  0.00000000000E+00  0.22339850532E+04  0.22339850532E+04  0.25500000920E-02 0. -1.
       -2   -1    0    0    0  501  0.00000000000E+00  0.00000000000E+00 -0.21919339038E+03  0.21919339040E+03  0.25500000920E-02 0.  1.
    10030    2    1    2    0    0  0.00000000000E+00  0.00000000000E+00  0.20147916628E+04  0.24531784435E+04  0.13995352913E+04 0.  0.
        5    1    3    3  502    0 -0.37181529179E+03  0.52001384937E+03  0.15062405944E+04  0.16362896544E+04  0.46999998093E+01 0. -1.
       -5    1    3    3    0  502  0.37181529179E+03 -0.52001384937E+03  0.50855106834E+03  0.81688878916E+03  0.46999998093E+01 0.  1.
</event>
<event>
 5   0  0.6671375E-05  0.1398757E+04  0.7818609E-02  0.8954719E-01
        3   -1    0    0  501    0  0.00000000000E+00  0.00000000000E+00  0.10184341066E+04  0.10184341116E+04  0.10100000352E+00 0.  1.
       -3   -1    0    0    0  501  0.00000000000E+00  0.00000000000E+00 -0.48027702879E+03  0.48027703941E+03  0.10100000352E+00 0. -1.
    10030    2    1    2    0    0  0.00000000000E+00  0.00000000000E+00  0.53815707782E+03  0.14987111510E+04  0.13987573320E+04 0.  0.
        1    1    3    3  502    0  0.51020004147E+03  0.44865548000E+03  0.44687196897E+03  0.81319762587E+03  0.50400001928E-02 0. -1.
       -1    1    3    3    0  502 -0.51020004147E+03 -0.44865548000E+03  0.91285108851E+02  0.68551352516E+03  0.50400001928E-02 0.  1.
</event>
<event>
 5   0  0.1794185E-04  0.1394417E+04  0.7818609E-02  0.8957870E-01
        2   -1    0    0  501    0  0.00000000000E+00  0.00000000000E+00  0.17083508619E+04  0.17083508619E+04  0.25500000920E-02 0. -1.
       -2   -1    0    0    0  501  0.00000000000E+00  0.00000000000E+00 -0.28454316506E+03  0.28454316508E+03  0.25500000920E-02 0.  1.
    10030    2    1    2    0    0  0.00000000000E+00  0.00000000000E+00  0.14238076968E+04  0.19928940270E+04  0.13944168119E+04 0.  0.
        2    1    3    3  502    0 -0.20095649504E+03 -0.52482070643E+03  0.13016600153E+04  0.14177937375E+04  0.25500000920E-02 0. -1.
       -2    1    3    3    0  502  0.20095649504E+03  0.52482070643E+03  0.12214768154E+03  0.57510028943E+03  0.25500000920E-02 0.  1.
</event>
<event>
 5   0  0.9900839E-05  0.1401018E+04  0.7818609E-02  0.8953082E-01
       -1   -1    0    0    0  501  0.00000000000E+00  0.00000000000E+00  0.15572913518E+04  0.15572913518E+04  0.50400001928E-02 0. -1.
        1   -1    0    0  501    0  0.00000000000E+00  0.00000000000E+00 -0.31510649209E+03  0.31510649213E+03  0.50400001928E-02 0.  1.
    10030    2    1    2    0    0  0.00000000000E+00  0.00000000000E+00  0.12421848597E+04  0.18723978439E+04  0.14010176517E+04 0.  0.
        3    1    3    3  502    0  0.52267533189E+02  0.60087412619E+03  0.14494837472E+03  0.62031576805E+03  0.10100000352E+00 0.  1.
       -3    1    3    3    0  502 -0.52267533189E+02 -0.60087412619E+03  0.10972364850E+04  0.12520820759E+04  0.10100000352E+00 0. -1.
</event>
<event>
 5   0  0.9260916E-05  0.1424939E+04  0.7818609E-02  0.8935961E-01
       -1   -1    0    0    0  501  0.00000000000E+00  0.00000000000E+00  0.72540125592E+03  0.72540125594E+03  0.50400001928E-02 0. -1.
        1   -1    0    0  501    0  0.00000000000E+00  0.00000000000E+00 -0.69976858417E+03  0.69976858419E+03  0.50400001928E-02 0.  1.
    10030    2    1    2    0    0  0.00000000000E+00  0.00000000000E+00  0.25632671750E+02  0.14251698401E+04  0.14249393108E+04 0.  0.
        1    1    3    3  502    0  0.60825675675E+02 -0.58010666274E+01 -0.69714327212E+03  0.69981580226E+03  0.50400001928E-02 0.  1.
       -1    1    3    3    0  502 -0.60825675675E+02  0.58010666274E+01  0.72277594387E+03  0.72535403788E+03  0.50400001928E-02 0. -1.
</event>
<event>
 5   0  0.1794185E-04  0.1400147E+04  0.7818609E-02  0.8953713E-01
       -2   -1    0    0    0  501  0.00000000000E+00  0.00000000000E+00  0.99273023666E+03  0.99273023666E+03  0.25500000920E-02 0. -1.
        2   -1    0    0  501    0  0.00000000000E+00  0.00000000000E+00 -0.49369158153E+03  0.49369158154E+03  0.25500000920E-02 0.  1.
    10030    2    1    2    0    0  0.00000000000E+00  0.00000000000E+00  0.49903865513E+03  0.14864218182E+04  0.14001465074E+04 0.  0.
        2    1    3    3  502    0 -0.47502519332E+03  0.12581715430E+03  0.77886556004E+03  0.92092912389E+03  0.25500000920E-02 0. -1.
       -2    1    3    3    0  502  0.47502519332E+03 -0.12581715430E+03 -0.27982690491E+03  0.56549269431E+03  0.25500000920E-02 0.  1.
</event>
<event>
 5   0  0.1780171E-04  0.1399237E+04  0.7818609E-02  0.8954371E-01
        2   -1    0    0  501    0  0.00000000000E+00  0.00000000000E+00  0.59361215508E+03  0.59361215509E+03  0.25500000920E-02 0. -1.
       -2   -1    0    0    0  501  0.00000000000E+00  0.00000000000E+00 -0.82455486907E+03  0.82455486908E+03  0.25500000920E-02 0.  1.
    10030    2    1    2    0    0  0.00000000000E+00  0.00000000000E+00 -0.23094271399E+03  0.14181670242E+04  0.13992366388E+04 0.  0.
        5    1    3    3  502    0  0.58647156839E+03 -0.28151914176E+03 -0.37632817670E+03  0.75156298092E+03  0.46999998093E+01 0.  1.
       -5    1    3    3    0  502 -0.58647156839E+03  0.28151914176E+03  0.14538546271E+03  0.66660404325E+03  0.46999998093E+01 0. -1.
</event>
<event>
 5   0  0.1780171E-04  0.1399406E+04  0.7818609E-02  0.8954249E-01
       -2   -1    0    0    0  501  0.00000000000E+00  0.00000000000E+00  0.98485590614E+03  0.98485590614E+03  0.25500000920E-02 0.  1.
        2   -1    0    0  501    0  0.00000000000E+00  0.00000000000E+00 -0.49711245833E+03  0.49711245834E+03  0.25500000920E-02 0. -1.
    10030    2    1    2    0    0  0.00000000000E+00  0.00000000000E+00  0.48774344781E+03  0.14819683645E+04  0.13994057891E+04 0.  0.
        5    1    3    3  502    0 -0.39909760450E+03 -0.19812486910E+03  0.81517131637E+03  0.92900954070E+03  0.46999998093E+01 0.  1.
       -5    1    3    3    0  502  0.39909760450E+03  0.19812486910E+03 -0.32742786857E+03  0.55295882378E+03  0.46999998093E+01 0. -1.
</event>
<event>
 5   0  0.9828111E-05  0.1399427E+04  0.7818609E-02  0.8954234E-01
       -1   -1    0    0    0  501  0.00000000000E+00  0.00000000000E+00  0.10664355241E+04  0.10664355241E+04  0.50400001928E-02 0. -1.
        1   -1    0    0  501    0  0.00000000000E+00  0.00000000000E+00 -0.45909821222E+03  0.45909821225E+03  0.50400001928E-02 0.  1.
    10030    2    1    2    0    0  0.00000000000E+00  0.00000000000E+00  0.60733731184E+03  0.15255337363E+04  0.13994265148E+04 0.  0.
        4    1    3    3  502    0  0.44555497704E+03  0.24393831333E+03  0.82825217177E+03  0.97161124490E+03  0.12699999809E+01 0. -1.
       -4    1    3    3    0  502 -0.44555497704E+03 -0.24393831333E+03 -0.22091485993E+03  0.55392249143E+03  0.12699999809E+01 0.  1.
</event>
<event>
 5   0  0.6671375E-05  0.1398403E+04  0.7818609E-02  0.8954975E-01
       -1   -1    0    0    0  501  0.00000000000E+00  0.00000000000E+00  0.33686866614E+03  0.33686866618E+03  0.50400001928E-02 0. -1.
        1   -1    0    0  501    0  0.00000000000E+00  0.00000000000E+00 -0.14512559985E+04  0.14512559985E+04  0.50400001928E-02 0.  1.
    10030    2    1    2    0    0  0.00000000000E+00  0.00000000000E+00 -0.11143873323E+04  0.17881246646E+04  0.13984029068E+04 0.  0.
        5    1    3    3  502    0  0.15250555092E+03  0.18706354503E+03  0.28189424738E+03  0.37112958606E+03  0.46999998093E+01 0. -1.
       -5    1    3    3    0  502 -0.15250555092E+03 -0.18706354503E+03 -0.13962815797E+04  0.14169950786E+04  0.46999998093E+01 0.  1.
</event>
<event>
 5   0  0.1712327E-04  0.1406987E+04  0.7818609E-02  0.8948777E-01
       -2   -1    0    0    0  501  0.00000000000E+00  0.00000000000E+00  0.89892469486E+03  0.89892469487E+03  0.25500000920E-02 0.  1.
        2   -1    0    0  501    0  0.00000000000E+00  0.00000000000E+00 -0.55055000088E+03  0.55055000089E+03  0.25500000920E-02 0. -1.
    10030    2    1    2    0    0  0.00000000000E+00  0.00000000000E+00  0.34837469398E+03  0.14494746958E+04  0.14069868394E+04 0.  0.
        1    1    3    3  502    0 -0.56465484661E+03 -0.14458702724E+03  0.57998914718E+03  0.82226997702E+03  0.50400001928E-02 0. -1.
       -1    1    3    3    0  502  0.56465484661E+03  0.14458702724E+03 -0.23161445319E+03  0.62720471873E+03  0.50400001928E-02 0.  1.
</event>
<event>
 5   0  0.1833681E-04  0.1397568E+04  0.7818609E-02  0.8955581E-01
        2   -1    0    0  501    0  0.00000000000E+00  0.00000000000E+00  0.21157632387E+04  0.21157632387E+04  0.25500000920E-02 0. -1.
       -2   -1    0    0    0  501  0.00000000000E+00  0.00000000000E+00 -0.23079109878E+03  0.23079109879E+03  0.25500000920E-02 0.  1.
    10030    2    1    2    0    0  0.00000000000E+00  0.00000000000E+00  0.18849721399E+04  0.23465543375E+04  0.13975683491E+04 0.  0.
        4    1    3    3  502    0  0.26493195303E+03  0.24599359733E+02  0.20273810324E+04  0.20447663758E+04  0.12699999809E+01 0. -1.
       -4    1    3    3    0  502 -0.26493195303E+03 -0.24599359733E+02 -0.14240889250E+03  0.30178796165E+03  0.12699999809E+01 0.  1.
</event>
<event>
 5   0  0.1794185E-04  0.1398078E+04  0.7818609E-02  0.8955211E-01
       -2   -1    0    0    0  501  0.00000000000E+00  0.00000000000E+00  0.31519338599E+03  0.31519338600E+03  0.25500000920E-02 0. -1.
        2   -1    0    0  501    0  0.00000000000E+00  0.00000000000E+00 -0.15503352972E+04  0.15503352972E+04  0.25500000920E-02 0.  1.
    10030    2    1    2    0    0  0.00000000000E+00  0.00000000000E+00 -0.12351419113E+04  0.18655286833E+04  0.13980778688E+04 0.  0.
        2    1    3    3  502    0  0.59723623738E+02 -0.69462649735E+03 -0.68538113848E+03  0.97766056842E+03  0.25500000920E-02 0.  1.
       -2    1    3    3    0  502 -0.59723623738E+02  0.69462649735E+03 -0.54976077277E+03  0.88786811483E+03  0.25500000920E-02 0. -1.
</event>
<event>
 5   0  0.1794185E-04  0.1399021E+04  0.7818609E-02  0.8954527E-01
       -2   -1    0    0    0  501  0.00000000000E+00  0.00000000000E+00  0.53377736188E+03  0.53377736188E+03  0.25500000920E-02 0. -1.
        2   -1    0    0  501    0  0.00000000000E+00  0.00000000000E+00 -0.91670276743E+03  0.91670276743E+03  0.25500000920E-02 0.  1.
    10030    2    1    2    0    0  0.00000000000E+00  0.00000000000E+00 -0.38292540555E+03  0.14504801293E+04  0.13990213506E+04 0.  0.
        2    1    3    3  502    0 -0.42294332040E+03 -0.74320542419E+02 -0.76396033535E+03  0.87637890738E+03  0.25500000920E-02 0. -1.
       -2    1    3    3    0  502  0.42294332040E+03  0.74320542419E+02  0.38103492980E+03  0.57410122194E+03  0.25500000920E-02 0.  1.
</event>
<event>
 5   0  0.6671375E-05  0.1401210E+04  0.7818609E-02  0.8952943E-01
        4   -1    0    0  501    0  0.00000000000E+00  0.00000000000E+00  0.16066500664E+04  0.16066505684E+04  0.12699999809E+01 0.  1.
       -4   -1    0    0    0  501  0.00000000000E+00  0.00000000000E+00 -0.30550788664E+03  0.30551052633E+03  0.12699999809E+01 0. -1.
    10030    2    1    2    0    0  0.00000000000E+00  0.00000000000E+00  0.13011421798E+04  0.19121610947E+04  0.14012098630E+04 0.  0.
        5    1    3    3  502    0  0.57978067283E+03 -0.87331077540E+02  0.11738798344E+04  0.13121693112E+04  0.46999998093E+01 0.  1.
       -5    1    3    3    0  502 -0.57978067283E+03  0.87331077540E+02  0.12726234537E+03  0.59999178348E+03  0.46999998093E+01 0. -1.
</event>
<event>
 5   0  0.9900839E-05  0.1398992E+04  0.7818609E-02  0.8954548E-01
        1   -1    0    0  501    0  0.00000000000E+00  0.00000000000E+00  0.49188359893E+03  0.49188359896E+03  0.50400001928E-02 0. -1.
       -1   -1    0    0    0  501  0.00000000000E+00  0.00000000000E+00 -0.99473732816E+03  0.99473732817E+03  0.50400001928E-02 0.  1.
    10030    2    1    2    0    0  0.00000000000E+00  0.00000000000E+00 -0.50285372923E+03  0.14866209271E+04  0.13989924617E+04 0.  0.
        3    1    3    3  502    0  0.21759983701E+03 -0.20337885055E+03 -0.92398643487E+03  0.97080563860E+03  0.10100000352E+00 0.  1.
       -3    1    3    3    0  502 -0.21759983701E+03  0.20337885055E+03  0.42113270564E+03  0.51581528853E+03  0.10100000352E+00 0. -1.
</event>
<event>
 5   0  0.1780171E-04  0.1399637E+04  0.7818609E-02  0.8954081E-01
       -2   -1    0    0    0  501  0.00000000000E+00  0.00000000000E+00  0.74422843040E+03  0.74422843040E+03  0.25500000920E-02 0. -1.
        2   -1    0    0  501    0  0.00000000000E+00  0.00000000000E+00 -0.65805902891E+03  0.65805902892E+03  0.25500000920E-02 0.  1.
    10030    2    1    2    0    0  0.00000000000E+00  0.00000000000E+00  0.86169401482E+02  0.14022874593E+04  0.13996374362E+04 0.  0.
        5    1    3    3  502    0  0.15993421606E+03 -0.67130411045E+03  0.15947688277E+03  0.70829593272E+03  0.46999998093E+01 0. -1.
       -5    1    3    3    0  502 -0.15993421606E+03  0.67130411045E+03 -0.73307481285E+02  0.69399152660E+03  0.46999998093E+01 0.  1.
</event>
<event>
 5   0  0.1712327E-04  0.1399040E+04  0.7818609E-02  0.8954513E-01
       -2   -1    0    0    0  501  0.00000000000E+00  0.00000000000E+00  0.46491827630E+03  0.46491827631E+03  0.25500000920E-02 0.  1.
        2   -1    0    0  501    0  0.00000000000E+00  0.00000000000E+00 -0.10525043721E+04  0.10525043721E+04  0.25500000920E-02 0. -1.
    10030    2    1    2    0    0  0.00000000000E+00  0.00000000000E+00 -0.58758609581E+03  0.15174226484E+04  0.13990404118E+04 0.  0.
        1    1    3    3  502    0  0.23613146699E+03 -0.12705028500E+03  0.40696394692E+03  0.48735972212E+03  0.50400001928E-02 0.  1.
       -1    1    3    3    0  502 -0.23613146699E+03  0.12705028500E+03 -0.99455004273E+03  0.10300629263E+04  0.50400001928E-02 0. -1.
</event>
<event>
 5   0  0.9828111E-05  0.1401810E+04  0.7818609E-02  0.8952509E-01
        1   -1    0    0  501    0  0.00000000000E+00  0.00000000000E+00  0.98428098088E+03  0.98428098089E+03  0.50400001928E-02 0.  1.
       -1   -1    0    0    0  501  0.00000000000E+00  0.00000000000E+00 -0.49911374156E+03  0.49911374159E+03  0.50400001928E-02 0. -1.
    10030    2    1    2    0    0  0.00000000000E+00  0.00000000000E+00  0.48516723931E+03  0.14833947225E+04  0.14018104910E+04 0.  0.
        4    1    3    3  502    0 -0.39035840787E+02  0.41341633248E+03 -0.35492861423E+03  0.54627172262E+03  0.12699999809E+01 0. -1.
       -4    1    3    3    0  502  0.39035840787E+02 -0.41341633248E+03  0.84009585355E+03  0.93712299986E+03  0.12699999809E+01 0.  1.
</event>
<event>
 5   0  0.9900839E-05  0.1397258E+04  0.7818609E-02  0.8955806E-01
       -1   -1    0    0    0  501  0.00000000000E+00  0.00000000000E+00  0.26676333247E+03  0.26676333252E+03  0.50400001928E-02 0.  1.
        1   -1    0    0  501    0  0.00000000000E+00  0.00000000000E+00 -0.18296457019E+04  0.18296457019E+04  0.50400001928E-02 0. -1.
    10030    2    1    2    0    0  0.00000000000E+00  0.00000000000E+00 -0.15628823694E+04  0.20964090344E+04  0.13972578641E+04 0.  0.
        3    1    3    3  502    0  0.30554838792E+03 -0.19424870156E+03  0.11501173258E+03  0.37989483315E+03  0.10100000352E+00 0.  1.
       -3    1    3    3    0  502 -0.30554838792E+03  0.19424870156E+03 -0.16778941020E+04  0.17165142012E+04  0.10100000352E+00 0. -1.
</event>
<event>
 5   0  0.1780171E-04  0.1390047E+04  0.7818609E-02  0.8961055E-01
        2   -1    0    0  501    0  0.00000000000E+00  0.00000000000E+00  0.83478940522E+03  0.83478940523E+03  0.25500000920E-02 0. -1.
       -2   -1    0    0    0  501  0.00000000000E+00  0.00000000000E+00 -0.57865833120E+03  0.57865833121E+03  0.25500000920E-02 0.  1.
    10030    2    1    2    0    0  0.00000000000E+00  0.00000000000E+00  0.25613107402E+03  0.14134477364E+04  0.13900472569E+04 0.  0.
        5    1    3    3  502    0 -0.30498073010E+03  0.18399842471E+03  0.73490956511E+03  0.81669016458E+03  0.46999998093E+01 0. -1.
       -5    1    3    3    0  502  0.30498073010E+03 -0.18399842471E+03 -0.47877849109E+03  0.59675757185E+03  0.46999998093E+01 0.  1.
</event>
<event>
 5   0  0.1780171E-04  0.1396937E+04  0.7818609E-02  0.8956039E-01
       -2   -1    0    0    0  501  0.00000000000E+00  0.00000000000E+00  0.27448215111E+03  0.27448215112E+03  0.25500000920E-02 0.  1.
        2   -1    0    0  501    0  0.00000000000E+00  0.00000000000E+00 -0.17773773285E+04  0.17773773285E+04  0.25500000920E-02 0. -1.
    10030    2    1    2    0    0  0.00000000000E+00  0.00000000000E+00 -0.15028951773E+04  0.20518594796E+04  0.13969371531E+04 0.  0.
        5    1    3    3  502    0 -0.12378935619E+03 -0.64566003102E+03 -0.40499240379E+03  0.77216683268E+03  0.46999998093E+01 0.  1.
       -5    1    3    3    0  502  0.12378935619E+03  0.64566003102E+03 -0.10979027736E+04  0.12796926469E+04  0.46999998093E+01 0. -1.
</event>
<event>
 5   0  0.1794185E-04  0.1399408E+04  0.7818609E-02  0.8954247E-01
       -2   -1    0    0    0  501  0.00000000000E+00  0.00000000000E+00  0.23917652294E+03  0.23917652295E+03  0.25500000920E-02 0.  1.
        2   -1    0    0  501    0  0.00000000000E+00  0.00000000000E+00 -0.20469649987E+04  0.20469649987E+04  0.25500000920E-02 0. -1.
    10030    2    1    2    0    0  0.00000000000E+00  0.00000000000E+00 -0.18077884758E+04  0.22861415217E+04  0.13994084050E+04 0.  0.
        2    1    3    3  502    0 -0.15301441485E+03 -0.61027217563E+03 -0.14040693839E+04  0.15385890856E+04  0.25500000920E-02 0. -1.
       -2    1    3    3    0  502  0.15301441485E+03  0.61027217563E+03 -0.40371909184E+03  0.74755243604E+03  0.25500000920E-02 0.  1.
</event>
<event>
 5   0  0.1833681E-04  0.1400906E+04  0.7818609E-02  0.8953163E-01
       -2   -1    0    0    0  501  0.00000000000E+00  0.00000000000E+00  0.43557299219E+03  0.43557299220E+03  0.25500000920E-02 0. -1.
        2   -1    0    0  501    0  0.00000000000E+00  0.00000000000E+00 -0.11264111445E+04  0.11264111445E+04  0.25500000920E-02 0.  1.
    10030    2    1    2    0    0  0.00000000000E+00  0.00000000000E+00 -0.69083815229E+03  0.15619841367E+04  0.14009058107E+04 0.  0.
        4    1    3    3  502    0  0.45909200634E+03 -0.52633626282E+03 -0.28602782871E+03  0.75472436262E+03  0.12699999809E+01 0. -1.
       -4    1    3    3    0  502 -0.45909200634E+03  0.52633626282E+03 -0.40481032358E+03  0.80725977406E+03  0.12699999809E+01 0.  1.
</event>
<event>
 5   0  0.9260916E-05  0.1398331E+04  0.7818609E-02  0.8955028E-01
        1   -1    0    0  501    0  0.00000000000E+00  0.00000000000E+00  0.15432682686E+04  0.15432682686E+04  0.50400001928E-02 0. -1.
       -1   -1    0    0    0  501  0.00000000000E+00  0.00000000000E+00 -0.31675132445E+03  0.31675132449E+03  0.50400001928E-02 0.  1.
    10030    2    1    2    0    0  0.00000000000E+00  0.00000000000E+00  0.12265169442E+04  0.18600195931E+04  0.13983308165E+04 0.  0.
        1    1    3    3  502    0  0.66598324992E+02 -0.28040111163E+03  0.14605809100E+04  0.14887433342E+04  0.50400001928E-02 0. -1.
       -1    1    3    3    0  502 -0.66598324992E+02  0.28040111163E+03 -0.23406396587E+03  0.37127625892E+03  0.50400001928E-02 0.  1.
</event>
<event>
 5   0  0.9260916E-05  0.1403348E+04  0.7818609E-02  0.8951399E-01
       -1   -1    0    0    0  501  0.00000000000E+00  0.00000000000E+00  0.42432810523E+03  0.42432810526E+03  0.50400001928E-02 0.  1.
        1   -1    0    0  501    0  0.00000000000E+00  0.00000000000E+00 -0.11602968314E+04  0.11602968314E+04  0.50400001928E-02 0. -1.
    10030    2    1    2    0    0  0.00000000000E+00  0.00000000000E+00 -0.73596872614E+03  0.15846249366E+04  0.14033482191E+04 0.  0.
        1    1    3    3  502    0  0.98099450595E+02  0.24236911646E+03  0.36726364941E+03  0.45083131993E+03  0.50400001928E-02 0.  1.
       -1    1    3    3    0  502 -0.98099450595E+02 -0.24236911646E+03 -0.11032323756E+04  0.11337936167E+04  0.50400001928E-02 0. -1.
</event>
<event>
 5   0  0.9900839E-05  0.1399792E+04  0.7818609E-02  0.8953969E-01
       -1   -1    0    0    0  501  0.00000000000E+00  0.00000000000E+00  0.51163161335E+03  0.51163161337E+03  0.50400001928E-02 0. -1.
        1   -1    0    0  501    0  0.00000000000E+00  0.00000000000E+00 -0.95743520121E+03  0.95743520122E+03  0.50400001928E-02 0.  1.
    10030    2    1    2    0    0  0.00000000000E+00  0.00000000000E+00 -0.44580358786E+03  0.14690668146E+04  0.13997915798E+04 0.  0.
        3    1    3    3  502    0  0.29580712759E+03  0.56770140529E+02 -0.88593462202E+03  0.93573760761E+03  0.10100000352E+00 0.  1.
       -3    1    3    3    0  502 -0.29580712759E+03 -0.56770140529E+02  0.44013103416E+03  0.53332920699E+03  0.10100000352E+00 0. -1.
</event>
<event>
 5   0  0.1712327E-04  0.1401107E+04  0.7818609E-02  0.8953017E-01
       -2   -1    0    0    0  501  0.00000000000E+00  0.00000000000E+00  0.99363840186E+03  0.99363840186E+03  0.25500000920E-02 0.  1.
        2   -1    0    0  501    0  0.00000000000E+00  0.00000000000E+00 -0.49391761308E+03  0.49391761308E+03  0.25500000920E-02 0. -1.
    10030    2    1    2    0    0  0.00000000000E+00  0.00000000000E+00  0.49972078878E+03  0.14875560149E+04  0.14011074302E+04 0.  0.
        1    1    3    3  502    0 -0.65142492250E+03  0.11906530818E+03  0.71869204652E+01  0.66225571279E+03  0.50400001928E-02 0.  1.
       -1    1    3    3    0  502  0.65142492250E+03 -0.11906530818E+03  0.49253386832E+03  0.82530030215E+03  0.50400001928E-02 0. -1.
</event>
<event>
 5   0  0.6671375E-05  0.1400060E+04  0.7818609E-02  0.8953775E-01
       -1   -1    0    0    0  501  0.00000000000E+00  0.00000000000E+00  0.95579764426E+03  0.95579764427E+03  0.50400001928E-02 0. -1.
        1   -1    0    0  501    0  0.00000000000E+00  0.00000000000E+00 -0.51270478082E+03  0.51270478085E+03  0.50400001928E-02 0.  1.
    10030    2    1    2    0    0  0.00000000000E+00  0.00000000000E+00  0.44309286343E+03  0.14685024251E+04  0.14000600298E+04 0.  0.
        5    1    3    3  502    0  0.29537039236E+03  0.87161859335E+02  0.88091004968E+03  0.93320172740E+03  0.46999998093E+01 0. -1.
       -5    1    3    3    0  502 -0.29537039236E+03 -0.87161859335E+02 -0.43781718624E+03  0.53530069771E+03  0.46999998093E+01 0.  1.
</event>
<event>
 5   0  0.1833681E-04  0.1380411E+04  0.7818609E-02  0.8968122E-01
       -2   -1    0    0    0  501  0.00000000000E+00  0.00000000000E+00  0.32159817478E+03  0.32159817479E+03  0.25500000920E-02 0.  1.
        2   -1    0    0  501    0  0.00000000000E+00  0.00000000000E+00 -0.14813000133E+04  0.14813000133E+04  0.25500000920E-02 0. -1.
    10030    2    1    2    0    0  0.00000000000E+00  0.00000000000E+00 -0.11597018385E+04  0.18028981881E+04  0.13804106354E+04 0.  0.
        4    1    3    3  502    0  0.38840440855E+03  0.55378604584E+03 -0.75914198756E+03  0.10167768385E+04  0.12699999809E+01 0.  1.
       -4    1    3    3    0  502 -0.38840440855E+03 -0.55378604584E+03 -0.40055985093E+03  0.78612134955E+03  0.12699999809E+01 0. -1.
</event>
<event>
 5   0  0.9828111E-05  0.1398837E+04  0.7818609E-02  0.8954660E-01
        1   -1    0    0  501    0  0.00000000000E+00  0.00000000000E+00  0.15967302543E+04  0.15967302543E+04  0.50400001928E-02 0. -1.
       -1   -1    0    0    0  501  0.00000000000E+00  0.00000000000E+00 -0.30636767964E+03  0.30636767968E+03  0.50400001928E-02 0.  1.
    10030    2    1    2    0    0  0.00000000000E+00  0.00000000000E+00  0.12903625747E+04  0.19030979340E+04  0.13988374360E+04 0.  0.
        4    1    3    3  502    0 -0.72514113141E+02  0.36278285659E+02 -0.29995031164E+03  0.31071886484E+03  0.12699999809E+01 0.  1.
       -4    1    3    3    0  502  0.72514113141E+02 -0.36278285659E+02  0.15903128863E+04  0.15923790692E+04  0.12699999809E+01 0. -1.
</event>
<event>
 5   0  0.6671375E-05  0.1396092E+04  0.7818609E-02  0.8956652E-01
       -1   -1    0    0    0  501  0.00000000000E+00  0.00000000000E+00  0.31652082994E+03  0.31652082998E+03  0.50400001928E-02 0.  1.
        1   -1    0    0  501    0  0.00000000000E+00  0.00000000000E+00 -0.15394499145E+04  0.15394499146E+04  0.50400001928E-02 0. -1.
    10030    2    1    2    0    0  0.00000000000E+00  0.00000000000E+00 -0.12229290846E+04  0.18559707445E+04  0.13960916369E+04 0.  0.
        5    1    3    3  502    0 -0.27416473660E+03 -0.42925181920E+03 -0.12459993600E+04  0.13460906070E+04  0.46999998093E+01 0. -1.
       -5    1    3    3    0  502  0.27416473660E+03  0.42925181920E+03  0.23070275384E+02  0.50988013757E+03  0.46999998093E+01 0.  1.
</event>
<event>
 5   0  0.1712327E-04  0.1397040E+04  0.7818609E-02  0.8955964E-01
       -2   -1    0    0    0  501  0.00000000000E+00  0.00000000000E+00  0.11781514396E+04  0.11781514396E+04  0.25500000920E-02 0. -1.
        2   -1    0    0  501    0  0.00000000000E+00  0.00000000000E+00 -0.41414894678E+03  0.41414894679E+03  0.25500000920E-02 0.  1.
    10030    2    1    2    0    0  0.00000000000E+00  0.00000000000E+00  0.76400249283E+03  0.15923003864E+04  0.13970399821E+04 0.  0.
        1    1    3    3  502    0 -0.39118161060E+03 -0.46549861718E+03  0.77388591023E+03  0.98418058157E+03  0.50400001928E-02 0. -1.
       -1    1    3    3    0  502  0.39118161060E+03  0.46549861718E+03 -0.98834173981E+01  0.60811980483E+03  0.50400001928E-02 0.  1.
</event>
<event>
 5   0  0.9900839E-05  0.1402174E+04  0.7818609E-02  0.8952246E-01
       -1   -1    0    0    0  501  0.00000000000E+00  0.00000000000E+00  0.78378794916E+03  0.78378794917E+03  0.50400001928E-02 0.  1.
        1   -1    0    0  501    0  0.00000000000E+00  0.00000000000E+00 -0.62711236134E+03  0.62711236136E+03  0.50400001928E-02 0. -1.
    10030    2    1    2    0    0  0.00000000000E+00  0.00000000000E+00  0.15667558782E+03  0.14109003105E+04  0.14021741855E+04 0.  0.
        3    1    3    3  502    0  0.62907492145E+02  0.31130807308E+03  0.70724991015E+03  0.77528866530E+03  0.10100000352E+00 0.  1.
       -3    1    3    3    0  502 -0.62907492145E+02 -0.31130807308E+03 -0.55057432234E+03  0.63561164523E+03  0.10100000352E+00 0. -1.
</event>
<event>
 5   0  0.1794185E-04  0.1400403E+04  0.7818609E-02  0.8953527E-01
        2   -1    0    0  501    0  0.00000000000E+00  0.00000000000E+00  0.44481400070E+03  0.44481400070E+03  0.25500000920E-02 0. -1.
       -2   -1    0    0    0  501  0.00000000000E+00  0.00000000000E+00 -0.11022187527E+04  0.11022187527E+04  0.25500000920E-02 0.  1.
    10030    2    1    2    0    0  0.00000000000E+00  0.00000000000E+00 -0.65740475204E+03  0.15470327534E+04  0.14004032749E+04 0.  0.
        2    1    3    3  502    0  0.47242111832E+03 -0.51664791095E+03 -0.31406529805E+03  0.76729641493E+03  0.25500000920E-02 0. -1.
       -2    1    3    3    0  502 -0.47242111832E+03  0.51664791095E+03 -0.34333945399E+03  0.77973633851E+03  0.25500000920E-02 0.  1.
</event>
<event>
 5   0  0.1794185E-04  0.1396983E+04  0.7818609E-02  0.8956005E-01
        2   -1    0    0  501    0  0.00000000000E+00  0.00000000000E+00  0.85464356767E+03  0.85464356767E+03  0.25500000920E-02 0.  1.
       -2   -1    0    0    0  501  0.00000000000E+00  0.00000000000E+00 -0.57087007178E+03  0.57087007179E+03  0.25500000920E-02 0. -1.
    10030    2    1    2    0    0  0.00000000000E+00  0.00000000000E+00  0.28377349589E+03  0.14255136395E+04  0.13969830848E+04 0.  0.
        2    1    3    3  502    0 -0.25359640890E+01  0.54329236077E+03  0.58984826802E+03  0.80193141831E+03  0.25500000920E-02 0.  1.
       -2    1    3    3    0  502  0.25359640890E+01 -0.54329236077E+03 -0.30607477213E+03  0.62358222114E+03  0.25500000920E-02 0. -1.
</event>
<event>
 5   0  0.1833681E-04  0.1400598E+04  0.7818609E-02  0.8953386E-01
       -2   -1    0    0    0  501  0.00000000000E+00  0.00000000000E+00  0.52961520378E+03  0.52961520379E+03  0.25500000920E-02 0. -1.
        2   -1    0    0  501    0  0.00000000000E+00  0.00000000000E+00 -0.92599096116E+03  0.92599096116E+03  0.25500000920E-02 0.  1.
    10030    2    1    2    0    0  0.00000000000E+00  0.00000000000E+00 -0.39637575738E+03  0.14556061650E+04  0.14005982887E+04 0.  0.
        4    1    3    3  502    0  0.34240826604E+03  0.50574452050E+03  0.15790031117E+03  0.63083679492E+03  0.12699999809E+01 0. -1.
       -4    1    3    3    0  502 -0.34240826604E+03 -0.50574452050E+03 -0.55427606856E+03  0.82476937003E+03  0.12699999809E+01 0.  1.
</event>
<event>
 5   0  0.1780171E-04  0.1397269E+04  0.7818609E-02  0.8955798E-01
        2   -1    0    0  501    0  0.00000000000E+00  0.00000000000E+00  0.72247789729E+03  0.72247789729E+03  0.25500000920E-02 0.  1.
       -2   -1    0    0    0  501  0.00000000000E+00  0.00000000000E+00 -0.67557830329E+03  0.67557830330E+03  0.25500000920E-02 0. -1.
    10030    2    1    2    0    0  0.00000000000E+00  0.00000000000E+00  0.46899593992E+02  0.13980562006E+04  0.13972693255E+04 0.  0.
        5    1    3    3  502    0  0.28025424127E+03 -0.87959438378E+02 -0.61077544964E+03  0.67775219840E+03  0.46999998093E+01 0. -1.
       -5    1    3    3    0  502 -0.28025424127E+03  0.87959438378E+02  0.65767504364E+03  0.72030400219E+03  0.46999998093E+01 0.  1.
</event>
<event>
 5   0  0.1712327E-04  0.1393221E+04  0.7818609E-02  0.8958741E-01
       -2   -1    0    0    0  501  0.00000000000E+00  0.00000000000E+00  0.40306753443E+03  0.40306753444E+03  0.25500000920E-02 0. -1.
        2   -1    0    0  501    0  0.00000000000E+00  0.00000000000E+00 -0.12039319619E+04  0.12039319619E+04  0.25500000920E-02 0.  1.
    10030    2    1    2    0    0  0.00000000000E+00  0.00000000000E+00 -0.80086442744E+03  0.16069994963E+04  0.13932205676E+04 0.  0.
        1    1    3    3  502    0 -0.61480652704E+03 -0.30878071615E+03 -0.27443063658E+03  0.74070558975E+03  0.50400001928E-02 0. -1.
       -1    1    3    3    0  502  0.61480652704E+03  0.30878071615E+03 -0.52643379085E+03  0.86629390656E+03  0.50400001928E-02 0.  1.
</event>
<event>
 5   0  0.1780171E-04  0.1400599E+04  0.7818609E-02  0.8953385E-01
       -2   -1    0    0    0  501  0.00000000000E+00  0.00000000000E+00  0.28170599312E+03  0.28170599313E+03  0.25500000920E-02 0.  1.
        2   -1    0    0  501    0  0.00000000000E+00  0.00000000000E+00 -0.17408919221E+04  0.17408919221E+04  0.25500000920E-02 0. -1.
    10030    2    1    2    0    0  0.00000000000E+00  0.00000000000E+00 -0.14591859290E+04  0.20225979153E+04  0.14005994257E+04 0.  0.
        5    1    3    3  502    0 -0.37165212577E+02  0.62923891913E+03 -0.11701594919E+04  0.13291419024E+04  0.46999998093E+01 0. -1.
       -5    1    3    3    0  502  0.37165212577E+02 -0.62923891913E+03 -0.28902643714E+03  0.69345601283E+03  0.46999998093E+01 0.  1.
</event>
<event>
 5   0  0.9828111E-05  0.1402482E+04  0.7818609E-02  0.8952024E-01
       -1   -1    0    0    0  501  0.00000000000E+00  0.00000000000E+00  0.49294510984E+03  0.49294510987E+03  0.50400001928E-02 0.  1.
        1   -1    0    0  501    0  0.00000000000E+00  0.00000000000E+00 -0.99755328557E+03  0.99755328558E+03  0.50400001928E-02 0. -1.
    10030    2    1    2    0    0  0.00000000000E+00  0.00000000000E+00 -0.50460817573E+03  0.14904983954E+04  0.14024821053E+04 0.  0.
        4    1    3    3  502    0 -0.66375726798E+03  0.18419035433E+03 -0.11277247023E+03  0.69801077382E+03  0.12699999809E+01 0. -1.
       -4    1    3    3    0  502  0.66375726798E+03 -0.18419035433E+03 -0.39183570550E+03  0.79248762163E+03  0.12699999809E+01 0.  1.
</event>
<event>
 5   0  0.6671375E-05  0.1401055E+04  0.7818609E-02  0.8953055E-01
       -1   -1    0    0    0  501  0.00000000000E+00  0.00000000000E+00  0.33036479904E+04  0.33036479904E+04  0.50400001928E-02 0. -1.
        1   -1    0    0  501    0  0.00000000000E+00  0.00000000000E+00 -0.14854455623E+03  0.14854455632E+03  0.50400001928E-02 0.  1.
    10030    2    1    2    0    0  0.00000000000E+00  0.00000000000E+00  0.31551034342E+04  0.34521925468E+04  0.14010552092E+04 0.  0.
        5    1    3    3  502    0 -0.14926061281E+03  0.24495517989E+03  0.31522642028E+04  0.31652920031E+04  0.46999998093E+01 0. -1.
       -5    1    3    3    0  502  0.14926061281E+03 -0.24495517989E+03  0.28392313700E+01  0.28690054361E+03  0.46999998093E+01 0.  1.
</event>
<event>
 5   0  0.1833681E-04  0.1401161E+04  0.7818609E-02  0.8952978E-01
       -2   -1    0    0    0  501  0.00000000000E+00  0.00000000000E+00  0.43424192461E+03  0.43424192462E+03  0.25500000920E-02 0. -1.
        2   -1    0    0  501    0  0.00000000000E+00  0.00000000000E+00 -0.11302761879E+04  0.11302761879E+04  0.25500000920E-02 0.  1.
    10030    2    1    2    0    0  0.00000000000E+00  0.00000000000E+00 -0.69603426328E+03  0.15645181125E+04  0.14011613857E+04 0.  0.
        4    1    3    3  502    0 -0.10809489843E+03 -0.68882484467E+03 -0.42413788822E+03  0.81612421531E+03  0.12699999809E+01 0.  1.
       -4    1    3    3    0  502  0.10809489843E+03  0.68882484467E+03 -0.27189637507E+03  0.74839389720E+03  0.12699999809E+01 0. -1.
</event>
<event>
 5   0  0.1794185E-04  0.1398325E+04  0.7818609E-02  0.8955032E-01
       -2   -1    0    0    0  501  0.00000000000E+00  0.00000000000E+00  0.30506352022E+03  0.30506352023E+03  0.25500000920E-02 0. -1.
        2   -1    0    0  501    0  0.00000000000E+00  0.00000000000E+00 -0.16023806222E+04  0.16023806222E+04  0.25500000920E-02 0.  1.
    10030    2    1    2    0    0  0.00000000000E+00  0.00000000000E+00 -0.12973171020E+04  0.19074441424E+04  0.13983245308E+04 0.  0.
        2    1    3    3  502    0  0.68092549517E+03  0.16177637367E+02 -0.43337972594E+03  0.80730368065E+03  0.25500000920E-02 0. -1.
       -2    1    3    3    0  502 -0.68092549517E+03 -0.16177637367E+02 -0.86393737604E+03  0.11001404618E+04  0.25500000920E-02 0.  1.
</event>
<event>
 5   0  0.6671375E-05  0.1399800E+04  0.7818609E-02  0.8953963E-01
        1   -1    0    0  501    0  0.00000000000E+00  0.00000000000E+00  0.14237343936E+04  0.14237343936E+04  0.50400001928E-02 0.  1.
       -1   -1    0    0    0  501  0.00000000000E+00  0.00000000000E+00 -0.34406697679E+03  0.34406697682E+03  0.50400001928E-02 0. -1.
    10030    2    1    2    0    0  0.00000000000E+00  0.00000000000E+00  0.10796674168E+04  0.17678013704E+04  0.13997999694E+04 0.  0.
        5    1    3    3  502    0  0.50947512699E+03  0.30180394746E+03  0.68674805055E+02  0.59614498788E+03  0.46999998093E+01 0. -1.
       -5    1    3    3    0  502 -0.50947512699E+03 -0.30180394746E+03  0.10109926117E+04  0.11716563825E+04  0.46999998093E+01 0.  1.
</event>
<event>
 5   0  0.9978422E-05  0.1400874E+04  0.7818609E-02  0.8953186E-01
        1   -1    0    0  501    0  0.00000000000E+00  0.00000000000E+00  0.34254047275E+03  0.34254047279E+03  0.50400001928E-02 0.  1.
       -1   -1    0    0    0  501  0.00000000000E+00  0.00000000000E+00 -0.14322738220E+04  0.14322738220E+04  0.50400001928E-02 0. -1.
    10030    2    1    2    0    0  0.00000000000E+00  0.00000000000E+00 -0.10897333492E+04  0.17748142948E+04  0.14008736590E+04 0.  0.
        2    1    3    3  502    0  0.16651548808E+03  0.31932633690E+03  0.21625911190E+03  0.42007704138E+03  0.25500000920E-02 0.  1.
       -2    1    3    3    0  502 -0.16651548808E+03 -0.31932633690E+03 -0.13059924611E+04  0.13547372534E+04  0.25500000920E-02 0. -1.
</event>
<event>
 5   0  0.1780171E-04  0.1400426E+04  0.7818609E-02  0.8953511E-01
        2   -1    0    0  501    0  0.00000000000E+00  0.00000000000E+00  0.33649742695E+03  0.33649742696E+03  0.25500000920E-02 0. -1.
       -2   -1    0    0    0  501  0.00000000000E+00  0.00000000000E+00 -0.14570630115E+04  0.14570630116E+04  0.25500000920E-02 0.  1.
    10030    2    1    2    0    0  0.00000000000E+00  0.00000000000E+00 -0.11205655846E+04  0.17935604385E+04  0.14004255843E+04 0.  0.
        5    1    3    3  502    0 -0.60675914689E+03  0.17846088302E+03 -0.17548736509E+03  0.65637097316E+03  0.46999998093E+01 0. -1.
       -5    1    3    3    0  502  0.60675914689E+03 -0.17846088302E+03 -0.94507821951E+03  0.11371894653E+04  0.46999998093E+01 0.  1.
</event>
<event>
 5   0  0.9978422E-05  0.1401011E+04  0.7818609E-02  0.8953087E-01
       -1   -1    0    0    0  501  0.00000000000E+00  0.00000000000E+00  0.51217943012E+03  0.51217943015E+03  0.50400001928E-02 0. -1.
        1   -1    0    0  501    0  0.00000000000E+00  0.00000000000E+00 -0.95807852648E+03  0.95807852650E+03  0.50400001928E-02 0.  1.
    10030    2    1    2    0    0  0.00000000000E+00  0.00000000000E+00 -0.44589909636E+03  0.14702579566E+04  0.14010112258E+04 0.  0.
        2    1    3    3  502    0  0.20263194031E+02 -0.13249873213E+03  0.49859613840E+03  0.51629896406E+03  0.25500000920E-02 0. -1.
       -2    1    3    3    0  502 -0.20263194031E+02  0.13249873213E+03 -0.94449523476E+03  0.95395899259E+03  0.25500000920E-02 0.  1.
</event>
<event>
 5   0  0.9900839E-05  0.1401947E+04  0.7818609E-02  0.8952411E-01
        1   -1    0    0  501    0  0.00000000000E+00  0.00000000000E+00  0.62646547447E+03  0.62646547449E+03  0.50400001928E-02 0. -1.
       -1   -1    0    0    0  501  0.00000000000E+00  0.00000000000E+00 -0.78434251957E+03  0.78434251958E+03  0.50400001928E-02 0.  1.
    10030    2    1    2    0    0  0.00000000000E+00  0.00000000000E+00 -0.15787704509E+03  0.14108079941E+04  0.14019465164E+04 0.  0.
        3    1    3    3  502    0  0.43197978796E+03  0.69238391459E+02  0.47221211600E+03  0.64372725961E+03  0.10100000352E+00 0. -1.
       -3    1    3    3    0  502 -0.43197978796E+03 -0.69238391459E+02 -0.63008916110E+03  0.76708073447E+03  0.10100000352E+00 0.  1.
</event>
<event>
 5   0  0.9260916E-05  0.1398617E+04  0.7818609E-02  0.8954820E-01
        1   -1    0    0  501    0  0.00000000000E+00  0.00000000000E+00  0.14204146225E+04  0.14204146225E+04  0.50400001928E-02 0.  1.
       -1   -1    0    0    0  501  0.00000000000E+00  0.00000000000E+00 -0.34428851176E+03  0.34428851179E+03  0.50400001928E-02 0. -1.
    10030    2    1    2    0    0  0.00000000000E+00  0.00000000000E+00  0.10761261108E+04  0.17647031343E+04  0.13986170834E+04 0.  0.
        1    1    3    3  502    0 -0.17696904129E+03  0.67649915843E+03  0.52802572415E+03  0.87623074491E+03  0.50400001928E-02 0. -1.
       -1    1    3    3    0  502  0.17696904129E+03 -0.67649915843E+03  0.54810038664E+03  0.88847238944E+03  0.50400001928E-02 0.  1.
</event>
<event>
 5   0  0.1712327E-04  0.1407452E+04  0.7818609E-02  0.8948442E-01
        2   -1    0    0  501    0  0.00000000000E+00  0.00000000000E+00  0.63382365501E+03  0.63382365502E+03  0.25500000920E-02 0. -1.
       -2   -1    0    0    0  501  0.00000000000E+00  0.00000000000E+00 -0.78133801166E+03  0.78133801166E+03  0.25500000920E-02 0.  1.
    10030    2    1    2    0    0  0.00000000000E+00  0.00000000000E+00 -0.14751435664E+03  0.14151616667E+04  0.14074523286E+04 0.  0.
        1    1    3    3  502    0 -0.28657923624E+03 -0.64271703998E+03 -0.69531516134E+02  0.70714035657E+03  0.50400001928E-02 0. -1.
       -1    1    3    3    0  502  0.28657923624E+03  0.64271703998E+03 -0.77982840509E+02  0.70802131011E+03  0.50400001928E-02 0.  1.
</event>
<event>
 5   0  0.6671375E-05  0.1398387E+04  0.7818609E-02  0.8954987E-01
        1   -1    0    0  501    0  0.00000000000E+00  0.00000000000E+00  0.16500055311E+04  0.16500055311E+04  0.50400001928E-02 0. -1.
       -1   -1    0    0    0  501  0.00000000000E+00  0.00000000000E+00 -0.29628461849E+03  0.29628461853E+03  0.50400001928E-02 0.  1.
    10030    2    1    2    0    0  0.00000000000E+00  0.00000000000E+00  0.13537209126E+04  0.19462901497E+04  0.13983865837E+04 0.  0.
        5    1    3    3  502    0  0.25973416068E+03  0.38653732533E+03  0.14027086690E+04  0.14780008925E+04  0.46999998093E+01 0. -1.
       -5    1    3    3    0  502 -0.25973416068E+03 -0.38653732533E+03 -0.48987756390E+02  0.46828925716E+03  0.46999998093E+01 0.  1.
</event>
<event>
 5   0  0.1766237E-04  0.1399801E+04  0.7818609E-02  0.8953963E-01
        2   -1    0    0  501    0  0.00000000000E+00  0.00000000000E+00  0.27799844497E+04  0.27799844497E+04  0.25500000920E-02 0.  1.
       -2   -1    0    0    0  501  0.00000000000E+00  0.00000000000E+00 -0.17620983444E+03  0.17620983446E+03  0.25500000920E-02 0. -1.
    10030    2    1    2    0    0  0.00000000000E+00  0.00000000000E+00  0.26037746153E+04  0.29561942842E+04  0.13998008425E+04 0.  0.
        3    1    3    3  502    0  0.37773221142E+03  0.10753437204E+03  0.25253412197E+04  0.25556982512E+04  0.10100000352E+00 0.  1.
       -3    1    3    3    0  502 -0.37773221142E+03 -0.10753437204E+03  0.78433395520E+02  0.40049603300E+03  0.10100000352E+00 0. -1.
</event>
<event>
 5   0  0.1780171E-04  0.1394593E+04  0.7818609E-02  0.8957742E-01
        2   -1    0    0  501    0  0.00000000000E+00  0.00000000000E+00  0.12824641678E+04  0.12824641678E+04  0.25500000920E-02 0. -1.
       -2   -1    0    0    0  501  0.00000000000E+00  0.00000000000E+00 -0.37913149575E+03  0.37913149575E+03  0.25500000920E-02 0.  1.
    10030    2    1    2    0    0  0.00000000000E+00  0.00000000000E+00  0.90333267201E+03  0.16615956635E+04  0.13945932141E+04 0.  0.
        5    1    3    3  502    0 -0.39268157627E+03  0.54767871614E+03  0.66496571705E+03  0.94675883481E+03  0.46999998093E+01 0. -1.
       -5    1    3    3    0  502  0.39268157627E+03 -0.54767871614E+03  0.23836695497E+03  0.71483682870E+03  0.46999998093E+01 0.  1.
</event>
<event>
 5   0  0.1833681E-04  0.1357499E+04  0.7818609E-02  0.8985171E-01
        2   -1    0    0  501    0  0.00000000000E+00  0.00000000000E+00  0.24108225065E+04  0.24108225065E+04  0.25500000920E-02 0.  1.
       -2   -1    0    0    0  501  0.00000000000E+00  0.00000000000E+00 -0.19109693039E+03  0.19109693041E+03  0.25500000920E-02 0. -1.
    10030    2    1    2    0    0  0.00000000000E+00  0.00000000000E+00  0.22197255761E+04  0.26019194369E+04  0.13574988482E+04 0.  0.
        4    1    3    3  502    0  0.38898773169E+02  0.13145295754E+03 -0.16428384187E+03  0.21397146585E+03  0.12699999809E+01 0. -1.
       -4    1    3    3    0  502 -0.38898773169E+02 -0.13145295754E+03  0.23840094179E+04  0.23879479710E+04  0.12699999809E+01 0.  1.
</event>
<event>
 5   0  0.1712327E-04  0.1399437E+04  0.7818609E-02  0.8954226E-01
        2   -1    0    0  501    0  0.00000000000E+00  0.00000000000E+00  0.13038795676E+04  0.13038795676E+04  0.25500000920E-02 0. -1.
       -2   -1    0    0    0  501  0.00000000000E+00  0.00000000000E+00 -0.37549958620E+03  0.37549958621E+03  0.25500000920E-02 0.  1.
    10030    2    1    2    0    0  0.00000000000E+00  0.00000000000E+00  0.92837998140E+03  0.16793791538E+04  0.13994373700E+04 0.  0.
        1    1    3    3  502    0 -0.11737989319E+02  0.67636690115E+03  0.67884695635E+03  0.95835439976E+03  0.50400001928E-02 0.  1.
       -1    1    3    3    0  502  0.11737989319E+02 -0.67636690115E+03  0.24953302505E+03  0.72102475406E+03  0.50400001928E-02 0. -1.
</event>
<event>
 5   0  0.9978422E-05  0.1399911E+04  0.7818609E-02  0.8953883E-01
       -1   -1    0    0    0  501  0.00000000000E+00  0.00000000000E+00  0.47242625422E+03  0.47242625424E+03  0.50400001928E-02 0.  1.
        1   -1    0    0  501    0  0.00000000000E+00  0.00000000000E+00 -0.10370665077E+04  0.10370665077E+04  0.50400001928E-02 0. -1.
    10030    2    1    2    0    0  0.00000000000E+00  0.00000000000E+00 -0.56464025346E+03  0.15094927619E+04  0.13999106338E+04 0.  0.
        2    1    3    3  502    0  0.15043784152E+03 -0.78736326327E+02  0.44988259856E+03  0.48085892498E+03  0.25500000920E-02 0.  1.
       -2    1    3    3    0  502 -0.15043784152E+03  0.78736326327E+02 -0.10145228520E+04  0.10286338370E+04  0.25500000920E-02 0. -1.
</event>
<event>
 5   0  0.9900839E-05  0.1401117E+04  0.7818609E-02  0.8953010E-01
       -1   -1    0    0    0  501  0.00000000000E+00  0.00000000000E+00  0.43734171904E+03  0.43734171907E+03  0.50400001928E-02 0. -1.
        1   -1    0    0  501    0  0.00000000000E+00  0.00000000000E+00 -0.11221942178E+04  0.11221942178E+04  0.50400001928E-02 0.  1.
    10030    2    1    2    0    0  0.00000000000E+00  0.00000000000E+00 -0.68485249878E+03  0.15595359369E+04  0.14011171947E+04 0.  0.
        3    1    3    3  502    0  0.49982162178E+03  0.48881395201E+03 -0.29238028510E+03  0.75779085148E+03  0.10100000352E+00 0.  1.
       -3    1    3    3    0  502 -0.49982162178E+03 -0.48881395201E+03 -0.39247221367E+03  0.80174508541E+03  0.10100000352E+00 0. -1.
</event>
<event>
 5   0  0.6671375E-05  0.1419370E+04  0.7818609E-02  0.8939915E-01
        3   -1    0    0  501    0  0.00000000000E+00  0.00000000000E+00  0.11159812058E+04  0.11159812103E+04  0.10100000352E+00 0. -1.
       -3   -1    0    0    0  501  0.00000000000E+00  0.00000000000E+00 -0.45130965984E+03  0.45130967114E+03  0.10100000352E+00 0.  1.
    10030    2    1    2    0    0  0.00000000000E+00  0.00000000000E+00  0.66467154592E+03  0.15672908815E+04  0.14193704390E+04 0.  0.
        2    1    3    3  502    0 -0.29626792998E+03  0.63956458961E+03  0.24104205253E+03  0.74492873600E+03  0.25500000920E-02 0. -1.
       -2    1    3    3    0  502  0.29626792998E+03 -0.63956458961E+03  0.42362949340E+03  0.82236214547E+03  0.25500000920E-02 0.  1.
</event>
<event>
 5   0  0.1766237E-04  0.1401214E+04  0.7818609E-02  0.8952941E-01
        2   -1    0    0  501    0  0.00000000000E+00  0.00000000000E+00  0.10275146145E+04  0.10275146145E+04  0.25500000920E-02 0. -1.
       -2   -1    0    0    0  501  0.00000000000E+00  0.00000000000E+00 -0.47770600623E+03  0.47770600624E+03  0.25500000920E-02 0.  1.
    10030    2    1    2    0    0  0.00000000000E+00  0.00000000000E+00  0.54980860831E+03  0.15052206208E+04  0.14012136209E+04 0.  0.
        3    1    3    3  502    0  0.44414321528E+02 -0.20500669848E+03 -0.44318168653E+03  0.49031662816E+03  0.10100000352E+00 0.  1.
       -3    1    3    3    0  502 -0.44414321528E+02  0.20500669848E+03  0.99299029484E+03  0.10149039926E+04  0.10100000352E+00 0. -1.
</event>
<event>
 5   0  0.1766237E-04  0.1401039E+04  0.7818609E-02  0.8953067E-01
        2   -1    0    0  501    0  0.00000000000E+00  0.00000000000E+00  0.13172794011E+04  0.13172794011E+04  0.25500000920E-02 0. -1.
       -2   -1    0    0    0  501  0.00000000000E+00  0.00000000000E+00 -0.37253103979E+03  0.37253103980E+03  0.25500000920E-02 0.  1.
    10030    2    1    2    0    0  0.00000000000E+00  0.00000000000E+00  0.94474836133E+03  0.16898104409E+04  0.14010388503E+04 0.  0.
        3    1    3    3  502    0  0.20340295906E+03  0.37835418739E+02 -0.33484147438E+03  0.39360272589E+03  0.10100000352E+00 0.  1.
       -3    1    3    3    0  502 -0.20340295906E+03 -0.37835418739E+02  0.12795898357E+04  0.12962077150E+04  0.10100000352E+00 0. -1.
</event>
<event>
 5   0  0.9978422E-05  0.1399668E+04  0.7818609E-02  0.8954059E-01
       -1   -1    0    0    0  501  0.00000000000E+00  0.00000000000E+00  0.81847756223E+03  0.81847756224E+03  0.50400001928E-02 0. -1.
        1   -1    0    0  501    0  0.00000000000E+00  0.00000000000E+00 -0.59838894609E+03  0.59838894611E+03  0.50400001928E-02 0.  1.
    10030    2    1    2    0    0  0.00000000000E+00  0.00000000000E+00  0.22008861614E+03  0.14168665084E+04  0.13996684263E+04 0.  0.
        2    1    3    3  502    0 -0.53001264355E+03 -0.10691822267E+03  0.55982691907E+03  0.77830012719E+03  0.25500000920E-02 0. -1.
       -2    1    3    3    0  502  0.53001264355E+03  0.10691822267E+03 -0.33973830293E+03  0.63856638116E+03  0.25500000920E-02 0.  1.
</event>
<event>
 5   0  0.9260916E-05  0.1397616E+04  0.7818609E-02  0.8955546E-01
       -1   -1    0    0    0  501  0.00000000000E+00  0.00000000000E+00  0.13411352567E+04  0.13411352567E+04  0.50400001928E-02 0. -1.
        1   -1    0    0  501    0  0.00000000000E+00  0.00000000000E+00 -0.36411898007E+03  0.36411898011E+03  0.50400001928E-02 0.  1.
    10030    2    1    2    0    0  0.00000000000E+00  0.00000000000E+00  0.97701627662E+03  0.17052542368E+04  0.13976162590E+04 0.  0.
        1    1    3    3  502    0  0.56044714530E+03 -0.85525541963E+02 -0.99764243819E+01  0.56702305956E+03  0.50400001928E-02 0.  1.
       -1    1    3    3    0  502 -0.56044714530E+03  0.85525541963E+02  0.98699270100E+03  0.11382311772E+04  0.50400001928E-02 0. -1.
</event>
<event>
 5   0  0.1780171E-04  0.1400642E+04  0.7818609E-02  0.8953354E-01
        2   -1    0    0  501    0  0.00000000000E+00  0.00000000000E+00  0.20156442223E+04  0.20156442223E+04  0.25500000920E-02 0.  1.
       -2   -1    0    0    0  501  0.00000000000E+00  0.00000000000E+00 -0.24332153158E+03  0.24332153159E+03  0.25500000920E-02 0. -1.
    10030    2    1    2    0    0  0.00000000000E+00  0.00000000000E+00  0.17723226908E+04  0.22589657539E+04  0.14006421946E+04 0.  0.
        5    1    3    3  502    0 -0.33628554847E+03 -0.44712560533E+03  0.20683006193E+03  0.59649814884E+03  0.46999998093E+01 0. -1.
       -5    1    3    3    0  502  0.33628554847E+03  0.44712560533E+03  0.15654926288E+04  0.16624676051E+04  0.46999998093E+01 0.  1.
</event>
<event>
 5   0  0.6671375E-05  0.1400313E+04  0.7818609E-02  0.8953592E-01
       -3   -1    0    0    0  501  0.00000000000E+00  0.00000000000E+00  0.44866833653E+03  0.44866834790E+03  0.10100000352E+00 0.  1.
        3   -1    0    0  501    0  0.00000000000E+00  0.00000000000E+00 -0.10926083923E+04  0.10926083970E+04  0.10100000352E+00 0. -1.
    10030    2    1    2    0    0  0.00000000000E+00  0.00000000000E+00 -0.64394005581E+03  0.15412767449E+04  0.14003125397E+04 0.  0.
        5    1    3    3  502    0  0.28660103470E+03 -0.28294063793E+03  0.30839677537E+03  0.50727331759E+03  0.46999998093E+01 0.  1.
       -5    1    3    3    0  502 -0.28660103470E+03  0.28294063793E+03 -0.95233683118E+03  0.10340034273E+04  0.46999998093E+01 0. -1.
</event>
<event>
 5   0  0.9828111E-05  0.1405286E+04  0.7818609E-02  0.8950001E-01
        1   -1    0    0  501    0  0.00000000000E+00  0.00000000000E+00  0.91627140340E+03  0.91627140341E+03  0.50400001928E-02 0. -1.
       -1   -1    0    0    0  501  0.00000000000E+00  0.00000000000E+00 -0.53882167325E+03  0.53882167328E+03  0.50400001928E-02 0.  1.
    10030    2    1    2    0    0  0.00000000000E+00  0.00000000000E+00  0.37744973014E+03  0.14550930767E+04  0.14052855806E+04 0.  0.
        4    1    3    3  502    0 -0.20028411380E+03 -0.45817202652E+03  0.69984991688E+03  0.86013188011E+03  0.12699999809E+01 0. -1.
       -4    1    3    3    0  502  0.20028411380E+03  0.45817202652E+03 -0.32240018674E+03  0.59496119658E+03  0.12699999809E+01 0.  1.
</event>
<event>
 5   0  0.9260916E-05  0.1400687E+04  0.7818609E-02  0.8953321E-01
       -1   -1    0    0    0  501  0.00000000000E+00  0.00000000000E+00  0.73161592754E+03  0.73161592755E+03  0.50400001928E-02 0. -1.
        1   -1    0    0  501    0  0.00000000000E+00  0.00000000000E+00 -0.67040825846E+03  0.67040825848E+03  0.50400001928E-02 0.  1.
    10030    2    1    2    0    0  0.00000000000E+00  0.00000000000E+00  0.61207669074E+02  0.14020241860E+04  0.14006874882E+04 0.  0.
        1    1    3    3  502    0  0.61874057476E+03 -0.11090749019E+03  0.33967186462E+03  0.71450496560E+03  0.50400001928E-02 0. -1.
       -1    1    3    3    0  502 -0.61874057476E+03  0.11090749019E+03 -0.27846419555E+03  0.68751922043E+03  0.50400001928E-02 0.  1.
</event>
<event>
 5   0  0.1833681E-04  0.1401487E+04  0.7818609E-02  0.8952743E-01
        2   -1    0    0  501    0  0.00000000000E+00  0.00000000000E+00  0.14616450465E+04  0.14616450465E+04  0.25500000920E-02 0. -1.
       -2   -1    0    0    0  501  0.00000000000E+00  0.00000000000E+00 -0.33595142053E+03  0.33595142054E+03  0.25500000920E-02 0.  1.
    10030    2    1    2    0    0  0.00000000000E+00  0.00000000000E+00  0.11256936260E+04  0.17975964671E+04  0.14014873952E+04 0.  0.
        4    1    3    3  502    0  0.11818139109E+03 -0.66233747166E+03  0.81413309817E+03  0.10561591177E+04  0.12699999809E+01 0. -1.
       -4    1    3    3    0  502 -0.11818139109E+03  0.66233747166E+03  0.31156052781E+03  0.74143734931E+03  0.12699999809E+01 0.  1.
</event>
<event>
 5   0  0.9260916E-05  0.1395415E+04  0.7818609E-02  0.8957144E-01
        1   -1    0    0  501    0  0.00000000000E+00  0.00000000000E+00  0.88755136320E+03  0.88755136322E+03  0.50400001928E-02 0.  1.
       -1   -1    0    0    0  501  0.00000000000E+00  0.00000000000E+00 -0.54847071168E+03  0.54847071170E+03  0.50400001928E-02 0. -1.
    10030    2    1    2    0    0  0.00000000000E+00  0.00000000000E+00  0.33908065153E+03  0.14360220749E+04  0.13954152469E+04 0.  0.
        1    1    3    3  502    0 -0.55880270444E+03 -0.18946005138E+03  0.55272001583E+03  0.80848932552E+03  0.50400001928E-02 0.  1.
       -1    1    3    3    0  502  0.55880270444E+03  0.18946005138E+03 -0.21363936430E+03  0.62753274940E+03  0.50400001928E-02 0. -1.
</event>
<event>
 5   0  0.9260916E-05  0.1399213E+04  0.7818609E-02  0.8954389E-01
       -1   -1    0    0    0  501  0.00000000000E+00  0.00000000000E+00  0.45490239073E+03  0.45490239076E+03  0.50400001928E-02 0.  1.
        1   -1    0    0  501    0  0.00000000000E+00  0.00000000000E+00 -0.10759430097E+04  0.10759430097E+04  0.50400001928E-02 0. -1.
    10030    2    1    2    0    0  0.00000000000E+00  0.00000000000E+00 -0.62104061893E+03  0.15308454004E+04  0.13992127035E+04 0.  0.
        1    1    3    3  502    0  0.61024502933E+03 -0.24783985157E+03 -0.52481873936E+02  0.66074044448E+03  0.50400001928E-02 0.  1.
       -1    1    3    3    0  502 -0.61024502933E+03  0.24783985157E+03 -0.56855874500E+03  0.87010495596E+03  0.50400001928E-02 0. -1.
</event>
<event>
 5   0  0.9260916E-05  0.1400024E+04  0.7818609E-02  0.8953801E-01
       -1   -1    0    0    0  501  0.00000000000E+00  0.00000000000E+00  0.83036155676E+03  0.83036155677E+03  0.50400001928E-02 0. -1.
        1   -1    0    0  501    0  0.00000000000E+00  0.00000000000E+00 -0.59012445944E+03  0.59012445946E+03  0.50400001928E-02 0.  1.
    10030    2    1    2    0    0  0.00000000000E+00  0.00000000000E+00  0.24023709732E+03  0.14204860162E+04  0.14000238067E+04 0.  0.
        1    1    3    3  502    0 -0.51795022990E+03 -0.76925064678E+02 -0.35124303705E+03  0.63052484275E+03  0.50400001928E-02 0.  1.
       -1    1    3    3    0  502  0.51795022990E+03  0.76925064678E+02  0.59148013437E+03  0.78996117348E+03  0.50400001928E-02 0. -1.
</event>
<event>
 5   0  0.6671375E-05  0.1420607E+04  0.7818609E-02  0.8939036E-01
       -1   -1    0    0    0  501  0.00000000000E+00  0.00000000000E+00  0.12047874245E+04  0.12047874245E+04  0.50400001928E-02 0.  1.
        1   -1    0    0  501    0  0.00000000000E+00  0.00000000000E+00 -0.41877179036E+03  0.41877179039E+03  0.50400001928E-02 0. -1.
    10030    2    1    2    0    0  0.00000000000E+00  0.00000000000E+00  0.78601563411E+03  0.16235592149E+04  0.14206068939E+04 0.  0.
        5    1    3    3  502    0  0.24376990568E+03 -0.47622713657E+03 -0.14095862607E+03  0.55326980469E+03  0.46999998093E+01 0. -1.
       -5    1    3    3    0  502 -0.24376990568E+03  0.47622713657E+03  0.92697426018E+03  0.10702894102E+04  0.46999998093E+01 0.  1.
</event>
<event>
 5   0  0.6671375E-05  0.1396628E+04  0.7818609E-02  0.8956263E-01
        1   -1    0    0  501    0  0.00000000000E+00  0.00000000000E+00  0.61714996365E+03  0.61714996367E+03  0.50400001928E-02 0. -1.
       -1   -1    0    0    0  501  0.00000000000E+00  0.00000000000E+00 -0.79015224386E+03  0.79015224388E+03  0.50400001928E-02 0.  1.
    10030    2    1    2    0    0  0.00000000000E+00  0.00000000000E+00 -0.17300228021E+03  0.14073022076E+04  0.13966279800E+04 0.  0.
        5    1    3    3  502    0 -0.34021288444E+03  0.79201641338E+01 -0.70092603027E+03  0.77918349934E+03  0.46999998093E+01 0.  1.
       -5    1    3    3    0  502  0.34021288444E+03 -0.79201641338E+01  0.52792375005E+03  0.62811870821E+03  0.46999998093E+01 0. -1.
</event>
<event>
 5   0  0.9978422E-05  0.1399320E+04  0.7818609E-02  0.8954311E-01
       -1   -1    0    0    0  501  0.00000000000E+00  0.00000000000E+00  0.89173797671E+03  0.89173797673E+03  0.50400001928E-02 0.  1.
        1   -1    0    0  501    0  0.00000000000E+00  0.00000000000E+00 -0.54895479344E+03  0.54895479346E+03  0.50400001928E-02 0. -1.
    10030    2    1    2    0    0  0.00000000000E+00  0.00000000000E+00  0.34278318327E+03  0.14406927702E+04  0.13993196016E+04 0.  0.
        2    1    3    3  502    0  0.91152533051E+02 -0.41008413830E+03  0.74743946092E+03  0.85740511575E+03  0.25500000920E-02 0.  1.
       -2    1    3    3    0  502 -0.91152533051E+02  0.41008413830E+03 -0.40465627765E+03  0.58328765443E+03  0.25500000920E-02 0. -1.
</event>
<event>
 5   0  0.9978422E-05  0.1404525E+04  0.7818609E-02  0.8950550E-01
        1   -1    0    0  501    0  0.00000000000E+00  0.00000000000E+00  0.41132981780E+03  0.41132981783E+03  0.50400001928E-02 0.  1.
       -1   -1    0    0    0  501  0.00000000000E+00  0.00000000000E+00 -0.11989706966E+04  0.11989706966E+04  0.50400001928E-02 0. -1.
    10030    2    1    2    0    0  0.00000000000E+00  0.00000000000E+00 -0.78764087876E+03  0.16103005144E+04  0.14045246857E+04 0.  0.
        2    1    3    3  502    0 -0.34906216662E+03 -0.48990338645E+03 -0.80929784737E+03  0.10083713254E+04  0.25500000920E-02 0. -1.
       -2    1    3    3    0  502  0.34906216662E+03  0.48990338645E+03  0.21656968611E+02  0.60192918895E+03  0.25500000920E-02 0.  1.
</event>
<event>
 5   0  0.9978422E-05  0.1404581E+04  0.7818609E-02  0.8950509E-01
       -1   -1    0    0    0  501  0.00000000000E+00  0.00000000000E+00  0.36409012082E+03  0.36409012085E+03  0.50400001928E-02 0.  1.
        1   -1    0    0  501    0  0.00000000000E+00  0.00000000000E+00 -0.13546420108E+04  0.13546420108E+04  0.50400001928E-02 0. -1.
    10030    2    1    2    0    0  0.00000000000E+00  0.00000000000E+00 -0.99055188995E+03  0.17187321316E+04  0.14045807537E+04 0.  0.
        2    1    3    3  502    0  0.16576247028E+03 -0.14130369353E+03 -0.13122642711E+04  0.13302185713E+04  0.25500000920E-02 0. -1.
       -2    1    3    3    0  502 -0.16576247028E+03  0.14130369353E+03  0.32171238113E+03  0.38851356030E+03  0.25500000920E-02 0.  1.
</event>
<event>
 5   0  0.1780171E-04  0.1397314E+04  0.7818609E-02  0.8955765E-01
       -2   -1    0    0    0  501  0.00000000000E+00  0.00000000000E+00  0.41364540434E+03  0.41364540435E+03  0.25500000920E-02 0. -1.
        2   -1    0    0  501    0  0.00000000000E+00  0.00000000000E+00 -0.11800480775E+04  0.11800480775E+04  0.25500000920E-02 0.  1.
    10030    2    1    2    0    0  0.00000000000E+00  0.00000000000E+00 -0.76640267318E+03  0.15936934819E+04  0.13973138004E+04 0.  0.
        5    1    3    3  502    0 -0.78646007400E+02  0.33692336430E+03 -0.10754606195E+04  0.11297522657E+04  0.46999998093E+01 0.  1.
       -5    1    3    3    0  502  0.78646007400E+02 -0.33692336430E+03  0.30905794628E+03  0.46394121616E+03  0.46999998093E+01 0. -1.
</event>
<event>
 5   0  0.9260916E-05  0.1400234E+04  0.7818609E-02  0.8953649E-01
        1   -1    0    0  501    0  0.00000000000E+00  0.00000000000E+00  0.13559253110E+04  0.13559253110E+04  0.50400001928E-02 0. -1.
       -1   -1    0    0    0  501  0.00000000000E+00  0.00000000000E+00 -0.36149786274E+03  0.36149786277E+03  0.50400001928E-02 0.  1.
    10030    2    1    2    0    0  0.00000000000E+00  0.00000000000E+00  0.99442744827E+03  0.17174231738E+04  0.14002344118E+04 0.  0.
        1    1    3    3  502    0  0.11648048366E+02  0.64217754193E+03  0.83896437421E+03  0.10565930596E+04  0.50400001928E-02 0. -1.
       -1    1    3    3    0  502 -0.11648048366E+02 -0.64217754193E+03  0.15546307406E+03  0.66083011418E+03  0.50400001928E-02 0.  1.
</event>
<event>
 5   0  0.6671375E-05  0.1399580E+04  0.7818609E-02  0.8954123E-01
        1   -1    0    0  501    0  0.00000000000E+00  0.00000000000E+00  0.42863433590E+03  0.42863433593E+03  0.50400001928E-02 0.  1.
       -1   -1    0    0    0  501  0.00000000000E+00  0.00000000000E+00 -0.11424796773E+04  0.11424796773E+04  0.50400001928E-02 0. -1.
    10030    2    1    2    0    0  0.00000000000E+00  0.00000000000E+00 -0.71384534135E+03  0.15711140132E+04  0.13995799624E+04 0.  0.
        5    1    3    3  502    0  0.55113003961E+02 -0.38125787608E+03  0.29887682511E+03  0.48759046121E+03  0.46999998093E+01 0.  1.
       -5    1    3    3    0  502 -0.55113003961E+02  0.38125787608E+03 -0.10127221665E+04  0.10835235520E+04  0.46999998093E+01 0. -1.
</event>
<event>
 5   0  0.1766237E-04  0.1405350E+04  0.7818609E-02  0.8949955E-01
       -2   -1    0    0    0  501  0.00000000000E+00  0.00000000000E+00  0.50744208147E+03  0.50744208148E+03  0.25500000920E-02 0. -1.
        2   -1    0    0  501    0  0.00000000000E+00  0.00000000000E+00 -0.97302124459E+03  0.97302124459E+03  0.25500000920E-02 0.  1.
    10030    2    1    2    0    0  0.00000000000E+00  0.00000000000E+00 -0.46557916312E+03  0.14804633261E+04  0.14053496727E+04 0.  0.
        3    1    3    3  502    0 -0.37121960528E+03 -0.48252000534E+03  0.13685277512E+03  0.62398577160E+03  0.10100000352E+00 0. -1.
       -3    1    3    3    0  502  0.37121960528E+03  0.48252000534E+03 -0.60243193823E+03  0.85647755447E+03  0.10100000352E+00 0.  1.
</event>
<event>
 5   0  0.9828111E-05  0.1406519E+04  0.7818609E-02  0.8949113E-01
       -1   -1    0    0    0  501  0.00000000000E+00  0.00000000000E+00  0.11268948457E+04  0.11268948457E+04  0.50400001928E-02 0.  1.
        1   -1    0    0  501    0  0.00000000000E+00  0.00000000000E+00 -0.43888203021E+03  0.43888203024E+03  0.50400001928E-02 0. -1.
    10030    2    1    2    0    0  0.00000000000E+00  0.00000000000E+00  0.68801281549E+03  0.15657768760E+04  0.14065189622E+04 0.  0.
        4    1    3    3  502    0  0.20563165893E+03  0.52766271937E+03  0.80818389309E+03  0.98685112480E+03  0.12699999809E+01 0.  1.
       -4    1    3    3    0  502 -0.20563165893E+03 -0.52766271937E+03 -0.12017107760E+03  0.57892575116E+03  0.12699999809E+01 0. -1.
</event>
<event>
 5   0  0.1833681E-04  0.1401328E+04  0.7818609E-02  0.8952858E-01
       -2   -1    0    0    0  501  0.00000000000E+00  0.00000000000E+00  0.30271929630E+03  0.30271929631E+03  0.25500000920E-02 0.  1.
        2   -1    0    0  501    0  0.00000000000E+00  0.00000000000E+00 -0.16217328626E+04  0.16217328626E+04  0.25500000920E-02 0. -1.
    10030    2    1    2    0    0  0.00000000000E+00  0.00000000000E+00 -0.13190135663E+04  0.19244521589E+04  0.14013277004E+04 0.  0.
        4    1    3    3  502    0 -0.38141901355E+03  0.47087530685E+02 -0.14640703464E+04  0.15136714609E+04  0.12699999809E+01 0. -1.
       -4    1    3    3    0  502  0.38141901355E+03 -0.47087530685E+02  0.14505678016E+03  0.41078069796E+03  0.12699999809E+01 0.  1.
</event>
<event>
 5   0  0.1712327E-04  0.1398194E+04  0.7818609E-02  0.8955127E-01
        2   -1    0    0  501    0  0.00000000000E+00  0.00000000000E+00  0.70014390104E+03  0.70014390104E+03  0.25500000920E-02 0. -1.
       -2   -1    0    0    0  501  0.00000000000E+00  0.00000000000E+00 -0.69805122216E+03  0.69805122217E+03  0.25500000920E-02 0.  1.
    10030    2    1    2    0    0  0.00000000000E+00  0.00000000000E+00  0.20926788757E+01  0.13981951232E+04  0.13981935572E+04 0.  0.
        1    1    3    3  502    0  0.11271069068E+02  0.48112601693E+03 -0.50603117004E+03  0.69833861861E+03  0.50400001928E-02 0.  1.
       -1    1    3    3    0  502 -0.11271069068E+02 -0.48112601693E+03  0.50812384892E+03  0.69985650460E+03  0.50400001928E-02 0. -1.
</event>
<event>
 5   0  0.9900839E-05  0.1398163E+04  0.7818609E-02  0.8955149E-01
        1   -1    0    0  501    0  0.00000000000E+00  0.00000000000E+00  0.87485437469E+03  0.87485437471E+03  0.50400001928E-02 0.  1.
       -1   -1    0    0    0  501  0.00000000000E+00  0.00000000000E+00 -0.55862462727E+03  0.55862462729E+03  0.50400001928E-02 0. -1.
    10030    2    1    2    0    0  0.00000000000E+00  0.00000000000E+00  0.31622974743E+03  0.14334790020E+04  0.13981633653E+04 0.  0.
        3    1    3    3  502    0  0.52296628402E+03 -0.13802731258E+03 -0.29598315824E+03  0.61656411946E+03  0.10100000352E+00 0. -1.
       -3    1    3    3    0  502 -0.52296628402E+03  0.13802731258E+03  0.61221290567E+03  0.81691488254E+03  0.10100000352E+00 0.  1.
</event>
<event>
 5   0  0.1766237E-04  0.1401557E+04  0.7818609E-02  0.8952692E-01
        2   -1    0    0  501    0  0.00000000000E+00  0.00000000000E+00  0.14041086110E+04  0.14041086110E+04  0.25500000920E-02 0. -1.
       -2   -1    0    0    0  501  0.00000000000E+00  0.00000000000E+00 -0.34975266657E+03  0.34975266658E+03  0.25500000920E-02 0.  1.
    10030    2    1    2    0    0  0.00000000000E+00  0.00000000000E+00  0.10543559445E+04  0.17538612776E+04  0.14015573208E+04 0.  0.
        3    1    3    3  502    0 -0.71501951217E+02  0.69084191613E+03  0.41035345871E+03  0.80670010127E+03  0.10100000352E+00 0. -1.
       -3    1    3    3    0  502  0.71501951217E+02 -0.69084191613E+03  0.64400248577E+03  0.94716117636E+03  0.10100000352E+00 0.  1.
</event>
<event>
 5   0  0.9828111E-05  0.1427108E+04  0.7818609E-02  0.8934427E-01
        1   -1    0    0  501    0  0.00000000000E+00  0.00000000000E+00  0.14204785434E+04  0.14204785434E+04  0.50400001928E-02 0. -1.
       -1   -1    0    0    0  501  0.00000000000E+00  0.00000000000E+00 -0.35844195004E+03  0.35844195008E+03  0.50400001928E-02 0.  1.
    10030    2    1    2    0    0  0.00000000000E+00  0.00000000000E+00  0.10620365934E+04  0.17789204935E+04  0.14271077032E+04 0.  0.
        4    1    3    3  502    0  0.71881873010E+02  0.41547813263E+03  0.12485735295E+04  0.13178492151E+04  0.12699999809E+01 0. -1.
       -4    1    3    3    0  502 -0.71881873010E+02 -0.41547813263E+03 -0.18653693608E+03  0.46107127842E+03  0.12699999809E+01 0.  1.
</event>
<event>
 5   0  0.1794185E-04  0.1395767E+04  0.7818609E-02  0.8956888E-01
       -2   -1    0    0    0  501  0.00000000000E+00  0.00000000000E+00  0.18230724330E+04  0.18230724330E+04  0.25500000920E-02 0. -1.
        2   -1    0    0  501    0  0.00000000000E+00  0.00000000000E+00 -0.26715432323E+03  0.26715432324E+03  0.25500000920E-02 0.  1.
    10030    2    1    2    0    0  0.00000000000E+00  0.00000000000E+00  0.15559181098E+04  0.20902267562E+04  0.13957674334E+04 0.  0.
        2    1    3    3  502    0 -0.39190870795E+03  0.94488764862E+01 -0.86684409079E+02  0.40149209633E+03  0.25500000920E-02 0.  1.
       -2    1    3    3    0  502  0.39190870795E+03 -0.94488764862E+01  0.16426025188E+04  0.16887346599E+04  0.25500000920E-02 0. -1.
</event>
<event>
 5   0  0.9828111E-05  0.1400006E+04  0.7818609E-02  0.8953814E-01
       -1   -1    0    0    0  501  0.00000000000E+00  0.00000000000E+00  0.90632183965E+03  0.90632183967E+03  0.50400001928E-02 0.  1.
        1   -1    0    0  501    0  0.00000000000E+00  0.00000000000E+00 -0.54065177843E+03  0.54065177845E+03  0.50400001928E-02 0. -1.
    10030    2    1    2    0    0  0.00000000000E+00  0.00000000000E+00  0.36567006123E+03  0.14469736181E+04  0.14000064492E+04 0.  0.
        4    1    3    3  502    0 -0.11056454462E+03  0.15300293461E+03 -0.51384710941E+03  0.54742568562E+03  0.12699999809E+01 0. -1.
       -4    1    3    3    0  502  0.11056454462E+03 -0.15300293461E+03  0.87951717064E+03  0.89954793250E+03  0.12699999809E+01 0.  1.
</event>
<event>
 5   0  0.9828111E-05  0.1398476E+04  0.7818609E-02  0.8954923E-01
        1   -1    0    0  501    0  0.00000000000E+00  0.00000000000E+00  0.39507551322E+03  0.39507551325E+03  0.50400001928E-02 0. -1.
       -1   -1    0    0    0  501  0.00000000000E+00  0.00000000000E+00 -0.12375700666E+04  0.12375700666E+04  0.50400001928E-02 0.  1.
    10030    2    1    2    0    0  0.00000000000E+00  0.00000000000E+00 -0.84249455338E+03  0.16326455799E+04  0.13984757835E+04 0.  0.
        4    1    3    3  502    0 -0.59480812555E+03 -0.15617618573E+03 -0.80975322772E+03  0.10168036241E+04  0.12699999809E+01 0.  1.
       -4    1    3    3    0  502  0.59480812555E+03  0.15617618573E+03 -0.32741325666E+02  0.61584195580E+03  0.12699999809E+01 0. -1.
</event>
<event>
 5   0  0.9978422E-05  0.1401430E+04  0.7818609E-02  0.8952784E-01
       -1   -1    0    0    0  501  0.00000000000E+00  0.00000000000E+00  0.90932275940E+03  0.90932275941E+03  0.50400001928E-02 0. -1.
        1   -1    0    0  501    0  0.00000000000E+00  0.00000000000E+00 -0.53996388475E+03  0.53996388477E+03  0.50400001928E-02 0.  1.
    10030    2    1    2    0    0  0.00000000000E+00  0.00000000000E+00  0.36935887465E+03  0.14492866442E+04  0.14014299122E+04 0.  0.
        2    1    3    3  502    0  0.24109302481E+03 -0.37008854774E+03  0.74723157514E+03  0.86801290697E+03  0.25500000920E-02 0. -1.
       -2    1    3    3    0  502 -0.24109302481E+03  0.37008854774E+03 -0.37787270050E+03  0.58127373721E+03  0.25500000920E-02 0.  1.
</event>
<event>
 5   0  0.1794185E-04  0.1398893E+04  0.7818609E-02  0.8954620E-01
        2   -1    0    0  501    0  0.00000000000E+00  0.00000000000E+00  0.92881826973E+03  0.92881826974E+03  0.25500000920E-02 0.  1.
       -2   -1    0    0    0  501  0.00000000000E+00  0.00000000000E+00 -0.52671837442E+03  0.52671837442E+03  0.25500000920E-02 0. -1.
    10030    2    1    2    0    0  0.00000000000E+00  0.00000000000E+00  0.40209989531E+03  0.14555366442E+04  0.13988933471E+04 0.  0.
        2    1    3    3  502    0 -0.65475743636E+03 -0.24042271247E+02  0.45579048451E+03  0.79814177754E+03  0.25500000920E-02 0.  1.
       -2    1    3    3    0  502  0.65475743636E+03  0.24042271247E+02 -0.53690589195E+02  0.65739486662E+03  0.25500000920E-02 0. -1.
</event>
<event>
 5   0  0.1712327E-04  0.1414152E+04  0.7818609E-02  0.8943638E-01
       -2   -1    0    0    0  501  0.00000000000E+00  0.00000000000E+00  0.44504398437E+03  0.44504398438E+03  0.25500000920E-02 0. -1.
        2   -1    0    0  501    0  0.00000000000E+00  0.00000000000E+00 -0.11233864266E+04  0.11233864266E+04  0.25500000920E-02 0.  1.
    10030    2    1    2    0    0  0.00000000000E+00  0.00000000000E+00 -0.67834244219E+03  0.15684304109E+04  0.14141518607E+04 0.  0.
        1    1    3    3  502    0  0.53912855105E+03 -0.63606681476E+02 -0.84164315736E+03  0.10015331292E+04  0.50400001928E-02 0.  1.
       -1    1    3    3    0  502 -0.53912855105E+03  0.63606681476E+02  0.16330071517E+03  0.56689728177E+03  0.50400001928E-02 0. -1.
</event>
<event>
 5   0  0.6671375E-05  0.1406758E+04  0.7818609E-02  0.8948941E-01
       -4   -1    0    0    0  501  0.00000000000E+00  0.00000000000E+00  0.61726677830E+03  0.61726808478E+03  0.12699999809E+01 0.  1.
        4   -1    0    0  501    0  0.00000000000E+00  0.00000000000E+00 -0.80150204237E+03  0.80150304854E+03  0.12699999809E+01 0. -1.
    10030    2    1    2    0    0  0.00000000000E+00  0.00000000000E+00 -0.18423526407E+03  0.14187711333E+04  0.14067582935E+04 0.  0.
        2    1    3    3  502    0  0.16590133233E+03 -0.67640271905E+03 -0.19143870890E+03  0.72228295680E+03  0.25500000920E-02 0. -1.
       -2    1    3    3    0  502 -0.16590133233E+03  0.67640271905E+03  0.72034448277E+01  0.69648817652E+03  0.25500000920E-02 0.  1.
</event>
<event>
 5   0  0.1712327E-04  0.1400065E+04  0.7818609E-02  0.8953771E-01
        2   -1    0    0  501    0  0.00000000000E+00  0.00000000000E+00  0.42614148616E+03  0.42614148617E+03  0.25500000920E-02 0.  1.
       -2   -1    0    0    0  501  0.00000000000E+00  0.00000000000E+00 -0.11499599594E+04  0.11499599594E+04  0.25500000920E-02 0. -1.
    10030    2    1    2    0    0  0.00000000000E+00  0.00000000000E+00 -0.72381847322E+03  0.15761014456E+04  0.14000652072E+04 0.  0.
        1    1    3    3  502    0  0.20172837530E+03 -0.53554087368E+03  0.91954787331E+02  0.57961543088E+03  0.50400001928E-02 0.  1.
       -1    1    3    3    0  502 -0.20172837530E+03  0.53554087368E+03 -0.81577326055E+03  0.99648601467E+03  0.50400001928E-02 0. -1.
</event>
<event>
 5   0  0.9260916E-05  0.1400959E+04  0.7818609E-02  0.8953125E-01
        1   -1    0    0  501    0  0.00000000000E+00  0.00000000000E+00  0.34510735346E+03  0.34510735350E+03  0.50400001928E-02 0. -1.
       -1   -1    0    0    0  501  0.00000000000E+00  0.00000000000E+00 -0.14217932354E+04  0.14217932354E+04  0.50400001928E-02 0.  1.
    10030    2    1    2    0    0  0.00000000000E+00  0.00000000000E+00 -0.10766858819E+04  0.17669005889E+04  0.14009586727E+04 0.  0.
        1    1    3    3  502    0  0.28737601453E+03 -0.20706293303E+03 -0.13005252709E+04  0.13478968848E+04  0.50400001928E-02 0.  1.
       -1    1    3    3    0  502 -0.28737601453E+03  0.20706293303E+03  0.22383938893E+03  0.41900370407E+03  0.50400001928E-02 0. -1.
</event>
<event>
 5   0  0.1780171E-04  0.1399914E+04  0.7818609E-02  0.8953881E-01
        2   -1    0    0  501    0  0.00000000000E+00  0.00000000000E+00  0.91708146729E+03  0.91708146730E+03  0.25500000920E-02 0.  1.
       -2   -1    0    0    0  501  0.00000000000E+00  0.00000000000E+00 -0.53423823924E+03  0.53423823924E+03  0.25500000920E-02 0. -1.
    10030    2    1    2    0    0  0.00000000000E+00  0.00000000000E+00  0.38284322805E+03  0.14513197065E+04  0.13999142664E+04 0.  0.
        5    1    3    3  502    0 -0.24383226498E+03  0.63052015706E+03  0.37948868883E+03  0.77527001544E+03  0.46999998093E+01 0.  1.
       -5    1    3    3    0  502  0.24383226498E+03 -0.63052015706E+03  0.33545392205E+01  0.67604969109E+03  0.46999998093E+01 0. -1.
</event>
<event>
 5   0  0.6671375E-05  0.1400771E+04  0.7818609E-02  0.8953261E-01
        1   -1    0    0  501    0  0.00000000000E+00  0.00000000000E+00  0.11051940385E+04  0.11051940385E+04  0.50400001928E-02 0. -1.
       -1   -1    0    0    0  501  0.00000000000E+00  0.00000000000E+00 -0.44384963567E+03  0.44384963570E+03  0.50400001928E-02 0.  1.
    10030    2    1    2    0    0  0.00000000000E+00  0.00000000000E+00  0.66134440286E+03  0.15490436742E+04  0.14007711753E+04 0.  0.
        5    1    3    3  502    0 -0.21901736310E+03  0.14457078723E+03  0.10487504618E+04  0.10810961747E+04  0.46999998093E+01 0. -1.
       -5    1    3    3    0  502  0.21901736310E+03 -0.14457078723E+03 -0.38740605891E+03  0.46794749955E+03  0.46999998093E+01 0.  1.
</event>
<event>
 5   0  0.1833681E-04  0.1399565E+04  0.7818609E-02  0.8954134E-01
        2   -1    0    0  501    0  0.00000000000E+00  0.00000000000E+00  0.17808897921E+04  0.17808897921E+04  0.25500000920E-02 0. -1.
       -2   -1    0    0    0  501  0.00000000000E+00  0.00000000000E+00 -0.27497231349E+03  0.27497231350E+03  0.25500000920E-02 0.  1.
    10030    2    1    2    0    0  0.00000000000E+00  0.00000000000E+00  0.15059174787E+04  0.20558621056E+04  0.13995647698E+04 0.  0.
        4    1    3    3  502    0 -0.72005407856E+02 -0.39658376143E+03  0.15932459331E+04  0.16434408035E+04  0.12699999809E+01 0. -1.
       -4    1    3    3    0  502  0.72005407856E+02  0.39658376143E+03 -0.87328454399E+02  0.41242130212E+03  0.12699999809E+01 0.  1.
</event>
<event>
 5   0  0.1833681E-04  0.1398599E+04  0.7818609E-02  0.8954833E-01
       -2   -1    0    0    0  501  0.00000000000E+00  0.00000000000E+00  0.44989629017E+03  0.44989629018E+03  0.25500000920E-02 0.  1.
        2   -1    0    0  501    0  0.00000000000E+00  0.00000000000E+00 -0.10869613143E+04  0.10869613143E+04  0.25500000920E-02 0. -1.
    10030    2    1    2    0    0  0.00000000000E+00  0.00000000000E+00 -0.63706502414E+03  0.15368576045E+04  0.13985991032E+04 0.  0.
        4    1    3    3  502    0 -0.30430020086E+03 -0.32213003124E+03  0.27591846424E+03  0.52201434949E+03  0.12699999809E+01 0.  1.
       -4    1    3    3    0  502  0.30430020086E+03  0.32213003124E+03 -0.91298348838E+03  0.10148432550E+04  0.12699999809E+01 0. -1.
</event>
<event>
 5   0  0.9978422E-05  0.1399762E+04  0.7818609E-02  0.8953991E-01
        1   -1    0    0  501    0  0.00000000000E+00  0.00000000000E+00  0.18917894143E+04  0.18917894143E+04  0.50400001928E-02 0.  1.
       -1   -1    0    0    0  501  0.00000000000E+00  0.00000000000E+00 -0.25892594583E+03  0.25892594588E+03  0.50400001928E-02 0. -1.
    10030    2    1    2    0    0  0.00000000000E+00  0.00000000000E+00  0.16328634685E+04  0.21507153602E+04  0.13997619276E+04 0.  0.
        2    1    3    3  502    0  0.65685641350E+03 -0.15053469315E+03  0.52607105593E+03  0.85491040331E+03  0.25500000920E-02 0. -1.
       -2    1    3    3    0  502 -0.65685641350E+03  0.15053469315E+03  0.11067924125E+04  0.12958049569E+04  0.25500000920E-02 0.  1.
</event>
<event>
 5   0  0.6671375E-05  0.1400611E+04  0.7818609E-02  0.8953377E-01
       -3   -1    0    0    0  501  0.00000000000E+00  0.00000000000E+00  0.11458446866E+04  0.11458446911E+04  0.10100000352E+00 0.  1.
        3   -1    0    0  501    0  0.00000000000E+00  0.00000000000E+00 -0.42800519496E+03  0.42800520688E+03  0.10100000352E+00 0. -1.
    10030    2    1    2    0    0  0.00000000000E+00  0.00000000000E+00  0.71783949167E+03  0.15738498980E+04  0.14006105688E+04 0.  0.
        1    1    3    3  502    0 -0.25756351465E+03 -0.40539970362E+03  0.93160368177E+03  0.10481284767E+04  0.50400001928E-02 0.  1.
       -1    1    3    3    0  502  0.25756351465E+03  0.40539970362E+03 -0.21376419011E+03  0.52572142126E+03  0.50400001928E-02 0. -1.
</event>
<event>
 5   0  0.9260916E-05  0.1400114E+04  0.7818609E-02  0.8953736E-01
        1   -1    0    0  501    0  0.00000000000E+00  0.00000000000E+00  0.87730892515E+03  0.87730892517E+03  0.50400001928E-02 0.  1.
       -1   -1    0    0    0  501  0.00000000000E+00  0.00000000000E+00 -0.55861749455E+03  0.55861749457E+03  0.50400001928E-02 0. -1.
    10030    2    1    2    0    0  0.00000000000E+00  0.00000000000E+00  0.31869143060E+03  0.14359264197E+04  0.14001144435E+04 0.  0.
        1    1    3    3  502    0  0.61309117044E+03 -0.19394648563E+03 -0.12447097536E+03  0.65497255385E+03  0.50400001928E-02 0. -1.
       -1    1    3    3    0  502 -0.61309117044E+03  0.19394648563E+03  0.44316240596E+03  0.78095386589E+03  0.50400001928E-02 0.  1.
</event>
<event>
 5   0  0.6671375E-05  0.1399544E+04  0.7818609E-02  0.8954149E-01
        1   -1    0    0  501    0  0.00000000000E+00  0.00000000000E+00  0.90901842664E+03  0.90901842665E+03  0.50400001928E-02 0.  1.
       -1   -1    0    0    0  501  0.00000000000E+00  0.00000000000E+00 -0.53869150847E+03  0.53869150849E+03  0.50400001928E-02 0. -1.
    10030    2    1    2    0    0  0.00000000000E+00  0.00000000000E+00  0.37032691817E+03  0.14477099351E+04  0.13995435077E+04 0.  0.
        5    1    3    3  502    0 -0.26485024076E+03  0.33783570754E+03 -0.38646692584E+03  0.57763084239E+03  0.46999998093E+01 0. -1.
       -5    1    3    3    0  502  0.26485024076E+03 -0.33783570754E+03  0.75679384401E+03  0.87007909275E+03  0.46999998093E+01 0.  1.
</event>
<event>
 5   0  0.1833681E-04  0.1400581E+04  0.7818609E-02  0.8953398E-01
        2   -1    0    0  501    0  0.00000000000E+00  0.00000000000E+00  0.13711474427E+04  0.13711474427E+04  0.25500000920E-02 0. -1.
       -2   -1    0    0    0  501  0.00000000000E+00  0.00000000000E+00 -0.35766173246E+03  0.35766173247E+03  0.25500000920E-02 0.  1.
    10030    2    1    2    0    0  0.00000000000E+00  0.00000000000E+00  0.10134857102E+04  0.17288091751E+04  0.14005812648E+04 0.  0.
        4    1    3    3  502    0 -0.34463872603E+03  0.26311290555E+03 -0.17203932535E+03  0.46647979047E+03  0.12699999809E+01 0.  1.
       -4    1    3    3    0  502  0.34463872603E+03 -0.26311290555E+03  0.11855250356E+04  0.12623293847E+04  0.12699999809E+01 0. -1.
</event>
<event>
 5   0  0.1780171E-04  0.1395188E+04  0.7818609E-02  0.8957309E-01
       -2   -1    0    0    0  501  0.00000000000E+00  0.00000000000E+00  0.67560080645E+03  0.67560080646E+03  0.25500000920E-02 0. -1.
        2   -1    0    0  501    0  0.00000000000E+00  0.00000000000E+00 -0.72030265494E+03  0.72030265495E+03  0.25500000920E-02 0.  1.
    10030    2    1    2    0    0  0.00000000000E+00  0.00000000000E+00 -0.44701848492E+02  0.13959034614E+04  0.13951875208E+04 0.  0.
        5    1    3    3  502    0  0.68023580000E+03  0.97114794099E+02  0.97972742865E+02  0.69409853420E+03  0.46999998093E+01 0. -1.
       -5    1    3    3    0  502 -0.68023580000E+03 -0.97114794099E+02 -0.14267459136E+03  0.70180492721E+03  0.46999998093E+01 0.  1.
</event>
<event>
 5   0  0.1712327E-04  0.1405410E+04  0.7818609E-02  0.8949912E-01
       -2   -1    0    0    0  501  0.00000000000E+00  0.00000000000E+00  0.26993810717E+03  0.26993810718E+03  0.25500000920E-02 0.  1.
        2   -1    0    0  501    0  0.00000000000E+00  0.00000000000E+00 -0.18292867986E+04  0.18292867986E+04  0.25500000920E-02 0. -1.
    10030    2    1    2    0    0  0.00000000000E+00  0.00000000000E+00 -0.15593486914E+04  0.20992249058E+04  0.14054098561E+04 0.  0.
        1    1    3    3  502    0 -0.15538779827E+03  0.39340274378E+03  0.58492873878E+02  0.42700410184E+03  0.50400001928E-02 0.  1.
       -1    1    3    3    0  502  0.15538779827E+03 -0.39340274378E+03 -0.16178415653E+04  0.16722208040E+04  0.50400001928E-02 0. -1.
</event>
<event>
 5   0  0.1712327E-04  0.1400206E+04  0.7818609E-02  0.8953669E-01
       -2   -1    0    0    0  501  0.00000000000E+00  0.00000000000E+00  0.30849666872E+03  0.30849666873E+03  0.25500000920E-02 0. -1.
        2   -1    0    0  501    0  0.00000000000E+00  0.00000000000E+00 -0.15888161539E+04  0.15888161539E+04  0.25500000920E-02 0.  1.
    10030    2    1    2    0    0  0.00000000000E+00  0.00000000000E+00 -0.12803194852E+04  0.18973128227E+04  0.14002064001E+04 0.  0.
        1    1    3    3  502    0 -0.61974538341E+03 -0.26807217779E+03 -0.89073823694E+03  0.11177484688E+04  0.50400001928E-02 0. -1.
       -1    1    3    3    0  502  0.61974538341E+03  0.26807217779E+03 -0.38958124827E+03  0.77956435385E+03  0.50400001928E-02 0.  1.
</event>
<event>
 5   0  0.6671375E-05  0.1399084E+04  0.7818609E-02  0.8954482E-01
        1   -1    0    0  501    0  0.00000000000E+00  0.00000000000E+00  0.11052817304E+04  0.11052817304E+04  0.50400001928E-02 0.  1.
       -1   -1    0    0    0  501  0.00000000000E+00  0.00000000000E+00 -0.44274565506E+03  0.44274565509E+03  0.50400001928E-02 0. -1.
    10030    2    1    2    0    0  0.00000000000E+00  0.00000000000E+00  0.66253607536E+03  0.15480273855E+04  0.13990835340E+04 0.  0.
        5    1    3    3  502    0 -0.58007311055E+03 -0.28070350729E+03  0.63237374910E+03  0.90288311599E+03  0.46999998093E+01 0.  1.
       -5    1    3    3    0  502  0.58007311055E+03  0.28070350729E+03  0.30162326257E+02  0.64514426953E+03  0.46999998093E+01 0. -1.
</event>
<event>
 5   0  0.6671375E-05  0.1401254E+04  0.7818609E-02  0.8952911E-01
       -1   -1    0    0    0  501  0.00000000000E+00  0.00000000000E+00  0.12419849281E+04  0.12419849281E+04  0.50400001928E-02 0.  1.
        1   -1    0    0  501    0  0.00000000000E+00  0.00000000000E+00 -0.39523694215E+03  0.39523694218E+03  0.50400001928E-02 0. -1.
    10030    2    1    2    0    0  0.00000000000E+00  0.00000000000E+00  0.84674798595E+03  0.16372218703E+04  0.14012541885E+04 0.  0.
        5    1    3    3  502    0 -0.54159504475E+03  0.15631935394E+03 -0.62734550980E+02  0.56720247425E+03  0.46999998093E+01 0. -1.
       -5    1    3    3    0  502  0.54159504475E+03 -0.15631935394E+03  0.90948253693E+03  0.10700193960E+04  0.46999998093E+01 0.  1.
</event>
<event>
 5   0  0.1833681E-04  0.1401871E+04  0.7818609E-02  0.8952465E-01
        2   -1    0    0  501    0  0.00000000000E+00  0.00000000000E+00  0.17515838897E+04  0.17515838897E+04  0.25500000920E-02 0. -1.
       -2   -1    0    0    0  501  0.00000000000E+00  0.00000000000E+00 -0.28049507991E+03  0.28049507993E+03  0.25500000920E-02 0.  1.
    10030    2    1    2    0    0  0.00000000000E+00  0.00000000000E+00  0.14710888098E+04  0.20320789697E+04  0.14018711255E+04 0.  0.
        4    1    3    3  502    0 -0.52603658536E+02 -0.33176494807E+03  0.16273095062E+04  0.16616175756E+04  0.12699999809E+01 0. -1.
       -4    1    3    3    0  502  0.52603658536E+02  0.33176494807E+03 -0.15622069634E+03  0.37046139411E+03  0.12699999809E+01 0.  1.
</event>
<event>
 5   0  0.9828111E-05  0.1400637E+04  0.7818609E-02  0.8953357E-01
       -1   -1    0    0    0  501  0.00000000000E+00  0.00000000000E+00  0.17812468619E+03  0.17812468626E+03  0.50400001928E-02 0.  1.
        1   -1    0    0  501    0  0.00000000000E+00  0.00000000000E+00 -0.27533866807E+04  0.27533866807E+04  0.50400001928E-02 0. -1.
    10030    2    1    2    0    0  0.00000000000E+00  0.00000000000E+00 -0.25752619945E+04  0.29315113670E+04  0.14006371958E+04 0.  0.
        4    1    3    3  502    0  0.46531235168E+03  0.34620165785E+03 -0.46608914233E+03  0.74405098886E+03  0.12699999809E+01 0.  1.
       -4    1    3    3    0  502 -0.46531235168E+03 -0.34620165785E+03 -0.21091728522E+04  0.21874603781E+04  0.12699999809E+01 0. -1.
</event>
<event>
 5   0  0.1833681E-04  0.1428952E+04  0.7818609E-02  0.8933124E-01
        2   -1    0    0  501    0  0.00000000000E+00  0.00000000000E+00  0.11922598994E+04  0.11922598994E+04  0.25500000920E-02 0. -1.
       -2   -1    0    0    0  501  0.00000000000E+00  0.00000000000E+00 -0.42815849181E+03  0.42815849182E+03  0.25500000920E-02 0.  1.
    10030    2    1    2    0    0  0.00000000000E+00  0.00000000000E+00  0.76410140756E+03  0.16204183912E+04  0.14289523440E+04 0.  0.
        4    1    3    3  502    0 -0.73516926588E+02 -0.14830895967E+03 -0.40611291778E+03  0.43855398859E+03  0.12699999809E+01 0.  1.
       -4    1    3    3    0  502  0.73516926588E+02  0.14830895967E+03  0.11702143253E+04  0.11818644026E+04  0.12699999809E+01 0. -1.
</event>
<event>
 5   0  0.9900839E-05  0.1397861E+04  0.7818609E-02  0.8955369E-01
        1   -1    0    0  501    0  0.00000000000E+00  0.00000000000E+00  0.81114528352E+03  0.81114528354E+03  0.50400001928E-02 0.  1.
       -1   -1    0    0    0  501  0.00000000000E+00  0.00000000000E+00 -0.60223941805E+03  0.60223941807E+03  0.50400001928E-02 0. -1.
    10030    2    1    2    0    0  0.00000000000E+00  0.00000000000E+00  0.20890586547E+03  0.14133847016E+04  0.13978607420E+04 0.  0.
        3    1    3    3  502    0  0.68266865845E+03 -0.35970038488E+02  0.25157942505E+03  0.72843843818E+03  0.10100000352E+00 0. -1.
       -3    1    3    3    0  502 -0.68266865845E+03  0.35970038488E+02 -0.42673559573E+02  0.68494626343E+03  0.10100000352E+00 0.  1.
</event>
<event>
 5   0  0.9828111E-05  0.1394236E+04  0.7818609E-02  0.8958002E-01
        1   -1    0    0  501    0  0.00000000000E+00  0.00000000000E+00  0.11709747580E+04  0.11709747581E+04  0.50400001928E-02 0. -1.
       -1   -1    0    0    0  501  0.00000000000E+00  0.00000000000E+00 -0.41501594224E+03  0.41501594227E+03  0.50400001928E-02 0.  1.
    10030    2    1    2    0    0  0.00000000000E+00  0.00000000000E+00  0.75595881581E+03  0.15859907003E+04  0.13942355505E+04 0.  0.
        4    1    3    3  502    0 -0.28419750638E+03  0.31247565243E+03  0.10088365888E+04  0.10936919730E+04  0.12699999809E+01 0. -1.
       -4    1    3    3    0  502  0.28419750638E+03 -0.31247565243E+03 -0.25287777297E+03  0.49229872735E+03  0.12699999809E+01 0.  1.
</event>
<event>
 5   0  0.9978422E-05  0.1395463E+04  0.7818609E-02  0.8957109E-01
        1   -1    0    0  501    0  0.00000000000E+00  0.00000000000E+00  0.21548518118E+04  0.21548518118E+04  0.50400001928E-02 0. -1.
       -1   -1    0    0    0  501  0.00000000000E+00  0.00000000000E+00 -0.22592238297E+03  0.22592238303E+03  0.50400001928E-02 0.  1.
    10030    2    1    2    0    0  0.00000000000E+00  0.00000000000E+00  0.19289294288E+04  0.23807741948E+04  0.13954630147E+04 0.  0.
        2    1    3    3  502    0 -0.39993731197E+03 -0.30915513541E+03  0.17849863637E+04  0.18551827592E+04  0.25500000920E-02 0. -1.
       -2    1    3    3    0  502  0.39993731197E+03  0.30915513541E+03  0.14394306512E+03  0.52559143568E+03  0.25500000920E-02 0.  1.
</event>
<event>
 5   0  0.1712327E-04  0.1395171E+04  0.7818609E-02  0.8957322E-01
       -2   -1    0    0    0  501  0.00000000000E+00  0.00000000000E+00  0.31840379207E+03  0.31840379208E+03  0.25500000920E-02 0.  1.
        2   -1    0    0  501    0  0.00000000000E+00  0.00000000000E+00 -0.15283273382E+04  0.15283273382E+04  0.25500000920E-02 0. -1.
    10030    2    1    2    0    0  0.00000000000E+00  0.00000000000E+00 -0.12099235462E+04  0.18467311303E+04  0.13951705559E+04 0.  0.
        1    1    3    3  502    0  0.95805136719E+02  0.44779632078E+03 -0.13015201027E+04  0.13797299544E+04  0.50400001928E-02 0. -1.
       -1    1    3    3    0  502 -0.95805136719E+02 -0.44779632078E+03  0.91596556585E+02  0.46700117594E+03  0.50400001928E-02 0.  1.
</event>
<event>
 5   0  0.9260916E-05  0.1400769E+04  0.7818609E-02  0.8953262E-01
       -1   -1    0    0    0  501  0.00000000000E+00  0.00000000000E+00  0.47100541605E+03  0.47100541608E+03  0.50400001928E-02 0.  1.
        1   -1    0    0  501    0  0.00000000000E+00  0.00000000000E+00 -0.10414702061E+04  0.10414702061E+04  0.50400001928E-02 0. -1.
    10030    2    1    2    0    0  0.00000000000E+00  0.00000000000E+00 -0.57046479002E+03  0.15124756222E+04  0.14007685144E+04 0.  0.
        1    1    3    3  502    0  0.47179580666E+02 -0.30376525626E+03 -0.96473467008E+03  0.10125276428E+04  0.50400001928E-02 0. -1.
       -1    1    3    3    0  502 -0.47179580666E+02  0.30376525626E+03  0.39426988005E+03  0.49994797938E+03  0.50400001928E-02 0.  1.
</event>
<event>
 5   0  0.1712327E-04  0.1399442E+04  0.7818609E-02  0.8954223E-01
        2   -1    0    0  501    0  0.00000000000E+00  0.00000000000E+00  0.17607997039E+04  0.17607997039E+04  0.25500000920E-02 0. -1.
       -2   -1    0    0    0  501  0.00000000000E+00  0.00000000000E+00 -0.27806087824E+03  0.27806087825E+03  0.25500000920E-02 0.  1.
    10030    2    1    2    0    0  0.00000000000E+00  0.00000000000E+00  0.14827388256E+04  0.20388605821E+04  0.13994420489E+04 0.  0.
        1    1    3    3  502    0  0.48022282284E+03  0.15616207081E+03  0.35694126875E+02  0.50623573822E+03  0.50400001928E-02 0.  1.
       -1    1    3    3    0  502 -0.48022282284E+03 -0.15616207081E+03  0.14470446988E+04  0.15326248439E+04  0.50400001928E-02 0. -1.
</event>
<event>
 5   0  0.1794185E-04  0.1403606E+04  0.7818609E-02  0.8951213E-01
        2   -1    0    0  501    0  0.00000000000E+00  0.00000000000E+00  0.11096973067E+04  0.11096973067E+04  0.25500000920E-02 0.  1.
       -2   -1    0    0    0  501  0.00000000000E+00  0.00000000000E+00 -0.44383915169E+03  0.44383915170E+03  0.25500000920E-02 0. -1.
    10030    2    1    2    0    0  0.00000000000E+00  0.00000000000E+00  0.66585815500E+03  0.15535364584E+04  0.14036055162E+04 0.  0.
        2    1    3    3  502    0  0.24665362150E+03 -0.46670617417E+03  0.84479454995E+03  0.99615786582E+03  0.25500000920E-02 0.  1.
       -2    1    3    3    0  502 -0.24665362150E+03  0.46670617417E+03 -0.17893639495E+03  0.55737859257E+03  0.25500000920E-02 0. -1.
</event>
<event>
 5   0  0.1833681E-04  0.1400058E+04  0.7818609E-02  0.8953777E-01
        2   -1    0    0  501    0  0.00000000000E+00  0.00000000000E+00  0.41801859644E+03  0.41801859645E+03  0.25500000920E-02 0. -1.
       -2   -1    0    0    0  501  0.00000000000E+00  0.00000000000E+00 -0.11722929638E+04  0.11722929638E+04  0.25500000920E-02 0.  1.
    10030    2    1    2    0    0  0.00000000000E+00  0.00000000000E+00 -0.75427436735E+03  0.15903115602E+04  0.14000575122E+04 0.  0.
        4    1    3    3  502    0  0.53817954850E+02 -0.17459845175E+03 -0.11447314300E+04  0.11592207087E+04  0.12699999809E+01 0.  1.
       -4    1    3    3    0  502 -0.53817954850E+02  0.17459845175E+03  0.39045706268E+03  0.43109085158E+03  0.12699999809E+01 0. -1.
</event>
<event>
 5   0  0.9828111E-05  0.1399959E+04  0.7818609E-02  0.8953848E-01
       -1   -1    0    0    0  501  0.00000000000E+00  0.00000000000E+00  0.18525941523E+04  0.18525941523E+04  0.50400001928E-02 0. -1.
        1   -1    0    0  501    0  0.00000000000E+00  0.00000000000E+00 -0.26447845341E+03  0.26447845345E+03  0.50400001928E-02 0.  1.
    10030    2    1    2    0    0  0.00000000000E+00  0.00000000000E+00  0.15881156989E+04  0.21170726057E+04  0.13999589083E+04 0.  0.
        4    1    3    3  502    0 -0.71335388543E+02  0.34305698157E+03  0.17104208349E+04  0.17459432624E+04  0.12699999809E+01 0. -1.
       -4    1    3    3    0  502  0.71335388543E+02 -0.34305698157E+03 -0.12230513603E+03  0.37112934331E+03  0.12699999809E+01 0.  1.
</event>
<event>
 5   0  0.9260916E-05  0.1394592E+04  0.7818609E-02  0.8957743E-01
       -1   -1    0    0    0  501  0.00000000000E+00  0.00000000000E+00  0.40521829104E+03  0.40521829107E+03  0.50400001928E-02 0.  1.
        1   -1    0    0  501    0  0.00000000000E+00  0.00000000000E+00 -0.11999005892E+04  0.11999005892E+04  0.50400001928E-02 0. -1.
    10030    2    1    2    0    0  0.00000000000E+00  0.00000000000E+00 -0.79468229820E+03  0.16051188803E+04  0.13945919349E+04 0.  0.
        1    1    3    3  502    0 -0.65991315076E+02 -0.69415348425E+03 -0.39249168422E+03  0.80015850653E+03  0.50400001928E-02 0.  1.
       -1    1    3    3    0  502  0.65991315076E+02  0.69415348425E+03 -0.40219061398E+03  0.80496037378E+03  0.50400001928E-02 0. -1.
</event>
<event>
 5   0  0.1833681E-04  0.1398742E+04  0.7818609E-02  0.8954730E-01
       -2   -1    0    0    0  501  0.00000000000E+00  0.00000000000E+00  0.15038742136E+04  0.15038742136E+04  0.25500000920E-02 0. -1.
        2   -1    0    0  501    0  0.00000000000E+00  0.00000000000E+00 -0.32523979059E+03  0.32523979060E+03  0.25500000920E-02 0.  1.
    10030    2    1    2    0    0  0.00000000000E+00  0.00000000000E+00  0.11786344230E+04  0.18291140042E+04  0.13987419123E+04 0.  0.
        4    1    3    3  502    0 -0.14089999667E+03  0.64560433115E+03  0.88883237859E+03  0.11075569383E+04  0.12699999809E+01 0. -1.
       -4    1    3    3    0  502  0.14089999667E+03 -0.64560433115E+03  0.28980204438E+03  0.72155706586E+03  0.12699999809E+01 0.  1.
</event>
<event>
 5   0  0.1780171E-04  0.1424167E+04  0.7818609E-02  0.8936509E-01
       -2   -1    0    0    0  501  0.00000000000E+00  0.00000000000E+00  0.29516694192E+03  0.29516694193E+03  0.25500000920E-02 0. -1.
        2   -1    0    0  501    0  0.00000000000E+00  0.00000000000E+00 -0.17178856419E+04  0.17178856419E+04  0.25500000920E-02 0.  1.
    10030    2    1    2    0    0  0.00000000000E+00  0.00000000000E+00 -0.14227187000E+04  0.20130525838E+04  0.14241671973E+04 0.  0.
        5    1    3    3  502    0  0.64096929021E+03 -0.79950572070E+02 -0.28776534272E+03  0.70715253477E+03  0.46999998093E+01 0. -1.
       -5    1    3    3    0  502 -0.64096929021E+03  0.79950572070E+02 -0.11349533573E+04  0.13059000490E+04  0.46999998093E+01 0.  1.
</event>
<event>
 5   0  0.9978422E-05  0.1401087E+04  0.7818609E-02  0.8953032E-01
        1   -1    0    0  501    0  0.00000000000E+00  0.00000000000E+00  0.20399714730E+04  0.20399714731E+04  0.50400001928E-02 0. -1.
       -1   -1    0    0    0  501  0.00000000000E+00  0.00000000000E+00 -0.24057253354E+03  0.24057253359E+03  0.50400001928E-02 0.  1.
    10030    2    1    2    0    0  0.00000000000E+00  0.00000000000E+00  0.17993989395E+04  0.22805440066E+04  0.14010868719E+04 0.  0.
        2    1    3    3  502    0  0.12866715634E+03  0.24008222041E+03  0.19502465249E+04  0.19691765329E+04  0.25500000920E-02 0. -1.
       -2    1    3    3    0  502 -0.12866715634E+03 -0.24008222041E+03 -0.15084758542E+03  0.31136747375E+03  0.25500000920E-02 0.  1.
</event>
<event>
 5   0  0.6671375E-05  0.1400834E+04  0.7818609E-02  0.8953215E-01
       -1   -1    0    0    0  501  0.00000000000E+00  0.00000000000E+00  0.21900959819E+03  0.21900959825E+03  0.50400001928E-02 0.  1.
        1   -1    0    0  501    0  0.00000000000E+00  0.00000000000E+00 -0.22400123978E+04  0.22400123978E+04  0.50400001928E-02 0. -1.
    10030    2    1    2    0    0  0.00000000000E+00  0.00000000000E+00 -0.20210027996E+04  0.24590219960E+04  0.14008343446E+04 0.  0.
        5    1    3    3  502    0  0.68167111720E+03  0.13932373870E+03 -0.86924355013E+03  0.11134150419E+04  0.46999998093E+01 0.  1.
       -5    1    3    3    0  502 -0.68167111720E+03 -0.13932373870E+03 -0.11517592495E+04  0.13456069541E+04  0.46999998093E+01 0. -1.
</event>
<event>
 5   0  0.9900839E-05  0.1425916E+04  0.7818609E-02  0.8935270E-01
        1   -1    0    0  501    0  0.00000000000E+00  0.00000000000E+00  0.89554138079E+03  0.89554138081E+03  0.50400001928E-02 0.  1.
       -1   -1    0    0    0  501  0.00000000000E+00  0.00000000000E+00 -0.56759961694E+03  0.56759961696E+03  0.50400001928E-02 0. -1.
    10030    2    1    2    0    0  0.00000000000E+00  0.00000000000E+00  0.32794176385E+03  0.14631409978E+04  0.14259157685E+04 0.  0.
        3    1    3    3  502    0  0.97743687656E+02 -0.17600245391E+03  0.86576918974E+03  0.88886837741E+03  0.10100000352E+00 0.  1.
       -3    1    3    3    0  502 -0.97743687656E+02  0.17600245391E+03 -0.53782742588E+03  0.57427262036E+03  0.10100000352E+00 0. -1.
</event>
<event>
 5   0  0.1794185E-04  0.1397585E+04  0.7818609E-02  0.8955568E-01
       -2   -1    0    0    0  501  0.00000000000E+00  0.00000000000E+00  0.68048290737E+03  0.68048290737E+03  0.25500000920E-02 0.  1.
        2   -1    0    0  501    0  0.00000000000E+00  0.00000000000E+00 -0.71759489260E+03  0.71759489261E+03  0.25500000920E-02 0. -1.
    10030    2    1    2    0    0  0.00000000000E+00  0.00000000000E+00 -0.37111985232E+02  0.13980778000E+04  0.13975851442E+04 0.  0.
        2    1    3    3  502    0  0.67089144149E+03  0.10511367849E+03  0.14632579363E+03  0.69466211179E+03  0.25500000920E-02 0. -1.
       -2    1    3    3    0  502 -0.67089144149E+03 -0.10511367849E+03 -0.18343777887E+03  0.70341568819E+03  0.25500000920E-02 0.  1.
</event>
<event>
 5   0  0.1833681E-04  0.1400016E+04  0.7818609E-02  0.8953807E-01
       -2   -1    0    0    0  501  0.00000000000E+00  0.00000000000E+00  0.29346200654E+03  0.29346200655E+03  0.25500000920E-02 0. -1.
        2   -1    0    0  501    0  0.00000000000E+00  0.00000000000E+00 -0.16697606660E+04  0.16697606660E+04  0.25500000920E-02 0.  1.
    10030    2    1    2    0    0  0.00000000000E+00  0.00000000000E+00 -0.13762986595E+04  0.19632226726E+04  0.14000161649E+04 0.  0.
        4    1    3    3  502    0  0.36107857613E+03  0.33725145622E+03  0.72110858541E+01  0.49413550320E+03  0.12699999809E+01 0. -1.
       -4    1    3    3    0  502 -0.36107857613E+03 -0.33725145622E+03 -0.13835097453E+04  0.14690871694E+04  0.12699999809E+01 0.  1.
</event>
<event>
 5   0  0.9260916E-05  0.1406242E+04  0.7818609E-02  0.8949313E-01
        1   -1    0    0  501    0  0.00000000000E+00  0.00000000000E+00  0.82569130153E+03  0.82569130155E+03  0.50400001928E-02 0.  1.
       -1   -1    0    0    0  501  0.00000000000E+00  0.00000000000E+00 -0.59874542183E+03  0.59874542185E+03  0.50400001928E-02 0. -1.
    10030    2    1    2    0    0  0.00000000000E+00  0.00000000000E+00  0.22694587970E+03  0.14244367234E+04  0.14062416388E+04 0.  0.
        1    1    3    3  502    0 -0.72529984918E+02 -0.29839774694E+03 -0.52722752681E+03  0.61013988490E+03  0.50400001928E-02 0. -1.
       -1    1    3    3    0  502  0.72529984918E+02  0.29839774694E+03  0.75417340651E+03  0.81429683851E+03  0.50400001928E-02 0.  1.
</event>
<event>
 5   0  0.9260916E-05  0.1400810E+04  0.7818609E-02  0.8953232E-01
        1   -1    0    0  501    0  0.00000000000E+00  0.00000000000E+00  0.90345941941E+03  0.90345941942E+03  0.50400001928E-02 0.  1.
       -1   -1    0    0    0  501  0.00000000000E+00  0.00000000000E+00 -0.54298782670E+03  0.54298782672E+03  0.50400001928E-02 0. -1.
    10030    2    1    2    0    0  0.00000000000E+00  0.00000000000E+00  0.36047159271E+03  0.14464472461E+04  0.14008104321E+04 0.  0.
        1    1    3    3  502    0 -0.24366922436E+02  0.28209980793E+02  0.90243441464E+03  0.90320397623E+03  0.50400001928E-02 0.  1.
       -1    1    3    3    0  502  0.24366922436E+02 -0.28209980793E+02 -0.54196282193E+03  0.54324326992E+03  0.50400001928E-02 0. -1.
</event>
<event>
 5   0  0.1766237E-04  0.1401809E+04  0.7818609E-02  0.8952510E-01
       -2   -1    0    0    0  501  0.00000000000E+00  0.00000000000E+00  0.34017669965E+03  0.34017669966E+03  0.25500000920E-02 0.  1.
        2   -1    0    0  501    0  0.00000000000E+00  0.00000000000E+00 -0.14441521569E+04  0.14441521569E+04  0.25500000920E-02 0. -1.
    10030    2    1    2    0    0  0.00000000000E+00  0.00000000000E+00 -0.11039754572E+04  0.17843288566E+04  0.14018087096E+04 0.  0.
        3    1    3    3  502    0  0.58698496763E+03 -0.28971729801E+03 -0.87091735314E+03  0.10894881877E+04  0.10100000352E+00 0. -1.
       -3    1    3    3    0  502 -0.58698496763E+03  0.28971729801E+03 -0.23305810411E+03  0.69484066885E+03  0.10100000352E+00 0.  1.
</event>
<event>
 5   0  0.9828111E-05  0.1400063E+04  0.7818609E-02  0.8953773E-01
       -1   -1    0    0    0  501  0.00000000000E+00  0.00000000000E+00  0.95247479780E+03  0.95247479781E+03  0.50400001928E-02 0.  1.
        1   -1    0    0  501    0  0.00000000000E+00  0.00000000000E+00 -0.51449528138E+03  0.51449528140E+03  0.50400001928E-02 0. -1.
    10030    2    1    2    0    0  0.00000000000E+00  0.00000000000E+00  0.43797951642E+03  0.14669700792E+04  0.14000625545E+04 0.  0.
        4    1    3    3  502    0 -0.36461337559E+03 -0.95823770812E+02  0.83702278346E+03  0.91800537125E+03  0.12699999809E+01 0.  1.
       -4    1    3    3    0  502  0.36461337559E+03  0.95823770812E+02 -0.39904326704E+03  0.54896470796E+03  0.12699999809E+01 0. -1.
</event>
<event>
 5   0  0.9260916E-05  0.1400219E+04  0.7818609E-02  0.8953660E-01
       -1   -1    0    0    0  501  0.00000000000E+00  0.00000000000E+00  0.45408560281E+03  0.45408560284E+03  0.50400001928E-02 0. -1.
        1   -1    0    0  501    0  0.00000000000E+00  0.00000000000E+00 -0.10794287512E+04  0.10794287512E+04  0.50400001928E-02 0.  1.
    10030    2    1    2    0    0  0.00000000000E+00  0.00000000000E+00 -0.62534314835E+03  0.15335143540E+04  0.14002186332E+04 0.  0.
        1    1    3    3  502    0 -0.10723840948E+03  0.12833380269E+03 -0.10572306653E+04  0.10703767193E+04  0.50400001928E-02 0.  1.
       -1    1    3    3    0  502  0.10723840948E+03 -0.12833380269E+03  0.43188751698E+03  0.46313763476E+03  0.50400001928E-02 0. -1.
</event>
<event>
 5   0  0.6671375E-05  0.1401928E+04  0.7818609E-02  0.8952424E-01
        1   -1    0    0  501    0  0.00000000000E+00  0.00000000000E+00  0.83749275672E+03  0.83749275673E+03  0.50400001928E-02 0. -1.
       -1   -1    0    0    0  501  0.00000000000E+00  0.00000000000E+00 -0.58669228656E+03  0.58669228658E+03  0.50400001928E-02 0.  1.
    10030    2    1    2    0    0  0.00000000000E+00  0.00000000000E+00  0.25080047016E+03  0.14241850433E+04  0.14019280159E+04 0.  0.
        5    1    3    3  502    0 -0.35679618612E+03 -0.52008524144E+02  0.73604232242E+03  0.81962722954E+03  0.46999998093E+01 0. -1.
       -5    1    3    3    0  502  0.35679618612E+03  0.52008524144E+02 -0.48524185226E+03  0.60455781378E+03  0.46999998093E+01 0.  1.
</event>
<event>
 5   0  0.9260916E-05  0.1395278E+04  0.7818609E-02  0.8957244E-01
       -1   -1    0    0    0  501  0.00000000000E+00  0.00000000000E+00  0.93958385151E+03  0.93958385152E+03  0.50400001928E-02 0.  1.
        1   -1    0    0  501    0  0.00000000000E+00  0.00000000000E+00 -0.51799537153E+03  0.51799537156E+03  0.50400001928E-02 0. -1.
    10030    2    1    2    0    0  0.00000000000E+00  0.00000000000E+00  0.42158847998E+03  0.14575792231E+04  0.13952778738E+04 0.  0.
        1    1    3    3  502    0  0.12123064135E+03 -0.66745691066E+03  0.40722877907E+02  0.67959837315E+03  0.50400001928E-02 0. -1.
       -1    1    3    3    0  502 -0.12123064135E+03  0.66745691066E+03  0.38086560207E+03  0.77798084992E+03  0.50400001928E-02 0.  1.
</event>
<event>
 5   0  0.9900839E-05  0.1398269E+04  0.7818609E-02  0.8955073E-01
        1   -1    0    0  501    0  0.00000000000E+00  0.00000000000E+00  0.15839491495E+04  0.15839491495E+04  0.50400001928E-02 0. -1.
       -1   -1    0    0    0  501  0.00000000000E+00  0.00000000000E+00 -0.30858881137E+03  0.30858881141E+03  0.50400001928E-02 0.  1.
    10030    2    1    2    0    0  0.00000000000E+00  0.00000000000E+00  0.12753603381E+04  0.18925379609E+04  0.13982689088E+04 0.  0.
        3    1    3    3  502    0  0.54734178024E+03 -0.32155783066E+03  0.24120679806E+03  0.67908997378E+03  0.10100000352E+00 0.  1.
       -3    1    3    3    0  502 -0.54734178024E+03  0.32155783066E+03  0.10341535401E+04  0.12134479872E+04  0.10100000352E+00 0. -1.
</event>
<event>
 5   0  0.1780171E-04  0.1371788E+04  0.7818609E-02  0.8974497E-01
       -2   -1    0    0    0  501  0.00000000000E+00  0.00000000000E+00  0.30938751790E+03  0.30938751791E+03  0.25500000920E-02 0. -1.
        2   -1    0    0  501    0  0.00000000000E+00  0.00000000000E+00 -0.15205858587E+04  0.15205858587E+04  0.25500000920E-02 0.  1.
    10030    2    1    2    0    0  0.00000000000E+00  0.00000000000E+00 -0.12111983408E+04  0.18299733766E+04  0.13717875704E+04 0.  0.
        5    1    3    3  502    0  0.46051494341E+02  0.21519068880E+03 -0.14721905220E+04  0.14885545995E+04  0.46999998093E+01 0.  1.
       -5    1    3    3    0  502 -0.46051494341E+02 -0.21519068880E+03  0.26099218123E+03  0.34141877707E+03  0.46999998093E+01 0. -1.
</event>
<event>
 5   0  0.9828111E-05  0.1396437E+04  0.7818609E-02  0.8956402E-01
       -1   -1    0    0    0  501  0.00000000000E+00  0.00000000000E+00  0.50159042217E+03  0.50159042219E+03  0.50400001928E-02 0.  1.
        1   -1    0    0  501    0  0.00000000000E+00  0.00000000000E+00 -0.97192593340E+03  0.97192593341E+03  0.50400001928E-02 0. -1.
    10030    2    1    2    0    0  0.00000000000E+00  0.00000000000E+00 -0.47033551123E+03  0.14735163556E+04  0.13964365210E+04 0.  0.
        4    1    3    3  502    0 -0.57101855967E+03 -0.19142306708E+03  0.13760552781E+03  0.61777170564E+03  0.12699999809E+01 0.  1.
       -4    1    3    3    0  502  0.57101855967E+03  0.19142306708E+03 -0.60794103903E+03  0.85574464997E+03  0.12699999809E+01 0. -1.
</event>
<event>
 5   0  0.9260916E-05  0.1397182E+04  0.7818609E-02  0.8955861E-01
        1   -1    0    0  501    0  0.00000000000E+00  0.00000000000E+00  0.10151910847E+04  0.10151910847E+04  0.50400001928E-02 0.  1.
       -1   -1    0    0    0  501  0.00000000000E+00  0.00000000000E+00 -0.48072646323E+03  0.48072646326E+03  0.50400001928E-02 0. -1.
    10030    2    1    2    0    0  0.00000000000E+00  0.00000000000E+00  0.53446462150E+03  0.14959175480E+04  0.13971817630E+04 0.  0.
        1    1    3    3  502    0 -0.45474368054E+03 -0.93237056185E+02  0.82618270298E+03  0.94766176580E+03  0.50400001928E-02 0.  1.
       -1    1    3    3    0  502  0.45474368054E+03  0.93237056185E+02 -0.29171808147E+03  0.54825578221E+03  0.50400001928E-02 0. -1.
</event>
<event>
 5   0  0.9260916E-05  0.1397239E+04  0.7818609E-02  0.8955819E-01
       -1   -1    0    0    0  501  0.00000000000E+00  0.00000000000E+00  0.54326235646E+03  0.54326235648E+03  0.50400001928E-02 0.  1.
        1   -1    0    0  501    0  0.00000000000E+00  0.00000000000E+00 -0.89840458103E+03  0.89840458104E+03  0.50400001928E-02 0. -1.
    10030    2    1    2    0    0  0.00000000000E+00  0.00000000000E+00 -0.35514222457E+03  0.14416669375E+04  0.13972392634E+04 0.  0.
        1    1    3    3  502    0 -0.25662814276E+03 -0.58110428159E+03 -0.47755472908E+03  0.79473184725E+03  0.50400001928E-02 0. -1.
       -1    1    3    3    0  502  0.25662814276E+03  0.58110428159E+03  0.12241250450E+03  0.64693509027E+03  0.50400001928E-02 0.  1.
</event>
<event>
 5   0  0.1780171E-04  0.1399111E+04  0.7818609E-02  0.8954463E-01
       -2   -1    0    0    0  501  0.00000000000E+00  0.00000000000E+00  0.88997154896E+03  0.88997154897E+03  0.25500000920E-02 0.  1.
        2   -1    0    0  501    0  0.00000000000E+00  0.00000000000E+00 -0.54988001268E+03  0.54988001269E+03  0.25500000920E-02 0. -1.
    10030    2    1    2    0    0  0.00000000000E+00  0.00000000000E+00  0.34009153628E+03  0.14398515617E+04  0.13991105269E+04 0.  0.
        5    1    3    3  502    0 -0.36664567533E+03 -0.94721855978E+01 -0.44298174333E+03  0.57512927978E+03  0.46999998093E+01 0. -1.
       -5    1    3    3    0  502  0.36664567533E+03  0.94721855978E+01  0.78307327961E+03  0.86472228188E+03  0.46999998093E+01 0.  1.
</event>
<event>
 5   0  0.6671375E-05  0.1399395E+04  0.7818609E-02  0.8954257E-01
        3   -1    0    0  501    0  0.00000000000E+00  0.00000000000E+00  0.26623752787E+03  0.26623754703E+03  0.10100000352E+00 0.  1.
       -3   -1    0    0    0  501  0.00000000000E+00  0.00000000000E+00 -0.18388704541E+04  0.18388704568E+04  0.10100000352E+00 0. -1.
    10030    2    1    2    0    0  0.00000000000E+00  0.00000000000E+00 -0.15726329262E+04  0.21051080039E+04  0.13993946503E+04 0.  0.
        5    1    3    3  502    0 -0.52868382423E+03 -0.14256912572E+03 -0.14415448348E+04  0.15420460896E+04  0.46999998093E+01 0. -1.
       -5    1    3    3    0  502  0.52868382423E+03  0.14256912572E+03 -0.13108809136E+03  0.56306191427E+03  0.46999998093E+01 0.  1.
</event>
<event>
 5   0  0.1833681E-04  0.1398689E+04  0.7818609E-02  0.8954768E-01
       -2   -1    0    0    0  501  0.00000000000E+00  0.00000000000E+00  0.13021175585E+04  0.13021175586E+04  0.25500000920E-02 0.  1.
        2   -1    0    0  501    0  0.00000000000E+00  0.00000000000E+00 -0.37560588668E+03  0.37560588669E+03  0.25500000920E-02 0. -1.
    10030    2    1    2    0    0  0.00000000000E+00  0.00000000000E+00  0.92651167187E+03  0.16777234452E+04  0.13986894154E+04 0.  0.
        4    1    3    3  502    0 -0.59551758272E+02 -0.67175302363E+03  0.68535027006E+03  0.96151190437E+03  0.12699999809E+01 0.  1.
       -4    1    3    3    0  502  0.59551758272E+02  0.67175302363E+03  0.24116140181E+03  0.71621154088E+03  0.12699999809E+01 0. -1.
</event>
<event>
 5   0  0.6671375E-05  0.1398695E+04  0.7818609E-02  0.8954764E-01
       -1   -1    0    0    0  501  0.00000000000E+00  0.00000000000E+00  0.33121018064E+03  0.33121018068E+03  0.50400001928E-02 0. -1.
        1   -1    0    0  501    0  0.00000000000E+00  0.00000000000E+00 -0.14766667205E+04  0.14766667205E+04  0.50400001928E-02 0.  1.
    10030    2    1    2    0    0  0.00000000000E+00  0.00000000000E+00 -0.11454565398E+04  0.18078769012E+04  0.13986951795E+04 0.  0.
        5    1    3    3  502    0  0.24083011679E+03  0.44625475601E+03 -0.11951965537E+04  0.12983294437E+04  0.46999998093E+01 0.  1.
       -5    1    3    3    0  502 -0.24083011679E+03 -0.44625475601E+03  0.49740013877E+02  0.50954745745E+03  0.46999998093E+01 0. -1.
</event>
<event>
 5   0  0.1833681E-04  0.1392854E+04  0.7818609E-02  0.8959007E-01
       -2   -1    0    0    0  501  0.00000000000E+00  0.00000000000E+00  0.55034772093E+03  0.55034772094E+03  0.25500000920E-02 0. -1.
        2   -1    0    0  501    0  0.00000000000E+00  0.00000000000E+00 -0.88128025935E+03  0.88128025935E+03  0.25500000920E-02 0.  1.
    10030    2    1    2    0    0  0.00000000000E+00  0.00000000000E+00 -0.33093253842E+03  0.14316279803E+04  0.13928540229E+04 0.  0.
        4    1    3    3  502    0 -0.13027301439E+03 -0.11639880910E+03  0.52745895698E+03  0.55563864628E+03  0.12699999809E+01 0. -1.
       -4    1    3    3    0  502  0.13027301439E+03  0.11639880910E+03 -0.85839149540E+03  0.87598933402E+03  0.12699999809E+01 0.  1.
</event>
<event>
 5   0  0.9900839E-05  0.1398945E+04  0.7818609E-02  0.8954582E-01
        1   -1    0    0  501    0  0.00000000000E+00  0.00000000000E+00  0.13786670118E+04  0.13786670118E+04  0.50400001928E-02 0.  1.
       -1   -1    0    0    0  501  0.00000000000E+00  0.00000000000E+00 -0.35488044727E+03  0.35488044731E+03  0.50400001928E-02 0. -1.
    10030    2    1    2    0    0  0.00000000000E+00  0.00000000000E+00  0.10237865645E+04  0.17335474591E+04  0.13989452681E+04 0.  0.
        3    1    3    3  502    0  0.45125218162E+03 -0.46773323123E+03  0.83230995642E+03  0.10560032106E+04  0.10100000352E+00 0.  1.
       -3    1    3    3    0  502 -0.45125218162E+03  0.46773323123E+03  0.19147660807E+03  0.67754424848E+03  0.10100000352E+00 0. -1.
</event>
<event>
 5   0  0.1794185E-04  0.1401605E+04  0.7818609E-02  0.8952658E-01
       -2   -1    0    0    0  501  0.00000000000E+00  0.00000000000E+00  0.45095217605E+03  0.45095217606E+03  0.25500000920E-02 0.  1.
        2   -1    0    0  501    0  0.00000000000E+00  0.00000000000E+00 -0.10890825406E+04  0.10890825406E+04  0.25500000920E-02 0. -1.
    10030    2    1    2    0    0  0.00000000000E+00  0.00000000000E+00 -0.63813036459E+03  0.15400347167E+04  0.14016049966E+04 0.  0.
        2    1    3    3  502    0  0.35856840137E+03 -0.27024596800E+03  0.27214802742E+03  0.52504164646E+03  0.25500000920E-02 0.  1.
       -2    1    3    3    0  502 -0.35856840137E+03  0.27024596800E+03 -0.91027839200E+03  0.10149930702E+04  0.25500000920E-02 0. -1.
</event>
<event>
 5   0  0.1712327E-04  0.1399303E+04  0.7818609E-02  0.8954323E-01
        2   -1    0    0  501    0  0.00000000000E+00  0.00000000000E+00  0.47823425210E+03  0.47823425211E+03  0.25500000920E-02 0.  1.
       -2   -1    0    0    0  501  0.00000000000E+00  0.00000000000E+00 -0.10235827593E+04  0.10235827593E+04  0.25500000920E-02 0. -1.
    10030    2    1    2    0    0  0.00000000000E+00  0.00000000000E+00 -0.54534850721E+03  0.15018170114E+04  0.13993031628E+04 0.  0.
        1    1    3    3  502    0  0.57679426508E+03 -0.13795059960E+03 -0.67106990977E+03  0.89557624800E+03  0.50400001928E-02 0. -1.
       -1    1    3    3    0  502 -0.57679426508E+03  0.13795059960E+03  0.12572140256E+03  0.60624076343E+03  0.50400001928E-02 0.  1.
</event>
<event>
 5   0  0.6671375E-05  0.1397211E+04  0.7818609E-02  0.8955840E-01
        3   -1    0    0  501    0  0.00000000000E+00  0.00000000000E+00  0.41599214248E+03  0.41599215474E+03  0.10100000352E+00 0.  1.
       -3   -1    0    0    0  501  0.00000000000E+00  0.00000000000E+00 -0.11732188651E+04  0.11732188694E+04  0.10100000352E+00 0. -1.
    10030    2    1    2    0    0  0.00000000000E+00  0.00000000000E+00 -0.75722672260E+03  0.15892110242E+04  0.13972112832E+04 0.  0.
        1    1    3    3  502    0  0.22300216180E+02 -0.54204652397E+03 -0.87925505236E+03  0.10331510930E+04  0.50400001928E-02 0. -1.
       -1    1    3    3    0  502 -0.22300216180E+02  0.54204652397E+03  0.12202832975E+03  0.55605993120E+03  0.50400001928E-02 0.  1.
</event>
<event>
 5   0  0.9828111E-05  0.1398872E+04  0.7818609E-02  0.8954635E-01
       -1   -1    0    0    0  501  0.00000000000E+00  0.00000000000E+00  0.77797037418E+03  0.77797037419E+03  0.50400001928E-02 0.  1.
        1   -1    0    0  501    0  0.00000000000E+00  0.00000000000E+00 -0.62882983439E+03  0.62882983441E+03  0.50400001928E-02 0. -1.
    10030    2    1    2    0    0  0.00000000000E+00  0.00000000000E+00  0.14914053979E+03  0.14068002086E+04  0.13988723767E+04 0.  0.
        4    1    3    3  502    0 -0.58655757270E+03  0.35735193548E+03  0.20745228677E+03  0.71748746056E+03  0.12699999809E+01 0.  1.
       -4    1    3    3    0  502  0.58655757270E+03 -0.35735193548E+03 -0.58311746987E+02  0.68931274804E+03  0.12699999809E+01 0. -1.
</event>
<event>
 5   0  0.1712327E-04  0.1400139E+04  0.7818609E-02  0.8953718E-01
       -2   -1    0    0    0  501  0.00000000000E+00  0.00000000000E+00  0.35566871366E+03  0.35566871367E+03  0.25500000920E-02 0.  1.
        2   -1    0    0  501    0  0.00000000000E+00  0.00000000000E+00 -0.13779602119E+04  0.13779602119E+04  0.25500000920E-02 0. -1.
    10030    2    1    2    0    0  0.00000000000E+00  0.00000000000E+00 -0.10222914983E+04  0.17336289256E+04  0.14001390446E+04 0.  0.
        1    1    3    3  502    0  0.50360701509E+02  0.18923735758E+03  0.32106674339E+03  0.37607290715E+03  0.50400001928E-02 0.  1.
       -1    1    3    3    0  502 -0.50360701509E+02 -0.18923735758E+03 -0.13433582417E+04  0.13575560184E+04  0.50400001928E-02 0. -1.
</event>
<event>
 5   0  0.9978422E-05  0.1397556E+04  0.7818609E-02  0.8955590E-01
        1   -1    0    0  501    0  0.00000000000E+00  0.00000000000E+00  0.10131004340E+04  0.10131004340E+04  0.50400001928E-02 0.  1.
       -1   -1    0    0    0  501  0.00000000000E+00  0.00000000000E+00 -0.48197654219E+03  0.48197654222E+03  0.50400001928E-02 0. -1.
    10030    2    1    2    0    0  0.00000000000E+00  0.00000000000E+00  0.53112389179E+03  0.14950769762E+04  0.13975559296E+04 0.  0.
        2    1    3    3  502    0 -0.52933673830E+03 -0.44771481812E+03  0.17202683381E+03  0.71431027743E+03  0.25500000920E-02 0. -1.
       -2    1    3    3    0  502  0.52933673830E+03  0.44771481812E+03  0.35909705798E+03  0.78076669879E+03  0.25500000920E-02 0.  1.
</event>
<event>
 5   0  0.1833681E-04  0.1401018E+04  0.7818609E-02  0.8953082E-01
        2   -1    0    0  501    0  0.00000000000E+00  0.00000000000E+00  0.19880004225E+04  0.19880004225E+04  0.25500000920E-02 0.  1.
       -2   -1    0    0    0  501  0.00000000000E+00  0.00000000000E+00 -0.24683748191E+03  0.24683748192E+03  0.25500000920E-02 0. -1.
    10030    2    1    2    0    0  0.00000000000E+00  0.00000000000E+00  0.17411629405E+04  0.22348379044E+04  0.14010182273E+04 0.  0.
        4    1    3    3  502    0  0.14149899993E+03 -0.35664589344E+03 -0.64310178764E+02  0.38904456336E+03  0.12699999809E+01 0. -1.
       -4    1    3    3    0  502 -0.14149899993E+03  0.35664589344E+03  0.18054731193E+04  0.18457933410E+04  0.12699999809E+01 0.  1.
</event>
<event>
 5   0  0.1766237E-04  0.1402099E+04  0.7818609E-02  0.8952300E-01
        2   -1    0    0  501    0  0.00000000000E+00  0.00000000000E+00  0.39470294358E+03  0.39470294359E+03  0.25500000920E-02 0.  1.
       -2   -1    0    0    0  501  0.00000000000E+00  0.00000000000E+00 -0.12451659813E+04  0.12451659813E+04  0.25500000920E-02 0. -1.
    10030    2    1    2    0    0  0.00000000000E+00  0.00000000000E+00 -0.85046303774E+03  0.16398689249E+04  0.14020993946E+04 0.  0.
        3    1    3    3  502    0 -0.90333370905E+02  0.55514806713E+03 -0.91467174902E+03  0.10737662283E+04  0.10100000352E+00 0. -1.
       -3    1    3    3    0  502  0.90333370905E+02 -0.55514806713E+03  0.64208711274E+02  0.56610269664E+03  0.10100000352E+00 0.  1.
</event>
<event>
 5   0  0.9978422E-05  0.1397096E+04  0.7818609E-02  0.8955923E-01
        1   -1    0    0  501    0  0.00000000000E+00  0.00000000000E+00  0.52050998858E+03  0.52050998860E+03  0.50400001928E-02 0.  1.
       -1   -1    0    0    0  501  0.00000000000E+00  0.00000000000E+00 -0.93748331431E+03  0.93748331432E+03  0.50400001928E-02 0. -1.
    10030    2    1    2    0    0  0.00000000000E+00  0.00000000000E+00 -0.41697332573E+03  0.14579933029E+04  0.13970961731E+04 0.  0.
        2    1    3    3  502    0 -0.47342484851E+03 -0.50041178883E+03 -0.32940961813E+03  0.76357955847E+03  0.25500000920E-02 0. -1.
       -2    1    3    3    0  502  0.47342484851E+03  0.50041178883E+03 -0.87563707597E+02  0.69441374445E+03  0.25500000920E-02 0.  1.
</event>
<event>
 5   0  0.9828111E-05  0.1399348E+04  0.7818609E-02  0.8954290E-01
       -1   -1    0    0    0  501  0.00000000000E+00  0.00000000000E+00  0.43104296764E+03  0.43104296767E+03  0.50400001928E-02 0. -1.
        1   -1    0    0  501    0  0.00000000000E+00  0.00000000000E+00 -0.11357195657E+04  0.11357195657E+04  0.50400001928E-02 0.  1.
    10030    2    1    2    0    0  0.00000000000E+00  0.00000000000E+00 -0.70467659809E+03  0.15667625334E+04  0.13993483227E+04 0.  0.
        4    1    3    3  502    0  0.17283694545E+03  0.67530751734E+03 -0.28488569205E+03  0.75304337400E+03  0.12699999809E+01 0. -1.
       -4    1    3    3    0  502 -0.17283694545E+03 -0.67530751734E+03 -0.41979090605E+03  0.81371915941E+03  0.12699999809E+01 0.  1.
</event>
<event>
 5   0  0.9900839E-05  0.1400438E+04  0.7818609E-02  0.8953502E-01
       -1   -1    0    0    0  501  0.00000000000E+00  0.00000000000E+00  0.42364943535E+03  0.42364943538E+03  0.50400001928E-02 0. -1.
        1   -1    0    0  501    0  0.00000000000E+00  0.00000000000E+00 -0.11573397440E+04  0.11573397440E+04  0.50400001928E-02 0.  1.
    10030    2    1    2    0    0  0.00000000000E+00  0.00000000000E+00 -0.73369030862E+03  0.15809891794E+04  0.14004375446E+04 0.  0.
        3    1    3    3  502    0 -0.27442083588E+03 -0.60106334908E+03 -0.10518189268E+03  0.66906441059E+03  0.10100000352E+00 0. -1.
       -3    1    3    3    0  502  0.27442083588E+03  0.60106334908E+03 -0.62850841594E+03  0.91192476876E+03  0.10100000352E+00 0.  1.
</event>
<event>
 5   0  0.9900839E-05  0.1398454E+04  0.7818609E-02  0.8954938E-01
       -1   -1    0    0    0  501  0.00000000000E+00  0.00000000000E+00  0.89605772788E+03  0.89605772789E+03  0.50400001928E-02 0.  1.
        1   -1    0    0  501    0  0.00000000000E+00  0.00000000000E+00 -0.54563302712E+03  0.54563302715E+03  0.50400001928E-02 0. -1.
    10030    2    1    2    0    0  0.00000000000E+00  0.00000000000E+00  0.35042470075E+03  0.14416907550E+04  0.13984544191E+04 0.  0.
        3    1    3    3  502    0  0.55951111631E+03 -0.41866919685E+03  0.20008491792E+03  0.72689103052E+03  0.10100000352E+00 0.  1.
       -3    1    3    3    0  502 -0.55951111631E+03  0.41866919685E+03  0.15033978283E+03  0.71479972452E+03  0.10100000352E+00 0. -1.
</event>
<event>
 5   0  0.1766237E-04  0.1401483E+04  0.7818609E-02  0.8952746E-01
       -2   -1    0    0    0  501  0.00000000000E+00  0.00000000000E+00  0.35139330294E+03  0.35139330295E+03  0.25500000920E-02 0.  1.
        2   -1    0    0  501    0  0.00000000000E+00  0.00000000000E+00 -0.13974040480E+04  0.13974040480E+04  0.25500000920E-02 0. -1.
    10030    2    1    2    0    0  0.00000000000E+00  0.00000000000E+00 -0.10460107451E+04  0.17487973510E+04  0.14014826777E+04 0.  0.
        3    1    3    3  502    0  0.50452697941E+03  0.18222136482E+03  0.39602525012E+02  0.53788518193E+03  0.10100000352E+00 0.  1.
       -3    1    3    3    0  502 -0.50452697941E+03 -0.18222136482E+03 -0.10856132701E+04  0.12109121691E+04  0.10100000352E+00 0. -1.
</event>
<event>
 5   0  0.1780171E-04  0.1398189E+04  0.7818609E-02  0.8955130E-01
        2   -1    0    0  501    0  0.00000000000E+00  0.00000000000E+00  0.13568612360E+04  0.13568612360E+04  0.25500000920E-02 0.  1.
       -2   -1    0    0    0  501  0.00000000000E+00  0.00000000000E+00 -0.36019399635E+03  0.36019399636E+03  0.25500000920E-02 0. -1.
    10030    2    1    2    0    0  0.00000000000E+00  0.00000000000E+00  0.99666723965E+03  0.17170552324E+04  0.13981892162E+04 0.  0.
        5    1    3    3  502    0 -0.36154466255E+03 -0.44698490403E+03  0.98678699254E+03  0.11420510961E+04  0.46999998093E+01 0.  1.
       -5    1    3    3    0  502  0.36154466255E+03  0.44698490403E+03  0.98802471137E+01  0.57500413627E+03  0.46999998093E+01 0. -1.
</event>
<event>
 5   0  0.1794185E-04  0.1401191E+04  0.7818609E-02  0.8952957E-01
       -2   -1    0    0    0  501  0.00000000000E+00  0.00000000000E+00  0.26416181074E+03  0.26416181075E+03  0.25500000920E-02 0.  1.
        2   -1    0    0  501    0  0.00000000000E+00  0.00000000000E+00 -0.18580806992E+04  0.18580806992E+04  0.25500000920E-02 0. -1.
    10030    2    1    2    0    0  0.00000000000E+00  0.00000000000E+00 -0.15939188885E+04  0.21222425100E+04  0.14011908678E+04 0.  0.
        2    1    3    3  502    0 -0.26816033183E+03 -0.61636457260E+03 -0.49777832911E+03  0.83642005885E+03  0.25500000920E-02 0. -1.
       -2    1    3    3    0  502  0.26816033183E+03  0.61636457260E+03 -0.10961405594E+04  0.12858224511E+04  0.25500000920E-02 0.  1.
</event>
<event>
 5   0  0.9260916E-05  0.1401928E+04  0.7818609E-02  0.8952424E-01
       -1   -1    0    0    0  501  0.00000000000E+00  0.00000000000E+00  0.86182963614E+03  0.86182963616E+03  0.50400001928E-02 0. -1.
        1   -1    0    0  501    0  0.00000000000E+00  0.00000000000E+00 -0.57012510205E+03  0.57012510207E+03  0.50400001928E-02 0.  1.
    10030    2    1    2    0    0  0.00000000000E+00  0.00000000000E+00  0.29170453409E+03  0.14319547382E+04  0.14019282568E+04 0.  0.
        1    1    3    3  502    0 -0.69178393836E+03  0.10520131811E+03  0.18819339447E+03  0.72460271077E+03  0.50400001928E-02 0.  1.
       -1    1    3    3    0  502  0.69178393836E+03 -0.10520131811E+03  0.10351113963E+03  0.70735202746E+03  0.50400001928E-02 0. -1.
</event>
<event>
 5   0  0.1794185E-04  0.1396556E+04  0.7818609E-02  0.8956316E-01
        2   -1    0    0  501    0  0.00000000000E+00  0.00000000000E+00  0.12808412106E+04  0.12808412106E+04  0.25500000920E-02 0. -1.
       -2   -1    0    0    0  501  0.00000000000E+00  0.00000000000E+00 -0.38068100440E+03  0.38068100441E+03  0.25500000920E-02 0.  1.
    10030    2    1    2    0    0  0.00000000000E+00  0.00000000000E+00  0.90016020623E+03  0.16615222150E+04  0.13965556466E+04 0.  0.
        2    1    3    3  502    0  0.17359997979E+03 -0.14716380911E+03  0.12354792286E+04  0.12562655229E+04  0.25500000920E-02 0. -1.
       -2    1    3    3    0  502 -0.17359997979E+03  0.14716380911E+03 -0.33531902242E+03  0.40525669210E+03  0.25500000920E-02 0.  1.
</event>
<event>
 5   0  0.9260916E-05  0.1391288E+04  0.7818609E-02  0.8960149E-01
       -1   -1    0    0    0  501  0.00000000000E+00  0.00000000000E+00  0.71112299406E+03  0.71112299407E+03  0.50400001928E-02 0.  1.
        1   -1    0    0  501    0  0.00000000000E+00  0.00000000000E+00 -0.68050200718E+03  0.68050200720E+03  0.50400001928E-02 0. -1.
    10030    2    1    2    0    0  0.00000000000E+00  0.00000000000E+00  0.30620986871E+02  0.13916250013E+04  0.13912880720E+04 0.  0.
        1    1    3    3  502    0 -0.13410965289E+03 -0.67915109261E+03 -0.53182503153E+02  0.69430539697E+03  0.50400001928E-02 0.  1.
       -1    1    3    3    0  502  0.13410965289E+03  0.67915109261E+03  0.83803490024E+02  0.69731960431E+03  0.50400001928E-02 0. -1.
</event>
<event>
 5   0  0.6671375E-05  0.1399525E+04  0.7818609E-02  0.8954163E-01
        1   -1    0    0  501    0  0.00000000000E+00  0.00000000000E+00  0.98969572274E+03  0.98969572275E+03  0.50400001928E-02 0. -1.
       -1   -1    0    0    0  501  0.00000000000E+00  0.00000000000E+00 -0.49476545030E+03  0.49476545032E+03  0.50400001928E-02 0.  1.
    10030    2    1    2    0    0  0.00000000000E+00  0.00000000000E+00  0.49493027244E+03  0.14844611731E+04  0.13995245621E+04 0.  0.
        5    1    3    3  502    0 -0.32528821459E+03  0.34293010445E+03  0.79475598331E+03  0.92470137996E+03  0.46999998093E+01 0. -1.
       -5    1    3    3    0  502  0.32528821459E+03 -0.34293010445E+03 -0.29982571087E+03  0.55975979312E+03  0.46999998093E+01 0.  1.
</event>
<event>
 5   0  0.1833681E-04  0.1393116E+04  0.7818609E-02  0.8958817E-01
        2   -1    0    0  501    0  0.00000000000E+00  0.00000000000E+00  0.12872417327E+04  0.12872417327E+04  0.25500000920E-02 0. -1.
       -2   -1    0    0    0  501  0.00000000000E+00  0.00000000000E+00 -0.37692446352E+03  0.37692446353E+03  0.25500000920E-02 0.  1.
    10030    2    1    2    0    0  0.00000000000E+00  0.00000000000E+00  0.91031726918E+03  0.16641661962E+04  0.13931157878E+04 0.  0.
        4    1    3    3  502    0  0.56817728044E+03  0.28990348149E+02  0.93525666841E+03  0.10947020193E+04  0.12699999809E+01 0.  1.
       -4    1    3    3    0  502 -0.56817728044E+03 -0.28990348149E+02 -0.24939399237E+02  0.56946417695E+03  0.12699999809E+01 0. -1.
</event>
<event>
 5   0  0.9900839E-05  0.1400723E+04  0.7818609E-02  0.8953295E-01
        1   -1    0    0  501    0  0.00000000000E+00  0.00000000000E+00  0.46620152227E+03  0.46620152230E+03  0.50400001928E-02 0.  1.
       -1   -1    0    0    0  501  0.00000000000E+00  0.00000000000E+00 -0.10521341050E+04  0.10521341050E+04  0.50400001928E-02 0. -1.
    10030    2    1    2    0    0  0.00000000000E+00  0.00000000000E+00 -0.58593258272E+03  0.15183356273E+04  0.14007234151E+04 0.  0.
        3    1    3    3  502    0 -0.29652476798E+03  0.56063544407E+03  0.29078098893E+02  0.63488942754E+03  0.10100000352E+00 0. -1.
       -3    1    3    3    0  502  0.29652476798E+03 -0.56063544407E+03 -0.61501068162E+03  0.88344619976E+03  0.10100000352E+00 0.  1.
</event>
<event>
 5   0  0.6671375E-05  0.1399580E+04  0.7818609E-02  0.8954123E-01
        1   -1    0    0  501    0  0.00000000000E+00  0.00000000000E+00  0.10214172760E+04  0.10214172760E+04  0.50400001928E-02 0. -1.
       -1   -1    0    0    0  501  0.00000000000E+00  0.00000000000E+00 -0.47943757131E+03  0.47943757134E+03  0.50400001928E-02 0.  1.
    10030    2    1    2    0    0  0.00000000000E+00  0.00000000000E+00  0.54197970469E+03  0.15008548474E+04  0.13995796771E+04 0.  0.
        5    1    3    3  502    0  0.52776599955E+03  0.71295929635E+02  0.75777999798E+03  0.92621416271E+03  0.46999998093E+01 0. -1.
       -5    1    3    3    0  502 -0.52776599955E+03 -0.71295929635E+02 -0.21580029330E+03  0.57464068464E+03  0.46999998093E+01 0.  1.
</event>
<event>
 5   0  0.9260916E-05  0.1399608E+04  0.7818609E-02  0.8954102E-01
       -1   -1    0    0    0  501  0.00000000000E+00  0.00000000000E+00  0.40016781992E+03  0.40016781995E+03  0.50400001928E-02 0. -1.
        1   -1    0    0  501    0  0.00000000000E+00  0.00000000000E+00 -0.12238011264E+04  0.12238011264E+04  0.50400001928E-02 0.  1.
    10030    2    1    2    0    0  0.00000000000E+00  0.00000000000E+00 -0.82363330647E+03  0.16239689463E+04  0.13996082720E+04 0.  0.
        1    1    3    3  502    0 -0.55104343980E+03 -0.29054085985E+03 -0.41858497661E+02  0.62435166184E+03  0.50400001928E-02 0. -1.
       -1    1    3    3    0  502  0.55104343980E+03  0.29054085985E+03 -0.78177480880E+03  0.99961728451E+03  0.50400001928E-02 0.  1.
</event>
<event>
 5   0  0.9978422E-05  0.1424919E+04  0.7818609E-02  0.8935976E-01
        1   -1    0    0  501    0  0.00000000000E+00  0.00000000000E+00  0.40973608948E+03  0.40973608951E+03  0.50400001928E-02 0.  1.
       -1   -1    0    0    0  501  0.00000000000E+00  0.00000000000E+00 -0.12388425674E+04  0.12388425674E+04  0.50400001928E-02 0. -1.
    10030    2    1    2    0    0  0.00000000000E+00  0.00000000000E+00 -0.82910647792E+03  0.16485786569E+04  0.14249189578E+04 0.  0.
        2    1    3    3  502    0 -0.27874316707E+03  0.65560233836E+03 -0.42530302802E+03  0.82969563389E+03  0.25500000920E-02 0. -1.
       -2    1    3    3    0  502  0.27874316707E+03 -0.65560233836E+03 -0.40380344991E+03  0.81888302303E+03  0.25500000920E-02 0.  1.
</event>
<event>
 5   0  0.9828111E-05  0.1397130E+04  0.7818609E-02  0.8955899E-01
        1   -1    0    0  501    0  0.00000000000E+00  0.00000000000E+00  0.83487947039E+03  0.83487947040E+03  0.50400001928E-02 0. -1.
       -1   -1    0    0    0  501  0.00000000000E+00  0.00000000000E+00 -0.58450696351E+03  0.58450696353E+03  0.50400001928E-02 0.  1.
    10030    2    1    2    0    0  0.00000000000E+00  0.00000000000E+00  0.25037250688E+03  0.14193864339E+04  0.13971297208E+04 0.  0.
        4    1    3    3  502    0  0.21214032627E+02 -0.32336166525E+03 -0.50352478722E+03  0.59879180521E+03  0.12699999809E+01 0.  1.
       -4    1    3    3    0  502 -0.21214032627E+02  0.32336166525E+03  0.75389729410E+03  0.82059462872E+03  0.12699999809E+01 0. -1.
</event>
<event>
 5   0  0.6671375E-05  0.1404171E+04  0.7818609E-02  0.8950805E-01
        3   -1    0    0  501    0  0.00000000000E+00  0.00000000000E+00  0.41792157021E+03  0.41792158241E+03  0.10100000352E+00 0. -1.
       -3   -1    0    0    0  501  0.00000000000E+00  0.00000000000E+00 -0.11794657039E+04  0.11794657083E+04  0.10100000352E+00 0.  1.
    10030    2    1    2    0    0  0.00000000000E+00  0.00000000000E+00 -0.76154413373E+03  0.15973872907E+04  0.14041711750E+04 0.  0.
        1    1    3    3  502    0  0.13945719078E+02  0.49107741633E+02 -0.11773515973E+04  0.11784578215E+04  0.50400001928E-02 0.  1.
       -1    1    3    3    0  502 -0.13945719078E+02 -0.49107741633E+02  0.41580746356E+03  0.41892946918E+03  0.50400001928E-02 0. -1.
</event>
<event>
 5   0  0.6671375E-05  0.1409822E+04  0.7818609E-02  0.8946740E-01
        3   -1    0    0  501    0  0.00000000000E+00  0.00000000000E+00  0.42185655991E+03  0.42185657200E+03  0.10100000352E+00 0.  1.
       -3   -1    0    0    0  501  0.00000000000E+00  0.00000000000E+00 -0.11778867694E+04  0.11778867737E+04  0.10100000352E+00 0. -1.
    10030    2    1    2    0    0  0.00000000000E+00  0.00000000000E+00 -0.75603020950E+03  0.15997433457E+04  0.14098216535E+04 0.  0.
        5    1    3    3  502    0  0.48446566784E+03 -0.44905857759E+03 -0.65715594090E+03  0.93179214961E+03  0.46999998093E+01 0. -1.
       -5    1    3    3    0  502 -0.48446566784E+03  0.44905857759E+03 -0.98874268600E+02  0.66795119613E+03  0.46999998093E+01 0.  1.
</event>
<event>
 5   0  0.6671375E-05  0.1399018E+04  0.7818609E-02  0.8954530E-01
        1   -1    0    0  501    0  0.00000000000E+00  0.00000000000E+00  0.81520649342E+03  0.81520649343E+03  0.50400001928E-02 0.  1.
       -1   -1    0    0    0  501  0.00000000000E+00  0.00000000000E+00 -0.60023157388E+03  0.60023157390E+03  0.50400001928E-02 0. -1.
    10030    2    1    2    0    0  0.00000000000E+00  0.00000000000E+00  0.21497491954E+03  0.14154380673E+04  0.13990177649E+04 0.  0.
        5    1    3    3  502    0 -0.56678866242E+03  0.21413203074E+03  0.46114515712E+03  0.76143211147E+03  0.46999998093E+01 0. -1.
       -5    1    3    3    0  502  0.56678866242E+03 -0.21413203074E+03 -0.24617023758E+03  0.65400595586E+03  0.46999998093E+01 0.  1.
</event>
<event>
 5   0  0.1712327E-04  0.1398955E+04  0.7818609E-02  0.8954575E-01
        2   -1    0    0  501    0  0.00000000000E+00  0.00000000000E+00  0.10009513835E+04  0.10009513835E+04  0.25500000920E-02 0.  1.
       -2   -1    0    0    0  501  0.00000000000E+00  0.00000000000E+00 -0.48880404241E+03  0.48880404241E+03  0.25500000920E-02 0. -1.
    10030    2    1    2    0    0  0.00000000000E+00  0.00000000000E+00  0.51214734108E+03  0.14897554259E+04  0.13989554425E+04 0.  0.
        1    1    3    3  502    0 -0.51799895064E+03 -0.17172239717E+03 -0.20988498689E+03  0.58469068943E+03  0.50400001928E-02 0. -1.
       -1    1    3    3    0  502  0.51799895064E+03  0.17172239717E+03  0.72203232797E+03  0.90506473648E+03  0.50400001928E-02 0.  1.
</event>
<event>
 5   0  0.9978422E-05  0.1395711E+04  0.7818609E-02  0.8956929E-01
        1   -1    0    0  501    0  0.00000000000E+00  0.00000000000E+00  0.78333271811E+03  0.78333271812E+03  0.50400001928E-02 0. -1.
       -1   -1    0    0    0  501  0.00000000000E+00  0.00000000000E+00 -0.62170564558E+03  0.62170564560E+03  0.50400001928E-02 0.  1.
    10030    2    1    2    0    0  0.00000000000E+00  0.00000000000E+00  0.16162707252E+03  0.14050383637E+04  0.13957111066E+04 0.  0.
        2    1    3    3  502    0 -0.42892933070E+03 -0.42765338284E+03 -0.26810711731E+03  0.66238147087E+03  0.25500000920E-02 0.  1.
       -2    1    3    3    0  502  0.42892933070E+03  0.42765338284E+03  0.42973418984E+03  0.74265689286E+03  0.25500000920E-02 0. -1.
</event>
<event>
 5   0  0.1766237E-04  0.1401740E+04  0.7818609E-02  0.8952560E-01
       -2   -1    0    0    0  501  0.00000000000E+00  0.00000000000E+00  0.59207684309E+03  0.59207684309E+03  0.25500000920E-02 0. -1.
        2   -1    0    0  501    0  0.00000000000E+00  0.00000000000E+00 -0.82965420169E+03  0.82965420169E+03  0.25500000920E-02 0.  1.
    10030    2    1    2    0    0  0.00000000000E+00  0.00000000000E+00 -0.23757735860E+03  0.14217310448E+04  0.14017404048E+04 0.  0.
        3    1    3    3  502    0 -0.64023008187E+03  0.27588802730E+02  0.16909600522E+03  0.66275875622E+03  0.10100000352E+00 0. -1.
       -3    1    3    3    0  502  0.64023008187E+03 -0.27588802730E+02 -0.40667336383E+03  0.75897228857E+03  0.10100000352E+00 0.  1.
</event>
<event>
 5   0  0.9828111E-05  0.1401484E+04  0.7818609E-02  0.8952745E-01
        1   -1    0    0  501    0  0.00000000000E+00  0.00000000000E+00  0.11590094747E+04  0.11590094747E+04  0.50400001928E-02 0.  1.
       -1   -1    0    0    0  501  0.00000000000E+00  0.00000000000E+00 -0.42367134827E+03  0.42367134830E+03  0.50400001928E-02 0. -1.
    10030    2    1    2    0    0  0.00000000000E+00  0.00000000000E+00  0.73533812644E+03  0.15826808230E+04  0.14014836522E+04 0.  0.
        4    1    3    3  502    0 -0.43600171983E+03  0.97213681356E+01 -0.25173928738E+03  0.50355365792E+03  0.12699999809E+01 0. -1.
       -4    1    3    3    0  502  0.43600171983E+03 -0.97213681356E+01  0.98707741383E+03  0.10791271651E+04  0.12699999809E+01 0.  1.
</event>
<event>
 5   0  0.1712327E-04  0.1402391E+04  0.7818609E-02  0.8952089E-01
        2   -1    0    0  501    0  0.00000000000E+00  0.00000000000E+00  0.68237140153E+03  0.68237140153E+03  0.25500000920E-02 0. -1.
       -2   -1    0    0    0  501  0.00000000000E+00  0.00000000000E+00 -0.72053935328E+03  0.72053935329E+03  0.25500000920E-02 0.  1.
    10030    2    1    2    0    0  0.00000000000E+00  0.00000000000E+00 -0.38167951756E+02  0.14029107548E+04  0.14023914551E+04 0.  0.
        1    1    3    3  502    0 -0.49953205310E+03  0.40916208079E+03  0.25438434448E+03  0.69401532777E+03  0.50400001928E-02 0. -1.
       -1    1    3    3    0  502  0.49953205310E+03 -0.40916208079E+03 -0.29255229624E+03  0.70889542705E+03  0.50400001928E-02 0.  1.
</event>
<event>
 5   0  0.9900839E-05  0.1399455E+04  0.7818609E-02  0.8954213E-01
        1   -1    0    0  501    0  0.00000000000E+00  0.00000000000E+00  0.68076455634E+03  0.68076455636E+03  0.50400001928E-02 0. -1.
       -1   -1    0    0    0  501  0.00000000000E+00  0.00000000000E+00 -0.71921817642E+03  0.71921817644E+03  0.50400001928E-02 0.  1.
    10030    2    1    2    0    0  0.00000000000E+00  0.00000000000E+00 -0.38453620083E+02  0.13999827328E+04  0.13994545263E+04 0.  0.
        3    1    3    3  502    0 -0.26256904843E+03  0.25914041236E+03  0.57557474451E+03  0.68365382704E+03  0.10100000352E+00 0. -1.
       -3    1    3    3    0  502  0.26256904843E+03 -0.25914041236E+03 -0.61402836459E+03  0.71632890576E+03  0.10100000352E+00 0.  1.
</event>
<event>
 5   0  0.1833681E-04  0.1397357E+04  0.7818609E-02  0.8955734E-01
       -2   -1    0    0    0  501  0.00000000000E+00  0.00000000000E+00  0.22027725723E+03  0.22027725725E+03  0.25500000920E-02 0.  1.
        2   -1    0    0  501    0  0.00000000000E+00  0.00000000000E+00 -0.22160779148E+04  0.22160779148E+04  0.25500000920E-02 0. -1.
    10030    2    1    2    0    0  0.00000000000E+00  0.00000000000E+00 -0.19958006575E+04  0.24363551720E+04  0.13973568834E+04 0.  0.
        4    1    3    3  502    0  0.50322972808E+03  0.33354278027E+03 -0.16110212533E+04  0.17204307707E+04  0.12699999809E+01 0. -1.
       -4    1    3    3    0  502 -0.50322972808E+03 -0.33354278027E+03 -0.38477940424E+03  0.71592440126E+03  0.12699999809E+01 0.  1.
</event>
<event>
 5   0  0.6671375E-05  0.1399815E+04  0.7818609E-02  0.8953952E-01
       -1   -1    0    0    0  501  0.00000000000E+00  0.00000000000E+00  0.59870460781E+03  0.59870460783E+03  0.50400001928E-02 0. -1.
        1   -1    0    0  501    0  0.00000000000E+00  0.00000000000E+00 -0.81821786695E+03  0.81821786697E+03  0.50400001928E-02 0.  1.
    10030    2    1    2    0    0  0.00000000000E+00  0.00000000000E+00 -0.21951325914E+03  0.14169224748E+04  0.13998154266E+04 0.  0.
        5    1    3    3  502    0 -0.44807071772E+03 -0.61357483388E+02  0.43092154645E+03  0.62469798946E+03  0.46999998093E+01 0. -1.
       -5    1    3    3    0  502  0.44807071772E+03  0.61357483388E+02 -0.65043480559E+03  0.79222448534E+03  0.46999998093E+01 0.  1.
</event>
<event>
 5   0  0.1833681E-04  0.1401434E+04  0.7818609E-02  0.8952781E-01
        2   -1    0    0  501    0  0.00000000000E+00  0.00000000000E+00  0.10771643810E+04  0.10771643810E+04  0.25500000920E-02 0. -1.
       -2   -1    0    0    0  501  0.00000000000E+00  0.00000000000E+00 -0.45583049989E+03  0.45583049989E+03  0.25500000920E-02 0.  1.
    10030    2    1    2    0    0  0.00000000000E+00  0.00000000000E+00  0.62133388108E+03  0.15329948809E+04  0.14014340916E+04 0.  0.
        4    1    3    3  502    0 -0.23423897697E+03 -0.10693726831E+03  0.10235344035E+04  0.10554277643E+04  0.12699999809E+01 0. -1.
       -4    1    3    3    0  502  0.23423897697E+03  0.10693726831E+03 -0.40220052240E+03  0.47756711654E+03  0.12699999809E+01 0.  1.
</event>
<event>
 5   0  0.1780171E-04  0.1405467E+04  0.7818609E-02  0.8949871E-01
        2   -1    0    0  501    0  0.00000000000E+00  0.00000000000E+00  0.16413461322E+04  0.16413461322E+04  0.25500000920E-02 0.  1.
       -2   -1    0    0    0  501  0.00000000000E+00  0.00000000000E+00 -0.30087135487E+03  0.30087135488E+03  0.25500000920E-02 0. -1.
    10030    2    1    2    0    0  0.00000000000E+00  0.00000000000E+00  0.13404747774E+04  0.19422174871E+04  0.14054665199E+04 0.  0.
        5    1    3    3  502    0  0.32900814455E+03  0.10013784532E+03 -0.17660833434E+03  0.38663489367E+03  0.46999998093E+01 0. -1.
       -5    1    3    3    0  502 -0.32900814455E+03 -0.10013784532E+03  0.15170831117E+04  0.15555825934E+04  0.46999998093E+01 0.  1.
</event>
<event>
 5   0  0.1794185E-04  0.1401335E+04  0.7818609E-02  0.8952853E-01
       -2   -1    0    0    0  501  0.00000000000E+00  0.00000000000E+00  0.41664701743E+03  0.41664701744E+03  0.25500000920E-02 0. -1.
        2   -1    0    0  501    0  0.00000000000E+00  0.00000000000E+00 -0.11782986443E+04  0.11782986443E+04  0.25500000920E-02 0.  1.
    10030    2    1    2    0    0  0.00000000000E+00  0.00000000000E+00 -0.76165162684E+03  0.15949456617E+04  0.14013345293E+04 0.  0.
        2    1    3    3  502    0 -0.43195301252E+03 -0.16407335166E+03 -0.98031544512E+03  0.10837535890E+04  0.25500000920E-02 0.  1.
       -2    1    3    3    0  502  0.43195301252E+03  0.16407335166E+03  0.21866381828E+03  0.51119207269E+03  0.25500000920E-02 0. -1.
</event>
<event>
 5   0  0.1766237E-04  0.1400897E+04  0.7818609E-02  0.8953170E-01
        2   -1    0    0  501    0  0.00000000000E+00  0.00000000000E+00  0.11606370785E+04  0.11606370785E+04  0.25500000920E-02 0.  1.
       -2   -1    0    0    0  501  0.00000000000E+00  0.00000000000E+00 -0.42272300916E+03  0.42272300917E+03  0.25500000920E-02 0. -1.
    10030    2    1    2    0    0  0.00000000000E+00  0.00000000000E+00  0.73791406937E+03  0.15833600877E+04  0.14008968533E+04 0.  0.
        3    1    3    3  502    0  0.64416841599E+03 -0.26705495541E+03  0.44355928093E+03  0.82644790717E+03  0.10100000352E+00 0.  1.
       -3    1    3    3    0  502 -0.64416841599E+03  0.26705495541E+03  0.29435478843E+03  0.75691218053E+03  0.10100000352E+00 0. -1.
</event>
<event>
 5   0  0.1766237E-04  0.1404316E+04  0.7818609E-02  0.8950701E-01
        2   -1    0    0  501    0  0.00000000000E+00  0.00000000000E+00  0.45681306633E+03  0.45681306633E+03  0.25500000920E-02 0. -1.
       -2   -1    0    0    0  501  0.00000000000E+00  0.00000000000E+00 -0.10792722523E+04  0.10792722523E+04  0.25500000920E-02 0.  1.
    10030    2    1    2    0    0  0.00000000000E+00  0.00000000000E+00 -0.62245918599E+03  0.15360853187E+04  0.14043157294E+04 0.  0.
        3    1    3    3  502    0  0.67288189318E+02 -0.61680492429E+03 -0.67078203575E+03  0.91374206685E+03  0.10100000352E+00 0.  1.
       -3    1    3    3    0  502 -0.67288189318E+02  0.61680492429E+03  0.48322849756E+02  0.62234325180E+03  0.10100000352E+00 0. -1.
</event>
<event>
 5   0  0.1794185E-04  0.1398309E+04  0.7818609E-02  0.8955044E-01
       -2   -1    0    0    0  501  0.00000000000E+00  0.00000000000E+00  0.18348344992E+03  0.18348344994E+03  0.25500000920E-02 0. -1.
        2   -1    0    0  501    0  0.00000000000E+00  0.00000000000E+00 -0.26640914692E+04  0.26640914692E+04  0.25500000920E-02 0.  1.
    10030    2    1    2    0    0  0.00000000000E+00  0.00000000000E+00 -0.24806080193E+04  0.28475749191E+04  0.13983085406E+04 0.  0.
        2    1    3    3  502    0  0.69091581526E+02  0.15138450754E+03 -0.26231755831E+04  0.26284484122E+04  0.25500000920E-02 0.  1.
       -2    1    3    3    0  502 -0.69091581526E+02 -0.15138450754E+03  0.14256756386E+03  0.21912650691E+03  0.25500000920E-02 0. -1.
</event>
<event>
 5   0  0.6671375E-05  0.1400102E+04  0.7818609E-02  0.8953745E-01
        1   -1    0    0  501    0  0.00000000000E+00  0.00000000000E+00  0.72415667731E+03  0.72415667733E+03  0.50400001928E-02 0.  1.
       -1   -1    0    0    0  501  0.00000000000E+00  0.00000000000E+00 -0.67674787827E+03  0.67674787829E+03  0.50400001928E-02 0. -1.
    10030    2    1    2    0    0  0.00000000000E+00  0.00000000000E+00  0.47408799041E+02  0.14009045556E+04  0.14001021319E+04 0.  0.
        5    1    3    3  502    0 -0.21605749395E+03  0.26344179611E+03 -0.58817447865E+03  0.67974534053E+03  0.46999998093E+01 0. -1.
       -5    1    3    3    0  502  0.21605749395E+03 -0.26344179611E+03  0.63558327769E+03  0.72115921509E+03  0.46999998093E+01 0.  1.
</event>
<event>
 5   0  0.6671375E-05  0.1396597E+04  0.7818609E-02  0.8956286E-01
       -4   -1    0    0    0  501  0.00000000000E+00  0.00000000000E+00  0.69364620972E+03  0.69364737235E+03  0.12699999809E+01 0. -1.
        4   -1    0    0  501    0  0.00000000000E+00  0.00000000000E+00 -0.70297929087E+03  0.70298043806E+03  0.12699999809E+01 0.  1.
    10030    2    1    2    0    0  0.00000000000E+00  0.00000000000E+00 -0.93330811457E+01  0.13966278104E+04  0.13965966255E+04 0.  0.
        2    1    3    3  502    0  0.19521643160E+03  0.61798705839E+03  0.25534517679E+03  0.69657635534E+03  0.25500000920E-02 0. -1.
       -2    1    3    3    0  502 -0.19521643160E+03 -0.61798705839E+03 -0.26467825793E+03  0.70005145506E+03  0.25500000920E-02 0.  1.
</event>
<event>
 5   0  0.1766237E-04  0.1398832E+04  0.7818609E-02  0.8954665E-01
       -2   -1    0    0    0  501  0.00000000000E+00  0.00000000000E+00  0.38334163300E+03  0.38334163301E+03  0.25500000920E-02 0. -1.
        2   -1    0    0  501    0  0.00000000000E+00  0.00000000000E+00 -0.12761007057E+04  0.12761007057E+04  0.25500000920E-02 0.  1.
    10030    2    1    2    0    0  0.00000000000E+00  0.00000000000E+00 -0.89275907273E+03  0.16594423387E+04  0.13988316960E+04 0.  0.
        3    1    3    3  502    0  0.27951458763E+03  0.52602090427E+03 -0.11543596791E+02  0.59578491191E+03  0.10100000352E+00 0.  1.
       -3    1    3    3    0  502 -0.27951458763E+03 -0.52602090427E+03 -0.88121547594E+03  0.10636574268E+04  0.10100000352E+00 0. -1.
</event>
<event>
 5   0  0.9828111E-05  0.1402148E+04  0.7818609E-02  0.8952265E-01
       -1   -1    0    0    0  501  0.00000000000E+00  0.00000000000E+00  0.82495256740E+03  0.82495256741E+03  0.50400001928E-02 0.  1.
        1   -1    0    0  501    0  0.00000000000E+00  0.00000000000E+00 -0.59579799281E+03  0.59579799283E+03  0.50400001928E-02 0. -1.
    10030    2    1    2    0    0  0.00000000000E+00  0.00000000000E+00  0.22915457458E+03  0.14207505602E+04  0.14021484712E+04 0.  0.
        4    1    3    3  502    0 -0.36570172201E+03  0.29550559505E+03  0.64151712697E+03  0.79536604358E+03  0.12699999809E+01 0.  1.
       -4    1    3    3    0  502  0.36570172201E+03 -0.29550559505E+03 -0.41236255238E+03  0.62538451667E+03  0.12699999809E+01 0. -1.
</event>
<event>
 5   0  0.1712327E-04  0.1400627E+04  0.7818609E-02  0.8953365E-01
        2   -1    0    0  501    0  0.00000000000E+00  0.00000000000E+00  0.86441389059E+03  0.86441389060E+03  0.25500000920E-02 0. -1.
       -2   -1    0    0    0  501  0.00000000000E+00  0.00000000000E+00 -0.56736589758E+03  0.56736589758E+03  0.25500000920E-02 0.  1.
    10030    2    1    2    0    0  0.00000000000E+00  0.00000000000E+00  0.29704799301E+03  0.14317797882E+04  0.14006269495E+04 0.  0.
        1    1    3    3  502    0 -0.34280935339E+03  0.24805593196E+03 -0.42190994390E+03  0.59754330298E+03  0.50400001928E-02 0.  1.
       -1    1    3    3    0  502  0.34280935339E+03 -0.24805593196E+03  0.71895793692E+03  0.83423648520E+03  0.50400001928E-02 0. -1.
</event>
<event>
 5   0  0.1794185E-04  0.1400156E+04  0.7818609E-02  0.8953705E-01
        2   -1    0    0  501    0  0.00000000000E+00  0.00000000000E+00  0.92914255115E+03  0.92914255116E+03  0.25500000920E-02 0. -1.
       -2   -1    0    0    0  501  0.00000000000E+00  0.00000000000E+00 -0.52748569253E+03  0.52748569253E+03  0.25500000920E-02 0.  1.
    10030    2    1    2    0    0  0.00000000000E+00  0.00000000000E+00  0.40165685862E+03  0.14566282437E+04  0.14001562799E+04 0.  0.
        2    1    3    3  502    0  0.82142895815E+02 -0.71100180053E+02  0.92031957081E+03  0.92670966508E+03  0.25500000920E-02 0. -1.
       -2    1    3    3    0  502 -0.82142895815E+02  0.71100180053E+02 -0.51866271218E+03  0.52991857861E+03  0.25500000920E-02 0.  1.
</event>
<event>
 5   0  0.9978422E-05  0.1399358E+04  0.7818609E-02  0.8954283E-01
        1   -1    0    0  501    0  0.00000000000E+00  0.00000000000E+00  0.16653172957E+04  0.16653172957E+04  0.50400001928E-02 0.  1.
       -1   -1    0    0    0  501  0.00000000000E+00  0.00000000000E+00 -0.29396855601E+03  0.29396855605E+03  0.50400001928E-02 0. -1.
    10030    2    1    2    0    0  0.00000000000E+00  0.00000000000E+00  0.13713487397E+04  0.19592858518E+04  0.13993583112E+04 0.  0.
        2    1    3    3  502    0  0.42688685998E+03  0.52460693825E+03  0.93655237014E+03  0.11552381455E+04  0.25500000920E-02 0. -1.
       -2    1    3    3    0  502 -0.42688685998E+03 -0.52460693825E+03  0.43479636955E+03  0.80404770622E+03  0.25500000920E-02 0.  1.
</event>
<event>
 5   0  0.1780171E-04  0.1399543E+04  0.7818609E-02  0.8954150E-01
        2   -1    0    0  501    0  0.00000000000E+00  0.00000000000E+00  0.85196858491E+03  0.85196858492E+03  0.25500000920E-02 0. -1.
       -2   -1    0    0    0  501  0.00000000000E+00  0.00000000000E+00 -0.57476290234E+03  0.57476290234E+03  0.25500000920E-02 0.  1.
    10030    2    1    2    0    0  0.00000000000E+00  0.00000000000E+00  0.27720568258E+03  0.14267314873E+04  0.13995426918E+04 0.  0.
        5    1    3    3  502    0  0.27433827877E+03  0.32986221086E+03 -0.42493583782E+03  0.60387343509E+03  0.46999998093E+01 0.  1.
       -5    1    3    3    0  502 -0.27433827877E+03 -0.32986221086E+03  0.70214152040E+03  0.82285805216E+03  0.46999998093E+01 0. -1.
</event>
<event>
 5   0  0.9900839E-05  0.1404793E+04  0.7818609E-02  0.8950356E-01
       -1   -1    0    0    0  501  0.00000000000E+00  0.00000000000E+00  0.34342492416E+03  0.34342492419E+03  0.50400001928E-02 0.  1.
        1   -1    0    0  501    0  0.00000000000E+00  0.00000000000E+00 -0.14365908371E+04  0.14365908371E+04  0.50400001928E-02 0. -1.
    10030    2    1    2    0    0  0.00000000000E+00  0.00000000000E+00 -0.10931659130E+04  0.17800157613E+04  0.14047933646E+04 0.  0.
        3    1    3    3  502    0  0.39873132012E+03 -0.43046063558E+03 -0.57347106341E+02  0.58955213954E+03  0.10100000352E+00 0.  1.
       -3    1    3    3    0  502 -0.39873132012E+03  0.43046063558E+03 -0.10358188066E+04  0.11904636218E+04  0.10100000352E+00 0. -1.
</event>
<event>
 5   0  0.9900839E-05  0.1399497E+04  0.7818609E-02  0.8954183E-01
       -1   -1    0    0    0  501  0.00000000000E+00  0.00000000000E+00  0.71422915560E+03  0.71422915561E+03  0.50400001928E-02 0.  1.
        1   -1    0    0  501    0  0.00000000000E+00  0.00000000000E+00 -0.68556157219E+03  0.68556157221E+03  0.50400001928E-02 0. -1.
    10030    2    1    2    0    0  0.00000000000E+00  0.00000000000E+00  0.28667583404E+02  0.13997907278E+04  0.13994971423E+04 0.  0.
        3    1    3    3  502    0 -0.52129142873E+03  0.33413633299E+03  0.34037181913E+03  0.70657259227E+03  0.10100000352E+00 0.  1.
       -3    1    3    3    0  502  0.52129142873E+03 -0.33413633299E+03 -0.31170423572E+03  0.69321813555E+03  0.10100000352E+00 0. -1.
</event>
<event>
 5   0  0.9828111E-05  0.1399790E+04  0.7818609E-02  0.8953970E-01
       -1   -1    0    0    0  501  0.00000000000E+00  0.00000000000E+00  0.37686736034E+03  0.37686736037E+03  0.50400001928E-02 0. -1.
        1   -1    0    0  501    0  0.00000000000E+00  0.00000000000E+00 -0.12998024778E+04  0.12998024778E+04  0.50400001928E-02 0.  1.
    10030    2    1    2    0    0  0.00000000000E+00  0.00000000000E+00 -0.92293511749E+03  0.16766698382E+04  0.13997901683E+04 0.  0.
        4    1    3    3  502    0 -0.15726791262E+03  0.25552835706E+03 -0.12188562457E+04  0.12552450351E+04  0.12699999809E+01 0.  1.
       -4    1    3    3    0  502  0.15726791262E+03 -0.25552835706E+03  0.29592112824E+03  0.42142480307E+03  0.12699999809E+01 0. -1.
</event>
<event>
 5   0  0.1833681E-04  0.1404159E+04  0.7818609E-02  0.8950814E-01
        2   -1    0    0  501    0  0.00000000000E+00  0.00000000000E+00  0.76972491903E+03  0.76972491904E+03  0.25500000920E-02 0.  1.
       -2   -1    0    0    0  501  0.00000000000E+00  0.00000000000E+00 -0.64037873031E+03  0.64037873031E+03  0.25500000920E-02 0. -1.
    10030    2    1    2    0    0  0.00000000000E+00  0.00000000000E+00  0.12934618873E+03  0.14101036493E+04  0.14041587750E+04 0.  0.
        4    1    3    3  502    0  0.20160661192E+03 -0.14797911838E+03 -0.59413089592E+03  0.64462095826E+03  0.12699999809E+01 0. -1.
       -4    1    3    3    0  502 -0.20160661192E+03  0.14797911838E+03  0.72347708465E+03  0.76548269109E+03  0.12699999809E+01 0.  1.
</event>
<event>
 5   0  0.1794185E-04  0.1384268E+04  0.7818609E-02  0.8965286E-01
        2   -1    0    0  501    0  0.00000000000E+00  0.00000000000E+00  0.51407863261E+03  0.51407863262E+03  0.25500000920E-02 0. -1.
       -2   -1    0    0    0  501  0.00000000000E+00  0.00000000000E+00 -0.93185987247E+03  0.93185987247E+03  0.25500000920E-02 0.  1.
    10030    2    1    2    0    0  0.00000000000E+00  0.00000000000E+00 -0.41778123986E+03  0.14459385051E+04  0.13842676750E+04 0.  0.
        2    1    3    3  502    0  0.28565343731E+03  0.62320557869E+03 -0.30834906424E+03  0.75170620922E+03  0.25500000920E-02 0. -1.
       -2    1    3    3    0  502 -0.28565343731E+03 -0.62320557869E+03 -0.10943217562E+03  0.69423229587E+03  0.25500000920E-02 0.  1.
</event>
<event>
 5   0  0.1833681E-04  0.1395544E+04  0.7818609E-02  0.8957050E-01
       -2   -1    0    0    0  501  0.00000000000E+00  0.00000000000E+00  0.40270382494E+03  0.40270382494E+03  0.25500000920E-02 0. -1.
        2   -1    0    0  501    0  0.00000000000E+00  0.00000000000E+00 -0.12090414974E+04  0.12090414974E+04  0.25500000920E-02 0.  1.
    10030    2    1    2    0    0  0.00000000000E+00  0.00000000000E+00 -0.80633767250E+03  0.16117453224E+04  0.13955438159E+04 0.  0.
        4    1    3    3  502    0  0.86767260125E+00 -0.19831243652E+03  0.36946970051E+03  0.41933047567E+03  0.12699999809E+01 0. -1.
       -4    1    3    3    0  502 -0.86767260125E+00  0.19831243652E+03 -0.11758073730E+04  0.11924148467E+04  0.12699999809E+01 0.  1.
</event>
<event>
 5   0  0.1712327E-04  0.1399041E+04  0.7818609E-02  0.8954513E-01
        2   -1    0    0  501    0  0.00000000000E+00  0.00000000000E+00  0.71450088675E+03  0.71450088675E+03  0.25500000920E-02 0. -1.
       -2   -1    0    0    0  501  0.00000000000E+00  0.00000000000E+00 -0.68485441888E+03  0.68485441889E+03  0.25500000920E-02 0.  1.
    10030    2    1    2    0    0  0.00000000000E+00  0.00000000000E+00  0.29646467864E+02  0.13993553056E+04  0.13990412283E+04 0.  0.
        1    1    3    3  502    0  0.37707224963E+03 -0.50016119710E+03 -0.29666983965E+03  0.69307842147E+03  0.50400001928E-02 0. -1.
       -1    1    3    3    0  502 -0.37707224963E+03  0.50016119710E+03  0.32631630751E+03  0.70627688416E+03  0.50400001928E-02 0.  1.
</event>
<event>
 5   0  0.1766237E-04  0.1397912E+04  0.7818609E-02  0.8955331E-01
       -2   -1    0    0    0  501  0.00000000000E+00  0.00000000000E+00  0.35671209570E+03  0.35671209571E+03  0.25500000920E-02 0.  1.
        2   -1    0    0  501    0  0.00000000000E+00  0.00000000000E+00 -0.13695625726E+04  0.13695625726E+04  0.25500000920E-02 0. -1.
    10030    2    1    2    0    0  0.00000000000E+00  0.00000000000E+00 -0.10128504769E+04  0.17262746683E+04  0.13979120652E+04 0.  0.
        3    1    3    3  502    0  0.36602481050E+03 -0.16394329494E+03 -0.12133289899E+04  0.12778962453E+04  0.10100000352E+00 0. -1.
       -3    1    3    3    0  502 -0.36602481050E+03  0.16394329494E+03  0.20047851298E+03  0.44837842301E+03  0.10100000352E+00 0.  1.
</event>
<event>
 5   0  0.9260916E-05  0.1399728E+04  0.7818609E-02  0.8954016E-01
       -1   -1    0    0    0  501  0.00000000000E+00  0.00000000000E+00  0.29434570052E+03  0.29434570057E+03  0.50400001928E-02 0.  1.
        1   -1    0    0  501    0  0.00000000000E+00  0.00000000000E+00 -0.16640618009E+04  0.16640618009E+04  0.50400001928E-02 0. -1.
    10030    2    1    2    0    0  0.00000000000E+00  0.00000000000E+00 -0.13697161004E+04  0.19584075015E+04  0.13997277400E+04 0.  0.
        1    1    3    3  502    0  0.42086699311E+03 -0.32526935725E+03 -0.48474395025E+02  0.53411510711E+03  0.50400001928E-02 0.  1.
       -1    1    3    3    0  502 -0.42086699311E+03  0.32526935725E+03 -0.13212417054E+04  0.14242923944E+04  0.50400001928E-02 0. -1.
</event>
<event>
 5   0  0.1794185E-04  0.1400292E+04  0.7818609E-02  0.8953608E-01
        2   -1    0    0  501    0  0.00000000000E+00  0.00000000000E+00  0.11540608856E+04  0.11540608856E+04  0.25500000920E-02 0.  1.
       -2   -1    0    0    0  501  0.00000000000E+00  0.00000000000E+00 -0.42476448253E+03  0.42476448254E+03  0.25500000920E-02 0. -1.
    10030    2    1    2    0    0  0.00000000000E+00  0.00000000000E+00  0.72929640302E+03  0.15788253681E+04  0.14002915052E+04 0.  0.
        2    1    3    3  502    0 -0.54730824459E+03 -0.42964511146E+03  0.27685646484E+03  0.74885962539E+03  0.25500000920E-02 0.  1.
       -2    1    3    3    0  502  0.54730824459E+03  0.42964511146E+03  0.45243993818E+03  0.82996574271E+03  0.25500000920E-02 0. -1.
</event>
<event>
 5   0  0.9978422E-05  0.1394636E+04  0.7818609E-02  0.8957711E-01
       -1   -1    0    0    0  501  0.00000000000E+00  0.00000000000E+00  0.58137795413E+03  0.58137795416E+03  0.50400001928E-02 0. -1.
        1   -1    0    0  501    0  0.00000000000E+00  0.00000000000E+00 -0.83637886385E+03  0.83637886386E+03  0.50400001928E-02 0.  1.
    10030    2    1    2    0    0  0.00000000000E+00  0.00000000000E+00 -0.25500090971E+03  0.14177568180E+04  0.13946357700E+04 0.  0.
        2    1    3    3  502    0 -0.69325218071E+03 -0.56176001055E+02 -0.17830806672E+03  0.71801677963E+03  0.25500000920E-02 0. -1.
       -2    1    3    3    0  502  0.69325218071E+03  0.56176001055E+02 -0.76692842991E+02  0.69974003839E+03  0.25500000920E-02 0.  1.
</event>
<event>
 5   0  0.1833681E-04  0.1398323E+04  0.7818609E-02  0.8955034E-01
       -2   -1    0    0    0  501  0.00000000000E+00  0.00000000000E+00  0.24606989792E+03  0.24606989794E+03  0.25500000920E-02 0.  1.
        2   -1    0    0  501    0  0.00000000000E+00  0.00000000000E+00 -0.19865352390E+04  0.19865352390E+04  0.25500000920E-02 0. -1.
    10030    2    1    2    0    0  0.00000000000E+00  0.00000000000E+00 -0.17404653410E+04  0.22326051369E+04  0.13983226001E+04 0.  0.
        4    1    3    3  502    0 -0.40361891527E+03 -0.99173195901E+01  0.41132229885E+02  0.40583254580E+03  0.12699999809E+01 0.  1.
       -4    1    3    3    0  502  0.40361891527E+03  0.99173195901E+01 -0.17815975709E+04  0.18267725911E+04  0.12699999809E+01 0. -1.
</event>
<event>
 5   0  0.1833681E-04  0.1399582E+04  0.7818609E-02  0.8954121E-01
       -2   -1    0    0    0  501  0.00000000000E+00  0.00000000000E+00  0.57409305870E+03  0.57409305870E+03  0.25500000920E-02 0. -1.
        2   -1    0    0  501    0  0.00000000000E+00  0.00000000000E+00 -0.85301097686E+03  0.85301097687E+03  0.25500000920E-02 0.  1.
    10030    2    1    2    0    0  0.00000000000E+00  0.00000000000E+00 -0.27891791817E+03  0.14271040356E+04  0.13995823389E+04 0.  0.
        4    1    3    3  502    0 -0.46786986815E+03  0.21122585447E+02 -0.66964287056E+03  0.81717290957E+03  0.12699999809E+01 0.  1.
       -4    1    3    3    0  502  0.46786986815E+03 -0.21122585447E+02  0.39072495240E+03  0.60993112600E+03  0.12699999809E+01 0. -1.
</event>
<event>
 5   0  0.9260916E-05  0.1399775E+04  0.7818609E-02  0.8953982E-01
        1   -1    0    0  501    0  0.00000000000E+00  0.00000000000E+00  0.14711255997E+04  0.14711255997E+04  0.50400001928E-02 0. -1.
       -1   -1    0    0    0  501  0.00000000000E+00  0.00000000000E+00 -0.33297100731E+03  0.33297100734E+03  0.50400001928E-02 0.  1.
    10030    2    1    2    0    0  0.00000000000E+00  0.00000000000E+00  0.11381545924E+04  0.18040966070E+04  0.13997745145E+04 0.  0.
        1    1    3    3  502    0 -0.65588087029E+03 -0.15357649018E+03  0.81387944255E+03  0.10564871989E+04  0.50400001928E-02 0. -1.
       -1    1    3    3    0  502  0.65588087029E+03  0.15357649018E+03  0.32427514981E+03  0.74760940815E+03  0.50400001928E-02 0.  1.
</event>
<event>
 5   0  0.9900839E-05  0.1401354E+04  0.7818609E-02  0.8952839E-01
        1   -1    0    0  501    0  0.00000000000E+00  0.00000000000E+00  0.11942658478E+04  0.11942658479E+04  0.50400001928E-02 0. -1.
       -1   -1    0    0    0  501  0.00000000000E+00  0.00000000000E+00 -0.41108819290E+03  0.41108819294E+03  0.50400001928E-02 0.  1.
    10030    2    1    2    0    0  0.00000000000E+00  0.00000000000E+00  0.78317765494E+03  0.16053540408E+04  0.14013544723E+04 0.  0.
        3    1    3    3  502    0  0.66462448930E+01  0.30746696270E+03 -0.32963883171E+03  0.45082355229E+03  0.10100000352E+00 0.  1.
       -3    1    3    3    0  502 -0.66462448930E+01 -0.30746696270E+03  0.11128164866E+04  0.11545304885E+04  0.10100000352E+00 0. -1.
</event>
<event>
 5   0  0.1766237E-04  0.1400900E+04  0.7818609E-02  0.8953167E-01
       -2   -1    0    0    0  501  0.00000000000E+00  0.00000000000E+00  0.35396378575E+03  0.35396378576E+03  0.25500000920E-02 0.  1.
        2   -1    0    0  501    0  0.00000000000E+00  0.00000000000E+00 -0.13861027981E+04  0.13861027981E+04  0.25500000920E-02 0. -1.
    10030    2    1    2    0    0  0.00000000000E+00  0.00000000000E+00 -0.10321390123E+04  0.17400665839E+04  0.14008999877E+04 0.  0.
        3    1    3    3  502    0  0.17656384020E+03  0.21627137657E+03 -0.13140027218E+04  0.13433358705E+04  0.10100000352E+00 0. -1.
       -3    1    3    3    0  502 -0.17656384020E+03 -0.21627137657E+03  0.28186370945E+03  0.39673071333E+03  0.10100000352E+00 0.  1.
</event>
<event>
 5   0  0.6671375E-05  0.1400465E+04  0.7818609E-02  0.8953482E-01
       -1   -1    0    0    0  501  0.00000000000E+00  0.00000000000E+00  0.66829992052E+03  0.66829992054E+03  0.50400001928E-02 0.  1.
        1   -1    0    0  501    0  0.00000000000E+00  0.00000000000E+00 -0.73369099202E+03  0.73369099204E+03  0.50400001928E-02 0. -1.
    10030    2    1    2    0    0  0.00000000000E+00  0.00000000000E+00 -0.65391071504E+02  0.14019909126E+04  0.14004651109E+04 0.  0.
        5    1    3    3  502    0  0.25566602968E+02 -0.69970337813E+03 -0.24619955205E+02  0.70061879845E+03  0.46999998093E+01 0.  1.
       -5    1    3    3    0  502 -0.25566602968E+02  0.69970337813E+03 -0.40771116299E+02  0.70137211413E+03  0.46999998093E+01 0. -1.
</event>
<event>
 5   0  0.9828111E-05  0.1402154E+04  0.7818609E-02  0.8952261E-01
       -1   -1    0    0    0  501  0.00000000000E+00  0.00000000000E+00  0.20402622946E+04  0.20402622946E+04  0.50400001928E-02 0.  1.
        1   -1    0    0  501    0  0.00000000000E+00  0.00000000000E+00 -0.24090471274E+03  0.24090471280E+03  0.50400001928E-02 0. -1.
    10030    2    1    2    0    0  0.00000000000E+00  0.00000000000E+00  0.17993575819E+04  0.22811670074E+04  0.14021537748E+04 0.  0.
        4    1    3    3  502    0 -0.30270912420E+03  0.42564377924E+03  0.16605086772E+04  0.17407171282E+04  0.12699999809E+01 0.  1.
       -4    1    3    3    0  502  0.30270912420E+03 -0.42564377924E+03  0.13884890471E+03  0.54044987919E+03  0.12699999809E+01 0. -1.
</event>
<event>
 5   0  0.1833681E-04  0.1400059E+04  0.7818609E-02  0.8953776E-01
       -2   -1    0    0    0  501  0.00000000000E+00  0.00000000000E+00  0.22271394594E+03  0.22271394596E+03  0.25500000920E-02 0.  1.
        2   -1    0    0  501    0  0.00000000000E+00  0.00000000000E+00 -0.22003170337E+04  0.22003170338E+04  0.25500000920E-02 0. -1.
    10030    2    1    2    0    0  0.00000000000E+00  0.00000000000E+00 -0.19776030878E+04  0.24230309797E+04  0.14000589829E+04 0.  0.
        4    1    3    3  502    0 -0.32512307937E+03  0.22614387079E+03  0.10188053144E+02  0.39617101908E+03  0.12699999809E+01 0.  1.
       -4    1    3    3    0  502  0.32512307937E+03 -0.22614387079E+03 -0.19877911410E+04  0.20268599606E+04  0.12699999809E+01 0. -1.
</event>
<event>
 5   0  0.1712327E-04  0.1398183E+04  0.7818609E-02  0.8955135E-01
       -2   -1    0    0    0  501  0.00000000000E+00  0.00000000000E+00  0.34768579145E+03  0.34768579146E+03  0.25500000920E-02 0.  1.
        2   -1    0    0  501    0  0.00000000000E+00  0.00000000000E+00 -0.14056619081E+04  0.14056619081E+04  0.25500000920E-02 0. -1.
    10030    2    1    2    0    0  0.00000000000E+00  0.00000000000E+00 -0.10579761166E+04  0.17533476995E+04  0.13981826390E+04 0.  0.
        1    1    3    3  502    0 -0.33085321109E+03 -0.19084458881E+01 -0.13012654846E+04  0.13426687421E+04  0.50400001928E-02 0. -1.
       -1    1    3    3    0  502  0.33085321109E+03  0.19084458881E+01  0.24328936803E+03  0.41067895743E+03  0.50400001928E-02 0.  1.
</event>
<event>
 5   0  0.9978422E-05  0.1391377E+04  0.7818609E-02  0.8960084E-01
        1   -1    0    0  501    0  0.00000000000E+00  0.00000000000E+00  0.86307975324E+03  0.86307975325E+03  0.50400001928E-02 0.  1.
       -1   -1    0    0    0  501  0.00000000000E+00  0.00000000000E+00 -0.56076186479E+03  0.56076186481E+03  0.50400001928E-02 0. -1.
    10030    2    1    2    0    0  0.00000000000E+00  0.00000000000E+00  0.30231788845E+03  0.14238416181E+04  0.13913766017E+04 0.  0.
        2    1    3    3  502    0 -0.41744588560E+03 -0.51828972076E+03 -0.56294940238E+02  0.66787305856E+03  0.25500000920E-02 0.  1.
       -2    1    3    3    0  502  0.41744588560E+03  0.51828972076E+03  0.35861282869E+03  0.75596855950E+03  0.25500000920E-02 0. -1.
</event>
<event>
 5   0  0.1794185E-04  0.1398510E+04  0.7818609E-02  0.8954898E-01
       -2   -1    0    0    0  501  0.00000000000E+00  0.00000000000E+00  0.34945478753E+03  0.34945478754E+03  0.25500000920E-02 0.  1.
        2   -1    0    0  501    0  0.00000000000E+00  0.00000000000E+00 -0.13992018447E+04  0.13992018447E+04  0.25500000920E-02 0. -1.
    10030    2    1    2    0    0  0.00000000000E+00  0.00000000000E+00 -0.10497470572E+04  0.17486566322E+04  0.13985103265E+04 0.  0.
        2    1    3    3  502    0 -0.10410915319E+03  0.21983154159E+03  0.29485228624E+03  0.38223355839E+03  0.25500000920E-02 0.  1.
       -2    1    3    3    0  502  0.10410915319E+03 -0.21983154159E+03 -0.13445993434E+04  0.13664230738E+04  0.25500000920E-02 0. -1.
</event>
<event>
 5   0  0.6671375E-05  0.1400069E+04  0.7818609E-02  0.8953769E-01
       -3   -1    0    0    0  501  0.00000000000E+00  0.00000000000E+00  0.56073142739E+03  0.56073143648E+03  0.10100000352E+00 0. -1.
        3   -1    0    0  501    0  0.00000000000E+00  0.00000000000E+00 -0.87394446540E+03  0.87394447124E+03  0.10100000352E+00 0.  1.
    10030    2    1    2    0    0  0.00000000000E+00  0.00000000000E+00 -0.31321303802E+03  0.14346759077E+04  0.14000687672E+04 0.  0.
        2    1    3    3  502    0  0.37754964959E+03  0.18435908781E+03  0.41715891454E+03  0.59207564648E+03  0.25500000920E-02 0. -1.
       -2    1    3    3    0  502 -0.37754964959E+03 -0.18435908781E+03 -0.73037195256E+03  0.84260026125E+03  0.25500000920E-02 0.  1.
</event>
<event>
 5   0  0.1712327E-04  0.1399591E+04  0.7818609E-02  0.8954114E-01
        2   -1    0    0  501    0  0.00000000000E+00  0.00000000000E+00  0.13845369688E+04  0.13845369688E+04  0.25500000920E-02 0. -1.
       -2   -1    0    0    0  501  0.00000000000E+00  0.00000000000E+00 -0.35370233194E+03  0.35370233195E+03  0.25500000920E-02 0.  1.
    10030    2    1    2    0    0  0.00000000000E+00  0.00000000000E+00  0.10308346369E+04  0.17382393007E+04  0.13995913040E+04 0.  0.
        1    1    3    3  502    0 -0.38115027953E+03 -0.27903954730E+03 -0.12581931223E+03  0.48884466233E+03  0.50400001928E-02 0.  1.
       -1    1    3    3    0  502  0.38115027953E+03  0.27903954730E+03  0.11566539491E+04  0.12493946384E+04  0.50400001928E-02 0. -1.
</event>
<event>
 5   0  0.1766237E-04  0.1400256E+04  0.7818609E-02  0.8953633E-01
       -2   -1    0    0    0  501  0.00000000000E+00  0.00000000000E+00  0.98493115428E+03  0.98493115428E+03  0.25500000920E-02 0.  1.
        2   -1    0    0  501    0  0.00000000000E+00  0.00000000000E+00 -0.49767866062E+03  0.49767866063E+03  0.25500000920E-02 0. -1.
    10030    2    1    2    0    0  0.00000000000E+00  0.00000000000E+00  0.48725249366E+03  0.14826098149E+04  0.14002560018E+04 0.  0.
        3    1    3    3  502    0 -0.51137987679E+03  0.42414727947E+02 -0.26069672229E+03  0.57556162029E+03  0.10100000352E+00 0. -1.
       -3    1    3    3    0  502  0.51137987679E+03 -0.42414727947E+02  0.74794921595E+03  0.90704819463E+03  0.10100000352E+00 0.  1.
</event>
<event>
 5   0  0.1794185E-04  0.1400005E+04  0.7818609E-02  0.8953815E-01
        2   -1    0    0  501    0  0.00000000000E+00  0.00000000000E+00  0.89670457014E+03  0.89670457014E+03  0.25500000920E-02 0.  1.
       -2   -1    0    0    0  501  0.00000000000E+00  0.00000000000E+00 -0.54644924087E+03  0.54644924088E+03  0.25500000920E-02 0. -1.
    10030    2    1    2    0    0  0.00000000000E+00  0.00000000000E+00  0.35025532926E+03  0.14431538110E+04  0.14000050452E+04 0.  0.
        2    1    3    3  502    0 -0.53110381838E+03  0.42767889443E+03  0.12065591543E+02  0.68200152576E+03  0.25500000920E-02 0. -1.
       -2    1    3    3    0  502  0.53110381838E+03 -0.42767889443E+03  0.33818973772E+03  0.76115228525E+03  0.25500000920E-02 0.  1.
</event>
<event>
 5   0  0.6671375E-05  0.1399422E+04  0.7818609E-02  0.8954237E-01
       -1   -1    0    0    0  501  0.00000000000E+00  0.00000000000E+00  0.23255417374E+03  0.23255417379E+03  0.50400001928E-02 0.  1.
        1   -1    0    0  501    0  0.00000000000E+00  0.00000000000E+00 -0.21052974853E+04  0.21052974853E+04  0.50400001928E-02 0. -1.
    10030    2    1    2    0    0  0.00000000000E+00  0.00000000000E+00 -0.18727433115E+04  0.23378516591E+04  0.13994223340E+04 0.  0.
        5    1    3    3  502    0  0.68042733180E+03 -0.12694970190E+03 -0.76538317238E+03  0.10319549754E+04  0.46999998093E+01 0.  1.
       -5    1    3    3    0  502 -0.68042733180E+03  0.12694970190E+03 -0.11073601392E+04  0.13058966837E+04  0.46999998093E+01 0. -1.
</event>
<event>
 5   0  0.1833681E-04  0.1400282E+04  0.7818609E-02  0.8953614E-01
       -2   -1    0    0    0  501  0.00000000000E+00  0.00000000000E+00  0.18137680948E+03  0.18137680950E+03  0.25500000920E-02 0.  1.
        2   -1    0    0  501    0  0.00000000000E+00  0.00000000000E+00 -0.27026470222E+04  0.27026470222E+04  0.25500000920E-02 0. -1.
    10030    2    1    2    0    0  0.00000000000E+00  0.00000000000E+00 -0.25212702127E+04  0.28840238317E+04  0.14002821060E+04 0.  0.
        4    1    3    3  502    0  0.44381363465E+03 -0.22144520033E+03 -0.24287623316E+03  0.55226714241E+03  0.12699999809E+01 0.  1.
       -4    1    3    3    0  502 -0.44381363465E+03  0.22144520033E+03 -0.22783939796E+04  0.23317566893E+04  0.12699999809E+01 0. -1.
</event>
<event>
 5   0  0.9900839E-05  0.1399853E+04  0.7818609E-02  0.8953925E-01
       -1   -1    0    0    0  501  0.00000000000E+00  0.00000000000E+00  0.37062350926E+03  0.37062350929E+03  0.50400001928E-02 0.  1.
        1   -1    0    0  501    0  0.00000000000E+00  0.00000000000E+00 -0.13218185074E+04  0.13218185074E+04  0.50400001928E-02 0. -1.
    10030    2    1    2    0    0  0.00000000000E+00  0.00000000000E+00 -0.95119499811E+03  0.16924420167E+04  0.13998528692E+04 0.  0.
        3    1    3    3  502    0 -0.13030732655E+03  0.11008552143E+03  0.34510694565E+03  0.38496446008E+03  0.10100000352E+00 0.  1.
       -3    1    3    3    0  502  0.13030732655E+03 -0.11008552143E+03 -0.12963019438E+04  0.13074775566E+04  0.10100000352E+00 0. -1.
</event>
<event>
 5   0  0.9260916E-05  0.1401092E+04  0.7818609E-02  0.8953029E-01
        1   -1    0    0  501    0  0.00000000000E+00  0.00000000000E+00  0.14255406470E+04  0.14255406470E+04  0.50400001928E-02 0. -1.
       -1   -1    0    0    0  501  0.00000000000E+00  0.00000000000E+00 -0.34426559178E+03  0.34426559182E+03  0.50400001928E-02 0.  1.
    10030    2    1    2    0    0  0.00000000000E+00  0.00000000000E+00  0.10812750552E+04  0.17698062388E+04  0.14010918521E+04 0.  0.
        1    1    3    3  502    0  0.25242294693E+03  0.43463272769E+03  0.11570576203E+04  0.12615091315E+04  0.50400001928E-02 0. -1.
       -1    1    3    3    0  502 -0.25242294693E+03 -0.43463272769E+03 -0.75782565092E+02  0.50829710733E+03  0.50400001928E-02 0.  1.
</event>
<event>
 5   0  0.1766237E-04  0.1403291E+04  0.7818609E-02  0.8951440E-01
       -2   -1    0    0    0  501  0.00000000000E+00  0.00000000000E+00  0.10305161048E+04  0.10305161048E+04  0.25500000920E-02 0.  1.
        2   -1    0    0  501    0  0.00000000000E+00  0.00000000000E+00 -0.47772782935E+03  0.47772782936E+03  0.25500000920E-02 0. -1.
    10030    2    1    2    0    0  0.00000000000E+00  0.00000000000E+00  0.55278827545E+03  0.15082439342E+04  0.14032907352E+04 0.  0.
        3    1    3    3  502    0  0.20244667429E+03 -0.50044172736E+03  0.75811103770E+03  0.93067660016E+03  0.10100000352E+00 0.  1.
       -3    1    3    3    0  502 -0.20244667429E+03  0.50044172736E+03 -0.20532276224E+03  0.57756733400E+03  0.10100000352E+00 0. -1.
</event>
<event>
 5   0  0.6671375E-05  0.1399747E+04  0.7818609E-02  0.8954002E-01
       -1   -1    0    0    0  501  0.00000000000E+00  0.00000000000E+00  0.36071371314E+03  0.36071371318E+03  0.50400001928E-02 0. -1.
        1   -1    0    0  501    0  0.00000000000E+00  0.00000000000E+00 -0.13579271973E+04  0.13579271973E+04  0.50400001928E-02 0.  1.
    10030    2    1    2    0    0  0.00000000000E+00  0.00000000000E+00 -0.99721348413E+03  0.17186409105E+04  0.13997470651E+04 0.  0.
        5    1    3    3  502    0  0.30066525972E+02  0.53815135825E+03  0.49516633867E+02  0.54128076578E+03  0.46999998093E+01 0. -1.
       -5    1    3    3    0  502 -0.30066525972E+02 -0.53815135825E+03 -0.10467301180E+04  0.11773601447E+04  0.46999998093E+01 0.  1.
</event>
<event>
 5   0  0.9900839E-05  0.1388836E+04  0.7818609E-02  0.8961940E-01
       -1   -1    0    0    0  501  0.00000000000E+00  0.00000000000E+00  0.31452481306E+03  0.31452481310E+03  0.50400001928E-02 0. -1.
        1   -1    0    0  501    0  0.00000000000E+00  0.00000000000E+00 -0.15331581284E+04  0.15331581284E+04  0.50400001928E-02 0.  1.
    10030    2    1    2    0    0  0.00000000000E+00  0.00000000000E+00 -0.12186333153E+04  0.18476829415E+04  0.13888358777E+04 0.  0.
        3    1    3    3  502    0 -0.63433924726E+03  0.17153003646E+03 -0.90800880022E+03  0.11208429085E+04  0.10100000352E+00 0.  1.
       -3    1    3    3    0  502  0.63433924726E+03 -0.17153003646E+03 -0.31062451512E+03  0.72684003303E+03  0.10100000352E+00 0. -1.
</event>
<event>
 5   0  0.9828111E-05  0.1397823E+04  0.7818609E-02  0.8955396E-01
       -1   -1    0    0    0  501  0.00000000000E+00  0.00000000000E+00  0.35588907305E+03  0.35588907308E+03  0.50400001928E-02 0.  1.
        1   -1    0    0  501    0  0.00000000000E+00  0.00000000000E+00 -0.13725548808E+04  0.13725548809E+04  0.50400001928E-02 0. -1.
    10030    2    1    2    0    0  0.00000000000E+00  0.00000000000E+00 -0.10166658078E+04  0.17284439539E+04  0.13978229992E+04 0.  0.
        4    1    3    3  502    0 -0.29563334337E+03 -0.35451069401E+03  0.14057656954E+03  0.48253527403E+03  0.12699999809E+01 0.  1.
       -4    1    3    3    0  502  0.29563334337E+03  0.35451069401E+03 -0.11572423773E+04  0.12459086799E+04  0.12699999809E+01 0. -1.
</event>
<event>
 5   0  0.6671375E-05  0.1394284E+04  0.7818609E-02  0.8957966E-01
       -1   -1    0    0    0  501  0.00000000000E+00  0.00000000000E+00  0.93797472595E+03  0.93797472597E+03  0.50400001928E-02 0. -1.
        1   -1    0    0  501    0  0.00000000000E+00  0.00000000000E+00 -0.51814516286E+03  0.51814516289E+03  0.50400001928E-02 0.  1.
    10030    2    1    2    0    0  0.00000000000E+00  0.00000000000E+00  0.41982956309E+03  0.14561198889E+04  0.13942841420E+04 0.  0.
        5    1    3    3  502    0  0.37031720278E+03  0.36353607469E+03  0.69606104617E+03  0.86822599493E+03  0.46999998093E+01 0.  1.
       -5    1    3    3    0  502 -0.37031720278E+03 -0.36353607469E+03 -0.27623148308E+03  0.58789389393E+03  0.46999998093E+01 0. -1.
</event>
<event>
 5   0  0.9828111E-05  0.1401222E+04  0.7818609E-02  0.8952935E-01
        1   -1    0    0  501    0  0.00000000000E+00  0.00000000000E+00  0.50121555390E+03  0.50121555392E+03  0.50400001928E-02 0. -1.
       -1   -1    0    0    0  501  0.00000000000E+00  0.00000000000E+00 -0.97933028884E+03  0.97933028885E+03  0.50400001928E-02 0.  1.
    10030    2    1    2    0    0  0.00000000000E+00  0.00000000000E+00 -0.47811473494E+03  0.14805458428E+04  0.14012217144E+04 0.  0.
        4    1    3    3  502    0  0.63952692057E+03 -0.58537428738E+02  0.56855219035E+02  0.64471345691E+03  0.12699999809E+01 0. -1.
       -4    1    3    3    0  502 -0.63952692057E+03  0.58537428738E+02 -0.53496995397E+03  0.83583238586E+03  0.12699999809E+01 0.  1.
</event>
<event>
 5   0  0.1766237E-04  0.1399484E+04  0.7818609E-02  0.8954192E-01
        2   -1    0    0  501    0  0.00000000000E+00  0.00000000000E+00  0.10978875699E+04  0.10978875699E+04  0.25500000920E-02 0.  1.
       -2   -1    0    0    0  501  0.00000000000E+00  0.00000000000E+00 -0.44598289948E+03  0.44598289949E+03  0.25500000920E-02 0. -1.
    10030    2    1    2    0    0  0.00000000000E+00  0.00000000000E+00  0.65190467040E+03  0.15438704694E+04  0.13994843075E+04 0.  0.
        3    1    3    3  502    0  0.12696107782E+03 -0.42593639154E+03 -0.27026860886E+03  0.52017886928E+03  0.10100000352E+00 0. -1.
       -3    1    3    3    0  502 -0.12696107782E+03  0.42593639154E+03  0.92217327926E+03  0.10236916001E+04  0.10100000352E+00 0.  1.
</event>
<event>
 5   0  0.9260916E-05  0.1399850E+04  0.7818609E-02  0.8953927E-01
        1   -1    0    0  501    0  0.00000000000E+00  0.00000000000E+00  0.11112566666E+04  0.11112566666E+04  0.50400001928E-02 0.  1.
       -1   -1    0    0    0  501  0.00000000000E+00  0.00000000000E+00 -0.44084795266E+03  0.44084795269E+03  0.50400001928E-02 0. -1.
    10030    2    1    2    0    0  0.00000000000E+00  0.00000000000E+00  0.67040871394E+03  0.15521046193E+04  0.13998503154E+04 0.  0.
        1    1    3    3  502    0 -0.20371580249E+03  0.14075440510E+02  0.10774947759E+04  0.10966737155E+04  0.50400001928E-02 0.  1.
       -1    1    3    3    0  502  0.20371580249E+03 -0.14075440510E+02 -0.40708606198E+03  0.45543090375E+03  0.50400001928E-02 0. -1.
</event>
<event>
 5   0  0.1766237E-04  0.1399244E+04  0.7818609E-02  0.8954366E-01
       -2   -1    0    0    0  501  0.00000000000E+00  0.00000000000E+00  0.54813319871E+03  0.54813319871E+03  0.25500000920E-02 0.  1.
        2   -1    0    0  501    0  0.00000000000E+00  0.00000000000E+00 -0.89297765321E+03  0.89297765322E+03  0.25500000920E-02 0. -1.
    10030    2    1    2    0    0  0.00000000000E+00  0.00000000000E+00 -0.34484445450E+03  0.14411108519E+04  0.13992436492E+04 0.  0.
        3    1    3    3  502    0  0.14669007970E+03  0.86400000771E+02  0.52647462382E+03  0.55331589471E+03  0.10100000352E+00 0.  1.
       -3    1    3    3    0  502 -0.14669007970E+03 -0.86400000771E+02 -0.87131907832E+03  0.88779495722E+03  0.10100000352E+00 0. -1.
</event>
<event>
 5   0  0.1833681E-04  0.1399796E+04  0.7818609E-02  0.8953966E-01
        2   -1    0    0  501    0  0.00000000000E+00  0.00000000000E+00  0.20228508124E+04  0.20228508124E+04  0.25500000920E-02 0. -1.
       -2   -1    0    0    0  501  0.00000000000E+00  0.00000000000E+00 -0.24216169905E+03  0.24216169906E+03  0.25500000920E-02 0.  1.
    10030    2    1    2    0    0  0.00000000000E+00  0.00000000000E+00  0.17806891134E+04  0.22650125115E+04  0.13997956846E+04 0.  0.
        4    1    3    3  502    0  0.56536573557E+03 -0.15548901581E+03  0.15087055087E+04  0.16186442394E+04  0.12699999809E+01 0. -1.
       -4    1    3    3    0  502 -0.56536573557E+03  0.15548901581E+03  0.27198360468E+03  0.64636827205E+03  0.12699999809E+01 0.  1.
</event>
<event>
 5   0  0.9828111E-05  0.1398523E+04  0.7818609E-02  0.8954888E-01
       -1   -1    0    0    0  501  0.00000000000E+00  0.00000000000E+00  0.29932600962E+03  0.29932600966E+03  0.50400001928E-02 0.  1.
        1   -1    0    0  501    0  0.00000000000E+00  0.00000000000E+00 -0.16335597871E+04  0.16335597871E+04  0.50400001928E-02 0. -1.
    10030    2    1    2    0    0  0.00000000000E+00  0.00000000000E+00 -0.13342337775E+04  0.19328857968E+04  0.13985234107E+04 0.  0.
        4    1    3    3  502    0  0.49843549202E+03 -0.16421933940E+03 -0.28418547159E+02  0.52556175456E+03  0.12699999809E+01 0.  1.
       -4    1    3    3    0  502 -0.49843549202E+03  0.16421933940E+03 -0.13058152303E+04  0.14073240422E+04  0.12699999809E+01 0. -1.
</event>
<event>
 5   0  0.9260916E-05  0.1399248E+04  0.7818609E-02  0.8954363E-01
       -1   -1    0    0    0  501  0.00000000000E+00  0.00000000000E+00  0.67390669580E+03  0.67390669582E+03  0.50400001928E-02 0. -1.
        1   -1    0    0  501    0  0.00000000000E+00  0.00000000000E+00 -0.72632242272E+03  0.72632242274E+03  0.50400001928E-02 0.  1.
    10030    2    1    2    0    0  0.00000000000E+00  0.00000000000E+00 -0.52415726922E+02  0.14002291186E+04  0.13992477179E+04 0.  0.
        1    1    3    3  502    0  0.54376868048E+03 -0.43569795669E+03 -0.89152351184E+02  0.70247080301E+03  0.50400001928E-02 0.  1.
       -1    1    3    3    0  502 -0.54376868048E+03  0.43569795669E+03  0.36736624262E+02  0.69775831555E+03  0.50400001928E-02 0. -1.
</event>
<event>
 5   0  0.1794185E-04  0.1398515E+04  0.7818609E-02  0.8954894E-01
        2   -1    0    0  501    0  0.00000000000E+00  0.00000000000E+00  0.19880428425E+04  0.19880428425E+04  0.25500000920E-02 0. -1.
       -2   -1    0    0    0  501  0.00000000000E+00  0.00000000000E+00 -0.24595091066E+03  0.24595091067E+03  0.25500000920E-02 0.  1.
    10030    2    1    2    0    0  0.00000000000E+00  0.00000000000E+00  0.17420919318E+04  0.22339937531E+04  0.13985148516E+04 0.  0.
        2    1    3    3  502    0  0.33247501749E+03 -0.27461914783E+03  0.17503523442E+04  0.18026892806E+04  0.25500000920E-02 0. -1.
       -2    1    3    3    0  502 -0.33247501749E+03  0.27461914783E+03 -0.82604123753E+01  0.43130447254E+03  0.25500000920E-02 0.  1.
</event>
<event>
 5   0  0.1766237E-04  0.1401154E+04  0.7818609E-02  0.8952984E-01
       -2   -1    0    0    0  501  0.00000000000E+00  0.00000000000E+00  0.29295763487E+03  0.29295763488E+03  0.25500000920E-02 0. -1.
        2   -1    0    0  501    0  0.00000000000E+00  0.00000000000E+00 -0.16753551136E+04  0.16753551136E+04  0.25500000920E-02 0.  1.
    10030    2    1    2    0    0  0.00000000000E+00  0.00000000000E+00 -0.13823974788E+04  0.19683127485E+04  0.14011539126E+04 0.  0.
        3    1    3    3  502    0 -0.23892339756E+02 -0.58141484686E+03 -0.14316535152E+03  0.59925820489E+03  0.10100000352E+00 0. -1.
       -3    1    3    3    0  502  0.23892339756E+02  0.58141484686E+03 -0.12392321272E+04  0.13690545436E+04  0.10100000352E+00 0.  1.
</event>
<event>
 5   0  0.9828111E-05  0.1408003E+04  0.7818609E-02  0.8948046E-01
        1   -1    0    0  501    0  0.00000000000E+00  0.00000000000E+00  0.12472908844E+04  0.12472908844E+04  0.50400001928E-02 0. -1.
       -1   -1    0    0    0  501  0.00000000000E+00  0.00000000000E+00 -0.39735547383E+03  0.39735547386E+03  0.50400001928E-02 0.  1.
    10030    2    1    2    0    0  0.00000000000E+00  0.00000000000E+00  0.84993541053E+03  0.16446463582E+04  0.14080026426E+04 0.  0.
        4    1    3    3  502    0 -0.45536737647E+03  0.90872158621E+02  0.10430514717E+04  0.11417421698E+04  0.12699999809E+01 0. -1.
       -4    1    3    3    0  502  0.45536737647E+03 -0.90872158621E+02 -0.19311606117E+03  0.50290418844E+03  0.12699999809E+01 0.  1.
</event>
<event>
 5   0  0.9978422E-05  0.1401193E+04  0.7818609E-02  0.8952956E-01
        1   -1    0    0  501    0  0.00000000000E+00  0.00000000000E+00  0.55267880927E+03  0.55267880929E+03  0.50400001928E-02 0. -1.
       -1   -1    0    0    0  501  0.00000000000E+00  0.00000000000E+00 -0.88810219717E+03  0.88810219719E+03  0.50400001928E-02 0.  1.
    10030    2    1    2    0    0  0.00000000000E+00  0.00000000000E+00 -0.33542338790E+03  0.14407810065E+04  0.14011927275E+04 0.  0.
        2    1    3    3  502    0  0.23235446590E+03  0.44386141411E+03  0.33585293235E+03  0.60315731359E+03  0.25500000920E-02 0. -1.
       -2    1    3    3    0  502 -0.23235446590E+03 -0.44386141411E+03 -0.67127632025E+03  0.83762369289E+03  0.25500000920E-02 0.  1.
</event>
<event>
 5   0  0.9260916E-05  0.1399299E+04  0.7818609E-02  0.8954326E-01
       -1   -1    0    0    0  501  0.00000000000E+00  0.00000000000E+00  0.31895917217E+03  0.31895917221E+03  0.50400001928E-02 0.  1.
        1   -1    0    0  501    0  0.00000000000E+00  0.00000000000E+00 -0.15347091038E+04  0.15347091038E+04  0.50400001928E-02 0. -1.
    10030    2    1    2    0    0  0.00000000000E+00  0.00000000000E+00 -0.12157499316E+04  0.18536682760E+04  0.13992991750E+04 0.  0.
        1    1    3    3  502    0 -0.61396423632E+03  0.65960704568E+02 -0.10436360168E+04  0.12126330993E+04  0.50400001928E-02 0. -1.
       -1    1    3    3    0  502  0.61396423632E+03 -0.65960704568E+02 -0.17211391483E+03  0.64103517667E+03  0.50400001928E-02 0.  1.
</event>
<event>
 5   0  0.1794185E-04  0.1396301E+04  0.7818609E-02  0.8956500E-01
        2   -1    0    0  501    0  0.00000000000E+00  0.00000000000E+00  0.14227405135E+04  0.14227405135E+04  0.25500000920E-02 0. -1.
       -2   -1    0    0    0  501  0.00000000000E+00  0.00000000000E+00 -0.34258817618E+03  0.34258817619E+03  0.25500000920E-02 0.  1.
    10030    2    1    2    0    0  0.00000000000E+00  0.00000000000E+00  0.10801523374E+04  0.17653286897E+04  0.13963009385E+04 0.  0.
        2    1    3    3  502    0  0.40467326597E+02 -0.26681485413E+03  0.13541316902E+04  0.13807608067E+04  0.25500000920E-02 0. -1.
       -2    1    3    3    0  502 -0.40467326597E+02  0.26681485413E+03 -0.27397935281E+03  0.38456788306E+03  0.25500000920E-02 0.  1.
</event>
<event>
 5   0  0.6671375E-05  0.1402301E+04  0.7818609E-02  0.8952154E-01
       -3   -1    0    0    0  501  0.00000000000E+00  0.00000000000E+00  0.32350891388E+03  0.32350892965E+03  0.10100000352E+00 0. -1.
        3   -1    0    0  501    0  0.00000000000E+00  0.00000000000E+00 -0.15196251601E+04  0.15196251635E+04  0.10100000352E+00 0.  1.
    10030    2    1    2    0    0  0.00000000000E+00  0.00000000000E+00 -0.11961162463E+04  0.18431340931E+04  0.14023013980E+04 0.  0.
        4    1    3    3  502    0 -0.27288595304E+03 -0.64521078655E+03 -0.63631011221E+03  0.94639097325E+03  0.12699999809E+01 0.  1.
       -4    1    3    3    0  502  0.27288595304E+03  0.64521078655E+03 -0.55980613404E+03  0.89674311989E+03  0.12699999809E+01 0. -1.
</event>
<event>
 5   0  0.6671375E-05  0.1399351E+04  0.7818609E-02  0.8954288E-01
       -1   -1    0    0    0  501  0.00000000000E+00  0.00000000000E+00  0.30111988175E+03  0.30111988179E+03  0.50400001928E-02 0. -1.
        1   -1    0    0  501    0  0.00000000000E+00  0.00000000000E+00 -0.16257512854E+04  0.16257512854E+04  0.50400001928E-02 0.  1.
    10030    2    1    2    0    0  0.00000000000E+00  0.00000000000E+00 -0.13246314036E+04  0.19268711672E+04  0.13993513281E+04 0.  0.
        5    1    3    3  502    0 -0.37847973875E+01 -0.50155691365E+03 -0.13340059240E+04  0.14251903584E+04  0.46999998093E+01 0.  1.
       -5    1    3    3    0  502  0.37847973875E+01  0.50155691365E+03  0.93745203435E+01  0.50168080883E+03  0.46999998093E+01 0. -1.
</event>
<event>
 5   0  0.9900839E-05  0.1397814E+04  0.7818609E-02  0.8955403E-01
        1   -1    0    0  501    0  0.00000000000E+00  0.00000000000E+00  0.12438291059E+04  0.12438291059E+04  0.50400001928E-02 0. -1.
       -1   -1    0    0    0  501  0.00000000000E+00  0.00000000000E+00 -0.39271538299E+03  0.39271538302E+03  0.50400001928E-02 0.  1.
    10030    2    1    2    0    0  0.00000000000E+00  0.00000000000E+00  0.85111372293E+03  0.16365444889E+04  0.13978137554E+04 0.  0.
        3    1    3    3  502    0  0.34550574050E+02 -0.52369557353E+03  0.96592373110E+03  0.10992995317E+04  0.10100000352E+00 0. -1.
       -3    1    3    3    0  502 -0.34550574050E+02  0.52369557353E+03 -0.11481000817E+03  0.53724495724E+03  0.10100000352E+00 0.  1.
</event>
<event>
 5   0  0.1766237E-04  0.1398193E+04  0.7818609E-02  0.8955128E-01
       -2   -1    0    0    0  501  0.00000000000E+00  0.00000000000E+00  0.81122520467E+03  0.81122520467E+03  0.25500000920E-02 0.  1.
        2   -1    0    0  501    0  0.00000000000E+00  0.00000000000E+00 -0.60246637636E+03  0.60246637637E+03  0.25500000920E-02 0. -1.
    10030    2    1    2    0    0  0.00000000000E+00  0.00000000000E+00  0.20875882831E+03  0.14136915810E+04  0.13981929902E+04 0.  0.
        3    1    3    3  502    0  0.51898793056E+03  0.87286729164E+02 -0.36090465643E+03  0.63813762340E+03  0.10100000352E+00 0. -1.
       -3    1    3    3    0  502 -0.51898793056E+03 -0.87286729164E+02  0.56966348474E+03  0.77555395764E+03  0.10100000352E+00 0.  1.
</event>
<event>
 5   0  0.1766237E-04  0.1407962E+04  0.7818609E-02  0.8948075E-01
       -2   -1    0    0    0  501  0.00000000000E+00  0.00000000000E+00  0.78632167617E+03  0.78632167617E+03  0.25500000920E-02 0.  1.
        2   -1    0    0  501    0  0.00000000000E+00  0.00000000000E+00 -0.63026271194E+03  0.63026271194E+03  0.25500000920E-02 0. -1.
    10030    2    1    2    0    0  0.00000000000E+00  0.00000000000E+00  0.15605896423E+03  0.14165843881E+04  0.14079619769E+04 0.  0.
        3    1    3    3  502    0  0.37052277121E+03 -0.58380517980E+03 -0.54967823634E+02  0.69364045714E+03  0.10100000352E+00 0.  1.
       -3    1    3    3    0  502 -0.37052277121E+03  0.58380517980E+03  0.21102678786E+03  0.72294393098E+03  0.10100000352E+00 0. -1.
</event>
<event>
 5   0  0.9260916E-05  0.1402335E+04  0.7818609E-02  0.8952130E-01
        1   -1    0    0  501    0  0.00000000000E+00  0.00000000000E+00  0.63696860135E+03  0.63696860137E+03  0.50400001928E-02 0.  1.
       -1   -1    0    0    0  501  0.00000000000E+00  0.00000000000E+00 -0.77183730739E+03  0.77183730741E+03  0.50400001928E-02 0. -1.
    10030    2    1    2    0    0  0.00000000000E+00  0.00000000000E+00 -0.13486870604E+03  0.14088059088E+04  0.14023353810E+04 0.  0.
        1    1    3    3  502    0  0.13456616904E+03  0.77001917412E+01 -0.75869995778E+03  0.77057963428E+03  0.50400001928E-02 0. -1.
       -1    1    3    3    0  502 -0.13456616904E+03 -0.77001917412E+01  0.62383125174E+03  0.63822627451E+03  0.50400001928E-02 0.  1.
</event>
<event>
 5   0  0.6671375E-05  0.1401777E+04  0.7818609E-02  0.8952533E-01
        3   -1    0    0  501    0  0.00000000000E+00  0.00000000000E+00  0.11439551151E+04  0.11439551196E+04  0.10100000352E+00 0.  1.
       -3   -1    0    0    0  501  0.00000000000E+00  0.00000000000E+00 -0.42942669014E+03  0.42942670202E+03  0.10100000352E+00 0. -1.
    10030    2    1    2    0    0  0.00000000000E+00  0.00000000000E+00  0.71452842499E+03  0.15733818216E+04  0.14017772599E+04 0.  0.
        5    1    3    3  502    0  0.15613043210E+03 -0.26904766101E+03 -0.34768249563E+03  0.46654963668E+03  0.46999998093E+01 0. -1.
       -5    1    3    3    0  502 -0.15613043210E+03  0.26904766101E+03  0.10622109206E+04  0.11068321849E+04  0.46999998093E+01 0.  1.
</event>
<event>
 5   0  0.1712327E-04  0.1395544E+04  0.7818609E-02  0.8957051E-01
       -2   -1    0    0    0  501  0.00000000000E+00  0.00000000000E+00  0.65348042005E+03  0.65348042005E+03  0.25500000920E-02 0. -1.
        2   -1    0    0  501    0  0.00000000000E+00  0.00000000000E+00 -0.74506506013E+03  0.74506506013E+03  0.25500000920E-02 0.  1.
    10030    2    1    2    0    0  0.00000000000E+00  0.00000000000E+00 -0.91584640080E+02  0.13985454802E+04  0.13955435192E+04 0.  0.
        1    1    3    3  502    0  0.71675942529E+02  0.36508965430E+02 -0.74040311249E+03  0.74475976953E+03  0.50400001928E-02 0.  1.
       -1    1    3    3    0  502 -0.71675942529E+02 -0.36508965430E+02  0.64881847241E+03  0.65378571066E+03  0.50400001928E-02 0. -1.
</event>
<event>
 5   0  0.9978422E-05  0.1398987E+04  0.7818609E-02  0.8954552E-01
        1   -1    0    0  501    0  0.00000000000E+00  0.00000000000E+00  0.10392641279E+04  0.10392641280E+04  0.50400001928E-02 0.  1.
       -1   -1    0    0    0  501  0.00000000000E+00  0.00000000000E+00 -0.47080561869E+03  0.47080561872E+03  0.50400001928E-02 0. -1.
    10030    2    1    2    0    0  0.00000000000E+00  0.00000000000E+00  0.56845850925E+03  0.15100697467E+04  0.13989873349E+04 0.  0.
        2    1    3    3  502    0  0.50702767305E+03 -0.42214731170E+03  0.53507349669E+03  0.84946398445E+03  0.25500000920E-02 0.  1.
       -2    1    3    3    0  502 -0.50702767305E+03  0.42214731170E+03  0.33385012560E+02  0.66060576222E+03  0.25500000920E-02 0. -1.
</event>
<event>
 5   0  0.9260916E-05  0.1399061E+04  0.7818609E-02  0.8954498E-01
       -1   -1    0    0    0  501  0.00000000000E+00  0.00000000000E+00  0.96819943080E+03  0.96819943082E+03  0.50400001928E-02 0.  1.
        1   -1    0    0  501    0  0.00000000000E+00  0.00000000000E+00 -0.50541560339E+03  0.50541560341E+03  0.50400001928E-02 0. -1.
    10030    2    1    2    0    0  0.00000000000E+00  0.00000000000E+00  0.46278382742E+03  0.14736150342E+04  0.13990612561E+04 0.  0.
        1    1    3    3  502    0  0.50250559857E+03  0.41749667481E+03  0.49477247113E+03  0.81952129215E+03  0.50400001928E-02 0. -1.
       -1    1    3    3    0  502 -0.50250559857E+03 -0.41749667481E+03 -0.31988643710E+02  0.65409374208E+03  0.50400001928E-02 0.  1.
</event>
<event>
 5   0  0.6671375E-05  0.1399800E+04  0.7818609E-02  0.8953964E-01
        4   -1    0    0  501    0  0.00000000000E+00  0.00000000000E+00  0.10724119362E+04  0.10724126882E+04  0.12699999809E+01 0.  1.
       -4   -1    0    0    0  501  0.00000000000E+00  0.00000000000E+00 -0.45678148065E+03  0.45678324616E+03  0.12699999809E+01 0. -1.
    10030    2    1    2    0    0  0.00000000000E+00  0.00000000000E+00  0.61563045556E+03  0.15291959344E+04  0.13997997528E+04 0.  0.
        4    1    3    3  502    0 -0.24828372611E+03 -0.26519313629E+03  0.96135133471E+03  0.10277014206E+04  0.12699999809E+01 0.  1.
       -4    1    3    3    0  502  0.24828372611E+03  0.26519313629E+03 -0.34572087915E+03  0.50149451380E+03  0.12699999809E+01 0. -1.
</event>
<event>
 5   0  0.1712327E-04  0.1398837E+04  0.7818609E-02  0.8954661E-01
        2   -1    0    0  501    0  0.00000000000E+00  0.00000000000E+00  0.38060551732E+03  0.38060551733E+03  0.25500000920E-02 0. -1.
       -2   -1    0    0    0  501  0.00000000000E+00  0.00000000000E+00 -0.12852842537E+04  0.12852842537E+04  0.25500000920E-02 0.  1.
    10030    2    1    2    0    0  0.00000000000E+00  0.00000000000E+00 -0.90467873637E+03  0.16658897710E+04  0.13988370574E+04 0.  0.
        1    1    3    3  502    0  0.16874942823E+03  0.64042335791E+03 -0.18453583825E+03  0.68751139809E+03  0.50400001928E-02 0. -1.
       -1    1    3    3    0  502 -0.16874942823E+03 -0.64042335791E+03 -0.72014289812E+03  0.97837837293E+03  0.50400001928E-02 0.  1.
</event>
<event>
 5   0  0.9978422E-05  0.1399840E+04  0.7818609E-02  0.8953934E-01
       -1   -1    0    0    0  501  0.00000000000E+00  0.00000000000E+00  0.73217211544E+03  0.73217211546E+03  0.50400001928E-02 0. -1.
        1   -1    0    0  501    0  0.00000000000E+00  0.00000000000E+00 -0.66908842648E+03  0.66908842650E+03  0.50400001928E-02 0.  1.
    10030    2    1    2    0    0  0.00000000000E+00  0.00000000000E+00  0.63083688958E+02  0.14012605420E+04  0.13998398318E+04 0.  0.
        2    1    3    3  502    0  0.68958387865E+03  0.11335226202E+03 -0.73978625783E+01  0.69887723484E+03  0.25500000920E-02 0.  1.
       -2    1    3    3    0  502 -0.68958387865E+03 -0.11335226202E+03  0.70481551536E+02  0.70238330712E+03  0.25500000920E-02 0. -1.
</event>
<event>
 5   0  0.9978422E-05  0.1398815E+04  0.7818609E-02  0.8954677E-01
       -1   -1    0    0    0  501  0.00000000000E+00  0.00000000000E+00  0.54749860896E+03  0.54749860899E+03  0.50400001928E-02 0. -1.
        1   -1    0    0  501    0  0.00000000000E+00  0.00000000000E+00 -0.89346523911E+03  0.89346523912E+03  0.50400001928E-02 0.  1.
    10030    2    1    2    0    0  0.00000000000E+00  0.00000000000E+00 -0.34596663014E+03  0.14409638481E+04  0.13988151781E+04 0.  0.
        2    1    3    3  502    0 -0.86856866923E+02 -0.37422493045E+03 -0.77504445233E+03  0.86503313057E+03  0.25500000920E-02 0.  1.
       -2    1    3    3    0  502  0.86856866923E+02  0.37422493045E+03  0.42907782218E+03  0.57593071753E+03  0.25500000920E-02 0. -1.
</event>
<event>
 5   0  0.1794185E-04  0.1399787E+04  0.7818609E-02  0.8953972E-01
       -2   -1    0    0    0  501  0.00000000000E+00  0.00000000000E+00  0.27570414713E+03  0.27570414714E+03  0.25500000920E-02 0.  1.
        2   -1    0    0  501    0  0.00000000000E+00  0.00000000000E+00 -0.17767278970E+04  0.17767278970E+04  0.25500000920E-02 0. -1.
    10030    2    1    2    0    0  0.00000000000E+00  0.00000000000E+00 -0.15010237499E+04  0.20524320442E+04  0.13997874832E+04 0.  0.
        2    1    3    3  502    0 -0.43432682169E+03 -0.38862948914E+03 -0.18229951028E+03  0.61066011768E+03  0.25500000920E-02 0.  1.
       -2    1    3    3    0  502  0.43432682169E+03  0.38862948914E+03 -0.13187242396E+04  0.14417719265E+04  0.25500000920E-02 0. -1.
</event>
<event>
 5   0  0.6671375E-05  0.1402745E+04  0.7818609E-02  0.8951834E-01
        1   -1    0    0  501    0  0.00000000000E+00  0.00000000000E+00  0.12798829874E+04  0.12798829875E+04  0.50400001928E-02 0.  1.
       -1   -1    0    0    0  501  0.00000000000E+00  0.00000000000E+00 -0.38435015677E+03  0.38435015680E+03  0.50400001928E-02 0. -1.
    10030    2    1    2    0    0  0.00000000000E+00  0.00000000000E+00  0.89553283068E+03  0.16642331443E+04  0.14027447764E+04 0.  0.
        5    1    3    3  502    0  0.42125728253E+02 -0.33146367300E+03 -0.28383563069E+03  0.43843756539E+03  0.46999998093E+01 0. -1.
       -5    1    3    3    0  502 -0.42125728253E+02  0.33146367300E+03  0.11793684614E+04  0.12257955789E+04  0.46999998093E+01 0.  1.
</event>
<event>
 5   0  0.9900839E-05  0.1400794E+04  0.7818609E-02  0.8953244E-01
       -1   -1    0    0    0  501  0.00000000000E+00  0.00000000000E+00  0.45870035904E+03  0.45870035907E+03  0.50400001928E-02 0. -1.
        1   -1    0    0  501    0  0.00000000000E+00  0.00000000000E+00 -0.10694479955E+04  0.10694479955E+04  0.50400001928E-02 0.  1.
    10030    2    1    2    0    0  0.00000000000E+00  0.00000000000E+00 -0.61074763644E+03  0.15281483546E+04  0.14007943169E+04 0.  0.
        3    1    3    3  502    0  0.12867991395E+03 -0.10123529007E+03  0.43753013709E+03  0.46716135893E+03  0.10100000352E+00 0. -1.
       -3    1    3    3    0  502 -0.12867991395E+03  0.10123529007E+03 -0.10482777735E+04  0.10609869956E+04  0.10100000352E+00 0.  1.
</event>
<event>
 5   0  0.1780171E-04  0.1401549E+04  0.7818609E-02  0.8952698E-01
       -2   -1    0    0    0  501  0.00000000000E+00  0.00000000000E+00  0.30092431241E+03  0.30092431242E+03  0.25500000920E-02 0.  1.
        2   -1    0    0  501    0  0.00000000000E+00  0.00000000000E+00 -0.16319211873E+04  0.16319211873E+04  0.25500000920E-02 0. -1.
    10030    2    1    2    0    0  0.00000000000E+00  0.00000000000E+00 -0.13309968749E+04  0.19328454997E+04  0.14015488021E+04 0.  0.
        5    1    3    3  502    0 -0.55402079390E+03  0.40866177521E+03 -0.48505942002E+03  0.84216875835E+03  0.46999998093E+01 0.  1.
       -5    1    3    3    0  502  0.55402079390E+03 -0.40866177521E+03 -0.84593745484E+03  0.10906767413E+04  0.46999998093E+01 0. -1.
</event>
<event>
 5   0  0.9900839E-05  0.1400072E+04  0.7818609E-02  0.8953766E-01
       -1   -1    0    0    0  501  0.00000000000E+00  0.00000000000E+00  0.19996305151E+03  0.19996305157E+03  0.50400001928E-02 0. -1.
        1   -1    0    0  501    0  0.00000000000E+00  0.00000000000E+00 -0.24507064321E+04  0.24507064322E+04  0.50400001928E-02 0.  1.
    10030    2    1    2    0    0  0.00000000000E+00  0.00000000000E+00 -0.22507433806E+04  0.26506694837E+04  0.14000724790E+04 0.  0.
        3    1    3    3  502    0 -0.14792880529E+03 -0.49086612981E+03 -0.20278289707E+04  0.20916316199E+04  0.10100000352E+00 0.  1.
       -3    1    3    3    0  502  0.14792880529E+03  0.49086612981E+03 -0.22291440997E+03  0.55903786384E+03  0.10100000352E+00 0. -1.
</event>
<event>
 5   0  0.1794185E-04  0.1401893E+04  0.7818609E-02  0.8952450E-01
       -2   -1    0    0    0  501  0.00000000000E+00  0.00000000000E+00  0.38077139320E+03  0.38077139321E+03  0.25500000920E-02 0.  1.
        2   -1    0    0  501    0  0.00000000000E+00  0.00000000000E+00 -0.12903429600E+04  0.12903429600E+04  0.25500000920E-02 0. -1.
    10030    2    1    2    0    0  0.00000000000E+00  0.00000000000E+00 -0.90957156676E+03  0.16711143532E+04  0.14018925588E+04 0.  0.
        2    1    3    3  502    0 -0.11658072530E+03  0.42640232678E+03  0.19366262048E+03  0.48261290946E+03  0.25500000920E-02 0.  1.
       -2    1    3    3    0  502  0.11658072530E+03 -0.42640232678E+03 -0.11032341872E+04  0.11885014437E+04  0.25500000920E-02 0. -1.
</event>
<event>
 5   0  0.1794185E-04  0.1391729E+04  0.7818609E-02  0.8959827E-01
        2   -1    0    0  501    0  0.00000000000E+00  0.00000000000E+00  0.14856800470E+04  0.14856800470E+04  0.25500000920E-02 0. -1.
       -2   -1    0    0    0  501  0.00000000000E+00  0.00000000000E+00 -0.32592984307E+03  0.32592984308E+03  0.25500000920E-02 0.  1.
    10030    2    1    2    0    0  0.00000000000E+00  0.00000000000E+00  0.11597502039E+04  0.18116098901E+04  0.13917290894E+04 0.  0.
        2    1    3    3  502    0 -0.19365851883E+03 -0.19048576542E+03  0.14138141258E+04  0.14396731681E+04  0.25500000920E-02 0. -1.
       -2    1    3    3    0  502  0.19365851883E+03  0.19048576542E+03 -0.25406392186E+03  0.37193672196E+03  0.25500000920E-02 0.  1.
</event>
<event>
 5   0  0.9260916E-05  0.1402700E+04  0.7818609E-02  0.8951866E-01
        1   -1    0    0  501    0  0.00000000000E+00  0.00000000000E+00  0.14667258392E+04  0.14667258392E+04  0.50400001928E-02 0.  1.
       -1   -1    0    0    0  501  0.00000000000E+00  0.00000000000E+00 -0.33536740413E+03  0.33536740417E+03  0.50400001928E-02 0. -1.
    10030    2    1    2    0    0  0.00000000000E+00  0.00000000000E+00  0.11313584351E+04  0.18020932434E+04  0.14027003063E+04 0.  0.
        1    1    3    3  502    0  0.21543688786E+03 -0.66393968623E+03  0.65340933110E+03  0.95612379616E+03  0.50400001928E-02 0.  1.
       -1    1    3    3    0  502 -0.21543688786E+03  0.66393968623E+03  0.47794910395E+03  0.84596944720E+03  0.50400001928E-02 0. -1.
</event>
<event>
 5   0  0.1766237E-04  0.1407542E+04  0.7818609E-02  0.8948377E-01
        2   -1    0    0  501    0  0.00000000000E+00  0.00000000000E+00  0.13930729308E+04  0.13930729308E+04  0.25500000920E-02 0. -1.
       -2   -1    0    0    0  501  0.00000000000E+00  0.00000000000E+00 -0.35554021906E+03  0.35554021907E+03  0.25500000920E-02 0.  1.
    10030    2    1    2    0    0  0.00000000000E+00  0.00000000000E+00  0.10375327118E+04  0.17486131499E+04  0.14075417649E+04 0.  0.
        3    1    3    3  502    0 -0.25560869515E+03 -0.49758285179E+03  0.10492938468E+04  0.11890929680E+04  0.10100000352E+00 0. -1.
       -3    1    3    3    0  502  0.25560869515E+03  0.49758285179E+03 -0.11761135062E+02  0.55952018187E+03  0.10100000352E+00 0.  1.
</event>
<event>
 5   0  0.1794185E-04  0.1404061E+04  0.7818609E-02  0.8950884E-01
       -2   -1    0    0    0  501  0.00000000000E+00  0.00000000000E+00  0.60838256532E+03  0.60838256532E+03  0.25500000920E-02 0.  1.
        2   -1    0    0  501    0  0.00000000000E+00  0.00000000000E+00 -0.81009345184E+03  0.81009345185E+03  0.25500000920E-02 0. -1.
    10030    2    1    2    0    0  0.00000000000E+00  0.00000000000E+00 -0.20171088653E+03  0.14184760172E+04  0.14040608710E+04 0.  0.
        2    1    3    3  502    0  0.34237335870E+03 -0.55777139003E+03 -0.35746775680E+03  0.74572893027E+03  0.25500000920E-02 0. -1.
       -2    1    3    3    0  502 -0.34237335870E+03  0.55777139003E+03  0.15575687027E+03  0.67274708690E+03  0.25500000920E-02 0.  1.
</event>
<event>
 5   0  0.9900839E-05  0.1400329E+04  0.7818609E-02  0.8953580E-01
        1   -1    0    0  501    0  0.00000000000E+00  0.00000000000E+00  0.32987904053E+03  0.32987904057E+03  0.50400001928E-02 0.  1.
       -1   -1    0    0    0  501  0.00000000000E+00  0.00000000000E+00 -0.14860912525E+04  0.14860912525E+04  0.50400001928E-02 0. -1.
    10030    2    1    2    0    0  0.00000000000E+00  0.00000000000E+00 -0.11562122120E+04  0.18159702931E+04  0.14003290421E+04 0.  0.
        3    1    3    3  502    0  0.78864780106E+02 -0.13212077058E+03  0.30768226078E+03  0.34401153376E+03  0.10100000352E+00 0.  1.
       -3    1    3    3    0  502 -0.78864780106E+02  0.13212077058E+03 -0.14638944728E+04  0.14719587593E+04  0.10100000352E+00 0. -1.
</event>
<event>
 5   0  0.9900839E-05  0.1377437E+04  0.7818609E-02  0.8970315E-01
        1   -1    0    0  501    0  0.00000000000E+00  0.00000000000E+00  0.69935235312E+03  0.69935235314E+03  0.50400001928E-02 0.  1.
       -1   -1    0    0    0  501  0.00000000000E+00  0.00000000000E+00 -0.67824623388E+03  0.67824623389E+03  0.50400001928E-02 0. -1.
    10030    2    1    2    0    0  0.00000000000E+00  0.00000000000E+00  0.21106119245E+02  0.13775985870E+04  0.13774368946E+04 0.  0.
        3    1    3    3  502    0  0.42427077870E+03  0.43307188632E+03 -0.31625147937E+03  0.68379233747E+03  0.10100000352E+00 0. -1.
       -3    1    3    3    0  502 -0.42427077870E+03 -0.43307188632E+03  0.33735759862E+03  0.69380624956E+03  0.10100000352E+00 0.  1.
</event>
<event>
 5   0  0.9828111E-05  0.1400109E+04  0.7818609E-02  0.8953739E-01
        1   -1    0    0  501    0  0.00000000000E+00  0.00000000000E+00  0.10933200884E+04  0.10933200884E+04  0.50400001928E-02 0. -1.
       -1   -1    0    0    0  501  0.00000000000E+00  0.00000000000E+00 -0.44824617644E+03  0.44824617647E+03  0.50400001928E-02 0.  1.
    10030    2    1    2    0    0  0.00000000000E+00  0.00000000000E+00  0.64507391194E+03  0.15415662649E+04  0.14001093518E+04 0.  0.
        4    1    3    3  502    0  0.65079979858E+03  0.11256142831E+03  0.67001309880E+02  0.66385332823E+03  0.12699999809E+01 0.  1.
       -4    1    3    3    0  502 -0.65079979858E+03 -0.11256142831E+03  0.57807260206E+03  0.87771293663E+03  0.12699999809E+01 0. -1.
</event>
<event>
 5   0  0.1766237E-04  0.1403219E+04  0.7818609E-02  0.8951492E-01
       -2   -1    0    0    0  501  0.00000000000E+00  0.00000000000E+00  0.54153663924E+03  0.54153663924E+03  0.25500000920E-02 0. -1.
        2   -1    0    0  501    0  0.00000000000E+00  0.00000000000E+00 -0.90899803618E+03  0.90899803619E+03  0.25500000920E-02 0.  1.
    10030    2    1    2    0    0  0.00000000000E+00  0.00000000000E+00 -0.36746139694E+03  0.14505346754E+04  0.14032187878E+04 0.  0.
        3    1    3    3  502    0  0.15044953172E+03 -0.32992226769E+03  0.43716566541E+03  0.56797675439E+03  0.10100000352E+00 0. -1.
       -3    1    3    3    0  502 -0.15044953172E+03  0.32992226769E+03 -0.80462706235E+03  0.88255792104E+03  0.10100000352E+00 0.  1.
</event>
<event>
 5   0  0.1794185E-04  0.1397923E+04  0.7818609E-02  0.8955323E-01
        2   -1    0    0  501    0  0.00000000000E+00  0.00000000000E+00  0.64133706365E+03  0.64133706365E+03  0.25500000920E-02 0.  1.
       -2   -1    0    0    0  501  0.00000000000E+00  0.00000000000E+00 -0.76176387496E+03  0.76176387497E+03  0.25500000920E-02 0. -1.
    10030    2    1    2    0    0  0.00000000000E+00  0.00000000000E+00 -0.12042681132E+03  0.14031009386E+04  0.13979233266E+04 0.  0.
        2    1    3    3  502    0  0.27862089718E+03 -0.63503304248E+03 -0.14800643779E+03  0.70908566127E+03  0.25500000920E-02 0. -1.
       -2    1    3    3    0  502 -0.27862089718E+03  0.63503304248E+03  0.27579626478E+02  0.69401527735E+03  0.25500000920E-02 0.  1.
</event>
<event>
 5   0  0.1833681E-04  0.1400848E+04  0.7818609E-02  0.8953205E-01
        2   -1    0    0  501    0  0.00000000000E+00  0.00000000000E+00  0.60421565153E+03  0.60421565154E+03  0.25500000920E-02 0.  1.
       -2   -1    0    0    0  501  0.00000000000E+00  0.00000000000E+00 -0.81195145703E+03  0.81195145704E+03  0.25500000920E-02 0. -1.
    10030    2    1    2    0    0  0.00000000000E+00  0.00000000000E+00 -0.20773580550E+03  0.14161671086E+04  0.14008479984E+04 0.  0.
        4    1    3    3  502    0 -0.37480222576E+03 -0.15712365516E+03  0.47283307892E+03  0.62348799898E+03  0.12699999809E+01 0.  1.
       -4    1    3    3    0  502  0.37480222576E+03  0.15712365516E+03 -0.68056888443E+03  0.79267910960E+03  0.12699999809E+01 0. -1.
</event>
<event>
 5   0  0.9978422E-05  0.1399153E+04  0.7818609E-02  0.8954432E-01
       -1   -1    0    0    0  501  0.00000000000E+00  0.00000000000E+00  0.71918743094E+03  0.71918743096E+03  0.50400001928E-02 0. -1.
        1   -1    0    0  501    0  0.00000000000E+00  0.00000000000E+00 -0.68050020117E+03  0.68050020119E+03  0.50400001928E-02 0.  1.
    10030    2    1    2    0    0  0.00000000000E+00  0.00000000000E+00  0.38687229773E+02  0.13996876321E+04  0.13991528744E+04 0.  0.
        2    1    3    3  502    0  0.63648550137E+03  0.29007144394E+03  0.31675345783E+02  0.70018466391E+03  0.25500000920E-02 0. -1.
       -2    1    3    3    0  502 -0.63648550137E+03 -0.29007144394E+03  0.70118839901E+01  0.69950296823E+03  0.25500000920E-02 0.  1.
</event>
<event>
 5   0  0.6671375E-05  0.1403616E+04  0.7818609E-02  0.8951205E-01
        1   -1    0    0  501    0  0.00000000000E+00  0.00000000000E+00  0.68193281319E+03  0.68193281320E+03  0.50400001928E-02 0.  1.
       -1   -1    0    0    0  501  0.00000000000E+00  0.00000000000E+00 -0.72226242497E+03  0.72226242498E+03  0.50400001928E-02 0. -1.
    10030    2    1    2    0    0  0.00000000000E+00  0.00000000000E+00 -0.40329611781E+02  0.14041952382E+04  0.14036159693E+04 0.  0.
        5    1    3    3  502    0 -0.12633671670E+03 -0.64064309340E+03 -0.27742422958E+03  0.70948631577E+03  0.46999998093E+01 0. -1.
       -5    1    3    3    0  502  0.12633671670E+03  0.64064309340E+03  0.23709461780E+03  0.69470892242E+03  0.46999998093E+01 0.  1.
</event>
<event>
 5   0  0.1766237E-04  0.1399814E+04  0.7818609E-02  0.8953953E-01
        2   -1    0    0  501    0  0.00000000000E+00  0.00000000000E+00  0.12007485062E+04  0.12007485062E+04  0.25500000920E-02 0.  1.
       -2   -1    0    0    0  501  0.00000000000E+00  0.00000000000E+00 -0.40797018266E+03  0.40797018267E+03  0.25500000920E-02 0. -1.
    10030    2    1    2    0    0  0.00000000000E+00  0.00000000000E+00  0.79277832352E+03  0.16087186888E+04  0.13998136839E+04 0.  0.
        3    1    3    3  502    0  0.54535839464E+03 -0.20619776558E+01 -0.10777076055E+03  0.55590878513E+03  0.10100000352E+00 0. -1.
       -3    1    3    3    0  502 -0.54535839464E+03  0.20619776558E+01  0.90054908407E+03  0.10528099037E+04  0.10100000352E+00 0.  1.
</event>
<event>
 5   0  0.1794185E-04  0.1412424E+04  0.7818609E-02  0.8944874E-01
        2   -1    0    0  501    0  0.00000000000E+00  0.00000000000E+00  0.22622882342E+04  0.22622882342E+04  0.25500000920E-02 0. -1.
       -2   -1    0    0    0  501  0.00000000000E+00  0.00000000000E+00 -0.22045627900E+03  0.22045627901E+03  0.25500000920E-02 0.  1.
    10030    2    1    2    0    0  0.00000000000E+00  0.00000000000E+00  0.20418319552E+04  0.24827445132E+04  0.14124243642E+04 0.  0.
        2    1    3    3  502    0 -0.38418314231E+03  0.42427746950E+03  0.17480707271E+04  0.18393910201E+04  0.25500000920E-02 0. -1.
       -2    1    3    3    0  502  0.38418314231E+03 -0.42427746950E+03  0.29376122817E+03  0.64335349315E+03  0.25500000920E-02 0.  1.
</event>
<event>
 5   0  0.9260916E-05  0.1403527E+04  0.7818609E-02  0.8951269E-01
        1   -1    0    0  501    0  0.00000000000E+00  0.00000000000E+00  0.49199663407E+03  0.49199663410E+03  0.50400001928E-02 0.  1.
       -1   -1    0    0    0  501  0.00000000000E+00  0.00000000000E+00 -0.10009665390E+04  0.10009665391E+04  0.50400001928E-02 0. -1.
    10030    2    1    2    0    0  0.00000000000E+00  0.00000000000E+00 -0.50896990497E+03  0.14929631732E+04  0.14035272253E+04 0.  0.
        1    1    3    3  502    0 -0.25887844238E+03  0.37790255932E+03  0.31103504507E+03  0.55368871359E+03  0.50400001928E-02 0.  1.
       -1    1    3    3    0  502  0.25887844238E+03 -0.37790255932E+03 -0.82000495004E+03  0.93927445956E+03  0.50400001928E-02 0. -1.
</event>
<event>
 5   0  0.9900839E-05  0.1406187E+04  0.7818609E-02  0.8949353E-01
       -1   -1    0    0    0  501  0.00000000000E+00  0.00000000000E+00  0.56838564411E+03  0.56838564413E+03  0.50400001928E-02 0.  1.
        1   -1    0    0  501    0  0.00000000000E+00  0.00000000000E+00 -0.86972661139E+03  0.86972661140E+03  0.50400001928E-02 0. -1.
    10030    2    1    2    0    0  0.00000000000E+00  0.00000000000E+00 -0.30134096727E+03  0.14381122555E+04  0.14061865029E+04 0.  0.
        3    1    3    3  502    0 -0.28741372448E+02 -0.52334115122E+03 -0.62995543996E+03  0.81948513933E+03  0.10100000352E+00 0. -1.
       -3    1    3    3    0  502  0.28741372448E+02  0.52334115122E+03  0.32861447269E+03  0.61862711621E+03  0.10100000352E+00 0.  1.
</event>
<event>
 5   0  0.9828111E-05  0.1404129E+04  0.7818609E-02  0.8950835E-01
        1   -1    0    0  501    0  0.00000000000E+00  0.00000000000E+00  0.24490908782E+04  0.24490908782E+04  0.50400001928E-02 0.  1.
       -1   -1    0    0    0  501  0.00000000000E+00  0.00000000000E+00 -0.20125615105E+03  0.20125615111E+03  0.50400001928E-02 0. -1.
    10030    2    1    2    0    0  0.00000000000E+00  0.00000000000E+00  0.22478347272E+04  0.26503470293E+04  0.14041290593E+04 0.  0.
        4    1    3    3  502    0  0.35762597164E+03  0.60026386424E+03  0.12530441246E+04  0.14346895948E+04  0.12699999809E+01 0.  1.
       -4    1    3    3    0  502 -0.35762597164E+03 -0.60026386424E+03  0.99479060254E+03  0.12156574345E+04  0.12699999809E+01 0. -1.
</event>
<event>
 5   0  0.6671375E-05  0.1397550E+04  0.7818609E-02  0.8955594E-01
       -1   -1    0    0    0  501  0.00000000000E+00  0.00000000000E+00  0.72684600056E+03  0.72684600058E+03  0.50400001928E-02 0.  1.
        1   -1    0    0  501    0  0.00000000000E+00  0.00000000000E+00 -0.67178773032E+03  0.67178773034E+03  0.50400001928E-02 0. -1.
    10030    2    1    2    0    0  0.00000000000E+00  0.00000000000E+00  0.55058270237E+02  0.13986337309E+04  0.13975496056E+04 0.  0.
        5    1    3    3  502    0  0.67569988677E+02 -0.44021950856E+03  0.56637528058E+03  0.72052894982E+03  0.46999998093E+01 0.  1.
       -5    1    3    3    0  502 -0.67569988677E+02  0.44021950856E+03 -0.51131701034E+03  0.67810478110E+03  0.46999998093E+01 0. -1.
</event>
<event>
 5   0  0.9260916E-05  0.1398621E+04  0.7818609E-02  0.8954817E-01
        1   -1    0    0  501    0  0.00000000000E+00  0.00000000000E+00  0.10188079652E+04  0.10188079652E+04  0.50400001928E-02 0. -1.
       -1   -1    0    0    0  501  0.00000000000E+00  0.00000000000E+00 -0.48000740335E+03  0.48000740338E+03  0.50400001928E-02 0.  1.
    10030    2    1    2    0    0  0.00000000000E+00  0.00000000000E+00  0.53880056185E+03  0.14988153686E+04  0.13986212724E+04 0.  0.
        1    1    3    3  502    0 -0.50896018549E+03  0.40625988372E+03 -0.37050883377E+01  0.65123059759E+03  0.50400001928E-02 0.  1.
       -1    1    3    3    0  502  0.50896018549E+03 -0.40625988372E+03  0.54250565019E+03  0.84758477101E+03  0.50400001928E-02 0. -1.
</event>
<event>
 5   0  0.1766237E-04  0.1404867E+04  0.7818609E-02  0.8950303E-01
        2   -1    0    0  501    0  0.00000000000E+00  0.00000000000E+00  0.11009131332E+04  0.11009131332E+04  0.25500000920E-02 0. -1.
       -2   -1    0    0    0  501  0.00000000000E+00  0.00000000000E+00 -0.44818533664E+03  0.44818533664E+03  0.25500000920E-02 0.  1.
    10030    2    1    2    0    0  0.00000000000E+00  0.00000000000E+00  0.65272779652E+03  0.15490984698E+04  0.14048674289E+04 0.  0.
        3    1    3    3  502    0  0.23958639129E+02  0.21589119365E+03  0.10629492990E+04  0.10849167002E+04  0.10100000352E+00 0. -1.
       -3    1    3    3    0  502 -0.23958639129E+02 -0.21589119365E+03 -0.41022150252E+03  0.46418176959E+03  0.10100000352E+00 0.  1.
</event>
<event>
 5   0  0.9978422E-05  0.1399564E+04  0.7818609E-02  0.8954134E-01
       -1   -1    0    0    0  501  0.00000000000E+00  0.00000000000E+00  0.38005449765E+03  0.38005449768E+03  0.50400001928E-02 0. -1.
        1   -1    0    0  501    0  0.00000000000E+00  0.00000000000E+00 -0.12884860032E+04  0.12884860032E+04  0.50400001928E-02 0.  1.
    10030    2    1    2    0    0  0.00000000000E+00  0.00000000000E+00 -0.90843150558E+03  0.16685405009E+04  0.13995640760E+04 0.  0.
        2    1    3    3  502    0  0.56866703010E+02 -0.55485174518E+03  0.49615898688E+02  0.55996072938E+03  0.25500000920E-02 0. -1.
       -2    1    3    3    0  502 -0.56866703010E+02  0.55485174518E+03 -0.95804740427E+03  0.11085797715E+04  0.25500000920E-02 0.  1.
</event>
<event>
 5   0  0.1712327E-04  0.1408658E+04  0.7818609E-02  0.8947575E-01
       -2   -1    0    0    0  501  0.00000000000E+00  0.00000000000E+00  0.45900314138E+03  0.45900314138E+03  0.25500000920E-02 0. -1.
        2   -1    0    0  501    0  0.00000000000E+00  0.00000000000E+00 -0.10807749104E+04  0.10807749104E+04  0.25500000920E-02 0.  1.
    10030    2    1    2    0    0  0.00000000000E+00  0.00000000000E+00 -0.62177176901E+03  0.15397780518E+04  0.14086576291E+04 0.  0.
        1    1    3    3  502    0  0.48847244043E+03 -0.21628825433E+03  0.19085313413E+03  0.56728374986E+03  0.50400001928E-02 0. -1.
       -1    1    3    3    0  502 -0.48847244043E+03  0.21628825433E+03 -0.81262490315E+03  0.97249430192E+03  0.50400001928E-02 0.  1.
</event>
<event>
 5   0  0.9978422E-05  0.1398206E+04  0.7818609E-02  0.8955118E-01
       -1   -1    0    0    0  501  0.00000000000E+00  0.00000000000E+00  0.40167109289E+03  0.40167109292E+03  0.50400001928E-02 0.  1.
        1   -1    0    0  501    0  0.00000000000E+00  0.00000000000E+00 -0.12167799133E+04  0.12167799133E+04  0.50400001928E-02 0. -1.
    10030    2    1    2    0    0  0.00000000000E+00  0.00000000000E+00 -0.81510882041E+03  0.16184510062E+04  0.13982064477E+04 0.  0.
        2    1    3    3  502    0 -0.24453870004E+03 -0.51225172652E+03 -0.87993621037E+03  0.10471335834E+04  0.25500000920E-02 0. -1.
       -2    1    3    3    0  502  0.24453870004E+03  0.51225172652E+03  0.64827389964E+02  0.57131742283E+03  0.25500000920E-02 0.  1.
</event>
<event>
 5   0  0.9900839E-05  0.1397624E+04  0.7818609E-02  0.8955540E-01
       -1   -1    0    0    0  501  0.00000000000E+00  0.00000000000E+00  0.55476843130E+03  0.55476843133E+03  0.50400001928E-02 0.  1.
        1   -1    0    0  501    0  0.00000000000E+00  0.00000000000E+00 -0.88025599464E+03  0.88025599466E+03  0.50400001928E-02 0. -1.
    10030    2    1    2    0    0  0.00000000000E+00  0.00000000000E+00 -0.32548756334E+03  0.14350244260E+04  0.13976240372E+04 0.  0.
        3    1    3    3  502    0  0.61780713706E+03 -0.16769453161E+03  0.12498930674E+03  0.65224953164E+03  0.10100000352E+00 0.  1.
       -3    1    3    3    0  502 -0.61780713706E+03  0.16769453161E+03 -0.45047687008E+03  0.78277489434E+03  0.10100000352E+00 0. -1.
</event>
<event>
 5   0  0.1712327E-04  0.1401751E+04  0.7818609E-02  0.8952552E-01
        2   -1    0    0  501    0  0.00000000000E+00  0.00000000000E+00  0.88958813010E+03  0.88958813011E+03  0.25500000920E-02 0. -1.
       -2   -1    0    0    0  501  0.00000000000E+00  0.00000000000E+00 -0.55219552349E+03  0.55219552349E+03  0.25500000920E-02 0.  1.
    10030    2    1    2    0    0  0.00000000000E+00  0.00000000000E+00  0.33739260662E+03  0.14417836536E+04  0.14017511665E+04 0.  0.
        1    1    3    3  502    0  0.41978205434E+03 -0.26796803684E+03  0.67593619840E+03  0.83959132097E+03  0.50400001928E-02 0. -1.
       -1    1    3    3    0  502 -0.41978205434E+03  0.26796803684E+03 -0.33854359178E+03  0.60219233263E+03  0.50400001928E-02 0.  1.
</event>
<event>
 5   0  0.9828111E-05  0.1398749E+04  0.7818609E-02  0.8954725E-01
        1   -1    0    0  501    0  0.00000000000E+00  0.00000000000E+00  0.82739481872E+03  0.82739481873E+03  0.50400001928E-02 0.  1.
       -1   -1    0    0    0  501  0.00000000000E+00  0.00000000000E+00 -0.59116219539E+03  0.59116219541E+03  0.50400001928E-02 0. -1.
    10030    2    1    2    0    0  0.00000000000E+00  0.00000000000E+00  0.23623262333E+03  0.14185570141E+04  0.13987487802E+04 0.  0.
        4    1    3    3  502    0  0.44719902503E+02  0.28771493322E+03  0.76300109821E+03  0.81667131776E+03  0.12699999809E+01 0.  1.
       -4    1    3    3    0  502 -0.44719902503E+02 -0.28771493322E+03 -0.52676847488E+03  0.60188569638E+03  0.12699999809E+01 0. -1.
</event>
<event>
 5   0  0.1794185E-04  0.1399359E+04  0.7818609E-02  0.8954283E-01
        2   -1    0    0  501    0  0.00000000000E+00  0.00000000000E+00  0.11211687291E+04  0.11211687291E+04  0.25500000920E-02 0.  1.
       -2   -1    0    0    0  501  0.00000000000E+00  0.00000000000E+00 -0.43664396024E+03  0.43664396025E+03  0.25500000920E-02 0. -1.
    10030    2    1    2    0    0  0.00000000000E+00  0.00000000000E+00  0.68452476882E+03  0.15578126893E+04  0.13993592162E+04 0.  0.
        2    1    3    3  502    0  0.30329400637E+03 -0.60727060455E+03  0.53114068215E+03  0.86190212071E+03  0.25500000920E-02 0.  1.
       -2    1    3    3    0  502 -0.30329400637E+03  0.60727060455E+03  0.15338408668E+03  0.69591056861E+03  0.25500000920E-02 0. -1.
</event>
<event>
 5   0  0.6671375E-05  0.1400616E+04  0.7818609E-02  0.8953373E-01
       -1   -1    0    0    0  501  0.00000000000E+00  0.00000000000E+00  0.36041128561E+03  0.36041128565E+03  0.50400001928E-02 0.  1.
        1   -1    0    0  501    0  0.00000000000E+00  0.00000000000E+00 -0.13607540259E+04  0.13607540260E+04  0.50400001928E-02 0. -1.
    10030    2    1    2    0    0  0.00000000000E+00  0.00000000000E+00 -0.10003427403E+04  0.17211653116E+04  0.14006157331E+04 0.  0.
        5    1    3    3  502    0  0.50483295519E+03  0.14022268974E+03  0.70807651013E+02  0.52872916395E+03  0.46999998093E+01 0.  1.
       -5    1    3    3    0  502 -0.50483295519E+03 -0.14022268974E+03 -0.10711503913E+04  0.11924361477E+04  0.46999998093E+01 0. -1.
</event>
<event>
 5   0  0.1766237E-04  0.1397170E+04  0.7818609E-02  0.8955869E-01
        2   -1    0    0  501    0  0.00000000000E+00  0.00000000000E+00  0.70089695256E+03  0.70089695256E+03  0.25500000920E-02 0. -1.
       -2   -1    0    0    0  501  0.00000000000E+00  0.00000000000E+00 -0.69628112074E+03  0.69628112074E+03  0.25500000920E-02 0.  1.
    10030    2    1    2    0    0  0.00000000000E+00  0.00000000000E+00  0.46158318204E+01  0.13971780733E+04  0.13971704487E+04 0.  0.
        3    1    3    3  502    0  0.41405088229E+03  0.35672394301E+03 -0.43281651141E+03  0.69715152399E+03  0.10100000352E+00 0.  1.
       -3    1    3    3    0  502 -0.41405088229E+03 -0.35672394301E+03  0.43743234323E+03  0.70002654932E+03  0.10100000352E+00 0. -1.
</event>
<event>
 5   0  0.9978422E-05  0.1398285E+04  0.7818609E-02  0.8955061E-01
       -1   -1    0    0    0  501  0.00000000000E+00  0.00000000000E+00  0.52874125774E+03  0.52874125777E+03  0.50400001928E-02 0.  1.
        1   -1    0    0  501    0  0.00000000000E+00  0.00000000000E+00 -0.92446082307E+03  0.92446082309E+03  0.50400001928E-02 0. -1.
    10030    2    1    2    0    0  0.00000000000E+00  0.00000000000E+00 -0.39571956533E+03  0.14532020809E+04  0.13982854907E+04 0.  0.
        2    1    3    3  502    0 -0.12764687673E+03  0.44281892690E+03 -0.74426333901E+03  0.87539148097E+03  0.25500000920E-02 0.  1.
       -2    1    3    3    0  502  0.12764687673E+03 -0.44281892690E+03  0.34854377368E+03  0.57781059988E+03  0.25500000920E-02 0. -1.
</event>
<event>
 5   0  0.1794185E-04  0.1399496E+04  0.7818609E-02  0.8954184E-01
       -2   -1    0    0    0  501  0.00000000000E+00  0.00000000000E+00  0.60928916693E+03  0.60928916694E+03  0.25500000920E-02 0.  1.
        2   -1    0    0  501    0  0.00000000000E+00  0.00000000000E+00 -0.80363673678E+03  0.80363673679E+03  0.25500000920E-02 0. -1.
    10030    2    1    2    0    0  0.00000000000E+00  0.00000000000E+00 -0.19434756985E+03  0.14129259037E+04  0.13994958490E+04 0.  0.
        2    1    3    3  502    0 -0.45708907141E+03 -0.52804011114E+03 -0.53278053046E+02  0.70042510600E+03  0.25500000920E-02 0.  1.
       -2    1    3    3    0  502  0.45708907141E+03  0.52804011114E+03 -0.14106951681E+03  0.71250079772E+03  0.25500000920E-02 0. -1.
</event>
<event>
 5   0  0.1712327E-04  0.1395474E+04  0.7818609E-02  0.8957101E-01
       -2   -1    0    0    0  501  0.00000000000E+00  0.00000000000E+00  0.39291709065E+03  0.39291709065E+03  0.25500000920E-02 0.  1.
        2   -1    0    0  501    0  0.00000000000E+00  0.00000000000E+00 -0.12390320217E+04  0.12390320218E+04  0.25500000920E-02 0. -1.
    10030    2    1    2    0    0  0.00000000000E+00  0.00000000000E+00 -0.84611493110E+03  0.16319491124E+04  0.13954739083E+04 0.  0.
        1    1    3    3  502    0  0.27464416436E+03 -0.63866789554E+03 -0.49234983686E+03  0.85190049870E+03  0.50400001928E-02 0.  1.
       -1    1    3    3    0  502 -0.27464416436E+03  0.63866789554E+03 -0.35376509425E+03  0.78004861370E+03  0.50400001928E-02 0. -1.
</event>
<event>
 5   0  0.9900839E-05  0.1399873E+04  0.7818609E-02  0.8953910E-01
        1   -1    0    0  501    0  0.00000000000E+00  0.00000000000E+00  0.11348742042E+04  0.11348742042E+04  0.50400001928E-02 0. -1.
       -1   -1    0    0    0  501  0.00000000000E+00  0.00000000000E+00 -0.43168784814E+03  0.43168784817E+03  0.50400001928E-02 0.  1.
    10030    2    1    2    0    0  0.00000000000E+00  0.00000000000E+00  0.70318635602E+03  0.15665620523E+04  0.13998734273E+04 0.  0.
        3    1    3    3  502    0 -0.46602529399E+03 -0.51765479620E+03  0.27434196005E+03  0.74860509209E+03  0.10100000352E+00 0.  1.
       -3    1    3    3    0  502  0.46602529399E+03  0.51765479620E+03  0.42884439597E+03  0.81795696025E+03  0.10100000352E+00 0. -1.
</event>
<event>
 5   0  0.9828111E-05  0.1402862E+04  0.7818609E-02  0.8951749E-01
        1   -1    0    0  501    0  0.00000000000E+00  0.00000000000E+00  0.18581036364E+04  0.18581036364E+04  0.50400001928E-02 0. -1.
       -1   -1    0    0    0  501  0.00000000000E+00  0.00000000000E+00 -0.26478902210E+03  0.26478902214E+03  0.50400001928E-02 0.  1.
    10030    2    1    2    0    0  0.00000000000E+00  0.00000000000E+00  0.15933146143E+04  0.21228926586E+04  0.14028619959E+04 0.  0.
        4    1    3    3  502    0  0.63080415661E+01 -0.11498183335E+03  0.18437000298E+04  0.18472931619E+04  0.12699999809E+01 0. -1.
       -4    1    3    3    0  502 -0.63080415661E+01  0.11498183335E+03 -0.25038541544E+03  0.27559949666E+03  0.12699999809E+01 0.  1.
</event>
<event>
 5   0  0.1794185E-04  0.1399738E+04  0.7818609E-02  0.8954008E-01
       -2   -1    0    0    0  501  0.00000000000E+00  0.00000000000E+00  0.12983780912E+04  0.12983780912E+04  0.25500000920E-02 0. -1.
        2   -1    0    0  501    0  0.00000000000E+00  0.00000000000E+00 -0.37725260431E+03  0.37725260431E+03  0.25500000920E-02 0.  1.
    10030    2    1    2    0    0  0.00000000000E+00  0.00000000000E+00  0.92112548685E+03  0.16756306955E+04  0.13997378558E+04 0.  0.
        2    1    3    3  502    0  0.12836384167E+03 -0.93427199830E+02 -0.35541094641E+03  0.38925937157E+03  0.25500000920E-02 0.  1.
       -2    1    3    3    0  502 -0.12836384167E+03  0.93427199830E+02  0.12765364333E+04  0.12863713239E+04  0.25500000920E-02 0. -1.
</event>
<event>
 5   0  0.1833681E-04  0.1408697E+04  0.7818609E-02  0.8947547E-01
        2   -1    0    0  501    0  0.00000000000E+00  0.00000000000E+00  0.13000648178E+04  0.13000648178E+04  0.25500000920E-02 0. -1.
       -2   -1    0    0    0  501  0.00000000000E+00  0.00000000000E+00 -0.38160136571E+03  0.38160136572E+03  0.25500000920E-02 0.  1.
    10030    2    1    2    0    0  0.00000000000E+00  0.00000000000E+00  0.91846345210E+03  0.16816661835E+04  0.14086965749E+04 0.  0.
        4    1    3    3  502    0  0.57580053401E+02 -0.34065203044E+03 -0.27350244180E+03  0.44064097286E+03  0.12699999809E+01 0.  1.
       -4    1    3    3    0  502 -0.57580053401E+02  0.34065203044E+03  0.11919658939E+04  0.12410252107E+04  0.12699999809E+01 0. -1.
</event>
<event>
 5   0  0.1766237E-04  0.1400088E+04  0.7818609E-02  0.8953755E-01
       -2   -1    0    0    0  501  0.00000000000E+00  0.00000000000E+00  0.21329565138E+03  0.21329565140E+03  0.25500000920E-02 0. -1.
        2   -1    0    0  501    0  0.00000000000E+00  0.00000000000E+00 -0.22975696883E+04  0.22975696883E+04  0.25500000920E-02 0.  1.
    10030    2    1    2    0    0  0.00000000000E+00  0.00000000000E+00 -0.20842740369E+04  0.25108653397E+04  0.14000880305E+04 0.  0.
        3    1    3    3  502    0 -0.19055040422E+03 -0.66740743539E+03 -0.12057116513E+04  0.13912162799E+04  0.10100000352E+00 0.  1.
       -3    1    3    3    0  502  0.19055040422E+03  0.66740743539E+03 -0.87856238568E+03  0.11196490598E+04  0.10100000352E+00 0. -1.
</event>
<event>
 5   0  0.1780171E-04  0.1397389E+04  0.7818609E-02  0.8955710E-01
        2   -1    0    0  501    0  0.00000000000E+00  0.00000000000E+00  0.27322573840E+04  0.27322573840E+04  0.25500000920E-02 0.  1.
       -2   -1    0    0    0  501  0.00000000000E+00  0.00000000000E+00 -0.17867070162E+03  0.17867070164E+03  0.25500000920E-02 0. -1.
    10030    2    1    2    0    0  0.00000000000E+00  0.00000000000E+00  0.25535866824E+04  0.29109280856E+04  0.13973894859E+04 0.  0.
        5    1    3    3  502    0 -0.67803661175E+03  0.69187946943E+02  0.95656417119E+03  0.11745457515E+04  0.46999998093E+01 0. -1.
       -5    1    3    3    0  502  0.67803661175E+03 -0.69187946943E+02  0.15970225112E+04  0.17363823341E+04  0.46999998093E+01 0.  1.
</event>
<event>
 5   0  0.9828111E-05  0.1400249E+04  0.7818609E-02  0.8953638E-01
       -1   -1    0    0    0  501  0.00000000000E+00  0.00000000000E+00  0.44556388057E+03  0.44556388060E+03  0.50400001928E-02 0. -1.
        1   -1    0    0  501    0  0.00000000000E+00  0.00000000000E+00 -0.11001210436E+04  0.11001210436E+04  0.50400001928E-02 0.  1.
    10030    2    1    2    0    0  0.00000000000E+00  0.00000000000E+00 -0.65455716301E+03  0.15456849242E+04  0.14002488369E+04 0.  0.
        4    1    3    3  502    0 -0.78749764579E+02 -0.22944395312E+03 -0.10522465842E+04  0.10798474614E+04  0.12699999809E+01 0.  1.
       -4    1    3    3    0  502  0.78749764579E+02  0.22944395312E+03  0.39768942123E+03  0.46583746275E+03  0.12699999809E+01 0. -1.
</event>
<event>
 5   0  0.6671375E-05  0.1399951E+04  0.7818609E-02  0.8953854E-01
       -1   -1    0    0    0  501  0.00000000000E+00  0.00000000000E+00  0.41409957583E+03  0.41409957586E+03  0.50400001928E-02 0.  1.
        1   -1    0    0  501    0  0.00000000000E+00  0.00000000000E+00 -0.11832075704E+04  0.11832075704E+04  0.50400001928E-02 0. -1.
    10030    2    1    2    0    0  0.00000000000E+00  0.00000000000E+00 -0.76910799454E+03  0.15973071462E+04  0.13999510749E+04 0.  0.
        5    1    3    3  502    0 -0.85475620233E+02 -0.64845496399E+03 -0.10012473592E+03  0.66170006402E+03  0.46999998093E+01 0.  1.
       -5    1    3    3    0  502  0.85475620233E+02  0.64845496399E+03 -0.66898325863E+03  0.93560708222E+03  0.46999998093E+01 0. -1.
</event>
<event>
 5   0  0.9260916E-05  0.1400113E+04  0.7818609E-02  0.8953737E-01
       -1   -1    0    0    0  501  0.00000000000E+00  0.00000000000E+00  0.50758536498E+03  0.50758536501E+03  0.50400001928E-02 0. -1.
        1   -1    0    0  501    0  0.00000000000E+00  0.00000000000E+00 -0.96551100793E+03  0.96551100794E+03  0.50400001928E-02 0.  1.
    10030    2    1    2    0    0  0.00000000000E+00  0.00000000000E+00 -0.45792564295E+03  0.14730963729E+04  0.14001132203E+04 0.  0.
        1    1    3    3  502    0  0.26786770775E+03 -0.62190070623E+03 -0.42034355635E+02  0.67843974260E+03  0.50400001928E-02 0.  1.
       -1    1    3    3    0  502 -0.26786770775E+03  0.62190070623E+03 -0.41589128732E+03  0.79465663035E+03  0.50400001928E-02 0. -1.
</event>
<event>
 5   0  0.1833681E-04  0.1398680E+04  0.7818609E-02  0.8954775E-01
        2   -1    0    0  501    0  0.00000000000E+00  0.00000000000E+00  0.13843988561E+04  0.13843988561E+04  0.25500000920E-02 0.  1.
       -2   -1    0    0    0  501  0.00000000000E+00  0.00000000000E+00 -0.35327714040E+03  0.35327714041E+03  0.25500000920E-02 0. -1.
    10030    2    1    2    0    0  0.00000000000E+00  0.00000000000E+00  0.10311217157E+04  0.17376759965E+04  0.13986800479E+04 0.  0.
        4    1    3    3  502    0 -0.46098054229E+03 -0.18766190183E+03  0.11259100840E+04  0.12310138829E+04  0.12699999809E+01 0.  1.
       -4    1    3    3    0  502  0.46098054229E+03  0.18766190183E+03 -0.94788368229E+02  0.50666211366E+03  0.12699999809E+01 0. -1.
</event>
<event>
 5   0  0.1833681E-04  0.1400104E+04  0.7818609E-02  0.8953743E-01
       -2   -1    0    0    0  501  0.00000000000E+00  0.00000000000E+00  0.53575971536E+03  0.53575971536E+03  0.25500000920E-02 0. -1.
        2   -1    0    0  501    0  0.00000000000E+00  0.00000000000E+00 -0.91472499367E+03  0.91472499367E+03  0.25500000920E-02 0.  1.
    10030    2    1    2    0    0  0.00000000000E+00  0.00000000000E+00 -0.37896527831E+03  0.14504847090E+04  0.14001039993E+04 0.  0.
        4    1    3    3  502    0 -0.66402427892E+03 -0.31734395688E+02 -0.41677628334E+03  0.78462691651E+03  0.12699999809E+01 0.  1.
       -4    1    3    3    0  502  0.66402427892E+03  0.31734395688E+02  0.37811005030E+02  0.66585779252E+03  0.12699999809E+01 0. -1.
</event>
<event>
 5   0  0.6671375E-05  0.1403159E+04  0.7818609E-02  0.8951535E-01
       -1   -1    0    0    0  501  0.00000000000E+00  0.00000000000E+00  0.24530386920E+03  0.24530386925E+03  0.50400001928E-02 0. -1.
        1   -1    0    0  501    0  0.00000000000E+00  0.00000000000E+00 -0.20065472621E+04  0.20065472621E+04  0.50400001928E-02 0.  1.
    10030    2    1    2    0    0  0.00000000000E+00  0.00000000000E+00 -0.17612433929E+04  0.22518511313E+04  0.14031590176E+04 0.  0.
        5    1    3    3  502    0 -0.36388066735E+03  0.59404465065E+03 -0.74737586716E+03  0.10217098237E+04  0.46999998093E+01 0.  1.
       -5    1    3    3    0  502  0.36388066735E+03 -0.59404465065E+03 -0.10138675257E+04  0.12301413076E+04  0.46999998093E+01 0. -1.
</event>
<event>
 5   0  0.1794185E-04  0.1400638E+04  0.7818609E-02  0.8953357E-01
       -2   -1    0    0    0  501  0.00000000000E+00  0.00000000000E+00  0.22830839001E+03  0.22830839002E+03  0.25500000920E-02 0. -1.
        2   -1    0    0  501    0  0.00000000000E+00  0.00000000000E+00 -0.21481765050E+04  0.21481765050E+04  0.25500000920E-02 0.  1.
    10030    2    1    2    0    0  0.00000000000E+00  0.00000000000E+00 -0.19198681150E+04  0.23764848950E+04  0.14006380251E+04 0.  0.
        2    1    3    3  502    0  0.28031560287E+03 -0.60328297101E+03 -0.58851390721E+03  0.88818680429E+03  0.25500000920E-02 0.  1.
       -2    1    3    3    0  502 -0.28031560287E+03  0.60328297101E+03 -0.13313542078E+04  0.14882980907E+04  0.25500000920E-02 0. -1.
</event>
<event>
 5   0  0.9978422E-05  0.1405424E+04  0.7818609E-02  0.8949902E-01
       -1   -1    0    0    0  501  0.00000000000E+00  0.00000000000E+00  0.49956299069E+03  0.49956299071E+03  0.50400001928E-02 0.  1.
        1   -1    0    0  501    0  0.00000000000E+00  0.00000000000E+00 -0.98847229996E+03  0.98847229997E+03  0.50400001928E-02 0. -1.
    10030    2    1    2    0    0  0.00000000000E+00  0.00000000000E+00 -0.48890930927E+03  0.14880352907E+04  0.14054240334E+04 0.  0.
        2    1    3    3  502    0  0.57547571976E+03 -0.38191023282E+03 -0.38159204107E+03  0.78907554504E+03  0.25500000920E-02 0. -1.
       -2    1    3    3    0  502 -0.57547571976E+03  0.38191023282E+03 -0.10731726821E+03  0.69895974565E+03  0.25500000920E-02 0.  1.
</event>
<event>
 5   0  0.9900839E-05  0.1425972E+04  0.7818609E-02  0.8935230E-01
       -1   -1    0    0    0  501  0.00000000000E+00  0.00000000000E+00  0.43390560841E+03  0.43390560844E+03  0.50400001928E-02 0.  1.
        1   -1    0    0  501    0  0.00000000000E+00  0.00000000000E+00 -0.11715666887E+04  0.11715666887E+04  0.50400001928E-02 0. -1.
    10030    2    1    2    0    0  0.00000000000E+00  0.00000000000E+00 -0.73766108028E+03  0.16054722971E+04  0.14259724498E+04 0.  0.
        3    1    3    3  502    0 -0.49637010443E+03  0.17962915837E+03 -0.90843016794E+03  0.10506642163E+04  0.10100000352E+00 0. -1.
       -3    1    3    3    0  502  0.49637010443E+03 -0.17962915837E+03  0.17076908766E+03  0.55480808088E+03  0.10100000352E+00 0.  1.
</event>
<event>
 5   0  0.1780171E-04  0.1399622E+04  0.7818609E-02  0.8954092E-01
       -2   -1    0    0    0  501  0.00000000000E+00  0.00000000000E+00  0.55704498872E+03  0.55704498872E+03  0.25500000920E-02 0. -1.
        2   -1    0    0  501    0  0.00000000000E+00  0.00000000000E+00 -0.87916738268E+03  0.87916738268E+03  0.25500000920E-02 0.  1.
    10030    2    1    2    0    0  0.00000000000E+00  0.00000000000E+00 -0.32212239396E+03  0.14362123714E+04  0.13996224988E+04 0.  0.
        5    1    3    3  502    0 -0.44783715957E+03  0.27079879304E+03 -0.63777442315E+03  0.82502631026E+03  0.46999998093E+01 0. -1.
       -5    1    3    3    0  502  0.44783715957E+03 -0.27079879304E+03  0.31565202918E+03  0.61118606114E+03  0.46999998093E+01 0.  1.
</event>
<event>
 5   0  0.1712327E-04  0.1402778E+04  0.7818609E-02  0.8951810E-01
        2   -1    0    0  501    0  0.00000000000E+00  0.00000000000E+00  0.44752787978E+03  0.44752787979E+03  0.25500000920E-02 0.  1.
       -2   -1    0    0    0  501  0.00000000000E+00  0.00000000000E+00 -0.10992530082E+04  0.10992530082E+04  0.25500000920E-02 0. -1.
    10030    2    1    2    0    0  0.00000000000E+00  0.00000000000E+00 -0.65172512841E+03  0.15467808880E+04  0.14027777701E+04 0.  0.
        1    1    3    3  502    0 -0.11722371012E+03  0.17257828189E+01  0.43664755674E+03  0.45211222653E+03  0.50400001928E-02 0.  1.
       -1    1    3    3    0  502  0.11722371012E+03 -0.17257828189E+01 -0.10883726852E+04  0.10946686614E+04  0.50400001928E-02 0. -1.
</event>
<event>
 5   0  0.9828111E-05  0.1410126E+04  0.7818609E-02  0.8946521E-01
       -1   -1    0    0    0  501  0.00000000000E+00  0.00000000000E+00  0.99713469448E+03  0.99713469450E+03  0.50400001928E-02 0.  1.
        1   -1    0    0  501    0  0.00000000000E+00  0.00000000000E+00 -0.49854241801E+03  0.49854241804E+03  0.50400001928E-02 0. -1.
    10030    2    1    2    0    0  0.00000000000E+00  0.00000000000E+00  0.49859227647E+03  0.14956771125E+04  0.14101261528E+04 0.  0.
        4    1    3    3  502    0  0.68346902817E+03  0.65845351619E+01  0.65769562044E+02  0.68665895229E+03  0.12699999809E+01 0.  1.
       -4    1    3    3    0  502 -0.68346902817E+03 -0.65845351619E+01  0.43282271443E+03  0.80901816024E+03  0.12699999809E+01 0. -1.
</event>
<event>
 5   0  0.9828111E-05  0.1431159E+04  0.7818609E-02  0.8931568E-01
        1   -1    0    0  501    0  0.00000000000E+00  0.00000000000E+00  0.15910072994E+04  0.15910072994E+04  0.50400001928E-02 0.  1.
       -1   -1    0    0    0  501  0.00000000000E+00  0.00000000000E+00 -0.32184260854E+03  0.32184260858E+03  0.50400001928E-02 0. -1.
    10030    2    1    2    0    0  0.00000000000E+00  0.00000000000E+00  0.12691646909E+04  0.19128499080E+04  0.14311588863E+04 0.  0.
        4    1    3    3  502    0  0.16501959348E+03 -0.66454219174E+03  0.35676605100E+03  0.77209547265E+03  0.12699999809E+01 0. -1.
       -4    1    3    3    0  502 -0.16501959348E+03  0.66454219174E+03  0.91239863986E+03  0.11407544353E+04  0.12699999809E+01 0.  1.
</event>
<event>
 5   0  0.6671375E-05  0.1399086E+04  0.7818609E-02  0.8954481E-01
       -1   -1    0    0    0  501  0.00000000000E+00  0.00000000000E+00  0.63710951990E+03  0.63710951992E+03  0.50400001928E-02 0. -1.
        1   -1    0    0  501    0  0.00000000000E+00  0.00000000000E+00 -0.76809444340E+03  0.76809444342E+03  0.50400001928E-02 0.  1.
    10030    2    1    2    0    0  0.00000000000E+00  0.00000000000E+00 -0.13098492351E+03  0.14052039633E+04  0.13990858188E+04 0.  0.
        5    1    3    3  502    0  0.66684868248E+03  0.94996984367E+02 -0.25506795677E+03  0.72027310441E+03  0.46999998093E+01 0.  1.
       -5    1    3    3    0  502 -0.66684868248E+03 -0.94996984367E+02  0.12408303326E+03  0.68493085893E+03  0.46999998093E+01 0. -1.
</event>
<event>
 5   0  0.1833681E-04  0.1410574E+04  0.7818609E-02  0.8946200E-01
        2   -1    0    0  501    0  0.00000000000E+00  0.00000000000E+00  0.18533861354E+04  0.18533861354E+04  0.25500000920E-02 0. -1.
       -2   -1    0    0    0  501  0.00000000000E+00  0.00000000000E+00 -0.26838957508E+03  0.26838957509E+03  0.25500000920E-02 0.  1.
    10030    2    1    2    0    0  0.00000000000E+00  0.00000000000E+00  0.15849965604E+04  0.21217757105E+04  0.14105736668E+04 0.  0.
        4    1    3    3  502    0 -0.46347116316E+03 -0.10893564404E+03  0.15751927650E+04  0.16455717406E+04  0.12699999809E+01 0. -1.
       -4    1    3    3    0  502  0.46347116316E+03  0.10893564404E+03  0.98037953032E+01  0.47620396988E+03  0.12699999809E+01 0.  1.
</event>
<event>
 5   0  0.6671375E-05  0.1400524E+04  0.7818609E-02  0.8953440E-01
        1   -1    0    0  501    0  0.00000000000E+00  0.00000000000E+00  0.59828888594E+03  0.59828888596E+03  0.50400001928E-02 0.  1.
       -1   -1    0    0    0  501  0.00000000000E+00  0.00000000000E+00 -0.81961495539E+03  0.81961495540E+03  0.50400001928E-02 0. -1.
    10030    2    1    2    0    0  0.00000000000E+00  0.00000000000E+00 -0.22132606945E+03  0.14179038414E+04  0.14005235001E+04 0.  0.
        5    1    3    3  502    0 -0.68283279842E+03 -0.15344634848E+03 -0.13414605895E+03  0.71261747634E+03  0.46999998093E+01 0.  1.
       -5    1    3    3    0  502  0.68283279842E+03  0.15344634848E+03 -0.87180010499E+02  0.70528636502E+03  0.46999998093E+01 0. -1.
</event>
<event>
 5   0  0.1766237E-04  0.1397667E+04  0.7818609E-02  0.8955509E-01
       -2   -1    0    0    0  501  0.00000000000E+00  0.00000000000E+00  0.25386035491E+03  0.25386035492E+03  0.25500000920E-02 0.  1.
        2   -1    0    0  501    0  0.00000000000E+00  0.00000000000E+00 -0.19237680181E+04  0.19237680181E+04  0.25500000920E-02 0. -1.
    10030    2    1    2    0    0  0.00000000000E+00  0.00000000000E+00 -0.16699076632E+04  0.21776283730E+04  0.13976672449E+04 0.  0.
        3    1    3    3  502    0  0.20445007132E+03  0.43086478726E+03 -0.39093062860E+02  0.47851078810E+03  0.10100000352E+00 0.  1.
       -3    1    3    3    0  502 -0.20445007132E+03 -0.43086478726E+03 -0.16308146003E+04  0.16991175849E+04  0.10100000352E+00 0. -1.
</event>
<event>
 5   0  0.1766237E-04  0.1393037E+04  0.7818609E-02  0.8958874E-01
       -2   -1    0    0    0  501  0.00000000000E+00  0.00000000000E+00  0.45476598385E+03  0.45476598386E+03  0.25500000920E-02 0.  1.
        2   -1    0    0  501    0  0.00000000000E+00  0.00000000000E+00 -0.10667860246E+04  0.10667860246E+04  0.25500000920E-02 0. -1.
    10030    2    1    2    0    0  0.00000000000E+00  0.00000000000E+00 -0.61202004080E+03  0.15215520085E+04  0.13930369644E+04 0.  0.
        3    1    3    3  502    0 -0.80506336176E+02 -0.48109441181E+03  0.23705606672E+03  0.54233632757E+03  0.10100000352E+00 0.  1.
       -3    1    3    3    0  502  0.80506336176E+02  0.48109441181E+03 -0.84907610751E+03  0.97921568093E+03  0.10100000352E+00 0. -1.
</event>
<event>
 5   0  0.6671375E-05  0.1444091E+04  0.7818609E-02  0.8922507E-01
        1   -1    0    0  501    0  0.00000000000E+00  0.00000000000E+00  0.69245605448E+03  0.69245605450E+03  0.50400001928E-02 0.  1.
       -1   -1    0    0    0  501  0.00000000000E+00  0.00000000000E+00 -0.75289985342E+03  0.75289985343E+03  0.50400001928E-02 0. -1.
    10030    2    1    2    0    0  0.00000000000E+00  0.00000000000E+00 -0.60443798939E+02  0.14453559079E+04  0.14440914956E+04 0.  0.
        5    1    3    3  502    0  0.19071801182E+03  0.21041182460E+03  0.63419778291E+03  0.69489237570E+03  0.46999998093E+01 0.  1.
       -5    1    3    3    0  502 -0.19071801182E+03 -0.21041182460E+03 -0.69464158185E+03  0.75046353222E+03  0.46999998093E+01 0. -1.
</event>
<event>
 5   0  0.6671375E-05  0.1404600E+04  0.7818609E-02  0.8950495E-01
       -3   -1    0    0    0  501  0.00000000000E+00  0.00000000000E+00  0.17352079390E+04  0.17352079419E+04  0.10100000352E+00 0. -1.
        3   -1    0    0  501    0  0.00000000000E+00  0.00000000000E+00 -0.28424574644E+03  0.28424576438E+03  0.10100000352E+00 0.  1.
    10030    2    1    2    0    0  0.00000000000E+00  0.00000000000E+00  0.14509621925E+04  0.20194537063E+04  0.14046002946E+04 0.  0.
        1    1    3    3  502    0 -0.45681678983E+02  0.69462722304E+03  0.59190480879E+03  0.91375330230E+03  0.50400001928E-02 0.  1.
       -1    1    3    3    0  502  0.45681678983E+02 -0.69462722304E+03  0.85905738374E+03  0.11057004040E+04  0.50400001928E-02 0. -1.
</event>
<event>
 5   0  0.6671375E-05  0.1395882E+04  0.7818609E-02  0.8956805E-01
       -3   -1    0    0    0  501  0.00000000000E+00  0.00000000000E+00  0.40745120727E+03  0.40745121979E+03  0.10100000352E+00 0.  1.
        3   -1    0    0  501    0  0.00000000000E+00  0.00000000000E+00 -0.11955332286E+04  0.11955332329E+04  0.10100000352E+00 0. -1.
    10030    2    1    2    0    0  0.00000000000E+00  0.00000000000E+00 -0.78808202133E+03  0.16029844527E+04  0.13958817583E+04 0.  0.
        2    1    3    3  502    0 -0.14967775423E+03 -0.55754348060E+03  0.56410669195E+02  0.58003476316E+03  0.25500000920E-02 0.  1.
       -2    1    3    3    0  502  0.14967775423E+03  0.55754348060E+03 -0.84449269053E+03  0.10229496895E+04  0.25500000920E-02 0. -1.
</event>
<event>
 5   0  0.6671375E-05  0.1410184E+04  0.7818609E-02  0.8946480E-01
        1   -1    0    0  501    0  0.00000000000E+00  0.00000000000E+00  0.70138117778E+03  0.70138117780E+03  0.50400001928E-02 0. -1.
       -1   -1    0    0    0  501  0.00000000000E+00  0.00000000000E+00 -0.70882261544E+03  0.70882261545E+03  0.50400001928E-02 0.  1.
    10030    2    1    2    0    0  0.00000000000E+00  0.00000000000E+00 -0.74414376537E+01  0.14102037933E+04  0.14101841594E+04 0.  0.
        5    1    3    3  502    0  0.11727434139E+02 -0.22555716413E+03  0.66421012078E+03  0.70157732399E+03  0.46999998093E+01 0. -1.
       -5    1    3    3    0  502 -0.11727434139E+02  0.22555716413E+03 -0.67165155843E+03  0.70862646926E+03  0.46999998093E+01 0.  1.
</event>
<event>
 5   0  0.1766237E-04  0.1422498E+04  0.7818609E-02  0.8937693E-01
       -2   -1    0    0    0  501  0.00000000000E+00  0.00000000000E+00  0.23414469825E+03  0.23414469826E+03  0.25500000920E-02 0. -1.
        2   -1    0    0  501    0  0.00000000000E+00  0.00000000000E+00 -0.21605221334E+04  0.21605221334E+04  0.25500000920E-02 0.  1.
    10030    2    1    2    0    0  0.00000000000E+00  0.00000000000E+00 -0.19263774351E+04  0.23946668316E+04  0.14224975262E+04 0.  0.
        3    1    3    3  502    0 -0.60016134703E+03  0.28115890830E+02 -0.16039758099E+04  0.17128113015E+04  0.10100000352E+00 0.  1.
       -3    1    3    3    0  502  0.60016134703E+03 -0.28115890830E+02 -0.32240162528E+03  0.68185553013E+03  0.10100000352E+00 0. -1.
</event>
<event>
 5   0  0.6671375E-05  0.1399504E+04  0.7818609E-02  0.8954178E-01
       -1   -1    0    0    0  501  0.00000000000E+00  0.00000000000E+00  0.34190263142E+03  0.34190263145E+03  0.50400001928E-02 0.  1.
        1   -1    0    0  501    0  0.00000000000E+00  0.00000000000E+00 -0.14321414130E+04  0.14321414130E+04  0.50400001928E-02 0. -1.
    10030    2    1    2    0    0  0.00000000000E+00  0.00000000000E+00 -0.10902387816E+04  0.17740440445E+04  0.13995040803E+04 0.  0.
        5    1    3    3  502    0 -0.25012667244E+03 -0.64848769157E+03 -0.44267542893E+03  0.82406508466E+03  0.46999998093E+01 0. -1.
       -5    1    3    3    0  502  0.25012667244E+03  0.64848769157E+03 -0.64756335269E+03  0.94997895984E+03  0.46999998093E+01 0.  1.
</event>
<event>
 5   0  0.1794185E-04  0.1398540E+04  0.7818609E-02  0.8954876E-01
        2   -1    0    0  501    0  0.00000000000E+00  0.00000000000E+00  0.11470499053E+04  0.11470499053E+04  0.25500000920E-02 0.  1.
       -2   -1    0    0    0  501  0.00000000000E+00  0.00000000000E+00 -0.42629236002E+03  0.42629236003E+03  0.25500000920E-02 0. -1.
    10030    2    1    2    0    0  0.00000000000E+00  0.00000000000E+00  0.72075754530E+03  0.15733422654E+04  0.13985401120E+04 0.  0.
        2    1    3    3  502    0 -0.43718726533E+03 -0.35517074324E+03  0.82653660606E+03  0.10002208371E+04  0.25500000920E-02 0.  1.
       -2    1    3    3    0  502  0.43718726533E+03  0.35517074324E+03 -0.10577906076E+03  0.57312142825E+03  0.25500000920E-02 0. -1.
</event>
<event>
 5   0  0.1712327E-04  0.1399037E+04  0.7818609E-02  0.8954516E-01
       -2   -1    0    0    0  501  0.00000000000E+00  0.00000000000E+00  0.41379221519E+03  0.41379221520E+03  0.25500000920E-02 0. -1.
        2   -1    0    0  501    0  0.00000000000E+00  0.00000000000E+00 -0.11825412330E+04  0.11825412330E+04  0.25500000920E-02 0.  1.
    10030    2    1    2    0    0  0.00000000000E+00  0.00000000000E+00 -0.76874901777E+03  0.15963334482E+04  0.13990373209E+04 0.  0.
        1    1    3    3  502    0 -0.32154420937E+03 -0.19219560713E+03  0.28969528439E+03  0.47355378555E+03  0.50400001928E-02 0. -1.
       -1    1    3    3    0  502  0.32154420937E+03  0.19219560713E+03 -0.10584443022E+04  0.11227796626E+04  0.50400001928E-02 0.  1.
</event>
<event>
 5   0  0.9260916E-05  0.1399759E+04  0.7818609E-02  0.8953993E-01
        1   -1    0    0  501    0  0.00000000000E+00  0.00000000000E+00  0.40018170625E+03  0.40018170628E+03  0.50400001928E-02 0. -1.
       -1   -1    0    0    0  501  0.00000000000E+00  0.00000000000E+00 -0.12240214423E+04  0.12240214423E+04  0.50400001928E-02 0.  1.
    10030    2    1    2    0    0  0.00000000000E+00  0.00000000000E+00 -0.82383973600E+03  0.16242031485E+04  0.13997585353E+04 0.  0.
        1    1    3    3  502    0  0.64447508231E+03 -0.25862187865E+03 -0.31077941251E+03  0.76080040162E+03  0.50400001928E-02 0. -1.
       -1    1    3    3    0  502 -0.64447508231E+03  0.25862187865E+03 -0.51306032349E+03  0.86340274693E+03  0.50400001928E-02 0.  1.
</event>
<event>
 5   0  0.1833681E-04  0.1400836E+04  0.7818609E-02  0.8953213E-01
        2   -1    0    0  501    0  0.00000000000E+00  0.00000000000E+00  0.43728738280E+03  0.43728738281E+03  0.25500000920E-02 0.  1.
       -2   -1    0    0    0  501  0.00000000000E+00  0.00000000000E+00 -0.11218839899E+04  0.11218839899E+04  0.25500000920E-02 0. -1.
    10030    2    1    2    0    0  0.00000000000E+00  0.00000000000E+00 -0.68459660708E+03  0.15591713727E+04  0.14008364840E+04 0.  0.
        4    1    3    3  502    0  0.14360335958E+02 -0.68499621941E+03 -0.18039923862E+03  0.70849949757E+03  0.12699999809E+01 0. -1.
       -4    1    3    3    0  502 -0.14360335958E+02  0.68499621941E+03 -0.50419736846E+03  0.85067187512E+03  0.12699999809E+01 0.  1.
</event>
<event>
 5   0  0.1833681E-04  0.1397930E+04  0.7818609E-02  0.8955319E-01
       -2   -1    0    0    0  501  0.00000000000E+00  0.00000000000E+00  0.64852288284E+03  0.64852288285E+03  0.25500000920E-02 0.  1.
        2   -1    0    0  501    0  0.00000000000E+00  0.00000000000E+00 -0.75333015212E+03  0.75333015213E+03  0.25500000920E-02 0. -1.
    10030    2    1    2    0    0  0.00000000000E+00  0.00000000000E+00 -0.10480726928E+03  0.14018530350E+04  0.13979296720E+04 0.  0.
        4    1    3    3  502    0  0.10318537550E+03  0.36945556644E+03  0.53353546319E+03  0.65711973085E+03  0.12699999809E+01 0.  1.
       -4    1    3    3    0  502 -0.10318537550E+03 -0.36945556644E+03 -0.63834273246E+03  0.74473330413E+03  0.12699999809E+01 0. -1.
</event>
<event>
 5   0  0.1780171E-04  0.1398129E+04  0.7818609E-02  0.8955174E-01
       -2   -1    0    0    0  501  0.00000000000E+00  0.00000000000E+00  0.63182043914E+03  0.63182043915E+03  0.25500000920E-02 0.  1.
        2   -1    0    0  501    0  0.00000000000E+00  0.00000000000E+00 -0.77346541868E+03  0.77346541868E+03  0.25500000920E-02 0. -1.
    10030    2    1    2    0    0  0.00000000000E+00  0.00000000000E+00 -0.14164497953E+03  0.14052858578E+04  0.13981291221E+04 0.  0.
        5    1    3    3  502    0 -0.31099174789E+03 -0.61742241530E+03  0.33355851768E+02  0.69214233291E+03  0.46999998093E+01 0. -1.
       -5    1    3    3    0  502  0.31099174789E+03  0.61742241530E+03 -0.17500083130E+03  0.71314352491E+03  0.46999998093E+01 0.  1.
</event>
<event>
 5   0  0.6671375E-05  0.1396394E+04  0.7818609E-02  0.8956433E-01
        3   -1    0    0  501    0  0.00000000000E+00  0.00000000000E+00  0.10710828155E+04  0.10710828203E+04  0.10100000352E+00 0.  1.
       -3   -1    0    0    0  501  0.00000000000E+00  0.00000000000E+00 -0.45512744648E+03  0.45512745769E+03  0.10100000352E+00 0. -1.
    10030    2    1    2    0    0  0.00000000000E+00  0.00000000000E+00  0.61595536904E+03  0.15262102780E+04  0.13963942122E+04 0.  0.
        3    1    3    3  502    0 -0.32366003063E+03 -0.30786122627E+03 -0.27851281714E+03  0.52640644903E+03  0.10100000352E+00 0. -1.
       -3    1    3    3    0  502  0.32366003063E+03  0.30786122627E+03  0.89446818619E+03  0.99980382894E+03  0.10100000352E+00 0.  1.
</event>
<event>
 5   0  0.9828111E-05  0.1400790E+04  0.7818609E-02  0.8953247E-01
       -1   -1    0    0    0  501  0.00000000000E+00  0.00000000000E+00  0.30624453697E+03  0.30624453701E+03  0.50400001928E-02 0.  1.
        1   -1    0    0  501    0  0.00000000000E+00  0.00000000000E+00 -0.16018344981E+04  0.16018344981E+04  0.50400001928E-02 0. -1.
    10030    2    1    2    0    0  0.00000000000E+00  0.00000000000E+00 -0.12955899611E+04  0.19080790351E+04  0.14007898689E+04 0.  0.
        4    1    3    3  502    0 -0.23807804752E+03 -0.41907526087E+03 -0.13400089423E+04  0.14240543562E+04  0.12699999809E+01 0. -1.
       -4    1    3    3    0  502  0.23807804752E+03  0.41907526087E+03  0.44418981225E+02  0.48402467889E+03  0.12699999809E+01 0.  1.
</event>
<event>
 5   0  0.9978422E-05  0.1402900E+04  0.7818609E-02  0.8951722E-01
       -1   -1    0    0    0  501  0.00000000000E+00  0.00000000000E+00  0.25498033964E+03  0.25498033968E+03  0.50400001928E-02 0.  1.
        1   -1    0    0  501    0  0.00000000000E+00  0.00000000000E+00 -0.19296851643E+04  0.19296851643E+04  0.50400001928E-02 0. -1.
    10030    2    1    2    0    0  0.00000000000E+00  0.00000000000E+00 -0.16747048247E+04  0.21846655040E+04  0.14028995383E+04 0.  0.
        2    1    3    3  502    0  0.47126278186E+03 -0.57759255431E+02 -0.16414230134E+04  0.17087112834E+04  0.25500000920E-02 0. -1.
       -2    1    3    3    0  502 -0.47126278186E+03  0.57759255431E+02 -0.33281811313E+02  0.47595422062E+03  0.25500000920E-02 0.  1.
</event>
<event>
 5   0  0.1766237E-04  0.1399234E+04  0.7818609E-02  0.8954374E-01
        2   -1    0    0  501    0  0.00000000000E+00  0.00000000000E+00  0.14657724735E+04  0.14657724735E+04  0.25500000920E-02 0. -1.
       -2   -1    0    0    0  501  0.00000000000E+00  0.00000000000E+00 -0.33392878237E+03  0.33392878238E+03  0.25500000920E-02 0.  1.
    10030    2    1    2    0    0  0.00000000000E+00  0.00000000000E+00  0.11318436911E+04  0.17997012559E+04  0.13992335292E+04 0.  0.
        3    1    3    3  502    0  0.15714837035E+03 -0.72442781977E+02  0.14378133468E+04  0.14481887990E+04  0.10100000352E+00 0. -1.
       -3    1    3    3    0  502 -0.15714837035E+03  0.72442781977E+02 -0.30596965569E+03  0.35151245691E+03  0.10100000352E+00 0.  1.
</event>
<event>
 5   0  0.1712327E-04  0.1395070E+04  0.7818609E-02  0.8957395E-01
       -2   -1    0    0    0  501  0.00000000000E+00  0.00000000000E+00  0.16238230317E+04  0.16238230317E+04  0.25500000920E-02 0.  1.
        2   -1    0    0  501    0  0.00000000000E+00  0.00000000000E+00 -0.29963572806E+03  0.29963572807E+03  0.25500000920E-02 0. -1.
    10030    2    1    2    0    0  0.00000000000E+00  0.00000000000E+00  0.13241873036E+04  0.19234587598E+04  0.13950704589E+04 0.  0.
        1    1    3    3  502    0 -0.22825870605E+03 -0.23914650281E+03  0.15089474629E+04  0.15447380142E+04  0.50400001928E-02 0.  1.
       -1    1    3    3    0  502  0.22825870605E+03  0.23914650281E+03 -0.18476015922E+03  0.37872074561E+03  0.50400001928E-02 0. -1.
</event>
<event>
 5   0  0.1833681E-04  0.1396266E+04  0.7818609E-02  0.8956526E-01
        2   -1    0    0  501    0  0.00000000000E+00  0.00000000000E+00  0.55516323487E+03  0.55516323488E+03  0.25500000920E-02 0. -1.
       -2   -1    0    0    0  501  0.00000000000E+00  0.00000000000E+00 -0.87792081655E+03  0.87792081656E+03  0.25500000920E-02 0.  1.
    10030    2    1    2    0    0  0.00000000000E+00  0.00000000000E+00 -0.32275758168E+03  0.14330840514E+04  0.13962655342E+04 0.  0.
        4    1    3    3  502    0  0.56718785721E+03 -0.22667962004E+03  0.18562212470E+03  0.63839086897E+03  0.12699999809E+01 0. -1.
       -4    1    3    3    0  502 -0.56718785721E+03  0.22667962004E+03 -0.50837970638E+03  0.79469318247E+03  0.12699999809E+01 0.  1.
</event>
<event>
 5   0  0.9900839E-05  0.1399794E+04  0.7818609E-02  0.8953968E-01
        1   -1    0    0  501    0  0.00000000000E+00  0.00000000000E+00  0.13184885919E+04  0.13184885919E+04  0.50400001928E-02 0. -1.
       -1   -1    0    0    0  501  0.00000000000E+00  0.00000000000E+00 -0.37152806400E+03  0.37152806403E+03  0.50400001928E-02 0.  1.
    10030    2    1    2    0    0  0.00000000000E+00  0.00000000000E+00  0.94696052792E+03  0.16900166560E+04  0.13997935762E+04 0.  0.
        3    1    3    3  502    0 -0.13760183572E+03  0.36663876055E+03  0.11738344897E+04  0.12374351156E+04  0.10100000352E+00 0. -1.
       -3    1    3    3    0  502  0.13760183572E+03 -0.36663876055E+03 -0.22687396178E+03  0.45258154035E+03  0.10100000352E+00 0.  1.
</event>
<event>
 5   0  0.9260916E-05  0.1406046E+04  0.7818609E-02  0.8949454E-01
        1   -1    0    0  501    0  0.00000000000E+00  0.00000000000E+00  0.60893567694E+03  0.60893567696E+03  0.50400001928E-02 0.  1.
       -1   -1    0    0    0  501  0.00000000000E+00  0.00000000000E+00 -0.81164745408E+03  0.81164745409E+03  0.50400001928E-02 0. -1.
    10030    2    1    2    0    0  0.00000000000E+00  0.00000000000E+00 -0.20271177714E+03  0.14205831311E+04  0.14060456492E+04 0.  0.
        1    1    3    3  502    0 -0.19199891627E+03 -0.64495118263E+03  0.10425617050E+03  0.68095151144E+03  0.50400001928E-02 0.  1.
       -1    1    3    3    0  502  0.19199891627E+03  0.64495118263E+03 -0.30696794763E+03  0.73963161961E+03  0.50400001928E-02 0. -1.
</event>
<event>
 5   0  0.9978422E-05  0.1400314E+04  0.7818609E-02  0.8953591E-01
        1   -1    0    0  501    0  0.00000000000E+00  0.00000000000E+00  0.36416912628E+03  0.36416912632E+03  0.50400001928E-02 0.  1.
       -1   -1    0    0    0  501  0.00000000000E+00  0.00000000000E+00 -0.13461321992E+04  0.13461321992E+04  0.50400001928E-02 0. -1.
    10030    2    1    2    0    0  0.00000000000E+00  0.00000000000E+00 -0.98196307295E+03  0.17103013256E+04  0.14003139461E+04 0.  0.
        2    1    3    3  502    0 -0.34997442841E+03  0.13338254891E+03  0.23153571365E+03  0.44032010129E+03  0.25500000920E-02 0.  1.
       -2    1    3    3    0  502  0.34997442841E+03 -0.13338254891E+03 -0.12134987866E+04  0.12699812243E+04  0.25500000920E-02 0. -1.
</event>
<event>
 5   0  0.1712327E-04  0.1400729E+04  0.7818609E-02  0.8953291E-01
        2   -1    0    0  501    0  0.00000000000E+00  0.00000000000E+00  0.31528660500E+03  0.31528660501E+03  0.25500000920E-02 0.  1.
       -2   -1    0    0    0  501  0.00000000000E+00  0.00000000000E+00 -0.15557595008E+04  0.15557595008E+04  0.25500000920E-02 0. -1.
    10030    2    1    2    0    0  0.00000000000E+00  0.00000000000E+00 -0.12404728958E+04  0.18710461058E+04  0.14007285693E+04 0.  0.
        1    1    3    3  502    0  0.37499405684E+03  0.26377480205E+03  0.86978921736E+02  0.46665085633E+03  0.50400001928E-02 0.  1.
       -1    1    3    3    0  502 -0.37499405684E+03 -0.26377480205E+03 -0.13274518175E+04  0.14043952495E+04  0.50400001928E-02 0. -1.
</event>
<event>
 5   0  0.1833681E-04  0.1400539E+04  0.7818609E-02  0.8953428E-01
       -2   -1    0    0    0  501  0.00000000000E+00  0.00000000000E+00  0.45616899531E+03  0.45616899532E+03  0.25500000920E-02 0. -1.
        2   -1    0    0  501    0  0.00000000000E+00  0.00000000000E+00 -0.10749910585E+04  0.10749910585E+04  0.25500000920E-02 0.  1.
    10030    2    1    2    0    0  0.00000000000E+00  0.00000000000E+00 -0.61882206322E+03  0.15311600538E+04  0.14005393120E+04 0.  0.
        4    1    3    3  502    0 -0.51848842981E+03  0.29901611324E+03 -0.70681698592E+03  0.92619261080E+03  0.12699999809E+01 0.  1.
       -4    1    3    3    0  502  0.51848842981E+03 -0.29901611324E+03  0.87994922700E+02  0.60496744305E+03  0.12699999809E+01 0. -1.
</event>
<event>
 5   0  0.6671375E-05  0.1398077E+04  0.7818609E-02  0.8955212E-01
       -1   -1    0    0    0  501  0.00000000000E+00  0.00000000000E+00  0.42579907318E+03  0.42579907321E+03  0.50400001928E-02 0.  1.
        1   -1    0    0  501    0  0.00000000000E+00  0.00000000000E+00 -0.11476187354E+04  0.11476187354E+04  0.50400001928E-02 0. -1.
    10030    2    1    2    0    0  0.00000000000E+00  0.00000000000E+00 -0.72181966222E+03  0.15734178086E+04  0.13980772424E+04 0.  0.
        5    1    3    3  502    0 -0.18368936601E+03  0.58546831845E+03 -0.73774420020E+03  0.95958508221E+03  0.46999998093E+01 0.  1.
       -5    1    3    3    0  502  0.18368936601E+03 -0.58546831845E+03  0.15924537977E+02  0.61383272640E+03  0.46999998093E+01 0. -1.
</event>
<event>
 5   0  0.1712327E-04  0.1407784E+04  0.7818609E-02  0.8948203E-01
        2   -1    0    0  501    0  0.00000000000E+00  0.00000000000E+00  0.62966924383E+03  0.62966924384E+03  0.25500000920E-02 0. -1.
       -2   -1    0    0    0  501  0.00000000000E+00  0.00000000000E+00 -0.78686361390E+03  0.78686361390E+03  0.25500000920E-02 0.  1.
    10030    2    1    2    0    0  0.00000000000E+00  0.00000000000E+00 -0.15719437006E+03  0.14165328577E+04  0.14077838140E+04 0.  0.
        1    1    3    3  502    0  0.93684066282E+01 -0.33159316834E+03 -0.70327912027E+03  0.77758814122E+03  0.50400001928E-02 0.  1.
       -1    1    3    3    0  502 -0.93684066282E+01  0.33159316834E+03  0.54608475021E+03  0.63894471652E+03  0.50400001928E-02 0. -1.
</event>
<event>
 5   0  0.9900839E-05  0.1394774E+04  0.7818609E-02  0.8957610E-01
        1   -1    0    0  501    0  0.00000000000E+00  0.00000000000E+00  0.59356686650E+03  0.59356686652E+03  0.50400001928E-02 0.  1.
       -1   -1    0    0    0  501  0.00000000000E+00  0.00000000000E+00 -0.81936569382E+03  0.81936569383E+03  0.50400001928E-02 0. -1.
    10030    2    1    2    0    0  0.00000000000E+00  0.00000000000E+00 -0.22579882732E+03  0.14129325603E+04  0.13947735693E+04 0.  0.
        3    1    3    3  502    0 -0.23378383302E+03  0.36164937417E+03 -0.66858752269E+03  0.79527003974E+03  0.10100000352E+00 0. -1.
       -3    1    3    3    0  502  0.23378383302E+03 -0.36164937417E+03  0.44278869537E+03  0.61766252061E+03  0.10100000352E+00 0.  1.
</event>
<event>
 5   0  0.6671375E-05  0.1397911E+04  0.7818609E-02  0.8955332E-01
        1   -1    0    0  501    0  0.00000000000E+00  0.00000000000E+00  0.12861445992E+04  0.12861445992E+04  0.50400001928E-02 0. -1.
       -1   -1    0    0    0  501  0.00000000000E+00  0.00000000000E+00 -0.37984756317E+03  0.37984756320E+03  0.50400001928E-02 0.  1.
    10030    2    1    2    0    0  0.00000000000E+00  0.00000000000E+00  0.90629703599E+03  0.16659921624E+04  0.13979111444E+04 0.  0.
        5    1    3    3  502    0 -0.85501327028E+02  0.26616548511E+03  0.12165923540E+04  0.12483082906E+04  0.46999998093E+01 0. -1.
       -5    1    3    3    0  502  0.85501327028E+02 -0.26616548511E+03 -0.31029531803E+03  0.41768387182E+03  0.46999998093E+01 0.  1.
</event>
<event>
 5   0  0.6671375E-05  0.1404370E+04  0.7818609E-02  0.8950661E-01
        1   -1    0    0  501    0  0.00000000000E+00  0.00000000000E+00  0.20148683985E+04  0.20148683985E+04  0.50400001928E-02 0.  1.
       -1   -1    0    0    0  501  0.00000000000E+00  0.00000000000E+00 -0.24471275091E+03  0.24471275096E+03  0.50400001928E-02 0. -1.
    10030    2    1    2    0    0  0.00000000000E+00  0.00000000000E+00  0.17701556475E+04  0.22595811494E+04  0.14043703052E+04 0.  0.
        5    1    3    3  502    0  0.42193790378E+03  0.22307245832E+03  0.17137317037E+04  0.17789579418E+04  0.46999998093E+01 0.  1.
       -5    1    3    3    0  502 -0.42193790378E+03 -0.22307245832E+03  0.56423943863E+02  0.48062320767E+03  0.46999998093E+01 0. -1.
</event>
<event>
 5   0  0.6671375E-05  0.1386485E+04  0.7818609E-02  0.8963660E-01
       -4   -1    0    0    0  501  0.00000000000E+00  0.00000000000E+00  0.11119849064E+04  0.11119856317E+04  0.12699999809E+01 0.  1.
        4   -1    0    0  501    0  0.00000000000E+00  0.00000000000E+00 -0.43218528087E+03  0.43218714685E+03  0.12699999809E+01 0. -1.
    10030    2    1    2    0    0  0.00000000000E+00  0.00000000000E+00  0.67979962557E+03  0.15441727785E+04  0.13864854990E+04 0.  0.
        2    1    3    3  502    0  0.52281053798E+03  0.75763283304E+02 -0.16005849919E+03  0.55198700789E+03  0.25500000920E-02 0.  1.
       -2    1    3    3    0  502 -0.52281053798E+03 -0.75763283304E+02  0.83985812475E+03  0.99218577063E+03  0.25500000920E-02 0. -1.
</event>
<event>
 5   0  0.1780171E-04  0.1402581E+04  0.7818609E-02  0.8951952E-01
        2   -1    0    0  501    0  0.00000000000E+00  0.00000000000E+00  0.11114116640E+04  0.11114116640E+04  0.25500000920E-02 0. -1.
       -2   -1    0    0    0  501  0.00000000000E+00  0.00000000000E+00 -0.44250793767E+03  0.44250793768E+03  0.25500000920E-02 0.  1.
    10030    2    1    2    0    0  0.00000000000E+00  0.00000000000E+00  0.66890372632E+03  0.15539196017E+04  0.14025811682E+04 0.  0.
        5    1    3    3  502    0 -0.11059596628E+02  0.55140529117E+03 -0.14543162386E+03  0.57038807581E+03  0.46999998093E+01 0.  1.
       -5    1    3    3    0  502  0.11059596628E+02 -0.55140529117E+03  0.81433535018E+03  0.98353152586E+03  0.46999998093E+01 0. -1.
</event>
<event>
 5   0  0.1833681E-04  0.1401503E+04  0.7818609E-02  0.8952731E-01
       -2   -1    0    0    0  501  0.00000000000E+00  0.00000000000E+00  0.56771713593E+03  0.56771713594E+03  0.25500000920E-02 0. -1.
        2   -1    0    0  501    0  0.00000000000E+00  0.00000000000E+00 -0.86496017185E+03  0.86496017186E+03  0.25500000920E-02 0.  1.
    10030    2    1    2    0    0  0.00000000000E+00  0.00000000000E+00 -0.29724303592E+03  0.14326773078E+04  0.14015030667E+04 0.  0.
        4    1    3    3  502    0 -0.40617342520E+03  0.52664293747E+03 -0.37426068768E+03  0.76315287470E+03  0.12699999809E+01 0.  1.
       -4    1    3    3    0  502  0.40617342520E+03 -0.52664293747E+03  0.77017651753E+02  0.66952443309E+03  0.12699999809E+01 0. -1.
</event>
<event>
 5   0  0.9260916E-05  0.1403646E+04  0.7818609E-02  0.8951184E-01
        1   -1    0    0  501    0  0.00000000000E+00  0.00000000000E+00  0.48807489158E+03  0.48807489161E+03  0.50400001928E-02 0. -1.
       -1   -1    0    0    0  501  0.00000000000E+00  0.00000000000E+00 -0.10091802859E+04  0.10091802859E+04  0.50400001928E-02 0.  1.
    10030    2    1    2    0    0  0.00000000000E+00  0.00000000000E+00 -0.52110539432E+03  0.14972551775E+04  0.14036460503E+04 0.  0.
        1    1    3    3  502    0  0.67614259128E+02 -0.66784338479E+03 -0.42026775393E+02  0.67257172444E+03  0.50400001928E-02 0. -1.
       -1    1    3    3    0  502 -0.67614259128E+02  0.66784338479E+03 -0.47907861893E+03  0.82468345308E+03  0.50400001928E-02 0.  1.
</event>
<event>
 5   0  0.1780171E-04  0.1397312E+04  0.7818609E-02  0.8955766E-01
       -2   -1    0    0    0  501  0.00000000000E+00  0.00000000000E+00  0.48271557089E+03  0.48271557090E+03  0.25500000920E-02 0.  1.
        2   -1    0    0  501    0  0.00000000000E+00  0.00000000000E+00 -0.10111967998E+04  0.10111967998E+04  0.25500000920E-02 0. -1.
    10030    2    1    2    0    0  0.00000000000E+00  0.00000000000E+00 -0.52848122891E+03  0.14939123707E+04  0.13973123352E+04 0.  0.
        5    1    3    3  502    0  0.67146817669E+03 -0.47536498938E+02 -0.46416877904E+03  0.81768207543E+03  0.46999998093E+01 0. -1.
       -5    1    3    3    0  502 -0.67146817669E+03  0.47536498938E+02 -0.64312449873E+02  0.67623029528E+03  0.46999998093E+01 0.  1.
</event>
<event>
 5   0  0.6671375E-05  0.1400305E+04  0.7818609E-02  0.8953597E-01
        1   -1    0    0  501    0  0.00000000000E+00  0.00000000000E+00  0.69988720565E+03  0.69988720567E+03  0.50400001928E-02 0. -1.
       -1   -1    0    0    0  501  0.00000000000E+00  0.00000000000E+00 -0.70041835668E+03  0.70041835669E+03  0.50400001928E-02 0.  1.
    10030    2    1    2    0    0  0.00000000000E+00  0.00000000000E+00 -0.53115102422E+00  0.14003055624E+04  0.14003054616E+04 0.  0.
        5    1    3    3  502    0  0.11355783461E+02 -0.38359232762E+03 -0.58585910193E+03  0.70037490313E+03  0.46999998093E+01 0.  1.
       -5    1    3    3    0  502 -0.11355783461E+02  0.38359232762E+03  0.58532795090E+03  0.69993065923E+03  0.46999998093E+01 0. -1.
</event>
<event>
 5   0  0.1766237E-04  0.1398310E+04  0.7818609E-02  0.8955043E-01
       -2   -1    0    0    0  501  0.00000000000E+00  0.00000000000E+00  0.46348738962E+03  0.46348738963E+03  0.25500000920E-02 0.  1.
        2   -1    0    0  501    0  0.00000000000E+00  0.00000000000E+00 -0.10546508505E+04  0.10546508505E+04  0.25500000920E-02 0. -1.
    10030    2    1    2    0    0  0.00000000000E+00  0.00000000000E+00 -0.59116346085E+03  0.15181382401E+04  0.13983095074E+04 0.  0.
        3    1    3    3  502    0 -0.61241612303E+03  0.16933420086E+03  0.21117282617E+02  0.63574643464E+03  0.10100000352E+00 0.  1.
       -3    1    3    3    0  502  0.61241612303E+03 -0.16933420086E+03 -0.61228074347E+03  0.88239180546E+03  0.10100000352E+00 0. -1.
</event>
<event>
 5   0  0.1780171E-04  0.1400154E+04  0.7818609E-02  0.8953707E-01
       -2   -1    0    0    0  501  0.00000000000E+00  0.00000000000E+00  0.69785302267E+03  0.69785302267E+03  0.25500000920E-02 0. -1.
        2   -1    0    0  501    0  0.00000000000E+00  0.00000000000E+00 -0.70230757783E+03  0.70230757784E+03  0.25500000920E-02 0.  1.
    10030    2    1    2    0    0  0.00000000000E+00  0.00000000000E+00 -0.44545551636E+01  0.14001606005E+04  0.14001535145E+04 0.  0.
        5    1    3    3  502    0 -0.28649407826E+03  0.58363576515E+03  0.25734254879E+03  0.69925448919E+03  0.46999998093E+01 0. -1.
       -5    1    3    3    0  502  0.28649407826E+03 -0.58363576515E+03 -0.26179710396E+03  0.70090611132E+03  0.46999998093E+01 0.  1.
</event>
<event>
 5   0  0.9828111E-05  0.1401531E+04  0.7818609E-02  0.8952711E-01
       -1   -1    0    0    0  501  0.00000000000E+00  0.00000000000E+00  0.45792683370E+03  0.45792683372E+03  0.50400001928E-02 0.  1.
        1   -1    0    0  501    0  0.00000000000E+00  0.00000000000E+00 -0.10723809459E+04  0.10723809459E+04  0.50400001928E-02 0. -1.
    10030    2    1    2    0    0  0.00000000000E+00  0.00000000000E+00 -0.61445411219E+03  0.15303077796E+04  0.14015306077E+04 0.  0.
        4    1    3    3  502    0  0.43487549156E+03  0.21501933879E+03 -0.85937934596E+03  0.98685585694E+03  0.12699999809E+01 0.  1.
       -4    1    3    3    0  502 -0.43487549156E+03 -0.21501933879E+03  0.24492523378E+03  0.54345192267E+03  0.12699999809E+01 0. -1.
</event>
<event>
 5   0  0.1766237E-04  0.1399674E+04  0.7818609E-02  0.8954054E-01
       -2   -1    0    0    0  501  0.00000000000E+00  0.00000000000E+00  0.12211800386E+04  0.12211800386E+04  0.25500000920E-02 0.  1.
        2   -1    0    0  501    0  0.00000000000E+00  0.00000000000E+00 -0.40106461129E+03  0.40106461130E+03  0.25500000920E-02 0. -1.
    10030    2    1    2    0    0  0.00000000000E+00  0.00000000000E+00  0.82011542734E+03  0.16222446499E+04  0.13996743872E+04 0.  0.
        3    1    3    3  502    0  0.61277369421E+02 -0.28121406003E+03  0.11494114926E+04  0.11848979083E+04  0.10100000352E+00 0.  1.
       -3    1    3    3    0  502 -0.61277369421E+02  0.28121406003E+03 -0.32929606530E+03  0.43734674160E+03  0.10100000352E+00 0. -1.
</event>
<event>
 5   0  0.1794185E-04  0.1397494E+04  0.7818609E-02  0.8955634E-01
       -2   -1    0    0    0  501  0.00000000000E+00  0.00000000000E+00  0.58005100775E+03  0.58005100776E+03  0.25500000920E-02 0. -1.
        2   -1    0    0  501    0  0.00000000000E+00  0.00000000000E+00 -0.84173214283E+03  0.84173214283E+03  0.25500000920E-02 0.  1.
    10030    2    1    2    0    0  0.00000000000E+00  0.00000000000E+00 -0.26168113507E+03  0.14217831506E+04  0.13974942973E+04 0.  0.
        2    1    3    3  502    0  0.46650199721E+03  0.46743024636E+03 -0.36313419686E+03  0.75364553575E+03  0.25500000920E-02 0. -1.
       -2    1    3    3    0  502 -0.46650199721E+03 -0.46743024636E+03  0.10145306178E+03  0.66813761484E+03  0.25500000920E-02 0.  1.
</event>
<event>
 5   0  0.1833681E-04  0.1403474E+04  0.7818609E-02  0.8951308E-01
        2   -1    0    0  501    0  0.00000000000E+00  0.00000000000E+00  0.71325712003E+03  0.71325712003E+03  0.25500000920E-02 0. -1.
       -2   -1    0    0    0  501  0.00000000000E+00  0.00000000000E+00 -0.69040310460E+03  0.69040310461E+03  0.25500000920E-02 0.  1.
    10030    2    1    2    0    0  0.00000000000E+00  0.00000000000E+00  0.22854015423E+02  0.14036602246E+04  0.14034741609E+04 0.  0.
        4    1    3    3  502    0  0.90497483301E+02 -0.12513387373E+03  0.69605047259E+03  0.71297696606E+03  0.12699999809E+01 0. -1.
       -4    1    3    3    0  502 -0.90497483301E+02  0.12513387373E+03 -0.67319645717E+03  0.69068325858E+03  0.12699999809E+01 0.  1.
</event>
<event>
 5   0  0.1780171E-04  0.1394195E+04  0.7818609E-02  0.8958031E-01
        2   -1    0    0  501    0  0.00000000000E+00  0.00000000000E+00  0.11747231449E+04  0.11747231450E+04  0.25500000920E-02 0.  1.
       -2   -1    0    0    0  501  0.00000000000E+00  0.00000000000E+00 -0.41366781038E+03  0.41366781039E+03  0.25500000920E-02 0. -1.
    10030    2    1    2    0    0  0.00000000000E+00  0.00000000000E+00  0.76105533457E+03  0.15883909553E+04  0.13941953252E+04 0.  0.
        5    1    3    3  502    0  0.14167415345E+03 -0.19570377308E+03 -0.36442386022E+03  0.43726236111E+03  0.46999998093E+01 0. -1.
       -5    1    3    3    0  502 -0.14167415345E+03  0.19570377308E+03  0.11254791948E+04  0.11511285942E+04  0.46999998093E+01 0.  1.
</event>
<event>
 5   0  0.1712327E-04  0.1399111E+04  0.7818609E-02  0.8954462E-01
       -2   -1    0    0    0  501  0.00000000000E+00  0.00000000000E+00  0.21407384023E+03  0.21407384024E+03  0.25500000920E-02 0. -1.
        2   -1    0    0  501    0  0.00000000000E+00  0.00000000000E+00 -0.22860234213E+04  0.22860234213E+04  0.25500000920E-02 0.  1.
    10030    2    1    2    0    0  0.00000000000E+00  0.00000000000E+00 -0.20719495811E+04  0.25000972616E+04  0.13991108786E+04 0.  0.
        1    1    3    3  502    0  0.14605615555E+02  0.63981058182E+03 -0.53116820305E+03  0.83169138782E+03  0.50400001928E-02 0. -1.
       -1    1    3    3    0  502 -0.14605615555E+02 -0.63981058182E+03 -0.15407813781E+04  0.16684058738E+04  0.50400001928E-02 0.  1.
</event>
<event>
 5   0  0.1712327E-04  0.1400297E+04  0.7818609E-02  0.8953604E-01
       -2   -1    0    0    0  501  0.00000000000E+00  0.00000000000E+00  0.64230090290E+03  0.64230090291E+03  0.25500000920E-02 0. -1.
        2   -1    0    0  501    0  0.00000000000E+00  0.00000000000E+00 -0.76320599943E+03  0.76320599943E+03  0.25500000920E-02 0.  1.
    10030    2    1    2    0    0  0.00000000000E+00  0.00000000000E+00 -0.12090509653E+03  0.14055069023E+04  0.14002969721E+04 0.  0.
        1    1    3    3  502    0 -0.69858722489E+03 -0.38389111704E+02 -0.33706307248E+02  0.70045267495E+03  0.50400001928E-02 0. -1.
       -1    1    3    3    0  502  0.69858722489E+03  0.38389111704E+02 -0.87198789281E+02  0.70505422738E+03  0.50400001928E-02 0.  1.
</event>
<event>
 5   0  0.9260916E-05  0.1401442E+04  0.7818609E-02  0.8952776E-01
        1   -1    0    0  501    0  0.00000000000E+00  0.00000000000E+00  0.10447055424E+04  0.10447055424E+04  0.50400001928E-02 0. -1.
       -1   -1    0    0    0  501  0.00000000000E+00  0.00000000000E+00 -0.46999817994E+03  0.46999817997E+03  0.50400001928E-02 0.  1.
    10030    2    1    2    0    0  0.00000000000E+00  0.00000000000E+00  0.57470736245E+03  0.15147037224E+04  0.14014416913E+04 0.  0.
        1    1    3    3  502    0 -0.45012843182E+03 -0.32348938399E+03 -0.17594900371E+03  0.58156602258E+03  0.50400001928E-02 0.  1.
       -1    1    3    3    0  502  0.45012843182E+03  0.32348938399E+03  0.75065636616E+03  0.93313769979E+03  0.50400001928E-02 0. -1.
</event>
<event>
 5   0  0.9978422E-05  0.1396007E+04  0.7818609E-02  0.8956714E-01
        1   -1    0    0  501    0  0.00000000000E+00  0.00000000000E+00  0.20986815459E+04  0.20986815459E+04  0.50400001928E-02 0. -1.
       -1   -1    0    0    0  501  0.00000000000E+00  0.00000000000E+00 -0.23214982629E+03  0.23214982635E+03  0.50400001928E-02 0.  1.
    10030    2    1    2    0    0  0.00000000000E+00  0.00000000000E+00  0.18665317196E+04  0.23308313722E+04  0.13960065278E+04 0.  0.
        2    1    3    3  502    0  0.55104054439E+03  0.42667749044E+03  0.86840302300E+03  0.11134734720E+04  0.25500000920E-02 0. -1.
       -2    1    3    3    0  502 -0.55104054439E+03 -0.42667749044E+03  0.99812869660E+03  0.12173579003E+04  0.25500000920E-02 0.  1.
</event>
<event>
 5   0  0.1712327E-04  0.1399848E+04  0.7818609E-02  0.8953928E-01
       -2   -1    0    0    0  501  0.00000000000E+00  0.00000000000E+00  0.33377663514E+03  0.33377663515E+03  0.25500000920E-02 0.  1.
        2   -1    0    0  501    0  0.00000000000E+00  0.00000000000E+00 -0.14677294734E+04  0.14677294734E+04  0.25500000920E-02 0. -1.
    10030    2    1    2    0    0  0.00000000000E+00  0.00000000000E+00 -0.11339528382E+04  0.18015061085E+04  0.13998482845E+04 0.  0.
        1    1    3    3  502    0 -0.23960458630E+03 -0.48515079503E+03  0.43857356481E+01  0.54111078939E+03  0.50400001928E-02 0.  1.
       -1    1    3    3    0  502  0.23960458630E+03  0.48515079503E+03 -0.11383385739E+04  0.12603953191E+04  0.50400001928E-02 0. -1.
</event>
<event>
 5   0  0.6671375E-05  0.1400126E+04  0.7818609E-02  0.8953728E-01
        1   -1    0    0  501    0  0.00000000000E+00  0.00000000000E+00  0.13103313141E+04  0.13103313141E+04  0.50400001928E-02 0.  1.
       -1   -1    0    0    0  501  0.00000000000E+00  0.00000000000E+00 -0.37401831234E+03  0.37401831237E+03  0.50400001928E-02 0. -1.
    10030    2    1    2    0    0  0.00000000000E+00  0.00000000000E+00  0.93631300175E+03  0.16843496265E+04  0.14001255754E+04 0.  0.
        5    1    3    3  502    0 -0.21026265299E+03  0.56420924281E+03  0.89775240880E+03  0.10809828539E+04  0.46999998093E+01 0.  1.
       -5    1    3    3    0  502  0.21026265299E+03 -0.56420924281E+03  0.38560592948E+02  0.60336677257E+03  0.46999998093E+01 0. -1.
</event>
<event>
 5   0  0.1780171E-04  0.1399774E+04  0.7818609E-02  0.8953982E-01
       -2   -1    0    0    0  501  0.00000000000E+00  0.00000000000E+00  0.47923986319E+03  0.47923986320E+03  0.25500000920E-02 0. -1.
        2   -1    0    0  501    0  0.00000000000E+00  0.00000000000E+00 -0.10221228354E+04  0.10221228354E+04  0.25500000920E-02 0.  1.
    10030    2    1    2    0    0  0.00000000000E+00  0.00000000000E+00 -0.54288297222E+03  0.15013626986E+04  0.13997742787E+04 0.  0.
        5    1    3    3  502    0  0.30186751202E+03 -0.60501778259E+03 -0.46524660925E+03  0.82076001942E+03  0.46999998093E+01 0.  1.
       -5    1    3    3    0  502 -0.30186751202E+03  0.60501778259E+03 -0.77636362974E+02  0.68060267919E+03  0.46999998093E+01 0. -1.
</event>
<event>
 5   0  0.9900839E-05  0.1390286E+04  0.7818609E-02  0.8960880E-01
        1   -1    0    0  501    0  0.00000000000E+00  0.00000000000E+00  0.15302772078E+04  0.15302772078E+04  0.50400001928E-02 0. -1.
       -1   -1    0    0    0  501  0.00000000000E+00  0.00000000000E+00 -0.31577533409E+03  0.31577533413E+03  0.50400001928E-02 0.  1.
    10030    2    1    2    0    0  0.00000000000E+00  0.00000000000E+00  0.12145018737E+04  0.18460525419E+04  0.13902860088E+04 0.  0.
        3    1    3    3  502    0  0.58752126833E+03 -0.36724203198E+03  0.53242211444E+03  0.87379704104E+03  0.10100000352E+00 0. -1.
       -3    1    3    3    0  502 -0.58752126833E+03  0.36724203198E+03  0.68207975924E+03  0.97225550087E+03  0.10100000352E+00 0.  1.
</event>
<event>
 5   0  0.1794185E-04  0.1399710E+04  0.7818609E-02  0.8954029E-01
       -2   -1    0    0    0  501  0.00000000000E+00  0.00000000000E+00  0.47304371585E+03  0.47304371585E+03  0.25500000920E-02 0.  1.
        2   -1    0    0  501    0  0.00000000000E+00  0.00000000000E+00 -0.10354158302E+04  0.10354158302E+04  0.25500000920E-02 0. -1.
    10030    2    1    2    0    0  0.00000000000E+00  0.00000000000E+00 -0.56237211439E+03  0.15084595461E+04  0.13997099011E+04 0.  0.
        2    1    3    3  502    0 -0.50660445892E+03  0.12607805227E+03 -0.78350403630E+03  0.94150004140E+03  0.25500000920E-02 0. -1.
       -2    1    3    3    0  502  0.50660445892E+03 -0.12607805227E+03  0.22113192191E+03  0.56695950469E+03  0.25500000920E-02 0.  1.
</event>
<event>
 5   0  0.9828111E-05  0.1398821E+04  0.7818609E-02  0.8954672E-01
        1   -1    0    0  501    0  0.00000000000E+00  0.00000000000E+00  0.14912000744E+04  0.14912000744E+04  0.50400001928E-02 0. -1.
       -1   -1    0    0    0  501  0.00000000000E+00  0.00000000000E+00 -0.32804117027E+03  0.32804117031E+03  0.50400001928E-02 0.  1.
    10030    2    1    2    0    0  0.00000000000E+00  0.00000000000E+00  0.11631589041E+04  0.18192412447E+04  0.13988209572E+04 0.  0.
        4    1    3    3  502    0 -0.35889733856E+02 -0.52206549461E+03 -0.21929073056E+02  0.52375848519E+03  0.12699999809E+01 0.  1.
       -4    1    3    3    0  502  0.35889733856E+02  0.52206549461E+03  0.11850879771E+04  0.12954827595E+04  0.12699999809E+01 0. -1.
</event>
<event>
 5   0  0.6671375E-05  0.1390893E+04  0.7818609E-02  0.8960438E-01
       -1   -1    0    0    0  501  0.00000000000E+00  0.00000000000E+00  0.63538868600E+03  0.63538868602E+03  0.50400001928E-02 0.  1.
        1   -1    0    0  501    0  0.00000000000E+00  0.00000000000E+00 -0.76118053742E+03  0.76118053744E+03  0.50400001928E-02 0. -1.
    10030    2    1    2    0    0  0.00000000000E+00  0.00000000000E+00 -0.12579185142E+03  0.13965692235E+04  0.13908925214E+04 0.  0.
        5    1    3    3  502    0 -0.30898899274E+03 -0.15895163905E+03 -0.66775271532E+03  0.75276530207E+03  0.46999998093E+01 0. -1.
       -5    1    3    3    0  502  0.30898899274E+03  0.15895163905E+03  0.54196086390E+03  0.64380392138E+03  0.46999998093E+01 0.  1.
</event>
<event>
 5   0  0.9260916E-05  0.1399577E+04  0.7818609E-02  0.8954124E-01
        1   -1    0    0  501    0  0.00000000000E+00  0.00000000000E+00  0.13453417355E+04  0.13453417355E+04  0.50400001928E-02 0. -1.
       -1   -1    0    0    0  501  0.00000000000E+00  0.00000000000E+00 -0.36399991682E+03  0.36399991685E+03  0.50400001928E-02 0.  1.
    10030    2    1    2    0    0  0.00000000000E+00  0.00000000000E+00  0.98134181866E+03  0.17093416523E+04  0.13995774789E+04 0.  0.
        1    1    3    3  502    0 -0.15831206987E+02  0.50011407562E+03 -0.10683083541E+03  0.51164200684E+03  0.50400001928E-02 0.  1.
       -1    1    3    3    0  502  0.15831206987E+02 -0.50011407562E+03  0.10881726541E+04  0.11976996455E+04  0.50400001928E-02 0. -1.
</event>
<event>
 5   0  0.9978422E-05  0.1397160E+04  0.7818609E-02  0.8955877E-01
        1   -1    0    0  501    0  0.00000000000E+00  0.00000000000E+00  0.36912891777E+03  0.36912891781E+03  0.50400001928E-02 0. -1.
       -1   -1    0    0    0  501  0.00000000000E+00  0.00000000000E+00 -0.13220686368E+04  0.13220686368E+04  0.50400001928E-02 0.  1.
    10030    2    1    2    0    0  0.00000000000E+00  0.00000000000E+00 -0.95293971903E+03  0.16911975546E+04  0.13971596404E+04 0.  0.
        2    1    3    3  502    0  0.34214046808E+03 -0.59642820655E+03 -0.62583743626E+03  0.92976298168E+03  0.25500000920E-02 0.  1.
       -2    1    3    3    0  502 -0.34214046808E+03  0.59642820655E+03 -0.32710228276E+03  0.76143457294E+03  0.25500000920E-02 0. -1.
</event>
<event>
 5   0  0.1766237E-04  0.1400986E+04  0.7818609E-02  0.8953105E-01
       -2   -1    0    0    0  501  0.00000000000E+00  0.00000000000E+00  0.72188551885E+03  0.72188551886E+03  0.25500000920E-02 0. -1.
        2   -1    0    0  501    0  0.00000000000E+00  0.00000000000E+00 -0.67973438668E+03  0.67973438668E+03  0.25500000920E-02 0.  1.
    10030    2    1    2    0    0  0.00000000000E+00  0.00000000000E+00  0.42151132176E+02  0.14016199055E+04  0.14009859534E+04 0.  0.
        3    1    3    3  502    0  0.27514674104E+02 -0.35064663271E+03  0.62713866290E+03  0.71903618200E+03  0.10100000352E+00 0. -1.
       -3    1    3    3    0  502 -0.27514674104E+02  0.35064663271E+03 -0.58498753073E+03  0.68258372353E+03  0.10100000352E+00 0.  1.
</event>
<event>
 5   0  0.1712327E-04  0.1398657E+04  0.7818609E-02  0.8954791E-01
        2   -1    0    0  501    0  0.00000000000E+00  0.00000000000E+00  0.76039361275E+03  0.76039361276E+03  0.25500000920E-02 0.  1.
       -2   -1    0    0    0  501  0.00000000000E+00  0.00000000000E+00 -0.64316739949E+03  0.64316739950E+03  0.25500000920E-02 0. -1.
    10030    2    1    2    0    0  0.00000000000E+00  0.00000000000E+00  0.11722621326E+03  0.14035610123E+04  0.13986570452E+04 0.  0.
        1    1    3    3  502    0 -0.32880781473E+03 -0.42738814876E+03 -0.38824040975E+03  0.66445904653E+03  0.50400001928E-02 0. -1.
       -1    1    3    3    0  502  0.32880781473E+03  0.42738814876E+03  0.50546662301E+03  0.73910196572E+03  0.50400001928E-02 0.  1.
</event>
<event>
 5   0  0.9978422E-05  0.1399597E+04  0.7818609E-02  0.8954110E-01
       -1   -1    0    0    0  501  0.00000000000E+00  0.00000000000E+00  0.49019137691E+03  0.49019137694E+03  0.50400001928E-02 0. -1.
        1   -1    0    0  501    0  0.00000000000E+00  0.00000000000E+00 -0.99903474387E+03  0.99903474388E+03  0.50400001928E-02 0.  1.
    10030    2    1    2    0    0  0.00000000000E+00  0.00000000000E+00 -0.50884336696E+03  0.14892261208E+04  0.13995973946E+04 0.  0.
        2    1    3    3  502    0  0.16331226980E+03 -0.48583236989E+03 -0.76139378154E+03  0.91783684807E+03  0.25500000920E-02 0.  1.
       -2    1    3    3    0  502 -0.16331226980E+03  0.48583236989E+03  0.25255041458E+03  0.57138927275E+03  0.25500000920E-02 0. -1.
</event>
<event>
 5   0  0.9828111E-05  0.1402322E+04  0.7818609E-02  0.8952140E-01
       -1   -1    0    0    0  501  0.00000000000E+00  0.00000000000E+00  0.29772792734E+03  0.29772792738E+03  0.50400001928E-02 0.  1.
        1   -1    0    0  501    0  0.00000000000E+00  0.00000000000E+00 -0.16512607766E+04  0.16512607766E+04  0.50400001928E-02 0. -1.
    10030    2    1    2    0    0  0.00000000000E+00  0.00000000000E+00 -0.13535328493E+04  0.19489887040E+04  0.14023215730E+04 0.  0.
        4    1    3    3  502    0  0.33198378931E+03 -0.40673932762E+03 -0.30869576435E+02  0.52593218255E+03  0.12699999809E+01 0.  1.
       -4    1    3    3    0  502 -0.33198378931E+03  0.40673932762E+03 -0.13226632728E+04  0.14230565214E+04  0.12699999809E+01 0. -1.
</event>
<event>
 5   0  0.9900839E-05  0.1380686E+04  0.7818609E-02  0.8967919E-01
       -1   -1    0    0    0  501  0.00000000000E+00  0.00000000000E+00  0.31803873244E+03  0.31803873248E+03  0.50400001928E-02 0.  1.
        1   -1    0    0  501    0  0.00000000000E+00  0.00000000000E+00 -0.14984751300E+04  0.14984751300E+04  0.50400001928E-02 0. -1.
    10030    2    1    2    0    0  0.00000000000E+00  0.00000000000E+00 -0.11804363976E+04  0.18165138625E+04  0.13806855268E+04 0.  0.
        3    1    3    3  502    0  0.24193152586E+03 -0.58362734390E+03 -0.95629684871E+03  0.11461480763E+04  0.10100000352E+00 0. -1.
       -3    1    3    3    0  502 -0.24193152586E+03  0.58362734390E+03 -0.22413954886E+03  0.67036578621E+03  0.10100000352E+00 0.  1.
</event>
<event>
 5   0  0.9828111E-05  0.1397580E+04  0.7818609E-02  0.8955572E-01
        1   -1    0    0  501    0  0.00000000000E+00  0.00000000000E+00  0.54117356484E+03  0.54117356487E+03  0.50400001928E-02 0. -1.
       -1   -1    0    0    0  501  0.00000000000E+00  0.00000000000E+00 -0.90231246728E+03  0.90231246729E+03  0.50400001928E-02 0.  1.
    10030    2    1    2    0    0  0.00000000000E+00  0.00000000000E+00 -0.36113890244E+03  0.14434860322E+04  0.13975802725E+04 0.  0.
        4    1    3    3  502    0  0.26992076367E+02 -0.23910257256E+02  0.54021079695E+03  0.54141443518E+03  0.12699999809E+01 0. -1.
       -4    1    3    3    0  502 -0.26992076367E+02  0.23910257256E+02 -0.90134969938E+03  0.90207159697E+03  0.12699999809E+01 0.  1.
</event>
<event>
 5   0  0.1794185E-04  0.1399450E+04  0.7818609E-02  0.8954217E-01
        2   -1    0    0  501    0  0.00000000000E+00  0.00000000000E+00  0.88035927300E+03  0.88035927300E+03  0.25500000920E-02 0.  1.
       -2   -1    0    0    0  501  0.00000000000E+00  0.00000000000E+00 -0.55615380644E+03  0.55615380644E+03  0.25500000920E-02 0. -1.
    10030    2    1    2    0    0  0.00000000000E+00  0.00000000000E+00  0.32420546656E+03  0.14365130794E+04  0.13994501216E+04 0.  0.
        2    1    3    3  502    0  0.37028480483E+03  0.26333000422E+03 -0.38411948852E+03  0.59498009150E+03  0.25500000920E-02 0. -1.
       -2    1    3    3    0  502 -0.37028480483E+03 -0.26333000422E+03  0.70832495508E+03  0.84153298795E+03  0.25500000920E-02 0.  1.
</event>
<event>
 5   0  0.1712327E-04  0.1400970E+04  0.7818609E-02  0.8953116E-01
        2   -1    0    0  501    0  0.00000000000E+00  0.00000000000E+00  0.45163336410E+03  0.45163336410E+03  0.25500000920E-02 0. -1.
       -2   -1    0    0    0  501  0.00000000000E+00  0.00000000000E+00 -0.10864554671E+04  0.10864554671E+04  0.25500000920E-02 0.  1.
    10030    2    1    2    0    0  0.00000000000E+00  0.00000000000E+00 -0.63482210302E+03  0.15380888312E+04  0.14009704316E+04 0.  0.
        1    1    3    3  502    0  0.40867843217E+03 -0.38607658365E+02 -0.94056538783E+03  0.10262416192E+04  0.50400001928E-02 0.  1.
       -1    1    3    3    0  502 -0.40867843217E+03  0.38607658365E+02  0.30574328481E+03  0.51184721200E+03  0.50400001928E-02 0. -1.
</event>
<event>
 5   0  0.6671375E-05  0.1400350E+04  0.7818609E-02  0.8953566E-01
       -1   -1    0    0    0  501  0.00000000000E+00  0.00000000000E+00  0.65231558212E+03  0.65231558213E+03  0.50400001928E-02 0. -1.
        1   -1    0    0  501    0  0.00000000000E+00  0.00000000000E+00 -0.75154529098E+03  0.75154529099E+03  0.50400001928E-02 0.  1.
    10030    2    1    2    0    0  0.00000000000E+00  0.00000000000E+00 -0.99229708861E+02  0.14038608731E+04  0.14003495335E+04 0.  0.
        5    1    3    3  502    0  0.53041920524E+03  0.31069646323E+03  0.28640583397E+03  0.67817934006E+03  0.46999998093E+01 0. -1.
       -5    1    3    3    0  502 -0.53041920524E+03 -0.31069646323E+03 -0.38563554283E+03  0.72568153307E+03  0.46999998093E+01 0.  1.
</event>
<event>
 5   0  0.9260916E-05  0.1398997E+04  0.7818609E-02  0.8954545E-01
        1   -1    0    0  501    0  0.00000000000E+00  0.00000000000E+00  0.67253309181E+03  0.67253309183E+03  0.50400001928E-02 0. -1.
       -1   -1    0    0    0  501  0.00000000000E+00  0.00000000000E+00 -0.72754549866E+03  0.72754549867E+03  0.50400001928E-02 0.  1.
    10030    2    1    2    0    0  0.00000000000E+00  0.00000000000E+00 -0.55012406850E+02  0.14000785905E+04  0.13989973891E+04 0.  0.
        1    1    3    3  502    0  0.59615190187E+03 -0.36347430791E+03  0.14808396945E+02  0.69837665429E+03  0.50400001928E-02 0. -1.
       -1    1    3    3    0  502 -0.59615190187E+03  0.36347430791E+03 -0.69820803795E+02  0.70170193621E+03  0.50400001928E-02 0.  1.
</event>
<event>
 5   0  0.1794185E-04  0.1404441E+04  0.7818609E-02  0.8950610E-01
        2   -1    0    0  501    0  0.00000000000E+00  0.00000000000E+00  0.10710489913E+04  0.10710489913E+04  0.25500000920E-02 0. -1.
       -2   -1    0    0    0  501  0.00000000000E+00  0.00000000000E+00 -0.46040246662E+03  0.46040246663E+03  0.25500000920E-02 0.  1.
    10030    2    1    2    0    0  0.00000000000E+00  0.00000000000E+00  0.61064652469E+03  0.15314514579E+04  0.14044409528E+04 0.  0.
        2    1    3    3  502    0  0.27068286513E+03  0.60226943636E+03  0.44720928215E+02  0.66181390804E+03  0.25500000920E-02 0.  1.
       -2    1    3    3    0  502 -0.27068286513E+03 -0.60226943636E+03  0.56592559647E+03  0.86963754990E+03  0.25500000920E-02 0. -1.
</event>
<event>
 5   0  0.9900839E-05  0.1386844E+04  0.7818609E-02  0.8963397E-01
        1   -1    0    0  501    0  0.00000000000E+00  0.00000000000E+00  0.17178072615E+04  0.17178072615E+04  0.50400001928E-02 0. -1.
       -1   -1    0    0    0  501  0.00000000000E+00  0.00000000000E+00 -0.27991171115E+03  0.27991171120E+03  0.50400001928E-02 0.  1.
    10030    2    1    2    0    0  0.00000000000E+00  0.00000000000E+00  0.14378955503E+04  0.19977189727E+04  0.13868444326E+04 0.  0.
        3    1    3    3  502    0 -0.62286277777E+03  0.19857917434E+03  0.10519526290E+04  0.12385459508E+04  0.10100000352E+00 0. -1.
       -3    1    3    3    0  502  0.62286277777E+03 -0.19857917434E+03  0.38594292134E+03  0.75917302188E+03  0.10100000352E+00 0.  1.
</event>
<event>
 5   0  0.1712327E-04  0.1400348E+04  0.7818609E-02  0.8953567E-01
        2   -1    0    0  501    0  0.00000000000E+00  0.00000000000E+00  0.13772165202E+04  0.13772165202E+04  0.25500000920E-02 0.  1.
       -2   -1    0    0    0  501  0.00000000000E+00  0.00000000000E+00 -0.35596681431E+03  0.35596681432E+03  0.25500000920E-02 0. -1.
    10030    2    1    2    0    0  0.00000000000E+00  0.00000000000E+00  0.10212497059E+04  0.17331833345E+04  0.14003476387E+04 0.  0.
        1    1    3    3  502    0 -0.50417637070E+02  0.28854891021E+03 -0.27648656119E+03  0.40279924312E+03  0.50400001928E-02 0. -1.
       -1    1    3    3    0  502  0.50417637070E+02 -0.28854891021E+03  0.12977362670E+04  0.13303840914E+04  0.50400001928E-02 0.  1.
</event>
<event>
 5   0  0.9900839E-05  0.1398448E+04  0.7818609E-02  0.8954943E-01
       -1   -1    0    0    0  501  0.00000000000E+00  0.00000000000E+00  0.40835391545E+03  0.40835391548E+03  0.50400001928E-02 0.  1.
        1   -1    0    0  501    0  0.00000000000E+00  0.00000000000E+00 -0.11972804708E+04  0.11972804708E+04  0.50400001928E-02 0. -1.
    10030    2    1    2    0    0  0.00000000000E+00  0.00000000000E+00 -0.78892655535E+03  0.16056343863E+04  0.13984479514E+04 0.  0.
        3    1    3    3  502    0  0.29620363960E+03  0.65489830128E+02  0.32886374439E+03  0.44741131695E+03  0.10100000352E+00 0.  1.
       -3    1    3    3    0  502 -0.29620363960E+03 -0.65489830128E+02 -0.11177902997E+04  0.11582230693E+04  0.10100000352E+00 0. -1.
</event>
<event>
 5   0  0.1780171E-04  0.1378074E+04  0.7818609E-02  0.8969844E-01
       -2   -1    0    0    0  501  0.00000000000E+00  0.00000000000E+00  0.33474033683E+03  0.33474033684E+03  0.25500000920E-02 0.  1.
        2   -1    0    0  501    0  0.00000000000E+00  0.00000000000E+00 -0.14183296928E+04  0.14183296928E+04  0.25500000920E-02 0. -1.
    10030    2    1    2    0    0  0.00000000000E+00  0.00000000000E+00 -0.10835893560E+04  0.17530700297E+04  0.13780742493E+04 0.  0.
        5    1    3    3  502    0 -0.47751426275E+03 -0.27215615841E+02  0.89140786835E+02  0.48654776821E+03  0.46999998093E+01 0.  1.
       -5    1    3    3    0  502  0.47751426275E+03  0.27215615841E+02 -0.11727301428E+04  0.12665222615E+04  0.46999998093E+01 0. -1.
</event>
<event>
 5   0  0.1712327E-04  0.1383755E+04  0.7818609E-02  0.8965662E-01
        2   -1    0    0  501    0  0.00000000000E+00  0.00000000000E+00  0.78028190675E+03  0.78028190675E+03  0.25500000920E-02 0. -1.
       -2   -1    0    0    0  501  0.00000000000E+00  0.00000000000E+00 -0.61348920623E+03  0.61348920624E+03  0.25500000920E-02 0.  1.
    10030    2    1    2    0    0  0.00000000000E+00  0.00000000000E+00  0.16679270051E+03  0.13937711130E+04  0.13837550760E+04 0.  0.
        1    1    3    3  502    0 -0.35031716805E+03  0.74154971273E+02 -0.51289676324E+03  0.62552711193E+03  0.50400001928E-02 0.  1.
       -1    1    3    3    0  502  0.35031716805E+03 -0.74154971273E+02  0.67968946376E+03  0.76824400106E+03  0.50400001928E-02 0. -1.
</event>
<event>
 5   0  0.9978422E-05  0.1403837E+04  0.7818609E-02  0.8951046E-01
       -1   -1    0    0    0  501  0.00000000000E+00  0.00000000000E+00  0.27329749474E+03  0.27329749479E+03  0.50400001928E-02 0.  1.
        1   -1    0    0  501    0  0.00000000000E+00  0.00000000000E+00 -0.18027581024E+04  0.18027581024E+04  0.50400001928E-02 0. -1.
    10030    2    1    2    0    0  0.00000000000E+00  0.00000000000E+00 -0.15294606077E+04  0.20760555972E+04  0.14038365618E+04 0.  0.
        2    1    3    3  502    0 -0.47070962391E+03 -0.52045984021E+03 -0.74166423240E+03  0.10210346855E+04  0.25500000920E-02 0. -1.
       -2    1    3    3    0  502  0.47070962391E+03  0.52045984021E+03 -0.78779637529E+03  0.10550209118E+04  0.25500000920E-02 0.  1.
</event>
<event>
 5   0  0.1794185E-04  0.1401390E+04  0.7818609E-02  0.8952813E-01
        2   -1    0    0  501    0  0.00000000000E+00  0.00000000000E+00  0.21493431099E+04  0.21493431099E+04  0.25500000920E-02 0. -1.
       -2   -1    0    0    0  501  0.00000000000E+00  0.00000000000E+00 -0.22842945825E+03  0.22842945827E+03  0.25500000920E-02 0.  1.
    10030    2    1    2    0    0  0.00000000000E+00  0.00000000000E+00  0.19209136517E+04  0.23777725682E+04  0.14013897134E+04 0.  0.
        2    1    3    3  502    0  0.29203983512E+03 -0.39104686538E+03  0.18135034086E+04  0.18780307583E+04  0.25500000920E-02 0. -1.
       -2    1    3    3    0  502 -0.29203983512E+03  0.39104686538E+03  0.10741024309E+03  0.49974180988E+03  0.25500000920E-02 0.  1.
</event>
<event>
 5   0  0.1712327E-04  0.1400235E+04  0.7818609E-02  0.8953649E-01
        2   -1    0    0  501    0  0.00000000000E+00  0.00000000000E+00  0.65760371992E+03  0.65760371993E+03  0.25500000920E-02 0. -1.
       -2   -1    0    0    0  501  0.00000000000E+00  0.00000000000E+00 -0.74537944218E+03  0.74537944219E+03  0.25500000920E-02 0.  1.
    10030    2    1    2    0    0  0.00000000000E+00  0.00000000000E+00 -0.87775722261E+02  0.14029831621E+04  0.14002346860E+04 0.  0.
        1    1    3    3  502    0  0.25900824891E+03  0.31282808879E+02 -0.69485566987E+03  0.74221849149E+03  0.50400001928E-02 0.  1.
       -1    1    3    3    0  502 -0.25900824891E+03 -0.31282808879E+02  0.60707994761E+03  0.66076467063E+03  0.50400001928E-02 0. -1.
</event>
<event>
 5   0  0.9978422E-05  0.1398849E+04  0.7818609E-02  0.8954652E-01
        1   -1    0    0  501    0  0.00000000000E+00  0.00000000000E+00  0.10093750720E+04  0.10093750720E+04  0.50400001928E-02 0.  1.
       -1   -1    0    0    0  501  0.00000000000E+00  0.00000000000E+00 -0.48465098907E+03  0.48465098910E+03  0.50400001928E-02 0. -1.
    10030    2    1    2    0    0  0.00000000000E+00  0.00000000000E+00  0.52472408294E+03  0.14940260611E+04  0.13988489940E+04 0.  0.
        2    1    3    3  502    0  0.10893270300E+03  0.49839202666E+03  0.77338708510E+03  0.92649259545E+03  0.25500000920E-02 0.  1.
       -2    1    3    3    0  502 -0.10893270300E+03 -0.49839202666E+03 -0.24866300216E+03  0.56753346568E+03  0.25500000920E-02 0. -1.
</event>
<event>
 5   0  0.9828111E-05  0.1404198E+04  0.7818609E-02  0.8950786E-01
       -1   -1    0    0    0  501  0.00000000000E+00  0.00000000000E+00  0.35539934137E+03  0.35539934141E+03  0.50400001928E-02 0. -1.
        1   -1    0    0  501    0  0.00000000000E+00  0.00000000000E+00 -0.13870110952E+04  0.13870110953E+04  0.50400001928E-02 0.  1.
    10030    2    1    2    0    0  0.00000000000E+00  0.00000000000E+00 -0.10316117539E+04  0.17424104367E+04  0.14041977493E+04 0.  0.
        4    1    3    3  502    0  0.55166614238E+03 -0.18633848771E+03 -0.10025698573E+04  0.11593987650E+04  0.12699999809E+01 0.  1.
       -4    1    3    3    0  502 -0.55166614238E+03  0.18633848771E+03 -0.29041896607E+02  0.58301167168E+03  0.12699999809E+01 0. -1.
</event>
<event>
 5   0  0.1780171E-04  0.1405903E+04  0.7818609E-02  0.8949557E-01
        2   -1    0    0  501    0  0.00000000000E+00  0.00000000000E+00  0.10247291920E+04  0.10247291920E+04  0.25500000920E-02 0.  1.
       -2   -1    0    0    0  501  0.00000000000E+00  0.00000000000E+00 -0.48221571149E+03  0.48221571150E+03  0.25500000920E-02 0. -1.
    10030    2    1    2    0    0  0.00000000000E+00  0.00000000000E+00  0.54251348046E+03  0.15069449035E+04  0.14059025804E+04 0.  0.
        5    1    3    3  502    0 -0.63672288698E+03 -0.11556497290E+03 -0.22965500947E+02  0.64754984518E+03  0.46999998093E+01 0. -1.
       -5    1    3    3    0  502  0.63672288698E+03  0.11556497290E+03  0.56547898141E+03  0.85939505827E+03  0.46999998093E+01 0.  1.
</event>
<event>
 5   0  0.9900839E-05  0.1410318E+04  0.7818609E-02  0.8946384E-01
        1   -1    0    0  501    0  0.00000000000E+00  0.00000000000E+00  0.16875336446E+04  0.16875336446E+04  0.50400001928E-02 0.  1.
       -1   -1    0    0    0  501  0.00000000000E+00  0.00000000000E+00 -0.29466022524E+03  0.29466022528E+03  0.50400001928E-02 0. -1.
    10030    2    1    2    0    0  0.00000000000E+00  0.00000000000E+00  0.13928734193E+04  0.19821938699E+04  0.14103177569E+04 0.  0.
        3    1    3    3  502    0 -0.69241459227E+03 -0.13164895968E+03  0.66565613987E+03  0.96946764924E+03  0.10100000352E+00 0.  1.
       -3    1    3    3    0  502  0.69241459227E+03  0.13164895968E+03  0.72721727945E+03  0.10127262206E+04  0.10100000352E+00 0. -1.
</event>
<event>
 5   0  0.9900839E-05  0.1400634E+04  0.7818609E-02  0.8953360E-01
       -1   -1    0    0    0  501  0.00000000000E+00  0.00000000000E+00  0.24850606633E+03  0.24850606638E+03  0.50400001928E-02 0. -1.
        1   -1    0    0  501    0  0.00000000000E+00  0.00000000000E+00 -0.19735684330E+04  0.19735684330E+04  0.50400001928E-02 0.  1.
    10030    2    1    2    0    0  0.00000000000E+00  0.00000000000E+00 -0.17250623666E+04  0.22220744993E+04  0.14006337537E+04 0.  0.
        3    1    3    3  502    0 -0.44856453523E+02  0.21261390341E+03  0.19367110541E+03  0.29107607359E+03  0.10100000352E+00 0. -1.
       -3    1    3    3    0  502  0.44856453523E+02 -0.21261390341E+03 -0.19187334720E+04  0.19309984258E+04  0.10100000352E+00 0.  1.
</event>
<event>
 5   0  0.1766237E-04  0.1397308E+04  0.7818609E-02  0.8955769E-01
        2   -1    0    0  501    0  0.00000000000E+00  0.00000000000E+00  0.72785087936E+03  0.72785087937E+03  0.25500000920E-02 0. -1.
       -2   -1    0    0    0  501  0.00000000000E+00  0.00000000000E+00 -0.67062876832E+03  0.67062876833E+03  0.25500000920E-02 0.  1.
    10030    2    1    2    0    0  0.00000000000E+00  0.00000000000E+00  0.57222111040E+02  0.13984796477E+04  0.13973084681E+04 0.  0.
        3    1    3    3  502    0 -0.33209525978E+03  0.24566244147E+03 -0.53531523302E+03  0.67616544250E+03  0.10100000352E+00 0.  1.
       -3    1    3    3    0  502  0.33209525978E+03 -0.24566244147E+03  0.59253734406E+03  0.72231420520E+03  0.10100000352E+00 0. -1.
</event>
<event>
 5   0  0.1780171E-04  0.1400103E+04  0.7818609E-02  0.8953744E-01
        2   -1    0    0  501    0  0.00000000000E+00  0.00000000000E+00  0.10676801539E+04  0.10676801539E+04  0.25500000920E-02 0. -1.
       -2   -1    0    0    0  501  0.00000000000E+00  0.00000000000E+00 -0.45900619323E+03  0.45900619324E+03  0.25500000920E-02 0.  1.
    10030    2    1    2    0    0  0.00000000000E+00  0.00000000000E+00  0.60867396069E+03  0.15266863472E+04  0.14001025720E+04 0.  0.
        5    1    3    3  502    0  0.14047545014E+02 -0.68431927139E+03  0.46444366147E+03  0.82717604136E+03  0.46999998093E+01 0. -1.
       -5    1    3    3    0  502 -0.14047545014E+02  0.68431927139E+03  0.14423029922E+03  0.69951030581E+03  0.46999998093E+01 0.  1.
</event>
<event>
 5   0  0.6671375E-05  0.1400296E+04  0.7818609E-02  0.8953604E-01
        1   -1    0    0  501    0  0.00000000000E+00  0.00000000000E+00  0.80355439864E+03  0.80355439865E+03  0.50400001928E-02 0. -1.
       -1   -1    0    0    0  501  0.00000000000E+00  0.00000000000E+00 -0.61004868302E+03  0.61004868304E+03  0.50400001928E-02 0.  1.
    10030    2    1    2    0    0  0.00000000000E+00  0.00000000000E+00  0.19350571562E+03  0.14136030817E+04  0.14002961153E+04 0.  0.
        5    1    3    3  502    0 -0.60525610496E+03  0.34843177507E+03  0.14667538929E+03  0.71363535106E+03  0.46999998093E+01 0.  1.
       -5    1    3    3    0  502  0.60525610496E+03 -0.34843177507E+03  0.46830326327E+02  0.69996773063E+03  0.46999998093E+01 0. -1.
</event>
<event>
 5   0  0.9978422E-05  0.1400459E+04  0.7818609E-02  0.8953486E-01
        1   -1    0    0  501    0  0.00000000000E+00  0.00000000000E+00  0.81830337097E+03  0.81830337099E+03  0.50400001928E-02 0.  1.
       -1   -1    0    0    0  501  0.00000000000E+00  0.00000000000E+00 -0.59919259612E+03  0.59919259614E+03  0.50400001928E-02 0. -1.
    10030    2    1    2    0    0  0.00000000000E+00  0.00000000000E+00  0.21911077485E+03  0.14174959671E+04  0.14004589552E+04 0.  0.
        2    1    3    3  502    0  0.38571243068E+03 -0.55099062420E+03 -0.87639181969E+02  0.67826644718E+03  0.25500000920E-02 0.  1.
       -2    1    3    3    0  502 -0.38571243068E+03  0.55099062420E+03  0.30674995682E+03  0.73922951995E+03  0.25500000920E-02 0. -1.
</event>
<event>
 5   0  0.1833681E-04  0.1412093E+04  0.7818609E-02  0.8945111E-01
        2   -1    0    0  501    0  0.00000000000E+00  0.00000000000E+00  0.10148551425E+04  0.10148551425E+04  0.25500000920E-02 0.  1.
       -2   -1    0    0    0  501  0.00000000000E+00  0.00000000000E+00 -0.49120495203E+03  0.49120495204E+03  0.25500000920E-02 0. -1.
    10030    2    1    2    0    0  0.00000000000E+00  0.00000000000E+00  0.52365019044E+03  0.15060600945E+04  0.14120932994E+04 0.  0.
        4    1    3    3  502    0 -0.32426850952E+03 -0.16271424214E+03 -0.38418236750E+03  0.52841621404E+03  0.12699999809E+01 0. -1.
       -4    1    3    3    0  502  0.32426850952E+03  0.16271424214E+03  0.90783255794E+03  0.97764388047E+03  0.12699999809E+01 0.  1.
</event>
<event>
 5   0  0.1780171E-04  0.1401491E+04  0.7818609E-02  0.8952740E-01
       -2   -1    0    0    0  501  0.00000000000E+00  0.00000000000E+00  0.35234334212E+03  0.35234334213E+03  0.25500000920E-02 0. -1.
        2   -1    0    0  501    0  0.00000000000E+00  0.00000000000E+00 -0.13936531056E+04  0.13936531056E+04  0.25500000920E-02 0.  1.
    10030    2    1    2    0    0  0.00000000000E+00  0.00000000000E+00 -0.10413097634E+04  0.17459964477E+04  0.14014911958E+04 0.  0.
        5    1    3    3  502    0 -0.83382667364E+02  0.18936409576E+03  0.31339913033E+03  0.37556961388E+03  0.46999998093E+01 0. -1.
       -5    1    3    3    0  502  0.83382667364E+02 -0.18936409576E+03 -0.13547088938E+04  0.13704268338E+04  0.46999998093E+01 0.  1.
</event>
<event>
 5   0  0.9260916E-05  0.1396548E+04  0.7818609E-02  0.8956321E-01
       -1   -1    0    0    0  501  0.00000000000E+00  0.00000000000E+00  0.29148353529E+03  0.29148353533E+03  0.50400001928E-02 0.  1.
        1   -1    0    0  501    0  0.00000000000E+00  0.00000000000E+00 -0.16727754574E+04  0.16727754574E+04  0.50400001928E-02 0. -1.
    10030    2    1    2    0    0  0.00000000000E+00  0.00000000000E+00 -0.13812919221E+04  0.19642589927E+04  0.13965478926E+04 0.  0.
        1    1    3    3  502    0  0.10034928683E+02  0.43124920989E+03 -0.14629596300E+04  0.15252302973E+04  0.50400001928E-02 0. -1.
       -1    1    3    3    0  502 -0.10034928683E+02 -0.43124920989E+03  0.81667707930E+02  0.43902869538E+03  0.50400001928E-02 0.  1.
</event>
<event>
 5   0  0.1794185E-04  0.1401255E+04  0.7818609E-02  0.8952911E-01
       -2   -1    0    0    0  501  0.00000000000E+00  0.00000000000E+00  0.18290185529E+03  0.18290185531E+03  0.25500000920E-02 0.  1.
        2   -1    0    0  501    0  0.00000000000E+00  0.00000000000E+00 -0.26838360362E+04  0.26838360362E+04  0.25500000920E-02 0. -1.
    10030    2    1    2    0    0  0.00000000000E+00  0.00000000000E+00 -0.25009341809E+04  0.28667378915E+04  0.14012545669E+04 0.  0.
        2    1    3    3  502    0  0.44285506725E+03  0.52931095785E+03 -0.10033702568E+04  0.12178023538E+04  0.25500000920E-02 0.  1.
       -2    1    3    3    0  502 -0.44285506725E+03 -0.52931095785E+03 -0.14975639241E+04  0.16489355377E+04  0.25500000920E-02 0. -1.
</event>
<event>
 5   0  0.6671375E-05  0.1399695E+04  0.7818609E-02  0.8954039E-01
        3   -1    0    0  501    0  0.00000000000E+00  0.00000000000E+00  0.10138292360E+04  0.10138292411E+04  0.10100000352E+00 0.  1.
       -3   -1    0    0    0  501  0.00000000000E+00  0.00000000000E+00 -0.48310549079E+03  0.48310550134E+03  0.10100000352E+00 0. -1.
    10030    2    1    2    0    0  0.00000000000E+00  0.00000000000E+00  0.53072374524E+03  0.14969347424E+04  0.13996949415E+04 0.  0.
        4    1    3    3  502    0  0.47665218172E+03 -0.31911418112E+02 -0.28160723785E+03  0.55454475947E+03  0.12699999809E+01 0. -1.
       -4    1    3    3    0  502 -0.47665218172E+03  0.31911418112E+02  0.81233098309E+03  0.94238998293E+03  0.12699999809E+01 0.  1.
</event>
<event>
 5   0  0.9978422E-05  0.1399307E+04  0.7818609E-02  0.8954321E-01
        1   -1    0    0  501    0  0.00000000000E+00  0.00000000000E+00  0.85190831847E+03  0.85190831849E+03  0.50400001928E-02 0. -1.
       -1   -1    0    0    0  501  0.00000000000E+00  0.00000000000E+00 -0.57460962452E+03  0.57460962454E+03  0.50400001928E-02 0.  1.
    10030    2    1    2    0    0  0.00000000000E+00  0.00000000000E+00  0.27729869396E+03  0.14265179430E+04  0.13993065697E+04 0.  0.
        2    1    3    3  502    0  0.25477496367E+03 -0.20940724979E+03  0.76770063458E+03  0.83553931249E+03  0.25500000920E-02 0. -1.
       -2    1    3    3    0  502 -0.25477496367E+03  0.20940724979E+03 -0.49040194062E+03  0.59097863054E+03  0.25500000920E-02 0.  1.
</event>
<event>
 5   0  0.1712327E-04  0.1404156E+04  0.7818609E-02  0.8950816E-01
       -2   -1    0    0    0  501  0.00000000000E+00  0.00000000000E+00  0.13339880255E+04  0.13339880255E+04  0.25500000920E-02 0.  1.
        2   -1    0    0  501    0  0.00000000000E+00  0.00000000000E+00 -0.36950348301E+03  0.36950348302E+03  0.25500000920E-02 0. -1.
    10030    2    1    2    0    0  0.00000000000E+00  0.00000000000E+00  0.96448454251E+03  0.17034915086E+04  0.14041555779E+04 0.  0.
        1    1    3    3  502    0  0.45635279395E+03  0.47413842930E+03  0.77903272225E+03  0.10197828715E+04  0.50400001928E-02 0.  1.
       -1    1    3    3    0  502 -0.45635279395E+03 -0.47413842930E+03  0.18545182026E+03  0.68370863703E+03  0.50400001928E-02 0. -1.
</event>
<event>
 5   0  0.9900839E-05  0.1398647E+04  0.7818609E-02  0.8954798E-01
        1   -1    0    0  501    0  0.00000000000E+00  0.00000000000E+00  0.10473705753E+04  0.10473705753E+04  0.50400001928E-02 0.  1.
       -1   -1    0    0    0  501  0.00000000000E+00  0.00000000000E+00 -0.46693473232E+03  0.46693473234E+03  0.50400001928E-02 0. -1.
    10030    2    1    2    0    0  0.00000000000E+00  0.00000000000E+00  0.58043584298E+03  0.15143053077E+04  0.13986474885E+04 0.  0.
        3    1    3    3  502    0 -0.51791094125E+03 -0.94528672012E+02  0.78859331199E+03  0.94818080280E+03  0.10100000352E+00 0.  1.
       -3    1    3    3    0  502  0.51791094125E+03  0.94528672012E+02 -0.20815746900E+03  0.56612450485E+03  0.10100000352E+00 0. -1.
</event>
<event>
 5   0  0.9900839E-05  0.1397916E+04  0.7818609E-02  0.8955328E-01
        1   -1    0    0  501    0  0.00000000000E+00  0.00000000000E+00  0.47393715338E+03  0.47393715340E+03  0.50400001928E-02 0. -1.
       -1   -1    0    0    0  501  0.00000000000E+00  0.00000000000E+00 -0.10308171960E+04  0.10308171960E+04  0.50400001928E-02 0.  1.
    10030    2    1    2    0    0  0.00000000000E+00  0.00000000000E+00 -0.55688004263E+03  0.15047543494E+04  0.13979164032E+04 0.  0.
        3    1    3    3  502    0 -0.63125625710E+03 -0.27451997946E+03 -0.14794410450E+03  0.70408319786E+03  0.10100000352E+00 0. -1.
       -3    1    3    3    0  502  0.63125625710E+03  0.27451997946E+03 -0.40893593812E+03  0.80067115156E+03  0.10100000352E+00 0.  1.
</event>
<event>
 5   0  0.1833681E-04  0.1399739E+04  0.7818609E-02  0.8954008E-01
        2   -1    0    0  501    0  0.00000000000E+00  0.00000000000E+00  0.11355024481E+04  0.11355024481E+04  0.25500000920E-02 0.  1.
       -2   -1    0    0    0  501  0.00000000000E+00  0.00000000000E+00 -0.43136584142E+03  0.43136584143E+03  0.25500000920E-02 0. -1.
    10030    2    1    2    0    0  0.00000000000E+00  0.00000000000E+00  0.70413660668E+03  0.15668682895E+04  0.13997385027E+04 0.  0.
        4    1    3    3  502    0  0.53816050055E+03  0.18788887649E+03  0.80662825681E+03  0.98770932559E+03  0.12699999809E+01 0.  1.
       -4    1    3    3    0  502 -0.53816050055E+03 -0.18788887649E+03 -0.10249165013E+03  0.57915896394E+03  0.12699999809E+01 0. -1.
</event>
<event>
 5   0  0.1712327E-04  0.1402480E+04  0.7818609E-02  0.8952025E-01
        2   -1    0    0  501    0  0.00000000000E+00  0.00000000000E+00  0.84259728831E+03  0.84259728832E+03  0.25500000920E-02 0.  1.
       -2   -1    0    0    0  501  0.00000000000E+00  0.00000000000E+00 -0.58359727815E+03  0.58359727815E+03  0.25500000920E-02 0. -1.
    10030    2    1    2    0    0  0.00000000000E+00  0.00000000000E+00  0.25900001017E+03  0.14261945665E+04  0.14024799236E+04 0.  0.
        1    1    3    3  502    0  0.16951370350E+03  0.63125750724E+03  0.38779600773E+03  0.76000439457E+03  0.50400001928E-02 0.  1.
       -1    1    3    3    0  502 -0.16951370350E+03 -0.63125750724E+03 -0.12879599757E+03  0.66619017190E+03  0.50400001928E-02 0. -1.
</event>
<event>
 5   0  0.6671375E-05  0.1399494E+04  0.7818609E-02  0.8954185E-01
        4   -1    0    0  501    0  0.00000000000E+00  0.00000000000E+00  0.10908817969E+04  0.10908825362E+04  0.12699999809E+01 0. -1.
       -4   -1    0    0    0  501  0.00000000000E+00  0.00000000000E+00 -0.44885116698E+03  0.44885296367E+03  0.12699999809E+01 0.  1.
    10030    2    1    2    0    0  0.00000000000E+00  0.00000000000E+00  0.64203062992E+03  0.15397354998E+04  0.13994935083E+04 0.  0.
        4    1    3    3  502    0  0.21445403006E+03 -0.74552171650E+02  0.10492302074E+04  0.10735148803E+04  0.12699999809E+01 0. -1.
       -4    1    3    3    0  502 -0.21445403006E+03  0.74552171650E+02 -0.40719957744E+03  0.46622061953E+03  0.12699999809E+01 0.  1.
</event>
<event>
 5   0  0.9828111E-05  0.1391299E+04  0.7818609E-02  0.8960141E-01
       -1   -1    0    0    0  501  0.00000000000E+00  0.00000000000E+00  0.16220627533E+03  0.16220627541E+03  0.50400001928E-02 0.  1.
        1   -1    0    0  501    0  0.00000000000E+00  0.00000000000E+00 -0.29834122058E+04  0.29834122058E+04  0.50400001928E-02 0. -1.
    10030    2    1    2    0    0  0.00000000000E+00  0.00000000000E+00 -0.28212059304E+04  0.31456184812E+04  0.13912989352E+04 0.  0.
        4    1    3    3  502    0  0.49703078603E+03 -0.43105768739E+03 -0.19215725394E+04  0.20310817239E+04  0.12699999809E+01 0.  1.
       -4    1    3    3    0  502 -0.49703078603E+03  0.43105768739E+03 -0.89963339104E+03  0.11145367573E+04  0.12699999809E+01 0. -1.
</event>
<event>
 5   0  0.6671375E-05  0.1400153E+04  0.7818609E-02  0.8953708E-01
        1   -1    0    0  501    0  0.00000000000E+00  0.00000000000E+00  0.15405858063E+04  0.15405858063E+04  0.50400001928E-02 0.  1.
       -1   -1    0    0    0  501  0.00000000000E+00  0.00000000000E+00 -0.31813024062E+03  0.31813024066E+03  0.50400001928E-02 0. -1.
    10030    2    1    2    0    0  0.00000000000E+00  0.00000000000E+00  0.12224555656E+04  0.18587160469E+04  0.14001527535E+04 0.  0.
        5    1    3    3  502    0  0.45159431231E+03 -0.98313951406E+02  0.13092526485E+04  0.13884407238E+04  0.46999998093E+01 0.  1.
       -5    1    3    3    0  502 -0.45159431231E+03  0.98313951406E+02 -0.86797082850E+02  0.47027532313E+03  0.46999998093E+01 0. -1.
</event>
<event>
 5   0  0.1794185E-04  0.1400995E+04  0.7818609E-02  0.8953099E-01
       -2   -1    0    0    0  501  0.00000000000E+00  0.00000000000E+00  0.59536389948E+03  0.59536389948E+03  0.25500000920E-02 0.  1.
        2   -1    0    0  501    0  0.00000000000E+00  0.00000000000E+00 -0.82419617536E+03  0.82419617537E+03  0.25500000920E-02 0. -1.
    10030    2    1    2    0    0  0.00000000000E+00  0.00000000000E+00 -0.22883227588E+03  0.14195600748E+04  0.14009948592E+04 0.  0.
        2    1    3    3  502    0 -0.61282558701E+03 -0.61374061489E+02  0.22373469093E+03  0.65527031633E+03  0.25500000920E-02 0.  1.
       -2    1    3    3    0  502  0.61282558701E+03  0.61374061489E+02 -0.45256696682E+03  0.76428975852E+03  0.25500000920E-02 0. -1.
</event>
<event>
 5   0  0.9828111E-05  0.1408999E+04  0.7818609E-02  0.8947330E-01
       -1   -1    0    0    0  501  0.00000000000E+00  0.00000000000E+00  0.54792052114E+03  0.54792052116E+03  0.50400001928E-02 0.  1.
        1   -1    0    0  501    0  0.00000000000E+00  0.00000000000E+00 -0.90582410709E+03  0.90582410710E+03  0.50400001928E-02 0. -1.
    10030    2    1    2    0    0  0.00000000000E+00  0.00000000000E+00 -0.35790358595E+03  0.14537446283E+04  0.14089991013E+04 0.  0.
        4    1    3    3  502    0 -0.35716504297E+03  0.14678897198E+03  0.42900098946E+03  0.57719782750E+03  0.12699999809E+01 0.  1.
       -4    1    3    3    0  502  0.35716504297E+03 -0.14678897198E+03 -0.78690457541E+03  0.87654680076E+03  0.12699999809E+01 0. -1.
</event>
<event>
 5   0  0.1780171E-04  0.1384237E+04  0.7818609E-02  0.8965309E-01
        2   -1    0    0  501    0  0.00000000000E+00  0.00000000000E+00  0.13938833775E+04  0.13938833775E+04  0.25500000920E-02 0.  1.
       -2   -1    0    0    0  501  0.00000000000E+00  0.00000000000E+00 -0.34366411634E+03  0.34366411635E+03  0.25500000920E-02 0. -1.
    10030    2    1    2    0    0  0.00000000000E+00  0.00000000000E+00  0.10502192612E+04  0.17375474939E+04  0.13842365394E+04 0.  0.
        5    1    3    3  502    0 -0.12434210234E+03  0.47690557711E+03 -0.84819857916E+02  0.50011637265E+03  0.46999998093E+01 0. -1.
       -5    1    3    3    0  502  0.12434210234E+03 -0.47690557711E+03  0.11350391191E+04  0.12374311212E+04  0.46999998093E+01 0.  1.
</event>
<event>
 5   0  0.6671375E-05  0.1403725E+04  0.7818609E-02  0.8951127E-01
       -1   -1    0    0    0  501  0.00000000000E+00  0.00000000000E+00  0.18470515544E+03  0.18470515551E+03  0.50400001928E-02 0.  1.
        1   -1    0    0  501    0  0.00000000000E+00  0.00000000000E+00 -0.26670120735E+04  0.26670120735E+04  0.50400001928E-02 0. -1.
    10030    2    1    2    0    0  0.00000000000E+00  0.00000000000E+00 -0.24823069181E+04  0.28517172290E+04  0.14037248729E+04 0.  0.
        5    1    3    3  502    0 -0.64532577120E+03 -0.15834937679E+03 -0.17002486819E+04  0.18254828255E+04  0.46999998093E+01 0. -1.
       -5    1    3    3    0  502  0.64532577120E+03  0.15834937679E+03 -0.78205823620E+03  0.10262344035E+04  0.46999998093E+01 0.  1.
</event>
<event>
 5   0  0.9260916E-05  0.1399725E+04  0.7818609E-02  0.8954018E-01
        1   -1    0    0  501    0  0.00000000000E+00  0.00000000000E+00  0.12767108939E+04  0.12767108939E+04  0.50400001928E-02 0.  1.
       -1   -1    0    0    0  501  0.00000000000E+00  0.00000000000E+00 -0.38364798020E+03  0.38364798024E+03  0.50400001928E-02 0. -1.
    10030    2    1    2    0    0  0.00000000000E+00  0.00000000000E+00  0.89306291366E+03  0.16603588741E+04  0.13997250527E+04 0.  0.
        1    1    3    3  502    0  0.43246968474E+03 -0.65277997604E+02 -0.20157039832E+03  0.48158267275E+03  0.50400001928E-02 0. -1.
       -1    1    3    3    0  502 -0.43246968474E+03  0.65277997604E+02  0.10946333120E+04  0.11787762014E+04  0.50400001928E-02 0.  1.
</event>
<event>
 5   0  0.1794185E-04  0.1396911E+04  0.7818609E-02  0.8956058E-01
       -2   -1    0    0    0  501  0.00000000000E+00  0.00000000000E+00  0.92259970705E+03  0.92259970706E+03  0.25500000920E-02 0.  1.
        2   -1    0    0  501    0  0.00000000000E+00  0.00000000000E+00 -0.52876650441E+03  0.52876650442E+03  0.25500000920E-02 0. -1.
    10030    2    1    2    0    0  0.00000000000E+00  0.00000000000E+00  0.39383320264E+03  0.14513662115E+04  0.13969106229E+04 0.  0.
        2    1    3    3  502    0 -0.67299924447E+03 -0.44465532258E+02  0.83629484134E+01  0.67451842489E+03  0.25500000920E-02 0. -1.
       -2    1    3    3    0  502  0.67299924447E+03  0.44465532258E+02  0.38547025423E+03  0.77684778658E+03  0.25500000920E-02 0.  1.
</event>
<event>
 5   0  0.6671375E-05  0.1401144E+04  0.7818609E-02  0.8952991E-01
       -1   -1    0    0    0  501  0.00000000000E+00  0.00000000000E+00  0.21225125765E+03  0.21225125771E+03  0.50400001928E-02 0. -1.
        1   -1    0    0  501    0  0.00000000000E+00  0.00000000000E+00 -0.23123582805E+04  0.23123582805E+04  0.50400001928E-02 0.  1.
    10030    2    1    2    0    0  0.00000000000E+00  0.00000000000E+00 -0.21001070228E+04  0.25246095382E+04  0.14011437517E+04 0.  0.
        5    1    3    3  502    0  0.11252756061E+03  0.60622888756E+03 -0.16492853414E+04  0.17607782777E+04  0.46999998093E+01 0.  1.
       -5    1    3    3    0  502 -0.11252756061E+03 -0.60622888756E+03 -0.45082168146E+03  0.76383126048E+03  0.46999998093E+01 0. -1.
</event>
<event>
 5   0  0.1712327E-04  0.1400514E+04  0.7818609E-02  0.8953447E-01
        2   -1    0    0  501    0  0.00000000000E+00  0.00000000000E+00  0.22840690022E+04  0.22840690022E+04  0.25500000920E-02 0. -1.
       -2   -1    0    0    0  501  0.00000000000E+00  0.00000000000E+00 -0.21468693683E+03  0.21468693684E+03  0.25500000920E-02 0.  1.
    10030    2    1    2    0    0  0.00000000000E+00  0.00000000000E+00  0.20693820654E+04  0.24987559391E+04  0.14005138737E+04 0.  0.
        1    1    3    3  502    0  0.40325085762E+03 -0.53387434433E+03  0.14034869798E+04  0.15548018434E+04  0.50400001928E-02 0. -1.
       -1    1    3    3    0  502 -0.40325085762E+03  0.53387434433E+03  0.66589508562E+03  0.94395409570E+03  0.50400001928E-02 0.  1.
</event>
<event>
 5   0  0.9260916E-05  0.1399560E+04  0.7818609E-02  0.8954137E-01
       -1   -1    0    0    0  501  0.00000000000E+00  0.00000000000E+00  0.64706291597E+03  0.64706291599E+03  0.50400001928E-02 0.  1.
        1   -1    0    0  501    0  0.00000000000E+00  0.00000000000E+00 -0.75679174460E+03  0.75679174462E+03  0.50400001928E-02 0. -1.
    10030    2    1    2    0    0  0.00000000000E+00  0.00000000000E+00 -0.10972882864E+03  0.14038546606E+04  0.13995597494E+04 0.  0.
        1    1    3    3  502    0  0.81974796053E+01  0.35747552051E+03 -0.65823835178E+03  0.74908856233E+03  0.50400001928E-02 0. -1.
       -1    1    3    3    0  502 -0.81974796053E+01 -0.35747552051E+03  0.54850952315E+03  0.65476609827E+03  0.50400001928E-02 0.  1.
</event>
<event>
 5   0  0.9978422E-05  0.1399996E+04  0.7818609E-02  0.8953821E-01
        1   -1    0    0  501    0  0.00000000000E+00  0.00000000000E+00  0.17231048641E+04  0.17231048641E+04  0.50400001928E-02 0. -1.
       -1   -1    0    0    0  501  0.00000000000E+00  0.00000000000E+00 -0.28436888501E+03  0.28436888505E+03  0.50400001928E-02 0.  1.
    10030    2    1    2    0    0  0.00000000000E+00  0.00000000000E+00  0.14387359791E+04  0.20074737492E+04  0.13999962986E+04 0.  0.
        2    1    3    3  502    0 -0.11804162737E+03  0.42780734309E+03 -0.56860798641E+02  0.44742161216E+03  0.25500000920E-02 0.  1.
       -2    1    3    3    0  502  0.11804162737E+03 -0.42780734309E+03  0.14955967778E+04  0.15600521370E+04  0.25500000920E-02 0. -1.
</event>
<event>
 5   0  0.1833681E-04  0.1402599E+04  0.7818609E-02  0.8951939E-01
       -2   -1    0    0    0  501  0.00000000000E+00  0.00000000000E+00  0.44169620131E+03  0.44169620132E+03  0.25500000920E-02 0.  1.
        2   -1    0    0  501    0  0.00000000000E+00  0.00000000000E+00 -0.11134823760E+04  0.11134823760E+04  0.25500000920E-02 0. -1.
    10030    2    1    2    0    0  0.00000000000E+00  0.00000000000E+00 -0.67178617467E+03  0.15551785773E+04  0.14025989244E+04 0.  0.
        4    1    3    3  502    0 -0.46774662807E+03  0.36092284383E+03  0.83055621412E+02  0.59661717745E+03  0.12699999809E+01 0.  1.
       -4    1    3    3    0  502  0.46774662807E+03 -0.36092284383E+03 -0.75484179608E+03  0.95856139985E+03  0.12699999809E+01 0. -1.
</event>
<event>
 5   0  0.1794185E-04  0.1403263E+04  0.7818609E-02  0.8951460E-01
        2   -1    0    0  501    0  0.00000000000E+00  0.00000000000E+00  0.61837781348E+03  0.61837781348E+03  0.25500000920E-02 0. -1.
       -2   -1    0    0    0  501  0.00000000000E+00  0.00000000000E+00 -0.79609335366E+03  0.79609335366E+03  0.25500000920E-02 0.  1.
    10030    2    1    2    0    0  0.00000000000E+00  0.00000000000E+00 -0.17771554018E+03  0.14144711671E+04  0.14032625804E+04 0.  0.
        2    1    3    3  502    0  0.87953343102E+02 -0.21706124328E+03  0.57781384654E+03  0.62347430994E+03  0.25500000920E-02 0. -1.
       -2    1    3    3    0  502 -0.87953343102E+02  0.21706124328E+03 -0.75552938673E+03  0.79099685720E+03  0.25500000920E-02 0.  1.
</event>
<event>
 5   0  0.1833681E-04  0.1400451E+04  0.7818609E-02  0.8953492E-01
       -2   -1    0    0    0  501  0.00000000000E+00  0.00000000000E+00  0.26822521806E+03  0.26822521807E+03  0.25500000920E-02 0. -1.
        2   -1    0    0  501    0  0.00000000000E+00  0.00000000000E+00 -0.18280001252E+04  0.18280001252E+04  0.25500000920E-02 0.  1.
    10030    2    1    2    0    0  0.00000000000E+00  0.00000000000E+00 -0.15597749072E+04  0.20962253433E+04  0.14004509734E+04 0.  0.
        4    1    3    3  502    0 -0.85266456334E+02  0.18503457986E+03 -0.17826529055E+04  0.17942578295E+04  0.12699999809E+01 0.  1.
       -4    1    3    3    0  502  0.85266456334E+02 -0.18503457986E+03  0.22287799836E+03  0.30196751377E+03  0.12699999809E+01 0. -1.
</event>
<event>
 5   0  0.9978422E-05  0.1401628E+04  0.7818609E-02  0.8952641E-01
       -1   -1    0    0    0  501  0.00000000000E+00  0.00000000000E+00  0.86317567563E+03  0.86317567564E+03  0.50400001928E-02 0. -1.
        1   -1    0    0  501    0  0.00000000000E+00  0.00000000000E+00 -0.56899247500E+03  0.56899247502E+03  0.50400001928E-02 0.  1.
    10030    2    1    2    0    0  0.00000000000E+00  0.00000000000E+00  0.29418320063E+03  0.14321681507E+04  0.14016282875E+04 0.  0.
        2    1    3    3  502    0  0.47077832136E+03 -0.23836310734E+03 -0.32414171321E+03  0.61928753342E+03  0.25500000920E-02 0.  1.
       -2    1    3    3    0  502 -0.47077832136E+03  0.23836310734E+03  0.61832491384E+03  0.81288061724E+03  0.25500000920E-02 0. -1.
</event>
<event>
 5   0  0.1712327E-04  0.1399377E+04  0.7818609E-02  0.8954270E-01
        2   -1    0    0  501    0  0.00000000000E+00  0.00000000000E+00  0.10235524784E+04  0.10235524784E+04  0.25500000920E-02 0.  1.
       -2   -1    0    0    0  501  0.00000000000E+00  0.00000000000E+00 -0.47829879391E+03  0.47829879392E+03  0.25500000920E-02 0. -1.
    10030    2    1    2    0    0  0.00000000000E+00  0.00000000000E+00  0.54525368449E+03  0.15018512723E+04  0.13993768841E+04 0.  0.
        1    1    3    3  502    0 -0.48332125354E+03  0.13087657053E+03 -0.25186887757E+03  0.56050516711E+03  0.50400001928E-02 0. -1.
       -1    1    3    3    0  502  0.48332125354E+03 -0.13087657053E+03  0.79712256206E+03  0.94134610522E+03  0.50400001928E-02 0.  1.
</event>
<event>
 5   0  0.9828111E-05  0.1404236E+04  0.7818609E-02  0.8950758E-01
       -1   -1    0    0    0  501  0.00000000000E+00  0.00000000000E+00  0.47549300363E+03  0.47549300365E+03  0.50400001928E-02 0. -1.
        1   -1    0    0  501    0  0.00000000000E+00  0.00000000000E+00 -0.10367550121E+04  0.10367550121E+04  0.50400001928E-02 0.  1.
    10030    2    1    2    0    0  0.00000000000E+00  0.00000000000E+00 -0.56126200850E+03  0.15122480158E+04  0.14042360981E+04 0.  0.
        4    1    3    3  502    0 -0.30575510769E+03  0.26044102715E+03  0.33955859742E+03  0.52594426367E+03  0.12699999809E+01 0. -1.
       -4    1    3    3    0  502  0.30575510769E+03 -0.26044102715E+03 -0.90082060592E+03  0.98630375212E+03  0.12699999809E+01 0.  1.
</event>
<event>
 5   0  0.9978422E-05  0.1401493E+04  0.7818609E-02  0.8952739E-01
        1   -1    0    0  501    0  0.00000000000E+00  0.00000000000E+00  0.57123306583E+03  0.57123306585E+03  0.50400001928E-02 0. -1.
       -1   -1    0    0    0  501  0.00000000000E+00  0.00000000000E+00 -0.85962344143E+03  0.85962344144E+03  0.50400001928E-02 0.  1.
    10030    2    1    2    0    0  0.00000000000E+00  0.00000000000E+00 -0.28839037560E+03  0.14308565073E+04  0.14014925386E+04 0.  0.
        2    1    3    3  502    0 -0.24091093060E+03 -0.24906124968E+03 -0.76603432846E+03  0.84076047419E+03  0.25500000920E-02 0.  1.
       -2    1    3    3    0  502  0.24091093060E+03  0.24906124968E+03  0.47764395286E+03  0.59009603310E+03  0.25500000920E-02 0. -1.
</event>
<event>
 5   0  0.9260916E-05  0.1401213E+04  0.7818609E-02  0.8952941E-01
        1   -1    0    0  501    0  0.00000000000E+00  0.00000000000E+00  0.23855335207E+04  0.23855335207E+04  0.50400001928E-02 0.  1.
       -1   -1    0    0    0  501  0.00000000000E+00  0.00000000000E+00 -0.20576084265E+03  0.20576084272E+03  0.50400001928E-02 0. -1.
    10030    2    1    2    0    0  0.00000000000E+00  0.00000000000E+00  0.21797726780E+04  0.25912943634E+04  0.14012128853E+04 0.  0.
        1    1    3    3  502    0  0.37799048410E+02 -0.36015688083E+03 -0.19256448430E+02  0.36264660167E+03  0.50400001928E-02 0. -1.
       -1    1    3    3    0  502 -0.37799048410E+02  0.36015688083E+03  0.21990291265E+04  0.22286477617E+04  0.50400001928E-02 0.  1.
</event>
<event>
 5   0  0.1712327E-04  0.1399589E+04  0.7818609E-02  0.8954116E-01
       -2   -1    0    0    0  501  0.00000000000E+00  0.00000000000E+00  0.53807153508E+03  0.53807153509E+03  0.25500000920E-02 0. -1.
        2   -1    0    0  501    0  0.00000000000E+00  0.00000000000E+00 -0.91012537656E+03  0.91012537657E+03  0.25500000920E-02 0.  1.
    10030    2    1    2    0    0  0.00000000000E+00  0.00000000000E+00 -0.37205384148E+03  0.14481969117E+04  0.13995893090E+04 0.  0.
        1    1    3    3  502    0  0.29189302839E+03  0.57938518181E+03 -0.45748102835E+03  0.79383727567E+03  0.50400001928E-02 0.  1.
       -1    1    3    3    0  502 -0.29189302839E+03 -0.57938518181E+03  0.85427186872E+02  0.65435963598E+03  0.50400001928E-02 0. -1.
</event>
<event>
 5   0  0.9900839E-05  0.1401568E+04  0.7818609E-02  0.8952684E-01
        1   -1    0    0  501    0  0.00000000000E+00  0.00000000000E+00  0.14677383520E+04  0.14677383520E+04  0.50400001928E-02 0. -1.
       -1   -1    0    0    0  501  0.00000000000E+00  0.00000000000E+00 -0.33459530184E+03  0.33459530188E+03  0.50400001928E-02 0.  1.
    10030    2    1    2    0    0  0.00000000000E+00  0.00000000000E+00  0.11331430502E+04  0.18023336539E+04  0.14015682031E+04 0.  0.
        3    1    3    3  502    0  0.36299767181E+03 -0.44500453007E+02 -0.20214869166E+03  0.41786565281E+03  0.10100000352E+00 0.  1.
       -3    1    3    3    0  502 -0.36299767181E+03  0.44500453007E+02  0.13352917418E+04  0.13844680011E+04  0.10100000352E+00 0. -1.
</event>
<event>
 5   0  0.6671375E-05  0.1398312E+04  0.7818609E-02  0.8955041E-01
        1   -1    0    0  501    0  0.00000000000E+00  0.00000000000E+00  0.71477090037E+03  0.71477090039E+03  0.50400001928E-02 0. -1.
       -1   -1    0    0    0  501  0.00000000000E+00  0.00000000000E+00 -0.68388216959E+03  0.68388216961E+03  0.50400001928E-02 0.  1.
    10030    2    1    2    0    0  0.00000000000E+00  0.00000000000E+00  0.30888730780E+02  0.13986530700E+04  0.13983119454E+04 0.  0.
        5    1    3    3  502    0  0.14230784329E+03  0.62703088919E+03 -0.25917265493E+03  0.69326172065E+03  0.46999998093E+01 0.  1.
       -5    1    3    3    0  502 -0.14230784329E+03 -0.62703088919E+03  0.29006138571E+03  0.70539134935E+03  0.46999998093E+01 0. -1.
</event>
<event>
 5   0  0.9900839E-05  0.1378914E+04  0.7818609E-02  0.8969225E-01
        1   -1    0    0  501    0  0.00000000000E+00  0.00000000000E+00  0.69904127735E+03  0.69904127736E+03  0.50400001928E-02 0. -1.
       -1   -1    0    0    0  501  0.00000000000E+00  0.00000000000E+00 -0.68000431286E+03  0.68000431288E+03  0.50400001928E-02 0.  1.
    10030    2    1    2    0    0  0.00000000000E+00  0.00000000000E+00  0.19036964482E+02  0.13790455902E+04  0.13789141866E+04 0.  0.
        3    1    3    3  502    0 -0.65737466839E+03  0.94785377021E+02  0.19453706044E+03  0.69207687465E+03  0.10100000352E+00 0. -1.
       -3    1    3    3    0  502  0.65737466839E+03 -0.94785377021E+02 -0.17550009595E+03  0.68696871560E+03  0.10100000352E+00 0.  1.
</event>
<event>
 5   0  0.1794185E-04  0.1401477E+04  0.7818609E-02  0.8952750E-01
       -2   -1    0    0    0  501  0.00000000000E+00  0.00000000000E+00  0.41174371858E+03  0.41174371859E+03  0.25500000920E-02 0.  1.
        2   -1    0    0  501    0  0.00000000000E+00  0.00000000000E+00 -0.11925738327E+04  0.11925738327E+04  0.25500000920E-02 0. -1.
    10030    2    1    2    0    0  0.00000000000E+00  0.00000000000E+00 -0.78083011414E+03  0.16043175513E+04  0.14014774840E+04 0.  0.
        2    1    3    3  502    0 -0.14256058103E+03  0.14902050828E+03 -0.11570479420E+04  0.11752831877E+04  0.25500000920E-02 0. -1.
       -2    1    3    3    0  502  0.14256058103E+03 -0.14902050828E+03  0.37621782787E+03  0.42903436362E+03  0.25500000920E-02 0.  1.
</event>
<event>
 5   0  0.1794185E-04  0.1404447E+04  0.7818609E-02  0.8950606E-01
        2   -1    0    0  501    0  0.00000000000E+00  0.00000000000E+00  0.47672422800E+03  0.47672422801E+03  0.25500000920E-02 0. -1.
       -2   -1    0    0    0  501  0.00000000000E+00  0.00000000000E+00 -0.10343885453E+04  0.10343885453E+04  0.25500000920E-02 0.  1.
    10030    2    1    2    0    0  0.00000000000E+00  0.00000000000E+00 -0.55766431731E+03  0.15111127733E+04  0.14044473372E+04 0.  0.
        2    1    3    3  502    0 -0.62458138894E+02 -0.22359717445E+02  0.47334507993E+03  0.47797127610E+03  0.25500000920E-02 0. -1.
       -2    1    3    3    0  502  0.62458138894E+02  0.22359717445E+02 -0.10310093972E+04  0.10331414972E+04  0.25500000920E-02 0.  1.
</event>
<event>
 5   0  0.6671375E-05  0.1400425E+04  0.7818609E-02  0.8953511E-01
       -3   -1    0    0    0  501  0.00000000000E+00  0.00000000000E+00  0.64783718478E+03  0.64783719265E+03  0.10100000352E+00 0. -1.
        3   -1    0    0  501    0  0.00000000000E+00  0.00000000000E+00 -0.75682208454E+03  0.75682209128E+03  0.10100000352E+00 0.  1.
    10030    2    1    2    0    0  0.00000000000E+00  0.00000000000E+00 -0.10898489976E+03  0.14046592839E+04  0.14004249339E+04 0.  0.
        4    1    3    3  502    0  0.46349701871E+03  0.51786133097E+03 -0.14010885338E+03  0.70897245938E+03  0.12699999809E+01 0.  1.
       -4    1    3    3    0  502 -0.46349701871E+03 -0.51786133097E+03  0.31123953617E+02  0.69568682455E+03  0.12699999809E+01 0. -1.
</event>
<event>
 5   0  0.1833681E-04  0.1400309E+04  0.7818609E-02  0.8953595E-01
        2   -1    0    0  501    0  0.00000000000E+00  0.00000000000E+00  0.14913444932E+04  0.14913444932E+04  0.25500000920E-02 0.  1.
       -2   -1    0    0    0  501  0.00000000000E+00  0.00000000000E+00 -0.32870755295E+03  0.32870755296E+03  0.25500000920E-02 0. -1.
    10030    2    1    2    0    0  0.00000000000E+00  0.00000000000E+00  0.11626369402E+04  0.18200520462E+04  0.14003088216E+04 0.  0.
        4    1    3    3  502    0 -0.31683945893E+03  0.17815527419E+03 -0.19645816303E+03  0.41318756900E+03  0.12699999809E+01 0. -1.
       -4    1    3    3    0  502  0.31683945893E+03 -0.17815527419E+03  0.13590951033E+04  0.14068644772E+04  0.12699999809E+01 0.  1.
</event>
<event>
 5   0  0.6671375E-05  0.1396503E+04  0.7818609E-02  0.8956354E-01
        3   -1    0    0  501    0  0.00000000000E+00  0.00000000000E+00  0.73710573681E+03  0.73710574373E+03  0.10100000352E+00 0. -1.
       -3   -1    0    0    0  501  0.00000000000E+00  0.00000000000E+00 -0.66144532251E+03  0.66144533022E+03  0.10100000352E+00 0.  1.
    10030    2    1    2    0    0  0.00000000000E+00  0.00000000000E+00  0.75660414300E+02  0.13985510739E+04  0.13965029925E+04 0.  0.
        1    1    3    3  502    0 -0.22867694586E+03 -0.15407698920E+03 -0.60461063256E+03  0.66452003823E+03  0.50400001928E-02 0.  1.
       -1    1    3    3    0  502  0.22867694586E+03  0.15407698920E+03  0.68027104686E+03  0.73403103572E+03  0.50400001928E-02 0. -1.
</event>
<event>
 5   0  0.6671375E-05  0.1394511E+04  0.7818609E-02  0.8957801E-01
       -1   -1    0    0    0  501  0.00000000000E+00  0.00000000000E+00  0.24622943705E+03  0.24622943710E+03  0.50400001928E-02 0. -1.
        1   -1    0    0  501    0  0.00000000000E+00  0.00000000000E+00 -0.19744413220E+04  0.19744413220E+04  0.50400001928E-02 0.  1.
    10030    2    1    2    0    0  0.00000000000E+00  0.00000000000E+00 -0.17282118849E+04  0.22206707591E+04  0.13945114919E+04 0.  0.
        5    1    3    3  502    0 -0.14649271361E+03  0.38479018110E+02  0.21969028281E+03  0.26688323352E+03  0.46999998093E+01 0. -1.
       -5    1    3    3    0  502  0.14649271361E+03 -0.38479018110E+02 -0.19479021677E+04  0.19537875256E+04  0.46999998093E+01 0.  1.
</event>
<event>
 5   0  0.9900839E-05  0.1400736E+04  0.7818609E-02  0.8953286E-01
        1   -1    0    0  501    0  0.00000000000E+00  0.00000000000E+00  0.10167235423E+04  0.10167235423E+04  0.50400001928E-02 0. -1.
       -1   -1    0    0    0  501  0.00000000000E+00  0.00000000000E+00 -0.48244693180E+03  0.48244693182E+03  0.50400001928E-02 0.  1.
    10030    2    1    2    0    0  0.00000000000E+00  0.00000000000E+00  0.53427661049E+03  0.14991704741E+04  0.14007357402E+04 0.  0.
        3    1    3    3  502    0 -0.21702624563E+03  0.25104890998E+03  0.92723703568E+03  0.98483220755E+03  0.10100000352E+00 0. -1.
       -3    1    3    3    0  502  0.21702624563E+03 -0.25104890998E+03 -0.39296042519E+03  0.51433826657E+03  0.10100000352E+00 0.  1.
</event>
<event>
 5   0  0.9828111E-05  0.1399937E+04  0.7818609E-02  0.8953864E-01
        1   -1    0    0  501    0  0.00000000000E+00  0.00000000000E+00  0.38524246899E+03  0.38524246903E+03  0.50400001928E-02 0.  1.
       -1   -1    0    0    0  501  0.00000000000E+00  0.00000000000E+00 -0.12718118112E+04  0.12718118112E+04  0.50400001928E-02 0. -1.
    10030    2    1    2    0    0  0.00000000000E+00  0.00000000000E+00 -0.88656934220E+03  0.16570542802E+04  0.13999370304E+04 0.  0.
        4    1    3    3  502    0 -0.51023546799E+03  0.25717333256E+03  0.35296020699E+02  0.57247338606E+03  0.12699999809E+01 0.  1.
       -4    1    3    3    0  502  0.51023546799E+03 -0.25717333256E+03 -0.92186536290E+03  0.10845808942E+04  0.12699999809E+01 0. -1.
</event>
<event>
 5   0  0.1780171E-04  0.1399202E+04  0.7818609E-02  0.8954397E-01
        2   -1    0    0  501    0  0.00000000000E+00  0.00000000000E+00  0.58168082357E+03  0.58168082357E+03  0.25500000920E-02 0.  1.
       -2   -1    0    0    0  501  0.00000000000E+00  0.00000000000E+00 -0.84142585870E+03  0.84142585870E+03  0.25500000920E-02 0. -1.
    10030    2    1    2    0    0  0.00000000000E+00  0.00000000000E+00 -0.25974503513E+03  0.14231066823E+04  0.13992016102E+04 0.  0.
        5    1    3    3  502    0  0.19744580883E+03  0.32995778737E+02  0.55191245053E+03  0.58711413873E+03  0.46999998093E+01 0.  1.
       -5    1    3    3    0  502 -0.19744580883E+03 -0.32995778737E+02 -0.81165748566E+03  0.83599254355E+03  0.46999998093E+01 0. -1.
</event>
<event>
 5   0  0.9900839E-05  0.1399579E+04  0.7818609E-02  0.8954123E-01
       -1   -1    0    0    0  501  0.00000000000E+00  0.00000000000E+00  0.25586074646E+03  0.25586074651E+03  0.50400001928E-02 0.  1.
        1   -1    0    0  501    0  0.00000000000E+00  0.00000000000E+00 -0.19139538132E+04  0.19139538132E+04  0.50400001928E-02 0. -1.
    10030    2    1    2    0    0  0.00000000000E+00  0.00000000000E+00 -0.16580930667E+04  0.21698145597E+04  0.13995794388E+04 0.  0.
        3    1    3    3  502    0 -0.47332893844E+03 -0.57973163490E+02 -0.16230600778E+04  0.16916634411E+04  0.10100000352E+00 0. -1.
       -3    1    3    3    0  502  0.47332893844E+03  0.57973163490E+02 -0.35032988862E+02  0.47815111853E+03  0.10100000352E+00 0.  1.
</event>
<event>
 5   0  0.9978422E-05  0.1382357E+04  0.7818609E-02  0.8966689E-01
        1   -1    0    0  501    0  0.00000000000E+00  0.00000000000E+00  0.77330598278E+03  0.77330598279E+03  0.50400001928E-02 0.  1.
       -1   -1    0    0    0  501  0.00000000000E+00  0.00000000000E+00 -0.61777313259E+03  0.61777313261E+03  0.50400001928E-02 0. -1.
    10030    2    1    2    0    0  0.00000000000E+00  0.00000000000E+00  0.15553285019E+03  0.13910791154E+04  0.13823569140E+04 0.  0.
        2    1    3    3  502    0 -0.77635265475E+02  0.29443545602E+03 -0.54663893699E+03  0.62572645752E+03  0.25500000920E-02 0. -1.
       -2    1    3    3    0  502  0.77635265475E+02 -0.29443545602E+03  0.70217178718E+03  0.76535265788E+03  0.25500000920E-02 0.  1.
</event>
<event>
 5   0  0.1766237E-04  0.1403145E+04  0.7818609E-02  0.8951545E-01
       -2   -1    0    0    0  501  0.00000000000E+00  0.00000000000E+00  0.34535710053E+03  0.34535710054E+03  0.25500000920E-02 0. -1.
        2   -1    0    0  501    0  0.00000000000E+00  0.00000000000E+00 -0.14252023217E+04  0.14252023217E+04  0.25500000920E-02 0.  1.
    10030    2    1    2    0    0  0.00000000000E+00  0.00000000000E+00 -0.10798452212E+04  0.17705594222E+04  0.14031446704E+04 0.  0.
        3    1    3    3  502    0 -0.27898716154E+03 -0.47549941327E+03 -0.10874411776E+04  0.12192054188E+04  0.10100000352E+00 0. -1.
       -3    1    3    3    0  502  0.27898716154E+03  0.47549941327E+03  0.75959564449E+01  0.55135400341E+03  0.10100000352E+00 0.  1.
</event>
<event>
 5   0  0.9900839E-05  0.1397673E+04  0.7818609E-02  0.8955505E-01
       -1   -1    0    0    0  501  0.00000000000E+00  0.00000000000E+00  0.90956780655E+03  0.90956780656E+03  0.50400001928E-02 0.  1.
        1   -1    0    0  501    0  0.00000000000E+00  0.00000000000E+00 -0.53692781687E+03  0.53692781689E+03  0.50400001928E-02 0. -1.
    10030    2    1    2    0    0  0.00000000000E+00  0.00000000000E+00  0.37263998967E+03  0.14464956235E+04  0.13976727180E+04 0.  0.
        3    1    3    3  502    0  0.49948005918E+03 -0.21130575821E+03  0.64244404888E+03  0.84075253143E+03  0.10100000352E+00 0.  1.
       -3    1    3    3    0  502 -0.49948005918E+03  0.21130575821E+03 -0.26980405921E+03  0.60574309202E+03  0.10100000352E+00 0. -1.
</event>
<event>
 5   0  0.9900839E-05  0.1412098E+04  0.7818609E-02  0.8945108E-01
       -1   -1    0    0    0  501  0.00000000000E+00  0.00000000000E+00  0.55330027517E+03  0.55330027519E+03  0.50400001928E-02 0. -1.
        1   -1    0    0  501    0  0.00000000000E+00  0.00000000000E+00 -0.90096686248E+03  0.90096686249E+03  0.50400001928E-02 0.  1.
    10030    2    1    2    0    0  0.00000000000E+00  0.00000000000E+00 -0.34766658731E+03  0.14542671377E+04  0.14120980319E+04 0.  0.
        3    1    3    3  502    0  0.10400643394E+03  0.33378059820E+03  0.45790030232E+03  0.57610721494E+03  0.10100000352E+00 0. -1.
       -3    1    3    3    0  502 -0.10400643394E+03 -0.33378059820E+03 -0.80556688963E+03  0.87815992274E+03  0.10100000352E+00 0.  1.
</event>
<event>
 5   0  0.9900839E-05  0.1400842E+04  0.7818609E-02  0.8953209E-01
        1   -1    0    0  501    0  0.00000000000E+00  0.00000000000E+00  0.16746507385E+04  0.16746507385E+04  0.50400001928E-02 0. -1.
       -1   -1    0    0    0  501  0.00000000000E+00  0.00000000000E+00 -0.29295037967E+03  0.29295037972E+03  0.50400001928E-02 0.  1.
    10030    2    1    2    0    0  0.00000000000E+00  0.00000000000E+00  0.13817003589E+04  0.19676011183E+04  0.14008419893E+04 0.  0.
        3    1    3    3  502    0 -0.25302194094E+03  0.50802563191E+03  0.11432094832E+03  0.57894683237E+03  0.10100000352E+00 0.  1.
       -3    1    3    3    0  502  0.25302194094E+03 -0.50802563191E+03  0.12673794105E+04  0.13886542859E+04  0.10100000352E+00 0. -1.
</event>
<event>
 5   0  0.6671375E-05  0.1400351E+04  0.7818609E-02  0.8953565E-01
       -4   -1    0    0    0  501  0.00000000000E+00  0.00000000000E+00  0.93414825301E+03  0.93414911631E+03  0.12699999809E+01 0. -1.
        4   -1    0    0  501    0  0.00000000000E+00  0.00000000000E+00 -0.52480313318E+03  0.52480466985E+03  0.12699999809E+01 0.  1.
    10030    2    1    2    0    0  0.00000000000E+00  0.00000000000E+00  0.40934511983E+03  0.14589537862E+04  0.14003509285E+04 0.  0.
        1    1    3    3  502    0 -0.38990057685E+03 -0.81148663170E+02  0.80465269431E+03  0.89781597437E+03  0.50400001928E-02 0. -1.
       -1    1    3    3    0  502  0.38990057685E+03  0.81148663170E+02 -0.39530757447E+03  0.56113781179E+03  0.50400001928E-02 0.  1.
</event>
<event>
 5   0  0.9828111E-05  0.1400225E+04  0.7818609E-02  0.8953656E-01
        1   -1    0    0  501    0  0.00000000000E+00  0.00000000000E+00  0.75107183349E+03  0.75107183351E+03  0.50400001928E-02 0. -1.
       -1   -1    0    0    0  501  0.00000000000E+00  0.00000000000E+00 -0.65261050937E+03  0.65261050938E+03  0.50400001928E-02 0.  1.
    10030    2    1    2    0    0  0.00000000000E+00  0.00000000000E+00  0.98461324125E+02  0.14036823429E+04  0.14002247989E+04 0.  0.
        4    1    3    3  502    0 -0.42726579447E+03 -0.14365662462E+02  0.60503033900E+03  0.74082775015E+03  0.12699999809E+01 0. -1.
       -4    1    3    3    0  502  0.42726579447E+03  0.14365662462E+02 -0.50656901488E+03  0.66285459274E+03  0.12699999809E+01 0.  1.
</event>
<event>
 5   0  0.9828111E-05  0.1399015E+04  0.7818609E-02  0.8954532E-01
       -1   -1    0    0    0  501  0.00000000000E+00  0.00000000000E+00  0.42333233239E+03  0.42333233242E+03  0.50400001928E-02 0. -1.
        1   -1    0    0  501    0  0.00000000000E+00  0.00000000000E+00 -0.11558542264E+04  0.11558542264E+04  0.50400001928E-02 0.  1.
    10030    2    1    2    0    0  0.00000000000E+00  0.00000000000E+00 -0.73252189401E+03  0.15791865588E+04  0.13990146041E+04 0.  0.
        4    1    3    3  502    0  0.36153072982E+03 -0.92220151540E+02  0.30163243377E+03  0.47978407951E+03  0.12699999809E+01 0. -1.
       -4    1    3    3    0  502 -0.36153072982E+03  0.92220151540E+02 -0.10341543278E+04  0.10994024793E+04  0.12699999809E+01 0.  1.
</event>
<event>
 5   0  0.1766237E-04  0.1382065E+04  0.7818609E-02  0.8966904E-01
       -2   -1    0    0    0  501  0.00000000000E+00  0.00000000000E+00  0.49447658104E+03  0.49447658105E+03  0.25500000920E-02 0.  1.
        2   -1    0    0  501    0  0.00000000000E+00  0.00000000000E+00 -0.96571966612E+03  0.96571966613E+03  0.25500000920E-02 0. -1.
    10030    2    1    2    0    0  0.00000000000E+00  0.00000000000E+00 -0.47124308508E+03  0.14601962472E+04  0.13820647724E+04 0.  0.
        3    1    3    3  502    0 -0.93548691964E+02 -0.56139673384E+03  0.17846382719E+03  0.59646206782E+03  0.10100000352E+00 0.  1.
       -3    1    3    3    0  502  0.93548691964E+02  0.56139673384E+03 -0.64970691227E+03  0.86373417936E+03  0.10100000352E+00 0. -1.
</event>
<event>
 5   0  0.1833681E-04  0.1392871E+04  0.7818609E-02  0.8958995E-01
        2   -1    0    0  501    0  0.00000000000E+00  0.00000000000E+00  0.11166889148E+04  0.11166889148E+04  0.25500000920E-02 0. -1.
       -2   -1    0    0    0  501  0.00000000000E+00  0.00000000000E+00 -0.43433986831E+03  0.43433986832E+03  0.25500000920E-02 0.  1.
    10030    2    1    2    0    0  0.00000000000E+00  0.00000000000E+00  0.68234904646E+03  0.15510287831E+04  0.13928711587E+04 0.  0.
        4    1    3    3  502    0 -0.32727065489E+03 -0.54049650691E+03  0.66730977938E+03  0.91899211645E+03  0.12699999809E+01 0. -1.
       -4    1    3    3    0  502  0.32727065489E+03  0.54049650691E+03  0.15039267083E+02  0.63203666665E+03  0.12699999809E+01 0.  1.
</event>
<event>
 5   0  0.1833681E-04  0.1397069E+04  0.7818609E-02  0.8955943E-01
       -2   -1    0    0    0  501  0.00000000000E+00  0.00000000000E+00  0.49461651764E+03  0.49461651765E+03  0.25500000920E-02 0. -1.
        2   -1    0    0  501    0  0.00000000000E+00  0.00000000000E+00 -0.98652218863E+03  0.98652218863E+03  0.25500000920E-02 0.  1.
    10030    2    1    2    0    0  0.00000000000E+00  0.00000000000E+00 -0.49190567099E+03  0.14811387063E+04  0.13970686018E+04 0.  0.
        4    1    3    3  502    0 -0.12920657090E+03  0.38973560180E+02  0.48066254933E+03  0.49925081430E+03  0.12699999809E+01 0. -1.
       -4    1    3    3    0  502  0.12920657090E+03 -0.38973560180E+02 -0.97256822031E+03  0.98188789198E+03  0.12699999809E+01 0.  1.
</event>
<event>
 5   0  0.6671375E-05  0.1398712E+04  0.7818609E-02  0.8954751E-01
       -1   -1    0    0    0  501  0.00000000000E+00  0.00000000000E+00  0.68790339098E+03  0.68790339100E+03  0.50400001928E-02 0. -1.
        1   -1    0    0  501    0  0.00000000000E+00  0.00000000000E+00 -0.71099954510E+03  0.71099954512E+03  0.50400001928E-02 0.  1.
    10030    2    1    2    0    0  0.00000000000E+00  0.00000000000E+00 -0.23096154125E+02  0.13989029361E+04  0.13987122622E+04 0.  0.
        5    1    3    3  502    0 -0.27942303509E+03 -0.57847297418E+02  0.62701634161E+03  0.68890864779E+03  0.46999998093E+01 0. -1.
       -5    1    3    3    0  502  0.27942303509E+03  0.57847297418E+02 -0.65011249573E+03  0.70999428833E+03  0.46999998093E+01 0.  1.
</event>
<event>
 5   0  0.9900839E-05  0.1399338E+04  0.7818609E-02  0.8954298E-01
        1   -1    0    0  501    0  0.00000000000E+00  0.00000000000E+00  0.15744973356E+04  0.15744973356E+04  0.50400001928E-02 0.  1.
       -1   -1    0    0    0  501  0.00000000000E+00  0.00000000000E+00 -0.31091632273E+03  0.31091632277E+03  0.50400001928E-02 0. -1.
    10030    2    1    2    0    0  0.00000000000E+00  0.00000000000E+00  0.12635810128E+04  0.18854136583E+04  0.13993383033E+04 0.  0.
        3    1    3    3  502    0 -0.21700254415E+03  0.59195630743E+03  0.22303902095E+03  0.66876661784E+03  0.10100000352E+00 0. -1.
       -3    1    3    3    0  502  0.21700254415E+03 -0.59195630743E+03  0.10405419919E+04  0.12166470405E+04  0.10100000352E+00 0.  1.
</event>
<event>
 5   0  0.1833681E-04  0.1397759E+04  0.7818609E-02  0.8955442E-01
        2   -1    0    0  501    0  0.00000000000E+00  0.00000000000E+00  0.26937693253E+03  0.26937693254E+03  0.25500000920E-02 0. -1.
       -2   -1    0    0    0  501  0.00000000000E+00  0.00000000000E+00 -0.18131931481E+04  0.18131931481E+04  0.25500000920E-02 0.  1.
    10030    2    1    2    0    0  0.00000000000E+00  0.00000000000E+00 -0.15438162156E+04  0.20825700807E+04  0.13977587894E+04 0.  0.
        4    1    3    3  502    0  0.41170595009E+03  0.13009479116E+02 -0.16131078641E+04  0.16648692531E+04  0.12699999809E+01 0.  1.
       -4    1    3    3    0  502 -0.41170595009E+03 -0.13009479116E+02  0.69291648496E+02  0.41770082755E+03  0.12699999809E+01 0. -1.
</event>
<event>
 5   0  0.6671375E-05  0.1399688E+04  0.7818609E-02  0.8954045E-01
        3   -1    0    0  501    0  0.00000000000E+00  0.00000000000E+00  0.14248055984E+04  0.14248056020E+04  0.10100000352E+00 0.  1.
       -3   -1    0    0    0  501  0.00000000000E+00  0.00000000000E+00 -0.34375313479E+03  0.34375314962E+03  0.10100000352E+00 0. -1.
    10030    2    1    2    0    0  0.00000000000E+00  0.00000000000E+00  0.10810524636E+04  0.17685587516E+04  0.13996876897E+04 0.  0.
        1    1    3    3  502    0 -0.44752985146E+03  0.56655615413E+02 -0.13554173874E+03  0.47102482914E+03  0.50400001928E-02 0. -1.
       -1    1    3    3    0  502  0.44752985146E+03 -0.56655615413E+02  0.12165942024E+04  0.12975339225E+04  0.50400001928E-02 0.  1.
</event>
<event>
 5   0  0.1780171E-04  0.1404502E+04  0.7818609E-02  0.8950566E-01
        2   -1    0    0  501    0  0.00000000000E+00  0.00000000000E+00  0.14160421937E+04  0.14160421937E+04  0.25500000920E-02 0. -1.
       -2   -1    0    0    0  501  0.00000000000E+00  0.00000000000E+00 -0.34826413846E+03  0.34826413847E+03  0.25500000920E-02 0.  1.
    10030    2    1    2    0    0  0.00000000000E+00  0.00000000000E+00  0.10677780553E+04  0.17643063322E+04  0.14045023526E+04 0.  0.
        5    1    3    3  502    0 -0.28369942146E+02 -0.68259760131E+03  0.32982165745E+03  0.75864929622E+03  0.46999998093E+01 0.  1.
       -5    1    3    3    0  502  0.28369942146E+02  0.68259760131E+03  0.73795639783E+03  0.10056570360E+04  0.46999998093E+01 0. -1.
</event>
<event>
 5   0  0.6671375E-05  0.1413854E+04  0.7818609E-02  0.8943851E-01
        1   -1    0    0  501    0  0.00000000000E+00  0.00000000000E+00  0.10454032915E+04  0.10454032915E+04  0.50400001928E-02 0. -1.
       -1   -1    0    0    0  501  0.00000000000E+00  0.00000000000E+00 -0.47804147958E+03  0.47804147961E+03  0.50400001928E-02 0.  1.
    10030    2    1    2    0    0  0.00000000000E+00  0.00000000000E+00  0.56736181188E+03  0.15234447711E+04  0.14138544992E+04 0.  0.
        5    1    3    3  502    0  0.57116518252E+02 -0.26939216515E+03  0.98521435443E+03  0.10229877074E+04  0.46999998093E+01 0. -1.
       -5    1    3    3    0  502 -0.57116518252E+02  0.26939216515E+03 -0.41785254255E+03  0.50045706370E+03  0.46999998093E+01 0.  1.
</event>
<event>
 5   0  0.9900839E-05  0.1403135E+04  0.7818609E-02  0.8951552E-01
       -1   -1    0    0    0  501  0.00000000000E+00  0.00000000000E+00  0.48023520096E+03  0.48023520098E+03  0.50400001928E-02 0.  1.
        1   -1    0    0  501    0  0.00000000000E+00  0.00000000000E+00 -0.10249083197E+04  0.10249083197E+04  0.50400001928E-02 0. -1.
    10030    2    1    2    0    0  0.00000000000E+00  0.00000000000E+00 -0.54467311872E+03  0.15051435207E+04  0.14031351366E+04 0.  0.
        3    1    3    3  502    0 -0.32273301584E+03 -0.60209182083E+03 -0.10095314299E+03  0.69055246543E+03  0.10100000352E+00 0.  1.
       -3    1    3    3    0  502  0.32273301584E+03  0.60209182083E+03 -0.44371997573E+03  0.81459105525E+03  0.10100000352E+00 0. -1.
</event>
<event>
 5   0  0.1794185E-04  0.1401465E+04  0.7818609E-02  0.8952759E-01
       -2   -1    0    0    0  501  0.00000000000E+00  0.00000000000E+00  0.59670154351E+03  0.59670154352E+03  0.25500000920E-02 0.  1.
        2   -1    0    0  501    0  0.00000000000E+00  0.00000000000E+00 -0.82290006701E+03  0.82290006701E+03  0.25500000920E-02 0. -1.
    10030    2    1    2    0    0  0.00000000000E+00  0.00000000000E+00 -0.22619852349E+03  0.14196016105E+04  0.14014645770E+04 0.  0.
        2    1    3    3  502    0 -0.35899842821E+03  0.59431227637E+03 -0.17330549300E+02  0.69454107240E+03  0.25500000920E-02 0. -1.
       -2    1    3    3    0  502  0.35899842821E+03 -0.59431227637E+03 -0.20886797419E+03  0.72506053813E+03  0.25500000920E-02 0.  1.
</event>
<event>
 5   0  0.1780171E-04  0.1399681E+04  0.7818609E-02  0.8954050E-01
       -2   -1    0    0    0  501  0.00000000000E+00  0.00000000000E+00  0.10687324706E+04  0.10687324706E+04  0.25500000920E-02 0.  1.
        2   -1    0    0  501    0  0.00000000000E+00  0.00000000000E+00 -0.45827797325E+03  0.45827797326E+03  0.25500000920E-02 0. -1.
    10030    2    1    2    0    0  0.00000000000E+00  0.00000000000E+00  0.61045449740E+03  0.15270104439E+04  0.13996807502E+04 0.  0.
        5    1    3    3  502    0  0.25612338878E+03  0.63060040913E+03  0.12763549454E+03  0.69250918819E+03  0.46999998093E+01 0. -1.
       -5    1    3    3    0  502 -0.25612338878E+03 -0.63060040913E+03  0.48281900285E+03  0.83450125571E+03  0.46999998093E+01 0.  1.
</event>
<event>
 5   0  0.1712327E-04  0.1411215E+04  0.7818609E-02  0.8945740E-01
       -2   -1    0    0    0  501  0.00000000000E+00  0.00000000000E+00  0.33947911380E+03  0.33947911381E+03  0.25500000920E-02 0. -1.
        2   -1    0    0  501    0  0.00000000000E+00  0.00000000000E+00 -0.14666058298E+04  0.14666058298E+04  0.25500000920E-02 0.  1.
    10030    2    1    2    0    0  0.00000000000E+00  0.00000000000E+00 -0.11271267160E+04  0.18060849436E+04  0.14112151464E+04 0.  0.
        1    1    3    3  502    0  0.17152222735E+03  0.64327604951E+03 -0.86277066591E+03  0.10897693207E+04  0.50400001928E-02 0.  1.
       -1    1    3    3    0  502 -0.17152222735E+03 -0.64327604951E+03 -0.26435605004E+03  0.71631562287E+03  0.50400001928E-02 0. -1.
</event>
<event>
 5   0  0.1833681E-04  0.1398625E+04  0.7818609E-02  0.8954815E-01
       -2   -1    0    0    0  501  0.00000000000E+00  0.00000000000E+00  0.35756334761E+03  0.35756334762E+03  0.25500000920E-02 0.  1.
        2   -1    0    0  501    0  0.00000000000E+00  0.00000000000E+00 -0.13676955749E+04  0.13676955749E+04  0.25500000920E-02 0. -1.
    10030    2    1    2    0    0  0.00000000000E+00  0.00000000000E+00 -0.10101322272E+04  0.17252589225E+04  0.13986247649E+04 0.  0.
        4    1    3    3  502    0 -0.63871093451E+03  0.37909038091E+02 -0.85319413787E+03  0.10664570328E+04  0.12699999809E+01 0. -1.
       -4    1    3    3    0  502  0.63871093451E+03 -0.37909038091E+02 -0.15693808937E+03  0.65880188966E+03  0.12699999809E+01 0.  1.
</event>
<event>
 5   0  0.1780171E-04  0.1400136E+04  0.7818609E-02  0.8953720E-01
       -2   -1    0    0    0  501  0.00000000000E+00  0.00000000000E+00  0.25269082100E+03  0.25269082101E+03  0.25500000920E-02 0.  1.
        2   -1    0    0  501    0  0.00000000000E+00  0.00000000000E+00 -0.19395067482E+04  0.19395067482E+04  0.25500000920E-02 0. -1.
    10030    2    1    2    0    0  0.00000000000E+00  0.00000000000E+00 -0.16868159272E+04  0.21921975692E+04  0.14001364970E+04 0.  0.
        5    1    3    3  502    0 -0.10251861284E+02 -0.47233810349E+03 -0.34581805591E+02  0.47373661031E+03  0.46999998093E+01 0.  1.
       -5    1    3    3    0  502  0.10251861284E+02  0.47233810349E+03 -0.16522341216E+04  0.17184609589E+04  0.46999998093E+01 0. -1.
</event>
<event>
 5   0  0.1766237E-04  0.1401538E+04  0.7818609E-02  0.8952706E-01
       -2   -1    0    0    0  501  0.00000000000E+00  0.00000000000E+00  0.27433839722E+03  0.27433839723E+03  0.25500000920E-02 0.  1.
        2   -1    0    0  501    0  0.00000000000E+00  0.00000000000E+00 -0.17900415556E+04  0.17900415556E+04  0.25500000920E-02 0. -1.
    10030    2    1    2    0    0  0.00000000000E+00  0.00000000000E+00 -0.15157031584E+04  0.20643799529E+04  0.14015379143E+04 0.  0.
        3    1    3    3  502    0 -0.13205030500E+03  0.42525960108E+03 -0.15548655791E+04  0.16173713212E+04  0.10100000352E+00 0. -1.
       -3    1    3    3    0  502  0.13205030500E+03 -0.42525960108E+03  0.39162420710E+02  0.44700863164E+03  0.10100000352E+00 0.  1.
</event>
<event>
 5   0  0.9828111E-05  0.1399208E+04  0.7818609E-02  0.8954392E-01
       -1   -1    0    0    0  501  0.00000000000E+00  0.00000000000E+00  0.57853926819E+03  0.57853926821E+03  0.50400001928E-02 0. -1.
        1   -1    0    0  501    0  0.00000000000E+00  0.00000000000E+00 -0.84600238066E+03  0.84600238067E+03  0.50400001928E-02 0.  1.
    10030    2    1    2    0    0  0.00000000000E+00  0.00000000000E+00 -0.26746311247E+03  0.14245416489E+04  0.13992077733E+04 0.  0.
        4    1    3    3  502    0  0.10597190143E+03  0.44608964972E+02  0.56885295732E+03  0.58035790991E+03  0.12699999809E+01 0. -1.
       -4    1    3    3    0  502 -0.10597190143E+03 -0.44608964972E+02 -0.83631606979E+03  0.84418373897E+03  0.12699999809E+01 0.  1.
</event>
<event>
 5   0  0.1780171E-04  0.1399787E+04  0.7818609E-02  0.8953973E-01
        2   -1    0    0  501    0  0.00000000000E+00  0.00000000000E+00  0.50694280558E+03  0.50694280559E+03  0.25500000920E-02 0. -1.
       -2   -1    0    0    0  501  0.00000000000E+00  0.00000000000E+00 -0.96628428806E+03  0.96628428807E+03  0.25500000920E-02 0.  1.
    10030    2    1    2    0    0  0.00000000000E+00  0.00000000000E+00 -0.45934148248E+03  0.14732270937E+04  0.13997869381E+04 0.  0.
        5    1    3    3  502    0  0.61295643090E+03  0.32494317580E+03 -0.13249494211E+03  0.70631484011E+03  0.46999998093E+01 0.  1.
       -5    1    3    3    0  502 -0.61295643090E+03 -0.32494317580E+03 -0.32684654037E+03  0.76691225354E+03  0.46999998093E+01 0. -1.
</event>
<event>
 5   0  0.6671375E-05  0.1399869E+04  0.7818609E-02  0.8953913E-01
       -1   -1    0    0    0  501  0.00000000000E+00  0.00000000000E+00  0.29718394161E+03  0.29718394166E+03  0.50400001928E-02 0.  1.
        1   -1    0    0  501    0  0.00000000000E+00  0.00000000000E+00 -0.16485025355E+04  0.16485025355E+04  0.50400001928E-02 0. -1.
    10030    2    1    2    0    0  0.00000000000E+00  0.00000000000E+00 -0.13513185939E+04  0.19456864771E+04  0.13998692529E+04 0.  0.
        5    1    3    3  502    0  0.26135541701E+03  0.58384959172E+02  0.22313913722E+03  0.34860955526E+03  0.46999998093E+01 0.  1.
       -5    1    3    3    0  502 -0.26135541701E+03 -0.58384959172E+02 -0.15744577311E+04  0.15970769219E+04  0.46999998093E+01 0. -1.
</event>
<event>
 5   0  0.6671375E-05  0.1399766E+04  0.7818609E-02  0.8953988E-01
        1   -1    0    0  501    0  0.00000000000E+00  0.00000000000E+00  0.57125320892E+03  0.57125320894E+03  0.50400001928E-02 0.  1.
       -1   -1    0    0    0  501  0.00000000000E+00  0.00000000000E+00 -0.85747656359E+03  0.85747656360E+03  0.50400001928E-02 0. -1.
    10030    2    1    2    0    0  0.00000000000E+00  0.00000000000E+00 -0.28622335467E+03  0.14287297725E+04  0.13997660355E+04 0.  0.
        5    1    3    3  502    0  0.45085826143E+03  0.20116531489E+03 -0.64943398290E+03  0.81579853148E+03  0.46999998093E+01 0. -1.
       -5    1    3    3    0  502 -0.45085826143E+03 -0.20116531489E+03  0.36321062823E+03  0.61293124106E+03  0.46999998093E+01 0.  1.
</event>
<event>
 5   0  0.6671375E-05  0.1396129E+04  0.7818609E-02  0.8956625E-01
        1   -1    0    0  501    0  0.00000000000E+00  0.00000000000E+00  0.62962369157E+03  0.62962369159E+03  0.50400001928E-02 0.  1.
       -1   -1    0    0    0  501  0.00000000000E+00  0.00000000000E+00 -0.77394508662E+03  0.77394508664E+03  0.50400001928E-02 0. -1.
    10030    2    1    2    0    0  0.00000000000E+00  0.00000000000E+00 -0.14432139505E+03  0.14035687782E+04  0.13961291667E+04 0.  0.
        5    1    3    3  502    0  0.46510376690E+03  0.37436797561E+03 -0.43574958835E+03  0.73917027057E+03  0.46999998093E+01 0. -1.
       -5    1    3    3    0  502 -0.46510376690E+03 -0.37436797561E+03  0.29142819330E+03  0.66439850767E+03  0.46999998093E+01 0.  1.
</event>
<event>
 5   0  0.9260916E-05  0.1402801E+04  0.7818609E-02  0.8951793E-01
       -1   -1    0    0    0  501  0.00000000000E+00  0.00000000000E+00  0.63110265282E+03  0.63110265284E+03  0.50400001928E-02 0.  1.
        1   -1    0    0  501    0  0.00000000000E+00  0.00000000000E+00 -0.77952911499E+03  0.77952911501E+03  0.50400001928E-02 0. -1.
    10030    2    1    2    0    0  0.00000000000E+00  0.00000000000E+00 -0.14842646217E+03  0.14106317678E+04  0.14028013294E+04 0.  0.
        1    1    3    3  502    0  0.23258078996E+03 -0.54890126518E+03  0.29741220558E+03  0.66621351145E+03  0.50400001928E-02 0.  1.
       -1    1    3    3    0  502 -0.23258078996E+03  0.54890126518E+03 -0.44583866775E+03  0.74441825640E+03  0.50400001928E-02 0. -1.
</event>
<event>
 5   0  0.1766237E-04  0.1400872E+04  0.7818609E-02  0.8953188E-01
        2   -1    0    0  501    0  0.00000000000E+00  0.00000000000E+00  0.15143441912E+04  0.15143441912E+04  0.25500000920E-02 0.  1.
       -2   -1    0    0    0  501  0.00000000000E+00  0.00000000000E+00 -0.32397558951E+03  0.32397558952E+03  0.25500000920E-02 0. -1.
    10030    2    1    2    0    0  0.00000000000E+00  0.00000000000E+00  0.11903686017E+04  0.18383197807E+04  0.14008719457E+04 0.  0.
        3    1    3    3  502    0  0.33887787722E+03 -0.18359578951E+03  0.13626816539E+04  0.14161380334E+04  0.10100000352E+00 0.  1.
       -3    1    3    3    0  502 -0.33887787722E+03  0.18359578951E+03 -0.17231305221E+03  0.42218174730E+03  0.10100000352E+00 0. -1.
</event>
<event>
 5   0  0.6671375E-05  0.1403388E+04  0.7818609E-02  0.8951370E-01
        4   -1    0    0  501    0  0.00000000000E+00  0.00000000000E+00  0.39701546103E+03  0.39701749230E+03  0.12699999809E+01 0. -1.
       -4   -1    0    0    0  501  0.00000000000E+00  0.00000000000E+00 -0.12401835409E+04  0.12401841912E+04  0.12699999809E+01 0.  1.
    10030    2    1    2    0    0  0.00000000000E+00  0.00000000000E+00 -0.84316807992E+03  0.16372016835E+04  0.14033876662E+04 0.  0.
        4    1    3    3  502    0 -0.67751495477E+03 -0.12023718153E+03 -0.58191983523E+03  0.90117467857E+03  0.12699999809E+01 0.  1.
       -4    1    3    3    0  502  0.67751495477E+03  0.12023718153E+03 -0.26124824469E+03  0.73602700495E+03  0.12699999809E+01 0. -1.
</event>
<event>
 5   0  0.9828111E-05  0.1400215E+04  0.7818609E-02  0.8953663E-01
       -1   -1    0    0    0  501  0.00000000000E+00  0.00000000000E+00  0.74650924068E+03  0.74650924070E+03  0.50400001928E-02 0.  1.
        1   -1    0    0  501    0  0.00000000000E+00  0.00000000000E+00 -0.65659034720E+03  0.65659034722E+03  0.50400001928E-02 0. -1.
    10030    2    1    2    0    0  0.00000000000E+00  0.00000000000E+00  0.89918893481E+02  0.14030995879E+04  0.14002153571E+04 0.  0.
        4    1    3    3  502    0 -0.68733895411E+03 -0.95274322879E+02 -0.48168063440E+02  0.69558163408E+03  0.12699999809E+01 0. -1.
       -4    1    3    3    0  502  0.68733895411E+03  0.95274322879E+02  0.13808695692E+03  0.70751795384E+03  0.12699999809E+01 0.  1.
</event>
<event>
 5   0  0.1794185E-04  0.1400172E+04  0.7818609E-02  0.8953694E-01
        2   -1    0    0  501    0  0.00000000000E+00  0.00000000000E+00  0.86268417363E+03  0.86268417363E+03  0.25500000920E-02 0.  1.
       -2   -1    0    0    0  501  0.00000000000E+00  0.00000000000E+00 -0.56813383903E+03  0.56813383904E+03  0.25500000920E-02 0. -1.
    10030    2    1    2    0    0  0.00000000000E+00  0.00000000000E+00  0.29455033460E+03  0.14308180127E+04  0.14001715201E+04 0.  0.
        2    1    3    3  502    0  0.66183644244E+03 -0.11056925715E+03  0.35131272847E+03  0.75741248363E+03  0.25500000920E-02 0.  1.
       -2    1    3    3    0  502 -0.66183644244E+03  0.11056925715E+03 -0.56762393874E+02  0.67340552904E+03  0.25500000920E-02 0. -1.
</event>
<event>
 5   0  0.1794185E-04  0.1403087E+04  0.7818609E-02  0.8951587E-01
       -2   -1    0    0    0  501  0.00000000000E+00  0.00000000000E+00  0.33094237251E+03  0.33094237252E+03  0.25500000920E-02 0.  1.
        2   -1    0    0  501    0  0.00000000000E+00  0.00000000000E+00 -0.14871569504E+04  0.14871569504E+04  0.25500000920E-02 0. -1.
    10030    2    1    2    0    0  0.00000000000E+00  0.00000000000E+00 -0.11562145779E+04  0.18180993229E+04  0.14030869531E+04 0.  0.
        2    1    3    3  502    0  0.46897085459E+01 -0.67213310486E+02 -0.14829547852E+04  0.14844845966E+04  0.25500000920E-02 0. -1.
       -2    1    3    3    0  502 -0.46897085459E+01  0.67213310486E+02  0.32674020738E+03  0.33361472629E+03  0.25500000920E-02 0.  1.
</event>
<event>
 5   0  0.9260916E-05  0.1400784E+04  0.7818609E-02  0.8953251E-01
        1   -1    0    0  501    0  0.00000000000E+00  0.00000000000E+00  0.63109890546E+03  0.63109890548E+03  0.50400001928E-02 0.  1.
       -1   -1    0    0    0  501  0.00000000000E+00  0.00000000000E+00 -0.77729320822E+03  0.77729320823E+03  0.50400001928E-02 0. -1.
    10030    2    1    2    0    0  0.00000000000E+00  0.00000000000E+00 -0.14619430275E+03  0.14083921137E+04  0.14007839133E+04 0.  0.
        1    1    3    3  502    0  0.26280451754E+03 -0.44631162371E+03  0.40093854536E+03  0.65499007403E+03  0.50400001928E-02 0.  1.
       -1    1    3    3    0  502 -0.26280451754E+03  0.44631162371E+03 -0.54713284811E+03  0.75340203969E+03  0.50400001928E-02 0. -1.
</event>
<event>
 5   0  0.1780171E-04  0.1399029E+04  0.7818609E-02  0.8954521E-01
        2   -1    0    0  501    0  0.00000000000E+00  0.00000000000E+00  0.10307566689E+04  0.10307566689E+04  0.25500000920E-02 0.  1.
       -2   -1    0    0    0  501  0.00000000000E+00  0.00000000000E+00 -0.47471995395E+03  0.47471995395E+03  0.25500000920E-02 0. -1.
    10030    2    1    2    0    0  0.00000000000E+00  0.00000000000E+00  0.55603671491E+03  0.15054766228E+04  0.13990293183E+04 0.  0.
        5    1    3    3  502    0  0.10043456120E+03 -0.24765327015E+02  0.10224635877E+04  0.10276936803E+04  0.46999998093E+01 0.  1.
       -5    1    3    3    0  502 -0.10043456120E+03  0.24765327015E+02 -0.46642687275E+03  0.47778294248E+03  0.46999998093E+01 0. -1.
</event>
<event>
 5   0  0.6671375E-05  0.1400165E+04  0.7818609E-02  0.8953699E-01
        3   -1    0    0  501    0  0.00000000000E+00  0.00000000000E+00  0.38749997965E+03  0.38749999281E+03  0.10100000352E+00 0. -1.
       -3   -1    0    0    0  501  0.00000000000E+00  0.00000000000E+00 -0.12648133651E+04  0.12648133691E+04  0.10100000352E+00 0.  1.
    10030    2    1    2    0    0  0.00000000000E+00  0.00000000000E+00 -0.87731338546E+03  0.16523133619E+04  0.14001645152E+04 0.  0.
        3    1    3    3  502    0 -0.42913028925E+03 -0.55290068791E+03 -0.41951232892E+03  0.81599177702E+03  0.10100000352E+00 0. -1.
       -3    1    3    3    0  502  0.42913028925E+03  0.55290068791E+03 -0.45780105654E+03  0.83632158493E+03  0.10100000352E+00 0.  1.
</event>
<event>
 5   0  0.9900839E-05  0.1400433E+04  0.7818609E-02  0.8953505E-01
        1   -1    0    0  501    0  0.00000000000E+00  0.00000000000E+00  0.81162166759E+03  0.81162166760E+03  0.50400001928E-02 0. -1.
       -1   -1    0    0    0  501  0.00000000000E+00  0.00000000000E+00 -0.60410278530E+03  0.60410278532E+03  0.50400001928E-02 0.  1.
    10030    2    1    2    0    0  0.00000000000E+00  0.00000000000E+00  0.20751888229E+03  0.14157244529E+04  0.14004326618E+04 0.  0.
        3    1    3    3  502    0  0.13288811187E+02 -0.53391203062E+03  0.56154435890E+03  0.77496498383E+03  0.10100000352E+00 0. -1.
       -3    1    3    3    0  502 -0.13288811187E+02  0.53391203062E+03 -0.35402547662E+03  0.64075946910E+03  0.10100000352E+00 0.  1.
</event>
<event>
 5   0  0.1833681E-04  0.1400214E+04  0.7818609E-02  0.8953663E-01
        2   -1    0    0  501    0  0.00000000000E+00  0.00000000000E+00  0.22317946239E+04  0.22317946239E+04  0.25500000920E-02 0.  1.
       -2   -1    0    0    0  501  0.00000000000E+00  0.00000000000E+00 -0.21962151293E+03  0.21962151295E+03  0.25500000920E-02 0. -1.
    10030    2    1    2    0    0  0.00000000000E+00  0.00000000000E+00  0.20121731110E+04  0.24514161369E+04  0.14002144291E+04 0.  0.
        4    1    3    3  502    0  0.66488709930E+03 -0.82568352010E+02  0.13616905555E+04  0.15175951929E+04  0.12699999809E+01 0. -1.
       -4    1    3    3    0  502 -0.66488709930E+03  0.82568352010E+02  0.65048255551E+03  0.93382094402E+03  0.12699999809E+01 0.  1.
</event>
<event>
 5   0  0.6671375E-05  0.1399932E+04  0.7818609E-02  0.8953868E-01
       -1   -1    0    0    0  501  0.00000000000E+00  0.00000000000E+00  0.54745858530E+03  0.54745858532E+03  0.50400001928E-02 0.  1.
        1   -1    0    0  501    0  0.00000000000E+00  0.00000000000E+00 -0.89495748372E+03  0.89495748374E+03  0.50400001928E-02 0. -1.
    10030    2    1    2    0    0  0.00000000000E+00  0.00000000000E+00 -0.34749889842E+03  0.14424160691E+04  0.13999316526E+04 0.  0.
        5    1    3    3  502    0  0.48776751739E+02 -0.26883580501E+03 -0.83772683627E+03  0.88116979281E+03  0.46999998093E+01 0. -1.
       -5    1    3    3    0  502 -0.48776751739E+02  0.26883580501E+03  0.49022793785E+03  0.56124627625E+03  0.46999998093E+01 0.  1.
</event>
<event>
 5   0  0.6671375E-05  0.1401105E+04  0.7818609E-02  0.8953019E-01
        4   -1    0    0  501    0  0.00000000000E+00  0.00000000000E+00  0.91512253866E+03  0.91512341990E+03  0.12699999809E+01 0.  1.
       -4   -1    0    0    0  501  0.00000000000E+00  0.00000000000E+00 -0.53629090772E+03  0.53629241147E+03  0.12699999809E+01 0. -1.
    10030    2    1    2    0    0  0.00000000000E+00  0.00000000000E+00  0.37883163093E+03  0.14514158314E+04  0.14011047466E+04 0.  0.
        4    1    3    3  502    0  0.41886728556E+03 -0.42741751600E+03  0.56668622512E+03  0.82417863752E+03  0.12699999809E+01 0.  1.
       -4    1    3    3    0  502 -0.41886728556E+03  0.42741751600E+03 -0.18785459419E+03  0.62723719386E+03  0.12699999809E+01 0. -1.
</event>
<event>
 5   0  0.9260916E-05  0.1397338E+04  0.7818609E-02  0.8955747E-01
       -1   -1    0    0    0  501  0.00000000000E+00  0.00000000000E+00  0.63957207424E+03  0.63957207426E+03  0.50400001928E-02 0.  1.
        1   -1    0    0  501    0  0.00000000000E+00  0.00000000000E+00 -0.76322702791E+03  0.76322702793E+03  0.50400001928E-02 0. -1.
    10030    2    1    2    0    0  0.00000000000E+00  0.00000000000E+00 -0.12365495367E+03  0.14027991022E+04  0.13973384606E+04 0.  0.
        1    1    3    3  502    0  0.31902997208E+03 -0.12528950887E+03  0.54937116002E+03  0.64752316993E+03  0.50400001928E-02 0.  1.
       -1    1    3    3    0  502 -0.31902997208E+03  0.12528950887E+03 -0.67302611368E+03  0.75527593226E+03  0.50400001928E-02 0. -1.
</event>
<event>
 5   0  0.9260916E-05  0.1398400E+04  0.7818609E-02  0.8954977E-01
       -1   -1    0    0    0  501  0.00000000000E+00  0.00000000000E+00  0.34157888288E+03  0.34157888292E+03  0.50400001928E-02 0.  1.
        1   -1    0    0  501    0  0.00000000000E+00  0.00000000000E+00 -0.14312386528E+04  0.14312386528E+04  0.50400001928E-02 0. -1.
    10030    2    1    2    0    0  0.00000000000E+00  0.00000000000E+00 -0.10896597699E+04  0.17728175357E+04  0.13984003721E+04 0.  0.
        1    1    3    3  502    0  0.45798710604E+03  0.28876374195E+03  0.16059179618E+02  0.54165910427E+03  0.50400001928E-02 0.  1.
       -1    1    3    3    0  502 -0.45798710604E+03 -0.28876374195E+03 -0.11057189495E+04  0.12311584314E+04  0.50400001928E-02 0. -1.
</event>
<event>
 5   0  0.9900839E-05  0.1399232E+04  0.7818609E-02  0.8954374E-01
        1   -1    0    0  501    0  0.00000000000E+00  0.00000000000E+00  0.12757302610E+04  0.12757302610E+04  0.50400001928E-02 0. -1.
       -1   -1    0    0    0  501  0.00000000000E+00  0.00000000000E+00 -0.38367268314E+03  0.38367268317E+03  0.50400001928E-02 0.  1.
    10030    2    1    2    0    0  0.00000000000E+00  0.00000000000E+00  0.89205757782E+03  0.16594029441E+04  0.13992324356E+04 0.  0.
        3    1    3    3  502    0 -0.66212498721E+02 -0.28173786095E+03  0.12014094248E+04  0.12357770565E+04  0.10100000352E+00 0. -1.
       -3    1    3    3    0  502  0.66212498721E+02  0.28173786095E+03 -0.30935184694E+03  0.42362588764E+03  0.10100000352E+00 0.  1.
</event>
<event>
 5   0  0.1833681E-04  0.1404096E+04  0.7818609E-02  0.8950859E-01
        2   -1    0    0  501    0  0.00000000000E+00  0.00000000000E+00  0.16448536413E+04  0.16448536413E+04  0.25500000920E-02 0. -1.
       -2   -1    0    0    0  501  0.00000000000E+00  0.00000000000E+00 -0.29964434677E+03  0.29964434678E+03  0.25500000920E-02 0.  1.
    10030    2    1    2    0    0  0.00000000000E+00  0.00000000000E+00  0.13452092946E+04  0.19444979881E+04  0.14040955735E+04 0.  0.
        4    1    3    3  502    0 -0.46742565133E+03  0.49088903236E+03  0.41946881943E+03  0.79712890111E+03  0.12699999809E+01 0. -1.
       -4    1    3    3    0  502  0.46742565133E+03 -0.49088903236E+03  0.92574047514E+03  0.11473690870E+04  0.12699999809E+01 0.  1.
</event>
<event>
 5   0  0.1712327E-04  0.1398498E+04  0.7818609E-02  0.8954906E-01
       -2   -1    0    0    0  501  0.00000000000E+00  0.00000000000E+00  0.76913283870E+03  0.76913283870E+03  0.25500000920E-02 0. -1.
        2   -1    0    0  501    0  0.00000000000E+00  0.00000000000E+00 -0.63571500151E+03  0.63571500151E+03  0.25500000920E-02 0.  1.
    10030    2    1    2    0    0  0.00000000000E+00  0.00000000000E+00  0.13341783719E+03  0.14048478402E+04  0.13984981712E+04 0.  0.
        1    1    3    3  502    0 -0.51663034033E+02  0.11733150181E+03 -0.62380829786E+03  0.63684577639E+03  0.50400001928E-02 0.  1.
       -1    1    3    3    0  502  0.51663034033E+02 -0.11733150181E+03  0.75722613505E+03  0.76800206382E+03  0.50400001928E-02 0. -1.
</event>
<event>
 5   0  0.6671375E-05  0.1408164E+04  0.7818609E-02  0.8947930E-01
       -4   -1    0    0    0  501  0.00000000000E+00  0.00000000000E+00  0.27170024642E+03  0.27170321456E+03  0.12699999809E+01 0.  1.
        4   -1    0    0  501    0  0.00000000000E+00  0.00000000000E+00 -0.18245404034E+04  0.18245408454E+04  0.12699999809E+01 0. -1.
    10030    2    1    2    0    0  0.00000000000E+00  0.00000000000E+00 -0.15528401570E+04  0.20962440600E+04  0.14081642680E+04 0.  0.
        4    1    3    3  502    0 -0.53595487997E+03  0.10331182416E+02 -0.96884763629E+02  0.54474088980E+03  0.12699999809E+01 0.  1.
       -4    1    3    3    0  502  0.53595487997E+03 -0.10331182416E+02 -0.14559553934E+04  0.15515031702E+04  0.12699999809E+01 0. -1.
</event>
<event>
 5   0  0.9978422E-05  0.1399349E+04  0.7818609E-02  0.8954290E-01
       -1   -1    0    0    0  501  0.00000000000E+00  0.00000000000E+00  0.50809904811E+03  0.50809904813E+03  0.50400001928E-02 0. -1.
        1   -1    0    0  501    0  0.00000000000E+00  0.00000000000E+00 -0.96348289729E+03  0.96348289730E+03  0.50400001928E-02 0.  1.
    10030    2    1    2    0    0  0.00000000000E+00  0.00000000000E+00 -0.45538384918E+03  0.14715819454E+04  0.13993494817E+04 0.  0.
        2    1    3    3  502    0  0.32724466119E+03  0.28894985589E+03 -0.80269141153E+03  0.91372566433E+03  0.25500000920E-02 0.  1.
       -2    1    3    3    0  502 -0.32724466119E+03 -0.28894985589E+03  0.34730756235E+03  0.55785628111E+03  0.25500000920E-02 0. -1.
</event>
<event>
 5   0  0.6671375E-05  0.1401030E+04  0.7818609E-02  0.8953073E-01
        3   -1    0    0  501    0  0.00000000000E+00  0.00000000000E+00  0.11296565077E+04  0.11296565122E+04  0.10100000352E+00 0. -1.
       -3   -1    0    0    0  501  0.00000000000E+00  0.00000000000E+00 -0.43439849223E+03  0.43439850398E+03  0.10100000352E+00 0.  1.
    10030    2    1    2    0    0  0.00000000000E+00  0.00000000000E+00  0.69525801548E+03  0.15640550162E+04  0.14010297590E+04 0.  0.
        1    1    3    3  502    0  0.71064372468E+02  0.31595306444E+03 -0.34581417919E+03  0.47377624520E+03  0.50400001928E-02 0.  1.
       -1    1    3    3    0  502 -0.71064372468E+02 -0.31595306444E+03  0.10410721947E+04  0.10902787710E+04  0.50400001928E-02 0. -1.
</event>
<event>
 5   0  0.6671375E-05  0.1398499E+04  0.7818609E-02  0.8954906E-01
       -1   -1    0    0    0  501  0.00000000000E+00  0.00000000000E+00  0.30037758309E+03  0.30037758313E+03  0.50400001928E-02 0.  1.
        1   -1    0    0  501    0  0.00000000000E+00  0.00000000000E+00 -0.16277841311E+04  0.16277841311E+04  0.50400001928E-02 0. -1.
    10030    2    1    2    0    0  0.00000000000E+00  0.00000000000E+00 -0.13274065480E+04  0.19281617142E+04  0.13984989998E+04 0.  0.
        5    1    3    3  502    0  0.21210732106E+03  0.49674944986E+03 -0.51478654860E+02  0.54260637066E+03  0.46999998093E+01 0.  1.
       -5    1    3    3    0  502 -0.21210732106E+03 -0.49674944986E+03 -0.12759278931E+04  0.13855553436E+04  0.46999998093E+01 0. -1.
</event>
<event>
 5   0  0.1833681E-04  0.1398525E+04  0.7818609E-02  0.8954887E-01
       -2   -1    0    0    0  501  0.00000000000E+00  0.00000000000E+00  0.26735172632E+03  0.26735172633E+03  0.25500000920E-02 0. -1.
        2   -1    0    0  501    0  0.00000000000E+00  0.00000000000E+00 -0.18289310920E+04  0.18289310920E+04  0.25500000920E-02 0.  1.
    10030    2    1    2    0    0  0.00000000000E+00  0.00000000000E+00 -0.15615793657E+04  0.20962828183E+04  0.13985247724E+04 0.  0.
        4    1    3    3  502    0 -0.46956976240E+03 -0.42378831915E+03 -0.12276450752E+04  0.13810164173E+04  0.12699999809E+01 0.  1.
       -4    1    3    3    0  502  0.46956976240E+03  0.42378831915E+03 -0.33393429045E+03  0.71526640103E+03  0.12699999809E+01 0. -1.
</event>
<event>
 5   0  0.9900839E-05  0.1398630E+04  0.7818609E-02  0.8954811E-01
       -1   -1    0    0    0  501  0.00000000000E+00  0.00000000000E+00  0.32899072864E+03  0.32899072868E+03  0.50400001928E-02 0. -1.
        1   -1    0    0  501    0  0.00000000000E+00  0.00000000000E+00 -0.14864906996E+04  0.14864906996E+04  0.50400001928E-02 0.  1.
    10030    2    1    2    0    0  0.00000000000E+00  0.00000000000E+00 -0.11574999709E+04  0.18154814282E+04  0.13986302705E+04 0.  0.
        3    1    3    3  502    0  0.49393430474E+03  0.38954290530E+03 -0.97529477781E+03  0.11605665368E+04  0.10100000352E+00 0. -1.
       -3    1    3    3    0  502 -0.49393430474E+03 -0.38954290530E+03 -0.18220519311E+03  0.65491489147E+03  0.10100000352E+00 0.  1.
</event>
<event>
 5   0  0.1833681E-04  0.1402423E+04  0.7818609E-02  0.8952066E-01
        2   -1    0    0  501    0  0.00000000000E+00  0.00000000000E+00  0.31397525161E+03  0.31397525162E+03  0.25500000920E-02 0.  1.
       -2   -1    0    0    0  501  0.00000000000E+00  0.00000000000E+00 -0.15660401102E+04  0.15660401102E+04  0.25500000920E-02 0. -1.
    10030    2    1    2    0    0  0.00000000000E+00  0.00000000000E+00 -0.12520648585E+04  0.18800153618E+04  0.14024233849E+04 0.  0.
        4    1    3    3  502    0 -0.35714897946E+03 -0.18959524141E+02  0.18250937406E+03  0.40152975182E+03  0.12699999809E+01 0.  1.
       -4    1    3    3    0  502  0.35714897946E+03  0.18959524141E+02 -0.14345742326E+04  0.14784856099E+04  0.12699999809E+01 0. -1.
</event>
<event>
 5   0  0.9900839E-05  0.1393693E+04  0.7818609E-02  0.8958397E-01
       -1   -1    0    0    0  501  0.00000000000E+00  0.00000000000E+00  0.67071608838E+03  0.67071608840E+03  0.50400001928E-02 0. -1.
        1   -1    0    0  501    0  0.00000000000E+00  0.00000000000E+00 -0.72399484744E+03  0.72399484746E+03  0.50400001928E-02 0.  1.
    10030    2    1    2    0    0  0.00000000000E+00  0.00000000000E+00 -0.53278759057E+02  0.13947109359E+04  0.13936929247E+04 0.  0.
        3    1    3    3  502    0 -0.13366232954E+03  0.14911899739E+03 -0.69457945083E+03  0.72287116241E+03  0.10100000352E+00 0.  1.
       -3    1    3    3    0  502  0.13366232954E+03 -0.14911899739E+03  0.64130069178E+03  0.67183977345E+03  0.10100000352E+00 0. -1.
</event>
<event>
 5   0  0.9260916E-05  0.1397786E+04  0.7818609E-02  0.8955422E-01
       -1   -1    0    0    0  501  0.00000000000E+00  0.00000000000E+00  0.44458484906E+03  0.44458484909E+03  0.50400001928E-02 0. -1.
        1   -1    0    0  501    0  0.00000000000E+00  0.00000000000E+00 -0.10986691295E+04  0.10986691295E+04  0.50400001928E-02 0.  1.
    10030    2    1    2    0    0  0.00000000000E+00  0.00000000000E+00 -0.65408428047E+03  0.15432539786E+04  0.13977863201E+04 0.  0.
        1    1    3    3  502    0  0.60428736797E+03 -0.34856744669E+03 -0.37374262073E+03  0.79142026418E+03  0.50400001928E-02 0.  1.
       -1    1    3    3    0  502 -0.60428736797E+03  0.34856744669E+03 -0.28034165974E+03  0.75183371445E+03  0.50400001928E-02 0. -1.
</event>
<event>
 5   0  0.1712327E-04  0.1400560E+04  0.7818609E-02  0.8953413E-01
        2   -1    0    0  501    0  0.00000000000E+00  0.00000000000E+00  0.70378524200E+03  0.70378524201E+03  0.25500000920E-02 0.  1.
       -2   -1    0    0    0  501  0.00000000000E+00  0.00000000000E+00 -0.69679250713E+03  0.69679250713E+03  0.25500000920E-02 0. -1.
    10030    2    1    2    0    0  0.00000000000E+00  0.00000000000E+00  0.69927348729E+01  0.14005777491E+04  0.14005602925E+04 0.  0.
        1    1    3    3  502    0 -0.12518434098E+03 -0.68441799784E+03  0.82826847784E+02  0.70068495184E+03  0.50400001928E-02 0.  1.
       -1    1    3    3    0  502  0.12518434098E+03  0.68441799784E+03 -0.75834112911E+02  0.69989279730E+03  0.50400001928E-02 0. -1.
</event>
<event>
 5   0  0.1712327E-04  0.1399974E+04  0.7818609E-02  0.8953838E-01
        2   -1    0    0  501    0  0.00000000000E+00  0.00000000000E+00  0.15573288622E+04  0.15573288622E+04  0.25500000920E-02 0. -1.
       -2   -1    0    0    0  501  0.00000000000E+00  0.00000000000E+00 -0.31462952244E+03  0.31462952245E+03  0.25500000920E-02 0.  1.
    10030    2    1    2    0    0  0.00000000000E+00  0.00000000000E+00  0.12426993398E+04  0.18719583847E+04  0.13999737658E+04 0.  0.
        1    1    3    3  502    0  0.44246436941E+03  0.39802622857E+03  0.11140665667E+04  0.12630692428E+04  0.50400001928E-02 0. -1.
       -1    1    3    3    0  502 -0.44246436941E+03 -0.39802622857E+03  0.12863277304E+03  0.60888914192E+03  0.50400001928E-02 0.  1.
</event>
<event>
 5   0  0.1833681E-04  0.1400861E+04  0.7818609E-02  0.8953195E-01
       -2   -1    0    0    0  501  0.00000000000E+00  0.00000000000E+00  0.41973494810E+03  0.41973494811E+03  0.25500000920E-02 0. -1.
        2   -1    0    0  501    0  0.00000000000E+00  0.00000000000E+00 -0.11688404018E+04  0.11688404018E+04  0.25500000920E-02 0.  1.
    10030    2    1    2    0    0  0.00000000000E+00  0.00000000000E+00 -0.74910545367E+03  0.15885753499E+04  0.14008613998E+04 0.  0.
        4    1    3    3  502    0  0.29126992233E+03  0.29377568795E+03 -0.10154971467E+04  0.10965301594E+04  0.12699999809E+01 0.  1.
       -4    1    3    3    0  502 -0.29126992233E+03 -0.29377568795E+03  0.26639169306E+03  0.49204519052E+03  0.12699999809E+01 0. -1.
</event>
<event>
 5   0  0.1833681E-04  0.1397968E+04  0.7818609E-02  0.8955291E-01
        2   -1    0    0  501    0  0.00000000000E+00  0.00000000000E+00  0.98652825837E+03  0.98652825838E+03  0.25500000920E-02 0.  1.
       -2   -1    0    0    0  501  0.00000000000E+00  0.00000000000E+00 -0.49525040658E+03  0.49525040658E+03  0.25500000920E-02 0. -1.
    10030    2    1    2    0    0  0.00000000000E+00  0.00000000000E+00  0.49127785180E+03  0.14817786650E+04  0.13979678409E+04 0.  0.
        4    1    3    3  502    0 -0.56887474124E+03 -0.35850646833E+03  0.44795247817E+03  0.80796559002E+03  0.12699999809E+01 0.  1.
       -4    1    3    3    0  502  0.56887474124E+03  0.35850646833E+03  0.43325373624E+02  0.67381307494E+03  0.12699999809E+01 0. -1.
</event>
<event>
 5   0  0.9260916E-05  0.1401062E+04  0.7818609E-02  0.8953050E-01
        1   -1    0    0  501    0  0.00000000000E+00  0.00000000000E+00  0.73571612122E+03  0.73571612123E+03  0.50400001928E-02 0.  1.
       -1   -1    0    0    0  501  0.00000000000E+00  0.00000000000E+00 -0.66702898608E+03  0.66702898610E+03  0.50400001928E-02 0. -1.
    10030    2    1    2    0    0  0.00000000000E+00  0.00000000000E+00  0.68687135131E+02  0.14027451073E+04  0.14010624232E+04 0.  0.
        1    1    3    3  502    0 -0.62152638981E+03  0.16944800401E+03 -0.24118923958E+03  0.68788075173E+03  0.50400001928E-02 0. -1.
       -1    1    3    3    0  502  0.62152638981E+03 -0.16944800401E+03  0.30987637471E+03  0.71486435561E+03  0.50400001928E-02 0.  1.
</event>
<event>
 5   0  0.9900839E-05  0.1401089E+04  0.7818609E-02  0.8953031E-01
        1   -1    0    0  501    0  0.00000000000E+00  0.00000000000E+00  0.96273169582E+03  0.96273169583E+03  0.50400001928E-02 0.  1.
       -1   -1    0    0    0  501  0.00000000000E+00  0.00000000000E+00 -0.50976015848E+03  0.50976015851E+03  0.50400001928E-02 0. -1.
    10030    2    1    2    0    0  0.00000000000E+00  0.00000000000E+00  0.45297153734E+03  0.14724918543E+04  0.14010885223E+04 0.  0.
        3    1    3    3  502    0 -0.24579597726E+03 -0.54357403644E+03  0.61245369168E+03  0.85497832147E+03  0.10100000352E+00 0.  1.
       -3    1    3    3    0  502  0.24579597726E+03  0.54357403644E+03 -0.15948215434E+03  0.61751353287E+03  0.10100000352E+00 0. -1.
</event>
<event>
 5   0  0.1794185E-04  0.1399804E+04  0.7818609E-02  0.8953960E-01
        2   -1    0    0  501    0  0.00000000000E+00  0.00000000000E+00  0.10764506981E+04  0.10764506981E+04  0.25500000920E-02 0.  1.
       -2   -1    0    0    0  501  0.00000000000E+00  0.00000000000E+00 -0.45507254226E+03  0.45507254227E+03  0.25500000920E-02 0. -1.
    10030    2    1    2    0    0  0.00000000000E+00  0.00000000000E+00  0.62137815579E+03  0.15315232403E+04  0.13998044946E+04 0.  0.
        2    1    3    3  502    0  0.52402332283E+03 -0.35400199971E+03  0.63881869987E+03  0.89889220153E+03  0.25500000920E-02 0.  1.
       -2    1    3    3    0  502 -0.52402332283E+03  0.35400199971E+03 -0.17440544076E+02  0.63263103880E+03  0.25500000920E-02 0. -1.
</event>
<event>
 5   0  0.6671375E-05  0.1402503E+04  0.7818609E-02  0.8952009E-01
        3   -1    0    0  501    0  0.00000000000E+00  0.00000000000E+00  0.63866661613E+03  0.63866662411E+03  0.10100000352E+00 0. -1.
       -3   -1    0    0    0  501  0.00000000000E+00  0.00000000000E+00 -0.76996877372E+03  0.76996878035E+03  0.10100000352E+00 0.  1.
    10030    2    1    2    0    0  0.00000000000E+00  0.00000000000E+00 -0.13130215760E+03  0.14086354045E+04  0.14025025655E+04 0.  0.
        2    1    3    3  502    0 -0.49641050767E+03  0.23118407804E+01 -0.56311948811E+03  0.75068788097E+03  0.25500000920E-02 0.  1.
       -2    1    3    3    0  502  0.49641050767E+03 -0.23118407804E+01  0.43181733052E+03  0.65794752349E+03  0.25500000920E-02 0. -1.
</event>
<event>
 5   0  0.9978422E-05  0.1400717E+04  0.7818609E-02  0.8953300E-01
        1   -1    0    0  501    0  0.00000000000E+00  0.00000000000E+00  0.88963302144E+03  0.88963302145E+03  0.50400001928E-02 0.  1.
       -1   -1    0    0    0  501  0.00000000000E+00  0.00000000000E+00 -0.55135298094E+03  0.55135298096E+03  0.50400001928E-02 0. -1.
    10030    2    1    2    0    0  0.00000000000E+00  0.00000000000E+00  0.33828004050E+03  0.14409860024E+04  0.14007166999E+04 0.  0.
        2    1    3    3  502    0  0.58572286592E+03  0.11156385584E+03 -0.20882419237E+03  0.63176365273E+03  0.25500000920E-02 0. -1.
       -2    1    3    3    0  502 -0.58572286592E+03 -0.11156385584E+03  0.54710423288E+03  0.80922234968E+03  0.25500000920E-02 0.  1.
</event>
<event>
 5   0  0.9828111E-05  0.1401609E+04  0.7818609E-02  0.8952654E-01
        1   -1    0    0  501    0  0.00000000000E+00  0.00000000000E+00  0.14956943851E+04  0.14956943851E+04  0.50400001928E-02 0. -1.
       -1   -1    0    0    0  501  0.00000000000E+00  0.00000000000E+00 -0.32836068932E+03  0.32836068935E+03  0.50400001928E-02 0.  1.
    10030    2    1    2    0    0  0.00000000000E+00  0.00000000000E+00  0.11673336958E+04  0.18240550745E+04  0.14016094168E+04 0.  0.
        4    1    3    3  502    0 -0.67225654670E+03 -0.14339031901E+03  0.76132577626E+03  0.10257232564E+04  0.12699999809E+01 0. -1.
       -4    1    3    3    0  502  0.67225654670E+03  0.14339031901E+03  0.40600791953E+03  0.79833181809E+03  0.12699999809E+01 0.  1.
</event>
<event>
 5   0  0.9828111E-05  0.1372376E+04  0.7818609E-02  0.8974060E-01
        1   -1    0    0  501    0  0.00000000000E+00  0.00000000000E+00  0.28987378857E+04  0.28987378857E+04  0.50400001928E-02 0. -1.
       -1   -1    0    0    0  501  0.00000000000E+00  0.00000000000E+00 -0.16243419150E+03  0.16243419158E+03  0.50400001928E-02 0.  1.
    10030    2    1    2    0    0  0.00000000000E+00  0.00000000000E+00  0.27363036942E+04  0.30611720772E+04  0.13723762530E+04 0.  0.
        4    1    3    3  502    0  0.32161376557E+03 -0.20332265763E+03  0.26418738227E+04  0.26691336469E+04  0.12699999809E+01 0. -1.
       -4    1    3    3    0  502 -0.32161376557E+03  0.20332265763E+03  0.94429871473E+02  0.39203843030E+03  0.12699999809E+01 0.  1.
</event>
<event>
 5   0  0.1794185E-04  0.1399312E+04  0.7818609E-02  0.8954317E-01
       -2   -1    0    0    0  501  0.00000000000E+00  0.00000000000E+00  0.70596804006E+03  0.70596804006E+03  0.25500000920E-02 0. -1.
        2   -1    0    0  501    0  0.00000000000E+00  0.00000000000E+00 -0.69340030936E+03  0.69340030936E+03  0.25500000920E-02 0.  1.
    10030    2    1    2    0    0  0.00000000000E+00  0.00000000000E+00  0.12567730701E+02  0.13993683494E+04  0.13993119129E+04 0.  0.
        2    1    3    3  502    0  0.63098308300E+03  0.26023961471E+03 -0.14752139246E+03  0.69830284930E+03  0.25500000920E-02 0.  1.
       -2    1    3    3    0  502 -0.63098308300E+03 -0.26023961471E+03  0.16008912316E+03  0.70106550012E+03  0.25500000920E-02 0. -1.
</event>
<event>
 5   0  0.9260916E-05  0.1400953E+04  0.7818609E-02  0.8953129E-01
       -1   -1    0    0    0  501  0.00000000000E+00  0.00000000000E+00  0.12539078097E+04  0.12539078097E+04  0.50400001928E-02 0.  1.
        1   -1    0    0  501    0  0.00000000000E+00  0.00000000000E+00 -0.39131054295E+03  0.39131054298E+03  0.50400001928E-02 0. -1.
    10030    2    1    2    0    0  0.00000000000E+00  0.00000000000E+00  0.86259726672E+03  0.16452183527E+04  0.14009530268E+04 0.  0.
        1    1    3    3  502    0  0.95001050332E+02 -0.45196757014E+03  0.10497815777E+04  0.11468832743E+04  0.50400001928E-02 0.  1.
       -1    1    3    3    0  502 -0.95001050332E+02  0.45196757014E+03 -0.18718431096E+03  0.49833507835E+03  0.50400001928E-02 0. -1.
</event>
<event>
 5   0  0.1794185E-04  0.1400774E+04  0.7818609E-02  0.8953259E-01
        2   -1    0    0  501    0  0.00000000000E+00  0.00000000000E+00  0.79402217524E+03  0.79402217524E+03  0.25500000920E-02 0.  1.
       -2   -1    0    0    0  501  0.00000000000E+00  0.00000000000E+00 -0.61779339527E+03  0.61779339528E+03  0.25500000920E-02 0. -1.
    10030    2    1    2    0    0  0.00000000000E+00  0.00000000000E+00  0.17622877997E+03  0.14118155705E+04  0.14007735799E+04 0.  0.
        2    1    3    3  502    0  0.67704763404E+03  0.16357596904E+03  0.14111773714E+02  0.69667046627E+03  0.25500000920E-02 0. -1.
       -2    1    3    3    0  502 -0.67704763404E+03 -0.16357596904E+03  0.16211700625E+03  0.71514510425E+03  0.25500000920E-02 0.  1.
</event>
<event>
 5   0  0.1794185E-04  0.1400118E+04  0.7818609E-02  0.8953733E-01
       -2   -1    0    0    0  501  0.00000000000E+00  0.00000000000E+00  0.58742618670E+03  0.58742618670E+03  0.25500000920E-02 0.  1.
        2   -1    0    0  501    0  0.00000000000E+00  0.00000000000E+00 -0.83428844385E+03  0.83428844385E+03  0.25500000920E-02 0. -1.
    10030    2    1    2    0    0  0.00000000000E+00  0.00000000000E+00 -0.24686225715E+03  0.14217146306E+04  0.14001183938E+04 0.  0.
        2    1    3    3  502    0  0.54314102624E+03 -0.16882668957E+02 -0.57159550502E+03  0.78867523117E+03  0.25500000920E-02 0. -1.
       -2    1    3    3    0  502 -0.54314102624E+03  0.16882668957E+02  0.32473324787E+03  0.63303939939E+03  0.25500000920E-02 0.  1.
</event>
<event>
 5   0  0.1794185E-04  0.1399607E+04  0.7818609E-02  0.8954103E-01
        2   -1    0    0  501    0  0.00000000000E+00  0.00000000000E+00  0.92994715895E+03  0.92994715896E+03  0.25500000920E-02 0. -1.
       -2   -1    0    0    0  501  0.00000000000E+00  0.00000000000E+00 -0.52661565607E+03  0.52661565608E+03  0.25500000920E-02 0.  1.
    10030    2    1    2    0    0  0.00000000000E+00  0.00000000000E+00  0.40333150288E+03  0.14565628150E+04  0.13996067065E+04 0.  0.
        2    1    3    3  502    0 -0.22171732542E+03  0.58625329747E+03  0.52557630517E+03  0.81797429895E+03  0.25500000920E-02 0.  1.
       -2    1    3    3    0  502  0.22171732542E+03 -0.58625329747E+03 -0.12224480229E+03  0.63858851608E+03  0.25500000920E-02 0. -1.
</event>
<event>
 5   0  0.1712327E-04  0.1401407E+04  0.7818609E-02  0.8952801E-01
       -2   -1    0    0    0  501  0.00000000000E+00  0.00000000000E+00  0.94475542723E+03  0.94475542724E+03  0.25500000920E-02 0.  1.
        2   -1    0    0  501    0  0.00000000000E+00  0.00000000000E+00 -0.51969569814E+03  0.51969569815E+03  0.25500000920E-02 0. -1.
    10030    2    1    2    0    0  0.00000000000E+00  0.00000000000E+00  0.42505972909E+03  0.14644511254E+04  0.14014069093E+04 0.  0.
        1    1    3    3  502    0  0.17723463717E+03 -0.53119415497E+03  0.65267383888E+03  0.85997818977E+03  0.50400001928E-02 0.  1.
       -1    1    3    3    0  502 -0.17723463717E+03  0.53119415497E+03 -0.22761410979E+03  0.60447293561E+03  0.50400001928E-02 0. -1.
</event>
<event>
 5   0  0.9978422E-05  0.1385915E+04  0.7818609E-02  0.8964078E-01
       -1   -1    0    0    0  501  0.00000000000E+00  0.00000000000E+00  0.66555557698E+03  0.66555557699E+03  0.50400001928E-02 0.  1.
        1   -1    0    0  501    0  0.00000000000E+00  0.00000000000E+00 -0.72148757862E+03  0.72148757864E+03  0.50400001928E-02 0. -1.
    10030    2    1    2    0    0  0.00000000000E+00  0.00000000000E+00 -0.55932001642E+02  0.13870431556E+04  0.13859149782E+04 0.  0.
        2    1    3    3  502    0 -0.76681196139E+02  0.41935929593E+03 -0.57471452254E+03  0.71556900950E+03  0.25500000920E-02 0. -1.
       -2    1    3    3    0  502  0.76681196139E+02 -0.41935929593E+03  0.51878252090E+03  0.67147414613E+03  0.25500000920E-02 0.  1.
</event>
<event>
 5   0  0.1833681E-04  0.1398331E+04  0.7818609E-02  0.8955027E-01
        2   -1    0    0  501    0  0.00000000000E+00  0.00000000000E+00  0.55872001063E+03  0.55872001063E+03  0.25500000920E-02 0. -1.
       -2   -1    0    0    0  501  0.00000000000E+00  0.00000000000E+00 -0.87491530276E+03  0.87491530276E+03  0.25500000920E-02 0.  1.
    10030    2    1    2    0    0  0.00000000000E+00  0.00000000000E+00 -0.31619529213E+03  0.14336353134E+04  0.13983314160E+04 0.  0.
        4    1    3    3  502    0  0.24765788129E+03 -0.42065872172E+03 -0.67127751878E+03  0.83000199183E+03  0.12699999809E+01 0.  1.
       -4    1    3    3    0  502 -0.24765788129E+03  0.42065872172E+03  0.35508222664E+03  0.60363332157E+03  0.12699999809E+01 0. -1.
</event>
<event>
 5   0  0.1780171E-04  0.1397862E+04  0.7818609E-02  0.8955367E-01
        2   -1    0    0  501    0  0.00000000000E+00  0.00000000000E+00  0.34660621973E+03  0.34660621974E+03  0.25500000920E-02 0. -1.
       -2   -1    0    0    0  501  0.00000000000E+00  0.00000000000E+00 -0.14093942562E+04  0.14093942562E+04  0.25500000920E-02 0.  1.
    10030    2    1    2    0    0  0.00000000000E+00  0.00000000000E+00 -0.10627880365E+04  0.17560004759E+04  0.13978623899E+04 0.  0.
        5    1    3    3  502    0 -0.41649122797E+03  0.55456444153E+03 -0.64001073478E+03  0.94373857260E+03  0.46999998093E+01 0. -1.
       -5    1    3    3    0  502  0.41649122797E+03 -0.55456444153E+03 -0.42277730170E+03  0.81226190334E+03  0.46999998093E+01 0.  1.
</event>
<event>
 5   0  0.9900839E-05  0.1396771E+04  0.7818609E-02  0.8956159E-01
       -1   -1    0    0    0  501  0.00000000000E+00  0.00000000000E+00  0.43960221330E+03  0.43960221333E+03  0.50400001928E-02 0. -1.
        1   -1    0    0  501    0  0.00000000000E+00  0.00000000000E+00 -0.11095081536E+04  0.11095081536E+04  0.50400001928E-02 0.  1.
    10030    2    1    2    0    0  0.00000000000E+00  0.00000000000E+00 -0.66990594029E+03  0.15491103669E+04  0.13967709047E+04 0.  0.
        3    1    3    3  502    0 -0.13519137275E+03 -0.42508476601E+03 -0.93093348635E+03  0.10322843270E+04  0.10100000352E+00 0.  1.
       -3    1    3    3    0  502  0.13519137275E+03  0.42508476601E+03  0.26102754605E+03  0.51682603994E+03  0.10100000352E+00 0. -1.
</event>
<event>
 5   0  0.1780171E-04  0.1400736E+04  0.7818609E-02  0.8953286E-01
        2   -1    0    0  501    0  0.00000000000E+00  0.00000000000E+00  0.12282292891E+04  0.12282292891E+04  0.25500000920E-02 0. -1.
       -2   -1    0    0    0  501  0.00000000000E+00  0.00000000000E+00 -0.39936789487E+03  0.39936789488E+03  0.25500000920E-02 0.  1.
    10030    2    1    2    0    0  0.00000000000E+00  0.00000000000E+00  0.82886139426E+03  0.16275971840E+04  0.14007360146E+04 0.  0.
        5    1    3    3  502    0  0.39537091512E+03  0.51368719552E+03  0.10634607036E+03  0.65690507081E+03  0.46999998093E+01 0.  1.
       -5    1    3    3    0  502 -0.39537091512E+03 -0.51368719552E+03  0.72251532390E+03  0.97069211320E+03  0.46999998093E+01 0. -1.
</event>
<event>
 5   0  0.6671375E-05  0.1399102E+04  0.7818609E-02  0.8954468E-01
        1   -1    0    0  501    0  0.00000000000E+00  0.00000000000E+00  0.49395280778E+03  0.49395280780E+03  0.50400001928E-02 0.  1.
       -1   -1    0    0    0  501  0.00000000000E+00  0.00000000000E+00 -0.99072608439E+03  0.99072608440E+03  0.50400001928E-02 0. -1.
    10030    2    1    2    0    0  0.00000000000E+00  0.00000000000E+00 -0.49677327661E+03  0.14846788922E+04  0.13991024711E+04 0.  0.
        5    1    3    3  502    0  0.45334025737E+03  0.33901640063E+03  0.18772558837E+03  0.59641637752E+03  0.46999998093E+01 0.  1.
       -5    1    3    3    0  502 -0.45334025737E+03 -0.33901640063E+03 -0.68449886498E+03  0.88826251469E+03  0.46999998093E+01 0. -1.
</event>
<event>
 5   0  0.1780171E-04  0.1400180E+04  0.7818609E-02  0.8953688E-01
       -2   -1    0    0    0  501  0.00000000000E+00  0.00000000000E+00  0.92113075255E+03  0.92113075255E+03  0.25500000920E-02 0. -1.
        2   -1    0    0  501    0  0.00000000000E+00  0.00000000000E+00 -0.53209204500E+03  0.53209204501E+03  0.25500000920E-02 0.  1.
    10030    2    1    2    0    0  0.00000000000E+00  0.00000000000E+00  0.38903870754E+03  0.14532227976E+04  0.14001804824E+04 0.  0.
        5    1    3    3  502    0  0.10054119652E+03 -0.45744837214E+03 -0.34551545842E+03  0.58204000497E+03  0.46999998093E+01 0.  1.
       -5    1    3    3    0  502 -0.10054119652E+03  0.45744837214E+03  0.73455416597E+03  0.87118279259E+03  0.46999998093E+01 0. -1.
</event>
<event>
 5   0  0.1794185E-04  0.1401553E+04  0.7818609E-02  0.8952695E-01
        2   -1    0    0  501    0  0.00000000000E+00  0.00000000000E+00  0.86341703777E+03  0.86341703777E+03  0.25500000920E-02 0.  1.
       -2   -1    0    0    0  501  0.00000000000E+00  0.00000000000E+00 -0.56877246216E+03  0.56877246216E+03  0.25500000920E-02 0. -1.
    10030    2    1    2    0    0  0.00000000000E+00  0.00000000000E+00  0.29464457561E+03  0.14321894999E+04  0.14015531876E+04 0.  0.
        2    1    3    3  502    0 -0.28132729613E+03  0.50386356439E+02 -0.50651087386E+03  0.58158154871E+03  0.25500000920E-02 0. -1.
       -2    1    3    3    0  502  0.28132729613E+03 -0.50386356439E+02  0.80115544947E+03  0.85060795122E+03  0.25500000920E-02 0.  1.
</event>
<event>
 5   0  0.9260916E-05  0.1399588E+04  0.7818609E-02  0.8954117E-01
       -1   -1    0    0    0  501  0.00000000000E+00  0.00000000000E+00  0.10266561085E+04  0.10266561085E+04  0.50400001928E-02 0.  1.
        1   -1    0    0  501    0  0.00000000000E+00  0.00000000000E+00 -0.47699648763E+03  0.47699648765E+03  0.50400001928E-02 0. -1.
    10030    2    1    2    0    0  0.00000000000E+00  0.00000000000E+00  0.54965962083E+03  0.15036525961E+04  0.13995875932E+04 0.  0.
        1    1    3    3  502    0 -0.47800597851E+03 -0.12708379858E+03 -0.25702574063E+03  0.55740670854E+03  0.50400001928E-02 0. -1.
       -1    1    3    3    0  502  0.47800597851E+03  0.12708379858E+03  0.80668536147E+03  0.94624588759E+03  0.50400001928E-02 0.  1.
</event>
<event>
 5   0  0.9900839E-05  0.1400874E+04  0.7818609E-02  0.8953186E-01
       -1   -1    0    0    0  501  0.00000000000E+00  0.00000000000E+00  0.27920267454E+03  0.27920267459E+03  0.50400001928E-02 0.  1.
        1   -1    0    0  501    0  0.00000000000E+00  0.00000000000E+00 -0.17571896541E+04  0.17571896541E+04  0.50400001928E-02 0. -1.
    10030    2    1    2    0    0  0.00000000000E+00  0.00000000000E+00 -0.14779869796E+04  0.20363923287E+04  0.14008740859E+04 0.  0.
        3    1    3    3  502    0 -0.46791994284E+03 -0.20222943757E+03 -0.14373038276E+04  0.15250206954E+04  0.10100000352E+00 0. -1.
       -3    1    3    3    0  502  0.46791994284E+03  0.20222943757E+03 -0.40683151992E+02  0.51137163334E+03  0.10100000352E+00 0.  1.
</event>
<event>
 5   0  0.1833681E-04  0.1400507E+04  0.7818609E-02  0.8953452E-01
        2   -1    0    0  501    0  0.00000000000E+00  0.00000000000E+00  0.17205408196E+04  0.17205408196E+04  0.25500000920E-02 0.  1.
       -2   -1    0    0    0  501  0.00000000000E+00  0.00000000000E+00 -0.28500028246E+03  0.28500028247E+03  0.25500000920E-02 0. -1.
    10030    2    1    2    0    0  0.00000000000E+00  0.00000000000E+00  0.14355405371E+04  0.20055411020E+04  0.14005065078E+04 0.  0.
        4    1    3    3  502    0  0.39736108630E+03 -0.20828213055E+03  0.14877020548E+04  0.15538778252E+04  0.12699999809E+01 0.  1.
       -4    1    3    3    0  502 -0.39736108630E+03  0.20828213055E+03 -0.52161517710E+02  0.45166327684E+03  0.12699999809E+01 0. -1.
</event>
<event>
 5   0  0.1833681E-04  0.1401899E+04  0.7818609E-02  0.8952445E-01
       -2   -1    0    0    0  501  0.00000000000E+00  0.00000000000E+00  0.39003706186E+03  0.39003706186E+03  0.25500000920E-02 0. -1.
        2   -1    0    0  501    0  0.00000000000E+00  0.00000000000E+00 -0.12597012763E+04  0.12597012763E+04  0.25500000920E-02 0.  1.
    10030    2    1    2    0    0  0.00000000000E+00  0.00000000000E+00 -0.86966421448E+03  0.16497383382E+04  0.14018989759E+04 0.  0.
        4    1    3    3  502    0  0.26790547016E+03 -0.22247394664E+03 -0.11507030876E+04  0.12022425740E+04  0.12699999809E+01 0.  1.
       -4    1    3    3    0  502 -0.26790547016E+03  0.22247394664E+03  0.28103887316E+03  0.44749576423E+03  0.12699999809E+01 0. -1.
</event>
<event>
 5   0  0.1712327E-04  0.1403443E+04  0.7818609E-02  0.8951330E-01
       -2   -1    0    0    0  501  0.00000000000E+00  0.00000000000E+00  0.12478701603E+04  0.12478701603E+04  0.25500000920E-02 0.  1.
        2   -1    0    0  501    0  0.00000000000E+00  0.00000000000E+00 -0.39460305995E+03  0.39460305996E+03  0.25500000920E-02 0. -1.
    10030    2    1    2    0    0  0.00000000000E+00  0.00000000000E+00  0.85326710034E+03  0.16424732203E+04  0.14034434562E+04 0.  0.
        1    1    3    3  502    0  0.40878478151E+03  0.32017746766E+03  0.97903635934E+03  0.11082106304E+04  0.50400001928E-02 0.  1.
       -1    1    3    3    0  502 -0.40878478151E+03 -0.32017746766E+03 -0.12576925900E+03  0.53426258986E+03  0.50400001928E-02 0. -1.
</event>
<event>
 5   0  0.1780171E-04  0.1408574E+04  0.7818609E-02  0.8947635E-01
       -2   -1    0    0    0  501  0.00000000000E+00  0.00000000000E+00  0.58640434477E+03  0.58640434478E+03  0.25500000920E-02 0.  1.
        2   -1    0    0  501    0  0.00000000000E+00  0.00000000000E+00 -0.84586775616E+03  0.84586775616E+03  0.25500000920E-02 0. -1.
    10030    2    1    2    0    0  0.00000000000E+00  0.00000000000E+00 -0.25946341139E+03  0.14322721009E+04  0.14085744955E+04 0.  0.
        5    1    3    3  502    0  0.12561450941E+03 -0.35861354508E+03  0.47321631908E+03  0.60690893413E+03  0.46999998093E+01 0.  1.
       -5    1    3    3    0  502 -0.12561450941E+03  0.35861354508E+03 -0.73267973046E+03  0.82536316681E+03  0.46999998093E+01 0. -1.
</event>
<event>
 5   0  0.9900839E-05  0.1400645E+04  0.7818609E-02  0.8953351E-01
       -1   -1    0    0    0  501  0.00000000000E+00  0.00000000000E+00  0.57056307413E+03  0.57056307415E+03  0.50400001928E-02 0.  1.
        1   -1    0    0  501    0  0.00000000000E+00  0.00000000000E+00 -0.85959278165E+03  0.85959278166E+03  0.50400001928E-02 0. -1.
    10030    2    1    2    0    0  0.00000000000E+00  0.00000000000E+00 -0.28902970752E+03  0.14301558558E+04  0.14006454227E+04 0.  0.
        3    1    3    3  502    0  0.68667598446E+03  0.10926188745E+03 -0.59148206521E+02  0.69782561447E+03  0.10100000352E+00 0.  1.
       -3    1    3    3    0  502 -0.68667598446E+03 -0.10926188745E+03 -0.22988150099E+03  0.73233024134E+03  0.10100000352E+00 0. -1.
</event>
<event>
 5   0  0.9260916E-05  0.1398063E+04  0.7818609E-02  0.8955222E-01
        1   -1    0    0  501    0  0.00000000000E+00  0.00000000000E+00  0.18918097840E+04  0.18918097840E+04  0.50400001928E-02 0.  1.
       -1   -1    0    0    0  501  0.00000000000E+00  0.00000000000E+00 -0.25829486945E+03  0.25829486950E+03  0.50400001928E-02 0. -1.
    10030    2    1    2    0    0  0.00000000000E+00  0.00000000000E+00  0.16335149145E+04  0.21501046535E+04  0.13980626041E+04 0.  0.
        1    1    3    3  502    0 -0.63838547720E+03  0.24344930247E+03  0.58947231993E+03  0.90237530793E+03  0.50400001928E-02 0. -1.
       -1    1    3    3    0  502  0.63838547720E+03 -0.24344930247E+03  0.10440425946E+04  0.12477293455E+04  0.50400001928E-02 0.  1.
</event>
<event>
 5   0  0.1794185E-04  0.1398927E+04  0.7818609E-02  0.8954596E-01
       -2   -1    0    0    0  501  0.00000000000E+00  0.00000000000E+00  0.90142128603E+03  0.90142128603E+03  0.25500000920E-02 0. -1.
        2   -1    0    0  501    0  0.00000000000E+00  0.00000000000E+00 -0.54275298400E+03  0.54275298401E+03  0.25500000920E-02 0.  1.
    10030    2    1    2    0    0  0.00000000000E+00  0.00000000000E+00  0.35866830203E+03  0.14441742700E+04  0.13989268642E+04 0.  0.
        2    1    3    3  502    0  0.55692096838E+03  0.20538141154E+03  0.56131077964E+03  0.81695304674E+03  0.25500000920E-02 0. -1.
       -2    1    3    3    0  502 -0.55692096838E+03 -0.20538141154E+03 -0.20264247761E+03  0.62722122331E+03  0.25500000920E-02 0.  1.
</event>
<event>
 5   0  0.6671375E-05  0.1400453E+04  0.7818609E-02  0.8953491E-01
        1   -1    0    0  501    0  0.00000000000E+00  0.00000000000E+00  0.24763163109E+04  0.24763163109E+04  0.50400001928E-02 0. -1.
       -1   -1    0    0    0  501  0.00000000000E+00  0.00000000000E+00 -0.19800261329E+03  0.19800261336E+03  0.50400001928E-02 0.  1.
    10030    2    1    2    0    0  0.00000000000E+00  0.00000000000E+00  0.22783136976E+04  0.26743189243E+04  0.14004529281E+04 0.  0.
        5    1    3    3  502    0 -0.55009772063E+03 -0.30209259290E+03  0.54616967192E+03  0.83198007035E+03  0.46999998093E+01 0.  1.
       -5    1    3    3    0  502  0.55009772063E+03  0.30209259290E+03  0.17321440257E+04  0.18423388539E+04  0.46999998093E+01 0. -1.
</event>
<event>
 5   0  0.9260916E-05  0.1406911E+04  0.7818609E-02  0.8948831E-01
        1   -1    0    0  501    0  0.00000000000E+00  0.00000000000E+00  0.57836157459E+03  0.57836157462E+03  0.50400001928E-02 0. -1.
       -1   -1    0    0    0  501  0.00000000000E+00  0.00000000000E+00 -0.85560603395E+03  0.85560603397E+03  0.50400001928E-02 0.  1.
    10030    2    1    2    0    0  0.00000000000E+00  0.00000000000E+00 -0.27724445936E+03  0.14339676086E+04  0.14069110179E+04 0.  0.
        1    1    3    3  502    0  0.64924311344E+03 -0.34411525399E+02 -0.41239326998E+03  0.76991491905E+03  0.50400001928E-02 0.  1.
       -1    1    3    3    0  502 -0.64924311344E+03  0.34411525399E+02  0.13514881062E+03  0.66405268953E+03  0.50400001928E-02 0. -1.
</event>
<event>
 5   0  0.9978422E-05  0.1394368E+04  0.7818609E-02  0.8957905E-01
       -1   -1    0    0    0  501  0.00000000000E+00  0.00000000000E+00  0.38439631003E+03  0.38439631006E+03  0.50400001928E-02 0. -1.
        1   -1    0    0  501    0  0.00000000000E+00  0.00000000000E+00 -0.12644906241E+04  0.12644906241E+04  0.50400001928E-02 0.  1.
    10030    2    1    2    0    0  0.00000000000E+00  0.00000000000E+00 -0.88009431409E+03  0.16488869342E+04  0.13943680002E+04 0.  0.
        2    1    3    3  502    0 -0.36122931183E+02 -0.51081039598E+03 -0.99951601627E+03  0.11230602805E+04  0.25500000920E-02 0.  1.
       -2    1    3    3    0  502  0.36122931183E+02  0.51081039598E+03  0.11942170218E+03  0.52582665371E+03  0.25500000920E-02 0. -1.
</event>
<event>
 5   0  0.1794185E-04  0.1389863E+04  0.7818609E-02  0.8961189E-01
       -2   -1    0    0    0  501  0.00000000000E+00  0.00000000000E+00  0.51755687341E+03  0.51755687342E+03  0.25500000920E-02 0.  1.
        2   -1    0    0  501    0  0.00000000000E+00  0.00000000000E+00 -0.93309500582E+03  0.93309500582E+03  0.25500000920E-02 0. -1.
    10030    2    1    2    0    0  0.00000000000E+00  0.00000000000E+00 -0.41553813241E+03  0.14506518792E+04  0.13898629196E+04 0.  0.
        2    1    3    3  502    0  0.68803060216E+03  0.97571908533E+02 -0.21281226887E+03  0.72677056120E+03  0.25500000920E-02 0.  1.
       -2    1    3    3    0  502 -0.68803060216E+03 -0.97571908533E+02 -0.20272586355E+03  0.72388131804E+03  0.25500000920E-02 0. -1.
</event>
<event>
 5   0  0.1766237E-04  0.1400518E+04  0.7818609E-02  0.8953443E-01
        2   -1    0    0  501    0  0.00000000000E+00  0.00000000000E+00  0.11325737809E+04  0.11325737809E+04  0.25500000920E-02 0.  1.
       -2   -1    0    0    0  501  0.00000000000E+00  0.00000000000E+00 -0.43296328984E+03  0.43296328985E+03  0.25500000920E-02 0. -1.
    10030    2    1    2    0    0  0.00000000000E+00  0.00000000000E+00  0.69961049106E+03  0.15655370708E+04  0.14005182900E+04 0.  0.
        3    1    3    3  502    0 -0.41149810828E+03 -0.41431506809E+03  0.78183514903E+03  0.97583496516E+03  0.10100000352E+00 0.  1.
       -3    1    3    3    0  502  0.41149810828E+03  0.41431506809E+03 -0.82224657971E+02  0.58970210560E+03  0.10100000352E+00 0. -1.
</event>
<event>
 5   0  0.6671375E-05  0.1398360E+04  0.7818609E-02  0.8955007E-01
        1   -1    0    0  501    0  0.00000000000E+00  0.00000000000E+00  0.75049632944E+03  0.75049632945E+03  0.50400001928E-02 0. -1.
       -1   -1    0    0    0  501  0.00000000000E+00  0.00000000000E+00 -0.65137247215E+03  0.65137247217E+03  0.50400001928E-02 0.  1.
    10030    2    1    2    0    0  0.00000000000E+00  0.00000000000E+00  0.99123857283E+02  0.14018688016E+04  0.13983599672E+04 0.  0.
        5    1    3    3  502    0  0.29319382911E+03 -0.35917441299E+03  0.57419301630E+03  0.73803020964E+03  0.46999998093E+01 0. -1.
       -5    1    3    3    0  502 -0.29319382911E+03  0.35917441299E+03 -0.47506915902E+03  0.66383859199E+03  0.46999998093E+01 0.  1.
</event>
<event>
 5   0  0.9260916E-05  0.1398637E+04  0.7818609E-02  0.8954806E-01
       -1   -1    0    0    0  501  0.00000000000E+00  0.00000000000E+00  0.84844243660E+03  0.84844243662E+03  0.50400001928E-02 0. -1.
        1   -1    0    0  501    0  0.00000000000E+00  0.00000000000E+00 -0.57640513913E+03  0.57640513915E+03  0.50400001928E-02 0.  1.
    10030    2    1    2    0    0  0.00000000000E+00  0.00000000000E+00  0.27203729747E+03  0.14248475758E+04  0.13986373093E+04 0.  0.
        1    1    3    3  502    0  0.56172185589E+03 -0.34545284016E+03  0.37314109634E+03  0.75769610397E+03  0.50400001928E-02 0. -1.
       -1    1    3    3    0  502 -0.56172185589E+03  0.34545284016E+03 -0.10110379887E+03  0.66715147180E+03  0.50400001928E-02 0.  1.
</event>
<event>
 5   0  0.9900839E-05  0.1399813E+04  0.7818609E-02  0.8953954E-01
        1   -1    0    0  501    0  0.00000000000E+00  0.00000000000E+00  0.85075437092E+03  0.85075437093E+03  0.50400001928E-02 0. -1.
       -1   -1    0    0    0  501  0.00000000000E+00  0.00000000000E+00 -0.57580578373E+03  0.57580578375E+03  0.50400001928E-02 0.  1.
    10030    2    1    2    0    0  0.00000000000E+00  0.00000000000E+00  0.27494858719E+03  0.14265601547E+04  0.13998132552E+04 0.  0.
        3    1    3    3  502    0 -0.18444859032E+03  0.12147694757E+03  0.81431155016E+03  0.84373055070E+03  0.10100000352E+00 0. -1.
       -3    1    3    3    0  502  0.18444859032E+03 -0.12147694757E+03 -0.53936296296E+03  0.58282960398E+03  0.10100000352E+00 0.  1.
</event>
<event>
 5   0  0.1780171E-04  0.1382170E+04  0.7818609E-02  0.8966827E-01
       -2   -1    0    0    0  501  0.00000000000E+00  0.00000000000E+00  0.88099715119E+03  0.88099715120E+03  0.25500000920E-02 0.  1.
        2   -1    0    0  501    0  0.00000000000E+00  0.00000000000E+00 -0.54211142013E+03  0.54211142014E+03  0.25500000920E-02 0. -1.
    10030    2    1    2    0    0  0.00000000000E+00  0.00000000000E+00  0.33888573106E+03  0.14231085713E+04  0.13821702019E+04 0.  0.
        5    1    3    3  502    0  0.14133099019E+02 -0.33676805647E+01 -0.54193769951E+03  0.54215278834E+03  0.46999998093E+01 0. -1.
       -5    1    3    3    0  502 -0.14133099019E+02  0.33676805647E+01  0.88082343057E+03  0.88095578300E+03  0.46999998093E+01 0.  1.
</event>
<event>
 5   0  0.6671375E-05  0.1414487E+04  0.7818609E-02  0.8943398E-01
        1   -1    0    0  501    0  0.00000000000E+00  0.00000000000E+00  0.21385827688E+04  0.21385827688E+04  0.50400001928E-02 0.  1.
       -1   -1    0    0    0  501  0.00000000000E+00  0.00000000000E+00 -0.23389023000E+03  0.23389023006E+03  0.50400001928E-02 0. -1.
    10030    2    1    2    0    0  0.00000000000E+00  0.00000000000E+00  0.19046925388E+04  0.23724729989E+04  0.14144873499E+04 0.  0.
        5    1    3    3  502    0 -0.42949352143E+02  0.39290987529E+03  0.19360154220E+04  0.19759556222E+04  0.46999998093E+01 0.  1.
       -5    1    3    3    0  502  0.42949352143E+02 -0.39290987529E+03 -0.31322883179E+02  0.39651737662E+03  0.46999998093E+01 0. -1.
</event>
<event>
 5   0  0.1794185E-04  0.1398904E+04  0.7818609E-02  0.8954612E-01
       -2   -1    0    0    0  501  0.00000000000E+00  0.00000000000E+00  0.11963590538E+04  0.11963590538E+04  0.25500000920E-02 0. -1.
        2   -1    0    0  501    0  0.00000000000E+00  0.00000000000E+00 -0.40893516647E+03  0.40893516648E+03  0.25500000920E-02 0.  1.
    10030    2    1    2    0    0  0.00000000000E+00  0.00000000000E+00  0.78742388729E+03  0.16052942202E+04  0.13989042695E+04 0.  0.
        2    1    3    3  502    0 -0.53005682072E+03 -0.37212250731E+03  0.90540836674E+02  0.65393656936E+03  0.25500000920E-02 0.  1.
       -2    1    3    3    0  502  0.53005682072E+03  0.37212250731E+03  0.69688305061E+03  0.95135765087E+03  0.25500000920E-02 0. -1.
</event>
<event>
 5   0  0.1794185E-04  0.1402784E+04  0.7818609E-02  0.8951806E-01
        2   -1    0    0  501    0  0.00000000000E+00  0.00000000000E+00  0.16898534978E+04  0.16898534978E+04  0.25500000920E-02 0.  1.
       -2   -1    0    0    0  501  0.00000000000E+00  0.00000000000E+00 -0.29112037640E+03  0.29112037641E+03  0.25500000920E-02 0. -1.
    10030    2    1    2    0    0  0.00000000000E+00  0.00000000000E+00  0.13987331214E+04  0.19809738742E+04  0.14027840694E+04 0.  0.
        2    1    3    3  502    0  0.96962157657E+02 -0.18833850293E+03 -0.24486702428E+03  0.32377910879E+03  0.25500000920E-02 0. -1.
       -2    1    3    3    0  502 -0.96962157657E+02  0.18833850293E+03  0.16436001456E+04  0.16571947654E+04  0.25500000920E-02 0.  1.
</event>
<event>
 5   0  0.1780171E-04  0.1400373E+04  0.7818609E-02  0.8953549E-01
       -2   -1    0    0    0  501  0.00000000000E+00  0.00000000000E+00  0.71844684238E+03  0.71844684238E+03  0.25500000920E-02 0.  1.
        2   -1    0    0  501    0  0.00000000000E+00  0.00000000000E+00 -0.68238987470E+03  0.68238987470E+03  0.25500000920E-02 0. -1.
    10030    2    1    2    0    0  0.00000000000E+00  0.00000000000E+00  0.36056967678E+02  0.14008367171E+04  0.14003725944E+04 0.  0.
        5    1    3    3  502    0 -0.37134449649E+02 -0.51083974743E+03 -0.45952113397E+03  0.68812642550E+03  0.46999998093E+01 0. -1.
       -5    1    3    3    0  502  0.37134449649E+02  0.51083974743E+03  0.49557810165E+03  0.71271029159E+03  0.46999998093E+01 0.  1.
</event>
<event>
 5   0  0.1712327E-04  0.1398956E+04  0.7818609E-02  0.8954574E-01
       -2   -1    0    0    0  501  0.00000000000E+00  0.00000000000E+00  0.15588919509E+04  0.15588919509E+04  0.25500000920E-02 0. -1.
        2   -1    0    0  501    0  0.00000000000E+00  0.00000000000E+00 -0.31385732291E+03  0.31385732292E+03  0.25500000920E-02 0.  1.
    10030    2    1    2    0    0  0.00000000000E+00  0.00000000000E+00  0.12450346280E+04  0.18727492738E+04  0.13989562601E+04 0.  0.
        1    1    3    3  502    0 -0.11951092425E+03 -0.68878337406E+03  0.59071827647E+03  0.91523411189E+03  0.50400001928E-02 0. -1.
       -1    1    3    3    0  502  0.11951092425E+03  0.68878337406E+03  0.65431635150E+03  0.95751516190E+03  0.50400001928E-02 0.  1.
</event>
<event>
 5   0  0.1794185E-04  0.1400773E+04  0.7818609E-02  0.8953259E-01
       -2   -1    0    0    0  501  0.00000000000E+00  0.00000000000E+00  0.98381183710E+03  0.98381183711E+03  0.25500000920E-02 0. -1.
        2   -1    0    0  501    0  0.00000000000E+00  0.00000000000E+00 -0.49861273179E+03  0.49861273180E+03  0.25500000920E-02 0.  1.
    10030    2    1    2    0    0  0.00000000000E+00  0.00000000000E+00  0.48519910531E+03  0.14824245689E+04  0.14007727977E+04 0.  0.
        2    1    3    3  502    0 -0.26716207688E+03  0.51831179452E+02  0.92556933766E+03  0.96474900638E+03  0.25500000920E-02 0. -1.
       -2    1    3    3    0  502  0.26716207688E+03 -0.51831179452E+02 -0.44037023235E+03  0.51767556252E+03  0.25500000920E-02 0.  1.
</event>
<event>
 5   0  0.1712327E-04  0.1401202E+04  0.7818609E-02  0.8952949E-01
        2   -1    0    0  501    0  0.00000000000E+00  0.00000000000E+00  0.64759175970E+03  0.64759175971E+03  0.25500000920E-02 0. -1.
       -2   -1    0    0    0  501  0.00000000000E+00  0.00000000000E+00 -0.75794891631E+03  0.75794891632E+03  0.25500000920E-02 0.  1.
    10030    2    1    2    0    0  0.00000000000E+00  0.00000000000E+00 -0.11035715661E+03  0.14055406760E+04  0.14012015879E+04 0.  0.
        1    1    3    3  502    0  0.33378883756E+03  0.35932098767E+03  0.44668555509E+03  0.66336607195E+03  0.50400001928E-02 0. -1.
       -1    1    3    3    0  502 -0.33378883756E+03 -0.35932098767E+03 -0.55704271170E+03  0.74217460408E+03  0.50400001928E-02 0.  1.
</event>
<event>
 5   0  0.9828111E-05  0.1400463E+04  0.7818609E-02  0.8953484E-01
        1   -1    0    0  501    0  0.00000000000E+00  0.00000000000E+00  0.35314284936E+03  0.35314284940E+03  0.50400001928E-02 0.  1.
       -1   -1    0    0    0  501  0.00000000000E+00  0.00000000000E+00 -0.13884578200E+04  0.13884578200E+04  0.50400001928E-02 0. -1.
    10030    2    1    2    0    0  0.00000000000E+00  0.00000000000E+00 -0.10353149706E+04  0.17416006694E+04  0.14004627104E+04 0.  0.
        4    1    3    3  502    0 -0.14743427739E+03  0.62611242462E+03 -0.17354321728E+03  0.66623756692E+03  0.12699999809E+01 0.  1.
       -4    1    3    3    0  502  0.14743427739E+03 -0.62611242462E+03 -0.86177175332E+03  0.10753631025E+04  0.12699999809E+01 0. -1.
</event>
<event>
 5   0  0.9828111E-05  0.1403758E+04  0.7818609E-02  0.8951103E-01
        1   -1    0    0  501    0  0.00000000000E+00  0.00000000000E+00  0.20917262263E+04  0.20917262263E+04  0.50400001928E-02 0.  1.
       -1   -1    0    0    0  501  0.00000000000E+00  0.00000000000E+00 -0.23551547488E+03  0.23551547493E+03  0.50400001928E-02 0. -1.
    10030    2    1    2    0    0  0.00000000000E+00  0.00000000000E+00  0.18562107514E+04  0.23272417012E+04  0.14037576651E+04 0.  0.
        4    1    3    3  502    0 -0.34727059249E+03 -0.52700700701E+03  0.14372052254E+04  0.15696794968E+04  0.12699999809E+01 0.  1.
       -4    1    3    3    0  502  0.34727059249E+03  0.52700700701E+03  0.41900552599E+03  0.75756220441E+03  0.12699999809E+01 0. -1.
</event>
<event>
 5   0  0.9828111E-05  0.1413780E+04  0.7818609E-02  0.8943904E-01
       -1   -1    0    0    0  501  0.00000000000E+00  0.00000000000E+00  0.77717907891E+03  0.77717907892E+03  0.50400001928E-02 0. -1.
        1   -1    0    0  501    0  0.00000000000E+00  0.00000000000E+00 -0.64295822465E+03  0.64295822467E+03  0.50400001928E-02 0.  1.
    10030    2    1    2    0    0  0.00000000000E+00  0.00000000000E+00  0.13422085426E+03  0.14201373036E+04  0.14137802953E+04 0.  0.
        4    1    3    3  502    0 -0.51335425357E+03  0.24087805895E+02  0.55465792722E+03  0.75614802862E+03  0.12699999809E+01 0. -1.
       -4    1    3    3    0  502  0.51335425357E+03 -0.24087805895E+02 -0.42043707296E+03  0.66398927497E+03  0.12699999809E+01 0.  1.
</event>
<event>
 5   0  0.1833681E-04  0.1399068E+04  0.7818609E-02  0.8954493E-01
       -2   -1    0    0    0  501  0.00000000000E+00  0.00000000000E+00  0.15706284291E+04  0.15706284291E+04  0.25500000920E-02 0. -1.
        2   -1    0    0  501    0  0.00000000000E+00  0.00000000000E+00 -0.31156190649E+03  0.31156190650E+03  0.25500000920E-02 0.  1.
    10030    2    1    2    0    0  0.00000000000E+00  0.00000000000E+00  0.12590665226E+04  0.18821903356E+04  0.13990682439E+04 0.  0.
        4    1    3    3  502    0  0.16823602100E+03  0.17571465570E+03  0.15118883103E+04  0.15313349976E+04  0.12699999809E+01 0. -1.
       -4    1    3    3    0  502 -0.16823602100E+03 -0.17571465570E+03 -0.25282178771E+03  0.35085533804E+03  0.12699999809E+01 0.  1.
</event>
<event>
 5   0  0.6671375E-05  0.1401074E+04  0.7818609E-02  0.8953042E-01
       -1   -1    0    0    0  501  0.00000000000E+00  0.00000000000E+00  0.72417209530E+03  0.72417209532E+03  0.50400001928E-02 0.  1.
        1   -1    0    0  501    0  0.00000000000E+00  0.00000000000E+00 -0.67767297637E+03  0.67767297639E+03  0.50400001928E-02 0. -1.
    10030    2    1    2    0    0  0.00000000000E+00  0.00000000000E+00  0.46499118925E+02  0.14018450717E+04  0.14010736729E+04 0.  0.
        5    1    3    3  502    0  0.62264320541E+03  0.26517059068E+03  0.20426286360E+03  0.70692673655E+03  0.46999998093E+01 0.  1.
       -5    1    3    3    0  502 -0.62264320541E+03 -0.26517059068E+03 -0.15776374467E+03  0.69491833516E+03  0.46999998093E+01 0. -1.
</event>
<event>
 5   0  0.9978422E-05  0.1397660E+04  0.7818609E-02  0.8955514E-01
       -1   -1    0    0    0  501  0.00000000000E+00  0.00000000000E+00  0.57217710657E+03  0.57217710659E+03  0.50400001928E-02 0.  1.
        1   -1    0    0  501    0  0.00000000000E+00  0.00000000000E+00 -0.85351742667E+03  0.85351742669E+03  0.50400001928E-02 0. -1.
    10030    2    1    2    0    0  0.00000000000E+00  0.00000000000E+00 -0.28134032010E+03  0.14256945333E+04  0.13976596605E+04 0.  0.
        2    1    3    3  502    0  0.49511394897E+03  0.49117080950E+03 -0.95320043027E+02  0.70389807300E+03  0.25500000920E-02 0.  1.
       -2    1    3    3    0  502 -0.49511394897E+03 -0.49117080950E+03 -0.18602027708E+03  0.72179646027E+03  0.25500000920E-02 0. -1.
</event>
<event>
 5   0  0.9828111E-05  0.1402956E+04  0.7818609E-02  0.8951682E-01
       -1   -1    0    0    0  501  0.00000000000E+00  0.00000000000E+00  0.32196032020E+03  0.32196032024E+03  0.50400001928E-02 0.  1.
        1   -1    0    0  501    0  0.00000000000E+00  0.00000000000E+00 -0.15283593110E+04  0.15283593110E+04  0.50400001928E-02 0. -1.
    10030    2    1    2    0    0  0.00000000000E+00  0.00000000000E+00 -0.12063989908E+04  0.18503196312E+04  0.14029555277E+04 0.  0.
        4    1    3    3  502    0 -0.53738916824E+03  0.44067321736E+03 -0.72893888833E+03  0.10071412604E+04  0.12699999809E+01 0.  1.
       -4    1    3    3    0  502  0.53738916824E+03 -0.44067321736E+03 -0.47746010243E+03  0.84317837078E+03  0.12699999809E+01 0. -1.
</event>
<event>
 5   0  0.9828111E-05  0.1401147E+04  0.7818609E-02  0.8952989E-01
        1   -1    0    0  501    0  0.00000000000E+00  0.00000000000E+00  0.10696113959E+04  0.10696113959E+04  0.50400001928E-02 0.  1.
       -1   -1    0    0    0  501  0.00000000000E+00  0.00000000000E+00 -0.45886130393E+03  0.45886130396E+03  0.50400001928E-02 0. -1.
    10030    2    1    2    0    0  0.00000000000E+00  0.00000000000E+00  0.61075009199E+03  0.15284726999E+04  0.14011470727E+04 0.  0.
        4    1    3    3  502    0 -0.37232871129E+03  0.22114792065E+03  0.90611463054E+03  0.10042810407E+04  0.12699999809E+01 0.  1.
       -4    1    3    3    0  502  0.37232871129E+03 -0.22114792065E+03 -0.29536453855E+03  0.52419165922E+03  0.12699999809E+01 0. -1.
</event>
<event>
 5   0  0.1766237E-04  0.1400431E+04  0.7818609E-02  0.8953507E-01
       -2   -1    0    0    0  501  0.00000000000E+00  0.00000000000E+00  0.37089284560E+03  0.37089284561E+03  0.25500000920E-02 0.  1.
        2   -1    0    0  501    0  0.00000000000E+00  0.00000000000E+00 -0.13219494535E+04  0.13219494535E+04  0.25500000920E-02 0. -1.
    10030    2    1    2    0    0  0.00000000000E+00  0.00000000000E+00 -0.95105660787E+03  0.16928422991E+04  0.14004307831E+04 0.  0.
        3    1    3    3  502    0  0.32348229257E+02 -0.65515533604E+02  0.36627205742E+03  0.37348885301E+03  0.10100000352E+00 0.  1.
       -3    1    3    3    0  502 -0.32348229257E+02  0.65515533604E+02 -0.13173286653E+04  0.13193534461E+04  0.10100000352E+00 0. -1.
</event>
<event>
 5   0  0.9978422E-05  0.1399857E+04  0.7818609E-02  0.8953922E-01
       -1   -1    0    0    0  501  0.00000000000E+00  0.00000000000E+00  0.93899039424E+03  0.93899039426E+03  0.50400001928E-02 0. -1.
        1   -1    0    0  501    0  0.00000000000E+00  0.00000000000E+00 -0.52173018722E+03  0.52173018724E+03  0.50400001928E-02 0.  1.
    10030    2    1    2    0    0  0.00000000000E+00  0.00000000000E+00  0.41726020703E+03  0.14607205815E+04  0.13998566130E+04 0.  0.
        2    1    3    3  502    0  0.69373556853E+03  0.61762676133E+02  0.28104457189E+03  0.75104575000E+03  0.25500000920E-02 0.  1.
       -2    1    3    3    0  502 -0.69373556853E+03 -0.61762676133E+02  0.13621563514E+03  0.70967483150E+03  0.25500000920E-02 0. -1.
</event>
<event>
 5   0  0.1766237E-04  0.1399623E+04  0.7818609E-02  0.8954091E-01
        2   -1    0    0  501    0  0.00000000000E+00  0.00000000000E+00  0.10302084173E+04  0.10302084173E+04  0.25500000920E-02 0.  1.
       -2   -1    0    0    0  501  0.00000000000E+00  0.00000000000E+00 -0.47537578729E+03  0.47537578730E+03  0.25500000920E-02 0. -1.
    10030    2    1    2    0    0  0.00000000000E+00  0.00000000000E+00  0.55483263000E+03  0.15055842046E+04  0.13996230027E+04 0.  0.
        3    1    3    3  502    0  0.65195593575E+03 -0.72292086266E+01  0.55090266888E+03  0.85357633776E+03  0.10100000352E+00 0.  1.
       -3    1    3    3    0  502 -0.65195593575E+03  0.72292086266E+01  0.39299611270E+01  0.65200786683E+03  0.10100000352E+00 0. -1.
</event>
<event>
 5   0  0.6671375E-05  0.1401439E+04  0.7818609E-02  0.8952778E-01
       -1   -1    0    0    0  501  0.00000000000E+00  0.00000000000E+00  0.43281160521E+03  0.43281160524E+03  0.50400001928E-02 0.  1.
        1   -1    0    0  501    0  0.00000000000E+00  0.00000000000E+00 -0.11344600433E+04  0.11344600434E+04  0.50400001928E-02 0. -1.
    10030    2    1    2    0    0  0.00000000000E+00  0.00000000000E+00 -0.70164843813E+03  0.15672716486E+04  0.14014385073E+04 0.  0.
        5    1    3    3  502    0  0.11287568540E+03 -0.50070561751E+03  0.18263046156E+03  0.54481465771E+03  0.46999998093E+01 0.  1.
       -5    1    3    3    0  502 -0.11287568540E+03  0.50070561751E+03 -0.88427889970E+03  0.10224569909E+04  0.46999998093E+01 0. -1.
</event>
<event>
 5   0  0.1766237E-04  0.1403931E+04  0.7818609E-02  0.8950978E-01
       -2   -1    0    0    0  501  0.00000000000E+00  0.00000000000E+00  0.29426154360E+03  0.29426154361E+03  0.25500000920E-02 0.  1.
        2   -1    0    0  501    0  0.00000000000E+00  0.00000000000E+00 -0.16745499700E+04  0.16745499700E+04  0.25500000920E-02 0. -1.
    10030    2    1    2    0    0  0.00000000000E+00  0.00000000000E+00 -0.13802884264E+04  0.19688115136E+04  0.14039311365E+04 0.  0.
        3    1    3    3  502    0  0.47667056662E+02  0.34352029842E+03  0.16572665196E+03  0.38437439702E+03  0.10100000352E+00 0.  1.
       -3    1    3    3    0  502 -0.47667056662E+02 -0.34352029842E+03 -0.15460150783E+04  0.15844371166E+04  0.10100000352E+00 0. -1.
</event>
<event>
 5   0  0.9900839E-05  0.1402730E+04  0.7818609E-02  0.8951845E-01
       -1   -1    0    0    0  501  0.00000000000E+00  0.00000000000E+00  0.65767008243E+03  0.65767008244E+03  0.50400001928E-02 0. -1.
        1   -1    0    0  501    0  0.00000000000E+00  0.00000000000E+00 -0.74796294884E+03  0.74796294885E+03  0.50400001928E-02 0.  1.
    10030    2    1    2    0    0  0.00000000000E+00  0.00000000000E+00 -0.90292866411E+02  0.14056330313E+04  0.14027299872E+04 0.  0.
        3    1    3    3  502    0  0.32293502115E+03  0.61400917301E+03  0.58113184768E+02  0.69618348506E+03  0.10100000352E+00 0. -1.
       -3    1    3    3    0  502 -0.32293502115E+03 -0.61400917301E+03 -0.14840605118E+03  0.70944954624E+03  0.10100000352E+00 0.  1.
</event>
<event>
 5   0  0.6671375E-05  0.1399669E+04  0.7818609E-02  0.8954058E-01
       -1   -1    0    0    0  501  0.00000000000E+00  0.00000000000E+00  0.63571182618E+03  0.63571182620E+03  0.50400001928E-02 0.  1.
        1   -1    0    0  501    0  0.00000000000E+00  0.00000000000E+00 -0.77042558204E+03  0.77042558206E+03  0.50400001928E-02 0. -1.
    10030    2    1    2    0    0  0.00000000000E+00  0.00000000000E+00 -0.13471375586E+03  0.14061374083E+04  0.13996694663E+04 0.  0.
        5    1    3    3  502    0 -0.21244601004E+02 -0.37410640378E+03  0.52642399126E+03  0.64618205097E+03  0.46999998093E+01 0.  1.
       -5    1    3    3    0  502  0.21244601004E+02  0.37410640378E+03 -0.66113774711E+03  0.75995535729E+03  0.46999998093E+01 0. -1.
</event>
<event>
 5   0  0.1780171E-04  0.1399059E+04  0.7818609E-02  0.8954500E-01
        2   -1    0    0  501    0  0.00000000000E+00  0.00000000000E+00  0.16665815620E+04  0.16665815620E+04  0.25500000920E-02 0. -1.
       -2   -1    0    0    0  501  0.00000000000E+00  0.00000000000E+00 -0.29362008480E+03  0.29362008481E+03  0.25500000920E-02 0.  1.
    10030    2    1    2    0    0  0.00000000000E+00  0.00000000000E+00  0.13729614772E+04  0.19602016468E+04  0.13990594263E+04 0.  0.
        5    1    3    3  502    0  0.33412682009E+03  0.24996456336E+03  0.14730834315E+04  0.15310518937E+04  0.46999998093E+01 0. -1.
       -5    1    3    3    0  502 -0.33412682009E+03 -0.24996456336E+03 -0.10012195437E+03  0.42914975310E+03  0.46999998093E+01 0.  1.
</event>
<event>
 5   0  0.9260916E-05  0.1395111E+04  0.7818609E-02  0.8957365E-01
       -1   -1    0    0    0  501  0.00000000000E+00  0.00000000000E+00  0.43445293860E+03  0.43445293863E+03  0.50400001928E-02 0.  1.
        1   -1    0    0  501    0  0.00000000000E+00  0.00000000000E+00 -0.11199924708E+04  0.11199924708E+04  0.50400001928E-02 0. -1.
    10030    2    1    2    0    0  0.00000000000E+00  0.00000000000E+00 -0.68553953219E+03  0.15544454094E+04  0.13951114940E+04 0.  0.
        1    1    3    3  502    0 -0.67028551567E+03  0.82616266683E+02 -0.53728106260E+03  0.86300582865E+03  0.50400001928E-02 0. -1.
       -1    1    3    3    0  502  0.67028551567E+03 -0.82616266683E+02 -0.14825846959E+03  0.69143958078E+03  0.50400001928E-02 0.  1.
</event>
<event>
 5   0  0.9978422E-05  0.1399893E+04  0.7818609E-02  0.8953896E-01
        1   -1    0    0  501    0  0.00000000000E+00  0.00000000000E+00  0.76489525469E+03  0.76489525471E+03  0.50400001928E-02 0.  1.
       -1   -1    0    0    0  501  0.00000000000E+00  0.00000000000E+00 -0.64051308488E+03  0.64051308490E+03  0.50400001928E-02 0. -1.
    10030    2    1    2    0    0  0.00000000000E+00  0.00000000000E+00  0.12438216982E+03  0.14054083396E+04  0.13998934520E+04 0.  0.
        2    1    3    3  502    0 -0.55387353182E+03  0.41387667855E+03  0.17150357046E+03  0.71237859948E+03  0.25500000920E-02 0. -1.
       -2    1    3    3    0  502  0.55387353182E+03 -0.41387667855E+03 -0.47121400649E+02  0.69302974013E+03  0.25500000920E-02 0.  1.
</event>
<event>
 5   0  0.1794185E-04  0.1399947E+04  0.7818609E-02  0.8953857E-01
        2   -1    0    0  501    0  0.00000000000E+00  0.00000000000E+00  0.41237117499E+03  0.41237117500E+03  0.25500000920E-02 0. -1.
       -2   -1    0    0    0  501  0.00000000000E+00  0.00000000000E+00 -0.11881597879E+04  0.11881597879E+04  0.25500000920E-02 0.  1.
    10030    2    1    2    0    0  0.00000000000E+00  0.00000000000E+00 -0.77578861289E+03  0.16005309629E+04  0.13999469244E+04 0.  0.
        2    1    3    3  502    0 -0.25286739597E+02  0.15878103762E+03  0.39097378696E+03  0.42274263945E+03  0.25500000920E-02 0. -1.
       -2    1    3    3    0  502  0.25286739597E+02 -0.15878103762E+03 -0.11667623999E+04  0.11777883234E+04  0.25500000920E-02 0.  1.
</event>
<event>
 5   0  0.1794185E-04  0.1397644E+04  0.7818609E-02  0.8955526E-01
        2   -1    0    0  501    0  0.00000000000E+00  0.00000000000E+00  0.16769205958E+04  0.16769205958E+04  0.25500000920E-02 0.  1.
       -2   -1    0    0    0  501  0.00000000000E+00  0.00000000000E+00 -0.29121941769E+03  0.29121941770E+03  0.25500000920E-02 0. -1.
    10030    2    1    2    0    0  0.00000000000E+00  0.00000000000E+00  0.13857011781E+04  0.19681400135E+04  0.13976435017E+04 0.  0.
        2    1    3    3  502    0 -0.43717690844E+02  0.64181824687E+03  0.10772358184E+04  0.12547027165E+04  0.25500000920E-02 0.  1.
       -2    1    3    3    0  502  0.43717690844E+02 -0.64181824687E+03  0.30846535973E+03  0.71343729694E+03  0.25500000920E-02 0. -1.
</event>
<event>
 5   0  0.1833681E-04  0.1406755E+04  0.7818609E-02  0.8948944E-01
       -2   -1    0    0    0  501  0.00000000000E+00  0.00000000000E+00  0.10583143798E+04  0.10583143798E+04  0.25500000920E-02 0. -1.
        2   -1    0    0  501    0  0.00000000000E+00  0.00000000000E+00 -0.46747906360E+03  0.46747906361E+03  0.25500000920E-02 0.  1.
    10030    2    1    2    0    0  0.00000000000E+00  0.00000000000E+00  0.59083531623E+03  0.15257934434E+04  0.14067548689E+04 0.  0.
        4    1    3    3  502    0 -0.30568260281E+03 -0.32458224773E+03  0.88545723501E+03  0.99137864469E+03  0.12699999809E+01 0. -1.
       -4    1    3    3    0  502  0.30568260281E+03  0.32458224773E+03 -0.29462191878E+03  0.53441479876E+03  0.12699999809E+01 0.  1.
</event>
<event>
 5   0  0.1712327E-04  0.1409280E+04  0.7818609E-02  0.8947129E-01
       -2   -1    0    0    0  501  0.00000000000E+00  0.00000000000E+00  0.52464306423E+03  0.52464306424E+03  0.25500000920E-02 0.  1.
        2   -1    0    0  501    0  0.00000000000E+00  0.00000000000E+00 -0.94639048089E+03  0.94639048089E+03  0.25500000920E-02 0. -1.
    10030    2    1    2    0    0  0.00000000000E+00  0.00000000000E+00 -0.42174741665E+03  0.14710335451E+04  0.14092795349E+04 0.  0.
        1    1    3    3  502    0 -0.62544581060E+03 -0.42337133271E+02 -0.54675386699E+03  0.83181409338E+03  0.50400001928E-02 0.  1.
       -1    1    3    3    0  502  0.62544581060E+03  0.42337133271E+02  0.12500645034E+03  0.63921945175E+03  0.50400001928E-02 0. -1.
</event>
<event>
 5   0  0.6671375E-05  0.1398000E+04  0.7818609E-02  0.8955267E-01
        4   -1    0    0  501    0  0.00000000000E+00  0.00000000000E+00  0.10963618777E+04  0.10963626133E+04  0.12699999809E+01 0.  1.
       -4   -1    0    0    0  501  0.00000000000E+00  0.00000000000E+00 -0.44565512106E+03  0.44565693064E+03  0.12699999809E+01 0. -1.
    10030    2    1    2    0    0  0.00000000000E+00  0.00000000000E+00  0.65070675669E+03  0.15420195440E+04  0.13980003543E+04 0.  0.
        4    1    3    3  502    0 -0.49869610699E+03  0.15034755252E+03 -0.18882037373E+03  0.55403694832E+03  0.12699999809E+01 0. -1.
       -4    1    3    3    0  502  0.49869610699E+03 -0.15034755252E+03  0.83952713041E+03  0.98798259563E+03  0.12699999809E+01 0.  1.
</event>
<event>
 5   0  0.1833681E-04  0.1399478E+04  0.7818609E-02  0.8954196E-01
        2   -1    0    0  501    0  0.00000000000E+00  0.00000000000E+00  0.81797702068E+03  0.81797702068E+03  0.25500000920E-02 0. -1.
       -2   -1    0    0    0  501  0.00000000000E+00  0.00000000000E+00 -0.59859256333E+03  0.59859256333E+03  0.25500000920E-02 0.  1.
    10030    2    1    2    0    0  0.00000000000E+00  0.00000000000E+00  0.21938445735E+03  0.14165695840E+04  0.13994784194E+04 0.  0.
        4    1    3    3  502    0 -0.26294084112E+03  0.47381227155E+03 -0.33843037982E+03  0.63888394054E+03  0.12699999809E+01 0.  1.
       -4    1    3    3    0  502  0.26294084112E+03 -0.47381227155E+03  0.55781483717E+03  0.77768564347E+03  0.12699999809E+01 0. -1.
</event>
<event>
 5   0  0.1766237E-04  0.1398726E+04  0.7818609E-02  0.8954741E-01
        2   -1    0    0  501    0  0.00000000000E+00  0.00000000000E+00  0.76963380631E+03  0.76963380631E+03  0.25500000920E-02 0.  1.
       -2   -1    0    0    0  501  0.00000000000E+00  0.00000000000E+00 -0.63550848981E+03  0.63550848982E+03  0.25500000920E-02 0. -1.
    10030    2    1    2    0    0  0.00000000000E+00  0.00000000000E+00  0.13412531650E+03  0.14051422961E+04  0.13987263034E+04 0.  0.
        3    1    3    3  502    0 -0.15448926751E+02  0.43284292402E+03 -0.48456186906E+03  0.64991682650E+03  0.10100000352E+00 0. -1.
       -3    1    3    3    0  502  0.15448926751E+02 -0.43284292402E+03  0.61868718556E+03  0.75522546964E+03  0.10100000352E+00 0.  1.
</event>
<event>
 5   0  0.6671375E-05  0.1401079E+04  0.7818609E-02  0.8953038E-01
        1   -1    0    0  501    0  0.00000000000E+00  0.00000000000E+00  0.19961452547E+04  0.19961452547E+04  0.50400001928E-02 0.  1.
       -1   -1    0    0    0  501  0.00000000000E+00  0.00000000000E+00 -0.24585172321E+03  0.24585172326E+03  0.50400001928E-02 0. -1.
    10030    2    1    2    0    0  0.00000000000E+00  0.00000000000E+00  0.17502935315E+04  0.22419969780E+04  0.14010792279E+04 0.  0.
        5    1    3    3  502    0  0.56899229375E+03  0.40821757102E+03  0.84564739073E+03  0.10979687678E+04  0.46999998093E+01 0. -1.
       -5    1    3    3    0  502 -0.56899229375E+03 -0.40821757102E+03  0.90464614078E+03  0.11440282102E+04  0.46999998093E+01 0.  1.
</event>
<event>
 5   0  0.6671375E-05  0.1397747E+04  0.7818609E-02  0.8955451E-01
        1   -1    0    0  501    0  0.00000000000E+00  0.00000000000E+00  0.39302745345E+03  0.39302745348E+03  0.50400001928E-02 0. -1.
       -1   -1    0    0    0  501  0.00000000000E+00  0.00000000000E+00 -0.12427222474E+04  0.12427222475E+04  0.50400001928E-02 0.  1.
    10030    2    1    2    0    0  0.00000000000E+00  0.00000000000E+00 -0.84969479400E+03  0.16357497009E+04  0.13977467014E+04 0.  0.
        5    1    3    3  502    0 -0.38333174008E+03 -0.56509321299E+03 -0.25076194588E+03  0.72744567207E+03  0.46999998093E+01 0. -1.
       -5    1    3    3    0  502  0.38333174008E+03  0.56509321299E+03 -0.59893284811E+03  0.90830402887E+03  0.46999998093E+01 0.  1.
</event>
<event>
 5   0  0.9900839E-05  0.1399565E+04  0.7818609E-02  0.8954133E-01
       -1   -1    0    0    0  501  0.00000000000E+00  0.00000000000E+00  0.12333999045E+04  0.12333999046E+04  0.50400001928E-02 0. -1.
        1   -1    0    0  501    0  0.00000000000E+00  0.00000000000E+00 -0.39702918369E+03  0.39702918372E+03  0.50400001928E-02 0.  1.
    10030    2    1    2    0    0  0.00000000000E+00  0.00000000000E+00  0.83637072086E+03  0.16304290883E+04  0.13995653001E+04 0.  0.
        3    1    3    3  502    0  0.55052076419E+01  0.20539704277E+03  0.11974668267E+04  0.12149671040E+04  0.10100000352E+00 0. -1.
       -3    1    3    3    0  502 -0.55052076419E+01 -0.20539704277E+03 -0.36109610588E+03  0.41546198427E+03  0.10100000352E+00 0.  1.
</event>
<event>
 5   0  0.6671375E-05  0.1401705E+04  0.7818609E-02  0.8952586E-01
        3   -1    0    0  501    0  0.00000000000E+00  0.00000000000E+00  0.79074759618E+03  0.79074760263E+03  0.10100000352E+00 0.  1.
       -3   -1    0    0    0  501  0.00000000000E+00  0.00000000000E+00 -0.62117668784E+03  0.62117669605E+03  0.10100000352E+00 0. -1.
    10030    2    1    2    0    0  0.00000000000E+00  0.00000000000E+00  0.16957090833E+03  0.14119242987E+04  0.14017046523E+04 0.  0.
        3    1    3    3  502    0  0.23123893127E+03 -0.12018827818E+03 -0.57055562269E+03  0.62725624296E+03  0.10100000352E+00 0. -1.
       -3    1    3    3    0  502 -0.23123893127E+03  0.12018827818E+03  0.74012653102E+03  0.78466805572E+03  0.10100000352E+00 0.  1.
</event>
<event>
 5   0  0.1780171E-04  0.1367947E+04  0.7818609E-02  0.8977353E-01
        2   -1    0    0  501    0  0.00000000000E+00  0.00000000000E+00  0.53061651633E+03  0.53061651634E+03  0.25500000920E-02 0. -1.
       -2   -1    0    0    0  501  0.00000000000E+00  0.00000000000E+00 -0.88165282444E+03  0.88165282445E+03  0.25500000920E-02 0.  1.
    10030    2    1    2    0    0  0.00000000000E+00  0.00000000000E+00 -0.35103630811E+03  0.14122693408E+04  0.13679467100E+04 0.  0.
        5    1    3    3  502    0 -0.50741468504E+03  0.22388058587E+03 -0.58874332293E+03  0.80884669105E+03  0.46999998093E+01 0.  1.
       -5    1    3    3    0  502  0.50741468504E+03 -0.22388058587E+03  0.23770701482E+03  0.60342264974E+03  0.46999998093E+01 0. -1.
</event>
<event>
 5   0  0.9828111E-05  0.1399880E+04  0.7818609E-02  0.8953906E-01
       -1   -1    0    0    0  501  0.00000000000E+00  0.00000000000E+00  0.10399426470E+04  0.10399426470E+04  0.50400001928E-02 0. -1.
        1   -1    0    0  501    0  0.00000000000E+00  0.00000000000E+00 -0.47109894120E+03  0.47109894122E+03  0.50400001928E-02 0.  1.
    10030    2    1    2    0    0  0.00000000000E+00  0.00000000000E+00  0.56884370581E+03  0.15110415882E+04  0.13998798233E+04 0.  0.
        4    1    3    3  502    0 -0.59368166905E+03  0.36430672608E+03  0.21013103068E+03  0.72755341920E+03  0.12699999809E+01 0. -1.
       -4    1    3    3    0  502  0.59368166905E+03 -0.36430672608E+03  0.35871267513E+03  0.78348816904E+03  0.12699999809E+01 0.  1.
</event>
<event>
 5   0  0.1712327E-04  0.1399647E+04  0.7818609E-02  0.8954074E-01
       -2   -1    0    0    0  501  0.00000000000E+00  0.00000000000E+00  0.64419495507E+03  0.64419495508E+03  0.25500000920E-02 0. -1.
        2   -1    0    0  501    0  0.00000000000E+00  0.00000000000E+00 -0.76025589595E+03  0.76025589596E+03  0.25500000920E-02 0.  1.
    10030    2    1    2    0    0  0.00000000000E+00  0.00000000000E+00 -0.11606094088E+03  0.14044508510E+04  0.13996471166E+04 0.  0.
        1    1    3    3  502    0  0.55645745067E+03 -0.42132494490E+03 -0.10913077732E+03  0.70644825018E+03  0.50400001928E-02 0.  1.
       -1    1    3    3    0  502 -0.55645745067E+03  0.42132494490E+03 -0.69301635644E+01  0.69800260085E+03  0.50400001928E-02 0. -1.
</event>
<event>
 5   0  0.6671375E-05  0.1399538E+04  0.7818609E-02  0.8954153E-01
        1   -1    0    0  501    0  0.00000000000E+00  0.00000000000E+00  0.10423304732E+04  0.10423304733E+04  0.50400001928E-02 0. -1.
       -1   -1    0    0    0  501  0.00000000000E+00  0.00000000000E+00 -0.46979029285E+03  0.46979029287E+03  0.50400001928E-02 0.  1.
    10030    2    1    2    0    0  0.00000000000E+00  0.00000000000E+00  0.57254018040E+03  0.15121207661E+04  0.13995381214E+04 0.  0.
        5    1    3    3  502    0  0.17436539054E+03  0.50418709758E+03  0.77551708704E+03  0.94130588072E+03  0.46999998093E+01 0. -1.
       -5    1    3    3    0  502 -0.17436539054E+03 -0.50418709758E+03 -0.20297690664E+03  0.57081488542E+03  0.46999998093E+01 0.  1.
</event>
<event>
 5   0  0.1794185E-04  0.1397609E+04  0.7818609E-02  0.8955551E-01
        2   -1    0    0  501    0  0.00000000000E+00  0.00000000000E+00  0.46753427713E+03  0.46753427713E+03  0.25500000920E-02 0. -1.
       -2   -1    0    0    0  501  0.00000000000E+00  0.00000000000E+00 -0.10444750748E+04  0.10444750748E+04  0.25500000920E-02 0.  1.
    10030    2    1    2    0    0  0.00000000000E+00  0.00000000000E+00 -0.57694079767E+03  0.15120093519E+04  0.13976092431E+04 0.  0.
        2    1    3    3  502    0 -0.37579687717E+03 -0.54921082878E+03 -0.57773857345E+02  0.66797727951E+03  0.25500000920E-02 0. -1.
       -2    1    3    3    0  502  0.37579687717E+03  0.54921082878E+03 -0.51916694033E+03  0.84403207243E+03  0.25500000920E-02 0.  1.
</event>
<event>
 5   0  0.6671375E-05  0.1399857E+04  0.7818609E-02  0.8953922E-01
        1   -1    0    0  501    0  0.00000000000E+00  0.00000000000E+00  0.18128727401E+04  0.18128727401E+04  0.50400001928E-02 0. -1.
       -1   -1    0    0    0  501  0.00000000000E+00  0.00000000000E+00 -0.27023389128E+03  0.27023389133E+03  0.50400001928E-02 0.  1.
    10030    2    1    2    0    0  0.00000000000E+00  0.00000000000E+00  0.15426388488E+04  0.20831066314E+04  0.13998566427E+04 0.  0.
        5    1    3    3  502    0 -0.17661214036E+03 -0.23126530439E+03  0.17185675832E+04  0.17430353173E+04  0.46999998093E+01 0. -1.
       -5    1    3    3    0  502  0.17661214036E+03  0.23126530439E+03 -0.17592873440E+03  0.34007131417E+03  0.46999998093E+01 0.  1.
</event>
<event>
 5   0  0.1833681E-04  0.1398086E+04  0.7818609E-02  0.8955205E-01
        2   -1    0    0  501    0  0.00000000000E+00  0.00000000000E+00  0.11548700984E+04  0.11548700984E+04  0.25500000920E-02 0.  1.
       -2   -1    0    0    0  501  0.00000000000E+00  0.00000000000E+00 -0.42313100485E+03  0.42313100486E+03  0.25500000920E-02 0. -1.
    10030    2    1    2    0    0  0.00000000000E+00  0.00000000000E+00  0.73173909350E+03  0.15780011032E+04  0.13980863281E+04 0.  0.
        4    1    3    3  502    0  0.33100110621E+03  0.19439173830E+03 -0.29352860578E+03  0.48322927844E+03  0.12699999809E+01 0. -1.
       -4    1    3    3    0  502 -0.33100110621E+03 -0.19439173830E+03  0.10252676993E+04  0.10947718248E+04  0.12699999809E+01 0.  1.
</event>
<event>
 5   0  0.1780171E-04  0.1399930E+04  0.7818609E-02  0.8953869E-01
        2   -1    0    0  501    0  0.00000000000E+00  0.00000000000E+00  0.14982630729E+04  0.14982630729E+04  0.25500000920E-02 0.  1.
       -2   -1    0    0    0  501  0.00000000000E+00  0.00000000000E+00 -0.32701251267E+03  0.32701251268E+03  0.25500000920E-02 0. -1.
    10030    2    1    2    0    0  0.00000000000E+00  0.00000000000E+00  0.11712505602E+04  0.18252755856E+04  0.13999296727E+04 0.  0.
        5    1    3    3  502    0 -0.16873949098E+03  0.30274061778E+02  0.14704464448E+04  0.14804135813E+04  0.46999998093E+01 0.  1.
       -5    1    3    3    0  502  0.16873949098E+03 -0.30274061778E+02 -0.29919588460E+03  0.34486200427E+03  0.46999998093E+01 0. -1.
</event>
<event>
 5   0  0.9828111E-05  0.1401586E+04  0.7818609E-02  0.8952671E-01
        1   -1    0    0  501    0  0.00000000000E+00  0.00000000000E+00  0.12818731124E+04  0.12818731124E+04  0.50400001928E-02 0. -1.
       -1   -1    0    0    0  501  0.00000000000E+00  0.00000000000E+00 -0.38311968011E+03  0.38311968014E+03  0.50400001928E-02 0.  1.
    10030    2    1    2    0    0  0.00000000000E+00  0.00000000000E+00  0.89875343231E+03  0.16649927926E+04  0.14015859828E+04 0.  0.
        4    1    3    3  502    0 -0.27287528390E+03 -0.35575582699E+02  0.12150029300E+04  0.12457769766E+04  0.12699999809E+01 0. -1.
       -4    1    3    3    0  502  0.27287528390E+03  0.35575582699E+02 -0.31624949769E+03  0.41921581595E+03  0.12699999809E+01 0.  1.
</event>
<event>
 5   0  0.1766237E-04  0.1401332E+04  0.7818609E-02  0.8952855E-01
        2   -1    0    0  501    0  0.00000000000E+00  0.00000000000E+00  0.12586439032E+04  0.12586439032E+04  0.25500000920E-02 0.  1.
       -2   -1    0    0    0  501  0.00000000000E+00  0.00000000000E+00 -0.39004906359E+03  0.39004906360E+03  0.25500000920E-02 0. -1.
    10030    2    1    2    0    0  0.00000000000E+00  0.00000000000E+00  0.86859483959E+03  0.16486929668E+04  0.14013320461E+04 0.  0.
        3    1    3    3  502    0 -0.57996259726E+03 -0.13115538105E+03  0.87036301353E+03  0.10540826029E+04  0.10100000352E+00 0.  1.
       -3    1    3    3    0  502  0.57996259726E+03  0.13115538105E+03 -0.17681739466E+01  0.59461036389E+03  0.10100000352E+00 0. -1.
</event>
<event>
 5   0  0.6671375E-05  0.1399199E+04  0.7818609E-02  0.8954399E-01
       -1   -1    0    0    0  501  0.00000000000E+00  0.00000000000E+00  0.56231321569E+03  0.56231321571E+03  0.50400001928E-02 0. -1.
        1   -1    0    0  501    0  0.00000000000E+00  0.00000000000E+00 -0.87040347877E+03  0.87040347879E+03  0.50400001928E-02 0.  1.
    10030    2    1    2    0    0  0.00000000000E+00  0.00000000000E+00 -0.30809026309E+03  0.14327166945E+04  0.13991988838E+04 0.  0.
        5    1    3    3  502    0 -0.53737423926E+03  0.23354818721E+03 -0.54543371184E+03  0.80052223752E+03  0.46999998093E+01 0.  1.
       -5    1    3    3    0  502  0.53737423926E+03 -0.23354818721E+03  0.23734344875E+03  0.63219445697E+03  0.46999998093E+01 0. -1.
</event>
<event>
 5   0  0.9900839E-05  0.1401731E+04  0.7818609E-02  0.8952566E-01
       -1   -1    0    0    0  501  0.00000000000E+00  0.00000000000E+00  0.40497582074E+03  0.40497582077E+03  0.50400001928E-02 0.  1.
        1   -1    0    0  501    0  0.00000000000E+00  0.00000000000E+00 -0.12129430166E+04  0.12129430166E+04  0.50400001928E-02 0. -1.
    10030    2    1    2    0    0  0.00000000000E+00  0.00000000000E+00 -0.80796719585E+03  0.16179188374E+04  0.14017312063E+04 0.  0.
        3    1    3    3  502    0  0.27858621144E+03  0.32320472385E+03  0.23777294061E+03  0.48847472014E+03  0.10100000352E+00 0.  1.
       -3    1    3    3    0  502 -0.27858621144E+03 -0.32320472385E+03 -0.10457401365E+04  0.11294441172E+04  0.10100000352E+00 0. -1.
</event>
<event>
 5   0  0.9900839E-05  0.1400896E+04  0.7818609E-02  0.8953170E-01
       -1   -1    0    0    0  501  0.00000000000E+00  0.00000000000E+00  0.29139417578E+03  0.29139417582E+03  0.50400001928E-02 0.  1.
        1   -1    0    0  501    0  0.00000000000E+00  0.00000000000E+00 -0.16837238526E+04  0.16837238526E+04  0.50400001928E-02 0. -1.
    10030    2    1    2    0    0  0.00000000000E+00  0.00000000000E+00 -0.13923296768E+04  0.19751180284E+04  0.14008958909E+04 0.  0.
        3    1    3    3  502    0 -0.64191068413E+03  0.93475649654E+02 -0.10687625736E+04  0.12502161703E+04  0.10100000352E+00 0. -1.
       -3    1    3    3    0  502  0.64191068413E+03 -0.93475649654E+02 -0.32356710322E+03  0.72490185816E+03  0.10100000352E+00 0.  1.
</event>
<event>
 5   0  0.9260916E-05  0.1386152E+04  0.7818609E-02  0.8963904E-01
       -1   -1    0    0    0  501  0.00000000000E+00  0.00000000000E+00  0.22242218098E+03  0.22242218104E+03  0.50400001928E-02 0. -1.
        1   -1    0    0  501    0  0.00000000000E+00  0.00000000000E+00 -0.21596505197E+04  0.21596505197E+04  0.50400001928E-02 0.  1.
    10030    2    1    2    0    0  0.00000000000E+00  0.00000000000E+00 -0.19372283387E+04  0.23820727007E+04  0.13861517649E+04 0.  0.
        1    1    3    3  502    0 -0.19029754387E+03  0.20661948475E+02  0.17609680968E+03  0.26009643928E+03  0.50400001928E-02 0. -1.
       -1    1    3    3    0  502  0.19029754387E+03 -0.20661948475E+02 -0.21133251484E+04  0.21219762615E+04  0.50400001928E-02 0.  1.
</event>
<event>
 5   0  0.1766237E-04  0.1366786E+04  0.7818609E-02  0.8978218E-01
       -2   -1    0    0    0  501  0.00000000000E+00  0.00000000000E+00  0.55425724829E+03  0.55425724830E+03  0.25500000920E-02 0. -1.
        2   -1    0    0  501    0  0.00000000000E+00  0.00000000000E+00 -0.84261535743E+03  0.84261535743E+03  0.25500000920E-02 0.  1.
    10030    2    1    2    0    0  0.00000000000E+00  0.00000000000E+00 -0.28835810914E+03  0.13968726057E+04  0.13667855273E+04 0.  0.
        3    1    3    3  502    0  0.21302577133E+03  0.26127437953E+03  0.46336567714E+03  0.57302010576E+03  0.10100000352E+00 0. -1.
       -3    1    3    3    0  502 -0.21302577133E+03 -0.26127437953E+03 -0.75172378628E+03  0.82385249997E+03  0.10100000352E+00 0.  1.
</event>
<event>
 5   0  0.6671375E-05  0.1401090E+04  0.7818609E-02  0.8953030E-01
        1   -1    0    0  501    0  0.00000000000E+00  0.00000000000E+00  0.89233131219E+03  0.89233131221E+03  0.50400001928E-02 0. -1.
       -1   -1    0    0    0  501  0.00000000000E+00  0.00000000000E+00 -0.54997896729E+03  0.54997896732E+03  0.50400001928E-02 0.  1.
    10030    2    1    2    0    0  0.00000000000E+00  0.00000000000E+00  0.34235234490E+03  0.14423102795E+04  0.14010902235E+04 0.  0.
        5    1    3    3  502    0  0.74482147052E+02  0.35118180121E+03 -0.44807374233E+03  0.57416758555E+03  0.46999998093E+01 0.  1.
       -5    1    3    3    0  502 -0.74482147052E+02 -0.35118180121E+03  0.79042608723E+03  0.86814269397E+03  0.46999998093E+01 0. -1.
</event>
<event>
 5   0  0.1766237E-04  0.1399854E+04  0.7818609E-02  0.8953924E-01
        2   -1    0    0  501    0  0.00000000000E+00  0.00000000000E+00  0.14236469999E+04  0.14236469999E+04  0.25500000920E-02 0.  1.
       -2   -1    0    0    0  501  0.00000000000E+00  0.00000000000E+00 -0.34411458273E+03  0.34411458274E+03  0.25500000920E-02 0. -1.
    10030    2    1    2    0    0  0.00000000000E+00  0.00000000000E+00  0.10795324171E+04  0.17677615826E+04  0.13998538400E+04 0.  0.
        3    1    3    3  502    0  0.65225742721E+03  0.16682551049E+03  0.29808507749E+03  0.73629153596E+03  0.10100000352E+00 0. -1.
       -3    1    3    3    0  502 -0.65225742721E+03 -0.16682551049E+03  0.78144733965E+03  0.10314700467E+04  0.10100000352E+00 0.  1.
</event>
<event>
 5   0  0.1780171E-04  0.1399409E+04  0.7818609E-02  0.8954246E-01
       -2   -1    0    0    0  501  0.00000000000E+00  0.00000000000E+00  0.25772267052E+03  0.25772267053E+03  0.25500000920E-02 0. -1.
        2   -1    0    0  501    0  0.00000000000E+00  0.00000000000E+00 -0.18996637293E+04  0.18996637293E+04  0.25500000920E-02 0.  1.
    10030    2    1    2    0    0  0.00000000000E+00  0.00000000000E+00 -0.16419410588E+04  0.21573863999E+04  0.13994090316E+04 0.  0.
        5    1    3    3  502    0  0.31674407637E+03 -0.35288527178E+03 -0.27797344408E+02  0.47502590173E+03  0.46999998093E+01 0. -1.
       -5    1    3    3    0  502 -0.31674407637E+03  0.35288527178E+03 -0.16141437144E+04  0.16823604981E+04  0.46999998093E+01 0.  1.
</event>
<event>
 5   0  0.9978422E-05  0.1399993E+04  0.7818609E-02  0.8953823E-01
        1   -1    0    0  501    0  0.00000000000E+00  0.00000000000E+00  0.68818327139E+03  0.68818327140E+03  0.50400001928E-02 0. -1.
       -1   -1    0    0    0  501  0.00000000000E+00  0.00000000000E+00 -0.71201301519E+03  0.71201301520E+03  0.50400001928E-02 0.  1.
    10030    2    1    2    0    0  0.00000000000E+00  0.00000000000E+00 -0.23829743799E+02  0.14001962866E+04  0.13999934944E+04 0.  0.
        2    1    3    3  502    0  0.11525700095E+03  0.33371925930E+03  0.59260855600E+03  0.68980984405E+03  0.25500000920E-02 0. -1.
       -2    1    3    3    0  502 -0.11525700095E+03 -0.33371925930E+03 -0.61643829980E+03  0.71038644256E+03  0.25500000920E-02 0.  1.
</event>
<event>
 5   0  0.9828111E-05  0.1405202E+04  0.7818609E-02  0.8950061E-01
        1   -1    0    0  501    0  0.00000000000E+00  0.00000000000E+00  0.42811381171E+03  0.42811381174E+03  0.50400001928E-02 0.  1.
       -1   -1    0    0    0  501  0.00000000000E+00  0.00000000000E+00 -0.11530774930E+04  0.11530774930E+04  0.50400001928E-02 0. -1.
    10030    2    1    2    0    0  0.00000000000E+00  0.00000000000E+00 -0.72496368130E+03  0.15811913048E+04  0.14052023353E+04 0.  0.
        4    1    3    3  502    0  0.37444431382E+03  0.59448476503E+03 -0.36823135445E+03  0.79323175889E+03  0.12699999809E+01 0. -1.
       -4    1    3    3    0  502 -0.37444431382E+03 -0.59448476503E+03 -0.35673232685E+03  0.78795954587E+03  0.12699999809E+01 0.  1.
</event>
<event>
 5   0  0.1794185E-04  0.1400044E+04  0.7818609E-02  0.8953786E-01
       -2   -1    0    0    0  501  0.00000000000E+00  0.00000000000E+00  0.76458245816E+03  0.76458245816E+03  0.25500000920E-02 0.  1.
        2   -1    0    0  501    0  0.00000000000E+00  0.00000000000E+00 -0.64091325420E+03  0.64091325421E+03  0.25500000920E-02 0. -1.
    10030    2    1    2    0    0  0.00000000000E+00  0.00000000000E+00  0.12366920396E+03  0.14054957124E+04  0.14000443298E+04 0.  0.
        2    1    3    3  502    0 -0.47948850685E+03 -0.12246536734E+03  0.55886241077E+03  0.74648120444E+03  0.25500000920E-02 0.  1.
       -2    1    3    3    0  502  0.47948850685E+03  0.12246536734E+03 -0.43519320681E+03  0.65901450793E+03  0.25500000920E-02 0. -1.
</event>
<event>
 5   0  0.1766237E-04  0.1399865E+04  0.7818609E-02  0.8953916E-01
       -2   -1    0    0    0  501  0.00000000000E+00  0.00000000000E+00  0.14210242238E+04  0.14210242238E+04  0.25500000920E-02 0. -1.
        2   -1    0    0  501    0  0.00000000000E+00  0.00000000000E+00 -0.34475542392E+03  0.34475542393E+03  0.25500000920E-02 0.  1.
    10030    2    1    2    0    0  0.00000000000E+00  0.00000000000E+00  0.10762687999E+04  0.17657796477E+04  0.13998654345E+04 0.  0.
        3    1    3    3  502    0 -0.20915788350E+03 -0.18472829458E+03  0.13478208436E+04  0.13764056814E+04  0.10100000352E+00 0. -1.
       -3    1    3    3    0  502  0.20915788350E+03  0.18472829458E+03 -0.27155204371E+03  0.38937396638E+03  0.10100000352E+00 0.  1.
</event>
<event>
 5   0  0.9260916E-05  0.1398930E+04  0.7818609E-02  0.8954593E-01
        1   -1    0    0  501    0  0.00000000000E+00  0.00000000000E+00  0.45489979672E+03  0.45489979675E+03  0.50400001928E-02 0.  1.
       -1   -1    0    0    0  501  0.00000000000E+00  0.00000000000E+00 -0.10755148013E+04  0.10755148013E+04  0.50400001928E-02 0. -1.
    10030    2    1    2    0    0  0.00000000000E+00  0.00000000000E+00 -0.62061500458E+03  0.15304145981E+04  0.13989302549E+04 0.  0.
        1    1    3    3  502    0 -0.33994050003E+03  0.49207789443E+03 -0.70709735204E+03  0.92611384993E+03  0.50400001928E-02 0. -1.
       -1    1    3    3    0  502  0.33994050003E+03 -0.49207789443E+03  0.86482347458E+02  0.60430074813E+03  0.50400001928E-02 0.  1.
</event>
<event>
 5   0  0.1780171E-04  0.1400024E+04  0.7818609E-02  0.8953801E-01
        2   -1    0    0  501    0  0.00000000000E+00  0.00000000000E+00  0.48179821236E+03  0.48179821236E+03  0.25500000920E-02 0. -1.
       -2   -1    0    0    0  501  0.00000000000E+00  0.00000000000E+00 -0.10170583251E+04  0.10170583251E+04  0.25500000920E-02 0.  1.
    10030    2    1    2    0    0  0.00000000000E+00  0.00000000000E+00 -0.53526011279E+03  0.14988565375E+04  0.14000241183E+04 0.  0.
        5    1    3    3  502    0 -0.31043613228E+03 -0.62380500878E+03 -0.33937987668E+03  0.77505101245E+03  0.46999998093E+01 0.  1.
       -5    1    3    3    0  502  0.31043613228E+03  0.62380500878E+03 -0.19588023611E+03  0.72380552506E+03  0.46999998093E+01 0. -1.
</event>
<event>
 5   0  0.9828111E-05  0.1393114E+04  0.7818609E-02  0.8958818E-01
        1   -1    0    0  501    0  0.00000000000E+00  0.00000000000E+00  0.15123588981E+04  0.15123588981E+04  0.50400001928E-02 0.  1.
       -1   -1    0    0    0  501  0.00000000000E+00  0.00000000000E+00 -0.32081764701E+03  0.32081764704E+03  0.50400001928E-02 0. -1.
    10030    2    1    2    0    0  0.00000000000E+00  0.00000000000E+00  0.11915412511E+04  0.18331765451E+04  0.13931136682E+04 0.  0.
        4    1    3    3  502    0 -0.40793352191E+03  0.36934543070E+03  0.33834051759E+02  0.55133670423E+03  0.12699999809E+01 0. -1.
       -4    1    3    3    0  502  0.40793352191E+03 -0.36934543070E+03  0.11577071993E+04  0.12818398409E+04  0.12699999809E+01 0.  1.
</event>
<event>
 5   0  0.6671375E-05  0.1401238E+04  0.7818609E-02  0.8952923E-01
        1   -1    0    0  501    0  0.00000000000E+00  0.00000000000E+00  0.72606693099E+03  0.72606693101E+03  0.50400001928E-02 0.  1.
       -1   -1    0    0    0  501  0.00000000000E+00  0.00000000000E+00 -0.67606328634E+03  0.67606328635E+03  0.50400001928E-02 0. -1.
    10030    2    1    2    0    0  0.00000000000E+00  0.00000000000E+00  0.50003644654E+02  0.14021302174E+04  0.14012383031E+04 0.  0.
        5    1    3    3  502    0  0.72497493109E+02  0.26629231742E+03  0.66936638432E+03  0.72404484065E+03  0.46999998093E+01 0.  1.
       -5    1    3    3    0  502 -0.72497493109E+02 -0.26629231742E+03 -0.61936273966E+03  0.67808537671E+03  0.46999998093E+01 0. -1.
</event>
<event>
 5   0  0.1794185E-04  0.1400890E+04  0.7818609E-02  0.8953174E-01
        2   -1    0    0  501    0  0.00000000000E+00  0.00000000000E+00  0.16578866996E+04  0.16578866996E+04  0.25500000920E-02 0.  1.
       -2   -1    0    0    0  501  0.00000000000E+00  0.00000000000E+00 -0.29593302248E+03  0.29593302249E+03  0.25500000920E-02 0. -1.
    10030    2    1    2    0    0  0.00000000000E+00  0.00000000000E+00  0.13619536771E+04  0.19538197221E+04  0.14008903197E+04 0.  0.
        2    1    3    3  502    0  0.42126406803E+03  0.46913878327E+03  0.11064600543E+04  0.12735024400E+04  0.25500000920E-02 0.  1.
       -2    1    3    3    0  502 -0.42126406803E+03 -0.46913878327E+03  0.25549362283E+03  0.68031728208E+03  0.25500000920E-02 0. -1.
</event>
<event>
 5   0  0.9260916E-05  0.1406240E+04  0.7818609E-02  0.8949314E-01
        1   -1    0    0  501    0  0.00000000000E+00  0.00000000000E+00  0.17134552568E+04  0.17134552568E+04  0.50400001928E-02 0.  1.
       -1   -1    0    0    0  501  0.00000000000E+00  0.00000000000E+00 -0.28852676910E+03  0.28852676915E+03  0.50400001928E-02 0. -1.
    10030    2    1    2    0    0  0.00000000000E+00  0.00000000000E+00  0.14249284877E+04  0.20019820259E+04  0.14062399643E+04 0.  0.
        1    1    3    3  502    0  0.14261348592E+03  0.23578157522E+02  0.16920737993E+04  0.16982368145E+04  0.50400001928E-02 0.  1.
       -1    1    3    3    0  502 -0.14261348592E+03 -0.23578157522E+02 -0.26714531165E+03  0.30374521139E+03  0.50400001928E-02 0. -1.
</event>
<event>
 5   0  0.9978422E-05  0.1401765E+04  0.7818609E-02  0.8952542E-01
       -1   -1    0    0    0  501  0.00000000000E+00  0.00000000000E+00  0.20145943591E+03  0.20145943597E+03  0.50400001928E-02 0.  1.
        1   -1    0    0  501    0  0.00000000000E+00  0.00000000000E+00 -0.24383883248E+04  0.24383883248E+04  0.50400001928E-02 0. -1.
    10030    2    1    2    0    0  0.00000000000E+00  0.00000000000E+00 -0.22369288889E+04  0.26398477607E+04  0.14017650824E+04 0.  0.
        2    1    3    3  502    0  0.63407167711E+02  0.55274752429E+03 -0.31574381110E+03  0.63972216531E+03  0.25500000920E-02 0.  1.
       -2    1    3    3    0  502 -0.63407167711E+02 -0.55274752429E+03 -0.19211850778E+04  0.20001255954E+04  0.25500000920E-02 0. -1.
</event>
<event>
 5   0  0.1780171E-04  0.1398265E+04  0.7818609E-02  0.8955075E-01
       -2   -1    0    0    0  501  0.00000000000E+00  0.00000000000E+00  0.53350126173E+03  0.53350126174E+03  0.25500000920E-02 0.  1.
        2   -1    0    0  501    0  0.00000000000E+00  0.00000000000E+00 -0.91618580783E+03  0.91618580783E+03  0.25500000920E-02 0. -1.
    10030    2    1    2    0    0  0.00000000000E+00  0.00000000000E+00 -0.38268454610E+03  0.14496870696E+04  0.13982650456E+04 0.  0.
        5    1    3    3  502    0  0.13481957649E+03 -0.61044992809E+03  0.13311840255E+03  0.63919326655E+03  0.46999998093E+01 0. -1.
       -5    1    3    3    0  502 -0.13481957649E+03  0.61044992809E+03 -0.51580294865E+03  0.81049380302E+03  0.46999998093E+01 0.  1.
</event>
<event>
 5   0  0.1833681E-04  0.1399457E+04  0.7818609E-02  0.8954211E-01
       -2   -1    0    0    0  501  0.00000000000E+00  0.00000000000E+00  0.24351791001E+03  0.24351791002E+03  0.25500000920E-02 0.  1.
        2   -1    0    0  501    0  0.00000000000E+00  0.00000000000E+00 -0.20106126380E+04  0.20106126380E+04  0.25500000920E-02 0. -1.
    10030    2    1    2    0    0  0.00000000000E+00  0.00000000000E+00 -0.17670947280E+04  0.22541305480E+04  0.13994573055E+04 0.  0.
        4    1    3    3  502    0 -0.55474264500E+03 -0.76183007092E+02 -0.20766882529E+03  0.59721956318E+03  0.12699999809E+01 0.  1.
       -4    1    3    3    0  502  0.55474264500E+03  0.76183007092E+02 -0.15594259027E+04  0.16569109848E+04  0.12699999809E+01 0. -1.
</event>
<event>
 5   0  0.9978422E-05  0.1400237E+04  0.7818609E-02  0.8953647E-01
       -1   -1    0    0    0  501  0.00000000000E+00  0.00000000000E+00  0.54923509659E+03  0.54923509661E+03  0.50400001928E-02 0.  1.
        1   -1    0    0  501    0  0.00000000000E+00  0.00000000000E+00 -0.89245237427E+03  0.89245237428E+03  0.50400001928E-02 0. -1.
    10030    2    1    2    0    0  0.00000000000E+00  0.00000000000E+00 -0.34321727769E+03  0.14416874709E+04  0.14002373599E+04 0.  0.
        2    1    3    3  502    0  0.50599828183E+03 -0.46126340962E+03 -0.21103574556E+02  0.68501354375E+03  0.25500000920E-02 0.  1.
       -2    1    3    3    0  502 -0.50599828183E+03  0.46126340962E+03 -0.32211370313E+03  0.75667392714E+03  0.25500000920E-02 0. -1.
</event>
<event>
 5   0  0.9900839E-05  0.1399433E+04  0.7818609E-02  0.8954229E-01
        1   -1    0    0  501    0  0.00000000000E+00  0.00000000000E+00  0.20342326925E+04  0.20342326925E+04  0.50400001928E-02 0. -1.
       -1   -1    0    0    0  501  0.00000000000E+00  0.00000000000E+00 -0.24068201021E+03  0.24068201026E+03  0.50400001928E-02 0.  1.
    10030    2    1    2    0    0  0.00000000000E+00  0.00000000000E+00  0.17935506823E+04  0.22749147028E+04  0.13994330477E+04 0.  0.
        3    1    3    3  502    0  0.53879824473E+03  0.26307172278E+03  0.14831022539E+04  0.15997195334E+04  0.10100000352E+00 0. -1.
       -3    1    3    3    0  502 -0.53879824473E+03 -0.26307172278E+03  0.31044842843E+03  0.67519516939E+03  0.10100000352E+00 0.  1.
</event>
<event>
 5   0  0.9978422E-05  0.1398348E+04  0.7818609E-02  0.8955015E-01
        1   -1    0    0  501    0  0.00000000000E+00  0.00000000000E+00  0.63091166795E+03  0.63091166797E+03  0.50400001928E-02 0.  1.
       -1   -1    0    0    0  501  0.00000000000E+00  0.00000000000E+00 -0.77482203645E+03  0.77482203646E+03  0.50400001928E-02 0. -1.
    10030    2    1    2    0    0  0.00000000000E+00  0.00000000000E+00 -0.14391036850E+03  0.14057337044E+04  0.13983479730E+04 0.  0.
        2    1    3    3  502    0 -0.20423577184E+03  0.78832624371E+02  0.59556812334E+03  0.63452992263E+03  0.25500000920E-02 0.  1.
       -2    1    3    3    0  502  0.20423577184E+03 -0.78832624371E+02 -0.73947849184E+03  0.77120378180E+03  0.25500000920E-02 0. -1.
</event>
<event>
 5   0  0.1766237E-04  0.1400122E+04  0.7818609E-02  0.8953730E-01
        2   -1    0    0  501    0  0.00000000000E+00  0.00000000000E+00  0.16730885097E+04  0.16730885097E+04  0.25500000920E-02 0.  1.
       -2   -1    0    0    0  501  0.00000000000E+00  0.00000000000E+00 -0.29292258783E+03  0.29292258784E+03  0.25500000920E-02 0. -1.
    10030    2    1    2    0    0  0.00000000000E+00  0.00000000000E+00  0.13801659218E+04  0.19660110975E+04  0.14001220174E+04 0.  0.
        3    1    3    3  502    0  0.36204343712E+03 -0.52998511502E+03  0.10825626014E+04  0.12585314730E+04  0.10100000352E+00 0.  1.
       -3    1    3    3    0  502 -0.36204343712E+03  0.52998511502E+03  0.29760332044E+03  0.70747962447E+03  0.10100000352E+00 0. -1.
</event>
<event>
 5   0  0.6671375E-05  0.1399902E+04  0.7818609E-02  0.8953889E-01
        1   -1    0    0  501    0  0.00000000000E+00  0.00000000000E+00  0.19075298811E+04  0.19075298811E+04  0.50400001928E-02 0.  1.
       -1   -1    0    0    0  501  0.00000000000E+00  0.00000000000E+00 -0.25684085998E+03  0.25684086003E+03  0.50400001928E-02 0. -1.
    10030    2    1    2    0    0  0.00000000000E+00  0.00000000000E+00  0.16506890211E+04  0.21643707411E+04  0.13999023040E+04 0.  0.
        5    1    3    3  502    0 -0.24155252264E+03  0.14927570471E+03 -0.16376295697E+03  0.32782808496E+03  0.46999998093E+01 0. -1.
       -5    1    3    3    0  502  0.24155252264E+03 -0.14927570471E+03  0.18144519780E+04  0.18365426561E+04  0.46999998093E+01 0.  1.
</event>
<event>
 5   0  0.9828111E-05  0.1399928E+04  0.7818609E-02  0.8953870E-01
       -1   -1    0    0    0  501  0.00000000000E+00  0.00000000000E+00  0.68287752545E+03  0.68287752547E+03  0.50400001928E-02 0.  1.
        1   -1    0    0  501    0  0.00000000000E+00  0.00000000000E+00 -0.71747846751E+03  0.71747846753E+03  0.50400001928E-02 0. -1.
    10030    2    1    2    0    0  0.00000000000E+00  0.00000000000E+00 -0.34600942064E+02  0.14003559930E+04  0.13999284560E+04 0.  0.
        4    1    3    3  502    0  0.14386855693E+03  0.79197947263E+02  0.66333207325E+03  0.68336046770E+03  0.12699999809E+01 0.  1.
       -4    1    3    3    0  502 -0.14386855693E+03 -0.79197947263E+02 -0.69793301531E+03  0.71699552529E+03  0.12699999809E+01 0. -1.
</event>
<event>
 5   0  0.9900839E-05  0.1400273E+04  0.7818609E-02  0.8953621E-01
       -1   -1    0    0    0  501  0.00000000000E+00  0.00000000000E+00  0.58002845249E+03  0.58002845251E+03  0.50400001928E-02 0. -1.
        1   -1    0    0  501    0  0.00000000000E+00  0.00000000000E+00 -0.84511539427E+03  0.84511539429E+03  0.50400001928E-02 0.  1.
    10030    2    1    2    0    0  0.00000000000E+00  0.00000000000E+00 -0.26508694178E+03  0.14251438468E+04  0.14002727939E+04 0.  0.
        3    1    3    3  502    0 -0.16126201325E+03  0.64199369589E+03  0.99607970809E+02  0.66939009593E+03  0.10100000352E+00 0. -1.
       -3    1    3    3    0  502  0.16126201325E+03 -0.64199369589E+03 -0.36469491259E+03  0.75575375087E+03  0.10100000352E+00 0.  1.
</event>
<event>
 5   0  0.1712327E-04  0.1401133E+04  0.7818609E-02  0.8952999E-01
       -2   -1    0    0    0  501  0.00000000000E+00  0.00000000000E+00  0.24493251366E+03  0.24493251367E+03  0.25500000920E-02 0. -1.
        2   -1    0    0  501    0  0.00000000000E+00  0.00000000000E+00 -0.20037891673E+04  0.20037891673E+04  0.25500000920E-02 0.  1.
    10030    2    1    2    0    0  0.00000000000E+00  0.00000000000E+00 -0.17588566536E+04  0.22487216810E+04  0.14011325670E+04 0.  0.
        1    1    3    3  502    0 -0.21196599778E+03  0.40229153597E+03 -0.24096160802E+02  0.45535556340E+03  0.50400001928E-02 0. -1.
       -1    1    3    3    0  502  0.21196599778E+03 -0.40229153597E+03 -0.17347604928E+04  0.17933661176E+04  0.50400001928E-02 0.  1.
</event>
<event>
 5   0  0.9260916E-05  0.1414126E+04  0.7818609E-02  0.8943656E-01
        1   -1    0    0  501    0  0.00000000000E+00  0.00000000000E+00  0.17439208916E+04  0.17439208916E+04  0.50400001928E-02 0. -1.
       -1   -1    0    0    0  501  0.00000000000E+00  0.00000000000E+00 -0.28667478182E+03  0.28667478186E+03  0.50400001928E-02 0.  1.
    10030    2    1    2    0    0  0.00000000000E+00  0.00000000000E+00  0.14572461098E+04  0.20305956735E+04  0.14141260781E+04 0.  0.
        1    1    3    3  502    0 -0.46843492092E+03  0.43720129265E+03  0.29937186086E+03  0.70724801629E+03  0.50400001928E-02 0.  1.
       -1    1    3    3    0  502  0.46843492092E+03 -0.43720129265E+03  0.11578742490E+04  0.13233476572E+04  0.50400001928E-02 0. -1.
</event>
<event>
 5   0  0.1766237E-04  0.1401085E+04  0.7818609E-02  0.8953034E-01
       -2   -1    0    0    0  501  0.00000000000E+00  0.00000000000E+00  0.43569957009E+03  0.43569957009E+03  0.25500000920E-02 0.  1.
        2   -1    0    0  501    0  0.00000000000E+00  0.00000000000E+00 -0.11263718691E+04  0.11263718691E+04  0.25500000920E-02 0. -1.
    10030    2    1    2    0    0  0.00000000000E+00  0.00000000000E+00 -0.69067229902E+03  0.15620714392E+04  0.14010849212E+04 0.  0.
        3    1    3    3  502    0 -0.15042790912E+03 -0.44643463918E+03 -0.92339639972E+03  0.10366259519E+04  0.10100000352E+00 0. -1.
       -3    1    3    3    0  502  0.15042790912E+03  0.44643463918E+03  0.23272410070E+03  0.52544548732E+03  0.10100000352E+00 0.  1.
</event>
<event>
 5   0  0.1766237E-04  0.1401521E+04  0.7818609E-02  0.8952718E-01
       -2   -1    0    0    0  501  0.00000000000E+00  0.00000000000E+00  0.10073981311E+04  0.10073981311E+04  0.25500000920E-02 0. -1.
        2   -1    0    0  501    0  0.00000000000E+00  0.00000000000E+00 -0.48745886243E+03  0.48745886244E+03  0.25500000920E-02 0.  1.
    10030    2    1    2    0    0  0.00000000000E+00  0.00000000000E+00  0.51993926862E+03  0.14948569935E+04  0.14015208125E+04 0.  0.
        3    1    3    3  502    0  0.27492874439E+02  0.22061602344E+03  0.96878518847E+03  0.99396782621E+03  0.10100000352E+00 0. -1.
       -3    1    3    3    0  502 -0.27492874439E+02 -0.22061602344E+03 -0.44884591984E+03  0.50088916728E+03  0.10100000352E+00 0.  1.
</event>
<event>
 5   0  0.1833681E-04  0.1402324E+04  0.7818609E-02  0.8952138E-01
        2   -1    0    0  501    0  0.00000000000E+00  0.00000000000E+00  0.20058118326E+04  0.20058118327E+04  0.25500000920E-02 0. -1.
       -2   -1    0    0    0  501  0.00000000000E+00  0.00000000000E+00 -0.24510181223E+03  0.24510181224E+03  0.25500000920E-02 0.  1.
    10030    2    1    2    0    0  0.00000000000E+00  0.00000000000E+00  0.17607100204E+04  0.22509136449E+04  0.14023239500E+04 0.  0.
        4    1    3    3  502    0  0.23391867960E+03 -0.84241039707E+02 -0.17196965822E+03  0.30230725709E+03  0.12699999809E+01 0.  1.
       -4    1    3    3    0  502 -0.23391867960E+03  0.84241039707E+02  0.19326796786E+04  0.19486063878E+04  0.12699999809E+01 0. -1.
</event>
<event>
 5   0  0.9900839E-05  0.1398435E+04  0.7818609E-02  0.8954952E-01
       -1   -1    0    0    0  501  0.00000000000E+00  0.00000000000E+00  0.45243695981E+03  0.45243695984E+03  0.50400001928E-02 0.  1.
        1   -1    0    0  501    0  0.00000000000E+00  0.00000000000E+00 -0.10806033650E+04  0.10806033650E+04  0.50400001928E-02 0. -1.
    10030    2    1    2    0    0  0.00000000000E+00  0.00000000000E+00 -0.62816640518E+03  0.15330403248E+04  0.13984346982E+04 0.  0.
        3    1    3    3  502    0  0.10368926758E+03 -0.42742828498E+03 -0.90996431925E+03  0.10106836674E+04  0.10100000352E+00 0. -1.
       -3    1    3    3    0  502 -0.10368926758E+03  0.42742828498E+03  0.28179791407E+03  0.52235665745E+03  0.10100000352E+00 0.  1.
</event>
<event>
 5   0  0.1833681E-04  0.1396836E+04  0.7818609E-02  0.8956112E-01
       -2   -1    0    0    0  501  0.00000000000E+00  0.00000000000E+00  0.84207329540E+03  0.84207329541E+03  0.25500000920E-02 0. -1.
        2   -1    0    0  501    0  0.00000000000E+00  0.00000000000E+00 -0.57926963872E+03  0.57926963872E+03  0.25500000920E-02 0.  1.
    10030    2    1    2    0    0  0.00000000000E+00  0.00000000000E+00  0.26280365668E+03  0.14213429341E+04  0.13968357006E+04 0.  0.
        4    1    3    3  502    0  0.15608441875E+03  0.64607100289E+03 -0.86874685744E+02  0.67031254685E+03  0.12699999809E+01 0.  1.
       -4    1    3    3    0  502 -0.15608441875E+03 -0.64607100289E+03  0.34967834243E+03  0.75103038728E+03  0.12699999809E+01 0. -1.
</event>
<event>
 5   0  0.6671375E-05  0.1397458E+04  0.7818609E-02  0.8955661E-01
        1   -1    0    0  501    0  0.00000000000E+00  0.00000000000E+00  0.13127340299E+04  0.13127340299E+04  0.50400001928E-02 0. -1.
       -1   -1    0    0    0  501  0.00000000000E+00  0.00000000000E+00 -0.37191244087E+03  0.37191244090E+03  0.50400001928E-02 0.  1.
    10030    2    1    2    0    0  0.00000000000E+00  0.00000000000E+00  0.94082158899E+03  0.16846464708E+04  0.13974578595E+04 0.  0.
        5    1    3    3  502    0  0.67736222411E+02  0.55507788154E+03  0.97543138183E+03  0.11243612058E+04  0.46999998093E+01 0. -1.
       -5    1    3    3    0  502 -0.67736222411E+02 -0.55507788154E+03 -0.34609792844E+02  0.56028526499E+03  0.46999998093E+01 0.  1.
</event>
<event>
 5   0  0.1712327E-04  0.1402571E+04  0.7818609E-02  0.8951960E-01
        2   -1    0    0  501    0  0.00000000000E+00  0.00000000000E+00  0.92546883149E+03  0.92546883149E+03  0.25500000920E-02 0.  1.
       -2   -1    0    0    0  501  0.00000000000E+00  0.00000000000E+00 -0.53140780788E+03  0.53140780789E+03  0.25500000920E-02 0. -1.
    10030    2    1    2    0    0  0.00000000000E+00  0.00000000000E+00  0.39406102361E+03  0.14568766394E+04  0.14025710150E+04 0.  0.
        1    1    3    3  502    0 -0.10534072698E+03  0.27235394271E+03 -0.46525181277E+03  0.54930190987E+03  0.50400001928E-02 0. -1.
       -1    1    3    3    0  502  0.10534072698E+03 -0.27235394271E+03  0.85931283638E+03  0.90757472952E+03  0.50400001928E-02 0.  1.
</event>
<event>
 5   0  0.9978422E-05  0.1400283E+04  0.7818609E-02  0.8953614E-01
       -1   -1    0    0    0  501  0.00000000000E+00  0.00000000000E+00  0.81518029794E+03  0.81518029796E+03  0.50400001928E-02 0.  1.
        1   -1    0    0  501    0  0.00000000000E+00  0.00000000000E+00 -0.60133728682E+03  0.60133728684E+03  0.50400001928E-02 0. -1.
    10030    2    1    2    0    0  0.00000000000E+00  0.00000000000E+00  0.21384301112E+03  0.14165175848E+04  0.14002832694E+04 0.  0.
        2    1    3    3  502    0 -0.29619969680E+03 -0.63140040773E+03  0.16926040889E+03  0.71766971602E+03  0.25500000920E-02 0.  1.
       -2    1    3    3    0  502  0.29619969680E+03  0.63140040773E+03  0.44582602234E+02  0.69884786878E+03  0.25500000920E-02 0. -1.
</event>
<event>
 5   0  0.1780171E-04  0.1397961E+04  0.7818609E-02  0.8955296E-01
        2   -1    0    0  501    0  0.00000000000E+00  0.00000000000E+00  0.72112088324E+03  0.72112088325E+03  0.25500000920E-02 0.  1.
       -2   -1    0    0    0  501  0.00000000000E+00  0.00000000000E+00 -0.67751949739E+03  0.67751949740E+03  0.25500000920E-02 0. -1.
    10030    2    1    2    0    0  0.00000000000E+00  0.00000000000E+00  0.43601385851E+02  0.13986403806E+04  0.13979605980E+04 0.  0.
        5    1    3    3  502    0 -0.20016340680E+03  0.18211406223E+03 -0.62296628753E+03  0.67922014582E+03  0.46999998093E+01 0. -1.
       -5    1    3    3    0  502  0.20016340680E+03 -0.18211406223E+03  0.66656767338E+03  0.71942023483E+03  0.46999998093E+01 0.  1.
</event>
<event>
 5   0  0.9900839E-05  0.1389160E+04  0.7818609E-02  0.8961703E-01
       -1   -1    0    0    0  501  0.00000000000E+00  0.00000000000E+00  0.35396608311E+03  0.35396608315E+03  0.50400001928E-02 0.  1.
        1   -1    0    0  501    0  0.00000000000E+00  0.00000000000E+00 -0.13629596871E+04  0.13629596872E+04  0.50400001928E-02 0. -1.
    10030    2    1    2    0    0  0.00000000000E+00  0.00000000000E+00 -0.10089936040E+04  0.17169257703E+04  0.13891601807E+04 0.  0.
        3    1    3    3  502    0 -0.23682393654E+03  0.63588911942E+03 -0.32117258560E+03  0.75072790614E+03  0.10100000352E+00 0. -1.
       -3    1    3    3    0  502  0.23682393654E+03 -0.63588911942E+03 -0.68782101843E+03  0.96619786416E+03  0.10100000352E+00 0.  1.
</event>
<event>
 5   0  0.9900839E-05  0.1403095E+04  0.7818609E-02  0.8951581E-01
        1   -1    0    0  501    0  0.00000000000E+00  0.00000000000E+00  0.11192853875E+04  0.11192853875E+04  0.50400001928E-02 0.  1.
       -1   -1    0    0    0  501  0.00000000000E+00  0.00000000000E+00 -0.43971708555E+03  0.43971708558E+03  0.50400001928E-02 0. -1.
    10030    2    1    2    0    0  0.00000000000E+00  0.00000000000E+00  0.67956830190E+03  0.15590024730E+04  0.14030950196E+04 0.  0.
        3    1    3    3  502    0  0.11336701926E+03 -0.69221828641E+03  0.35342245738E+03  0.78544616663E+03  0.10100000352E+00 0.  1.
       -3    1    3    3    0  502 -0.11336701926E+03  0.69221828641E+03  0.32614584452E+03  0.77355630641E+03  0.10100000352E+00 0. -1.
</event>
<event>
 5   0  0.6671375E-05  0.1395484E+04  0.7818609E-02  0.8957094E-01
       -3   -1    0    0    0  501  0.00000000000E+00  0.00000000000E+00  0.78950301367E+03  0.78950302013E+03  0.10100000352E+00 0.  1.
        3   -1    0    0  501    0  0.00000000000E+00  0.00000000000E+00 -0.61664582922E+03  0.61664583749E+03  0.10100000352E+00 0. -1.
    10030    2    1    2    0    0  0.00000000000E+00  0.00000000000E+00  0.17285718445E+03  0.14061488576E+04  0.13954837884E+04 0.  0.
        3    1    3    3  502    0 -0.38888990446E+03  0.83207413204E+02  0.66412063472E+03  0.77408982622E+03  0.10100000352E+00 0.  1.
       -3    1    3    3    0  502  0.38888990446E+03 -0.83207413204E+02 -0.49126345027E+03  0.63205903140E+03  0.10100000352E+00 0. -1.
</event>
<event>
 5   0  0.6671375E-05  0.1401667E+04  0.7818609E-02  0.8952613E-01
       -1   -1    0    0    0  501  0.00000000000E+00  0.00000000000E+00  0.40266286376E+03  0.40266286379E+03  0.50400001928E-02 0.  1.
        1   -1    0    0  501    0  0.00000000000E+00  0.00000000000E+00 -0.12197980000E+04  0.12197980000E+04  0.50400001928E-02 0. -1.
    10030    2    1    2    0    0  0.00000000000E+00  0.00000000000E+00 -0.81713513620E+03  0.16224608638E+04  0.14016666592E+04 0.  0.
        5    1    3    3  502    0  0.57779415419E+03  0.83585291543E+02  0.40206027167E+02  0.58521038968E+03  0.46999998093E+01 0.  1.
       -5    1    3    3    0  502 -0.57779415419E+03 -0.83585291543E+02 -0.85734116337E+03  0.10372504741E+04  0.46999998093E+01 0. -1.
</event>
<event>
 5   0  0.9260916E-05  0.1400012E+04  0.7818609E-02  0.8953810E-01
        1   -1    0    0  501    0  0.00000000000E+00  0.00000000000E+00  0.94839523696E+03  0.94839523698E+03  0.50400001928E-02 0. -1.
       -1   -1    0    0    0  501  0.00000000000E+00  0.00000000000E+00 -0.51667118276E+03  0.51667118279E+03  0.50400001928E-02 0.  1.
    10030    2    1    2    0    0  0.00000000000E+00  0.00000000000E+00  0.43172405420E+03  0.14650664198E+04  0.14000121269E+04 0.  0.
        1    1    3    3  502    0 -0.62457445276E+03 -0.20296801157E+03  0.46944242876E+03  0.80725798522E+03  0.50400001928E-02 0.  1.
       -1    1    3    3    0  502  0.62457445276E+03  0.20296801157E+03 -0.37718374557E+02  0.65780843455E+03  0.50400001928E-02 0. -1.
</event>
<event>
 5   0  0.9978422E-05  0.1400030E+04  0.7818609E-02  0.8953797E-01
        1   -1    0    0  501    0  0.00000000000E+00  0.00000000000E+00  0.20311874912E+04  0.20311874912E+04  0.50400001928E-02 0. -1.
       -1   -1    0    0    0  501  0.00000000000E+00  0.00000000000E+00 -0.24124838663E+03  0.24124838668E+03  0.50400001928E-02 0.  1.
    10030    2    1    2    0    0  0.00000000000E+00  0.00000000000E+00  0.17899391045E+04  0.22724358779E+04  0.14000295786E+04 0.  0.
        2    1    3    3  502    0  0.59588428385E+03  0.26600505205E+03  0.13061832809E+04  0.14601203823E+04  0.25500000920E-02 0. -1.
       -2    1    3    3    0  502 -0.59588428385E+03 -0.26600505205E+03  0.48375582365E+03  0.81231549559E+03  0.25500000920E-02 0.  1.
</event>
<event>
 5   0  0.6671375E-05  0.1401950E+04  0.7818609E-02  0.8952408E-01
       -1   -1    0    0    0  501  0.00000000000E+00  0.00000000000E+00  0.40603000475E+03  0.40603000478E+03  0.50400001928E-02 0.  1.
        1   -1    0    0  501    0  0.00000000000E+00  0.00000000000E+00 -0.12101723656E+04  0.12101723656E+04  0.50400001928E-02 0. -1.
    10030    2    1    2    0    0  0.00000000000E+00  0.00000000000E+00 -0.80414236089E+03  0.16162023704E+04  0.14019504861E+04 0.  0.
        5    1    3    3  502    0 -0.38136392973E+02  0.22971944525E+03  0.36011804170E+03  0.42887352675E+03  0.46999998093E+01 0.  1.
       -5    1    3    3    0  502  0.38136392973E+02 -0.22971944525E+03 -0.11642604026E+04  0.11873288437E+04  0.46999998093E+01 0. -1.
</event>
<event>
 5   0  0.1780171E-04  0.1399792E+04  0.7818609E-02  0.8953969E-01
       -2   -1    0    0    0  501  0.00000000000E+00  0.00000000000E+00  0.74602335635E+03  0.74602335635E+03  0.25500000920E-02 0.  1.
        2   -1    0    0  501    0  0.00000000000E+00  0.00000000000E+00 -0.65662071171E+03  0.65662071171E+03  0.25500000920E-02 0. -1.
    10030    2    1    2    0    0  0.00000000000E+00  0.00000000000E+00  0.89402644640E+02  0.14026440681E+04  0.13997919663E+04 0.  0.
        5    1    3    3  502    0 -0.68508759044E+02 -0.69428970804E+03 -0.11095600322E+02  0.69776561330E+03  0.46999998093E+01 0. -1.
       -5    1    3    3    0  502  0.68508759044E+02  0.69428970804E+03  0.10049824496E+03  0.70487845477E+03  0.46999998093E+01 0.  1.
</event>
<event>
 5   0  0.6671375E-05  0.1398483E+04  0.7818609E-02  0.8954917E-01
        1   -1    0    0  501    0  0.00000000000E+00  0.00000000000E+00  0.70731636517E+03  0.70731636519E+03  0.50400001928E-02 0. -1.
       -1   -1    0    0    0  501  0.00000000000E+00  0.00000000000E+00 -0.69125869349E+03  0.69125869351E+03  0.50400001928E-02 0.  1.
    10030    2    1    2    0    0  0.00000000000E+00  0.00000000000E+00  0.16057671675E+02  0.13985750587E+04  0.13984828730E+04 0.  0.
        5    1    3    3  502    0  0.52080283086E+03  0.44111619805E+03 -0.14395949556E+03  0.69754248270E+03  0.46999998093E+01 0.  1.
       -5    1    3    3    0  502 -0.52080283086E+03 -0.44111619805E+03  0.16001716723E+03  0.70103257600E+03  0.46999998093E+01 0. -1.
</event>
<event>
 5   0  0.1712327E-04  0.1399157E+04  0.7818609E-02  0.8954429E-01
       -2   -1    0    0    0  501  0.00000000000E+00  0.00000000000E+00  0.57909992240E+03  0.57909992240E+03  0.25500000920E-02 0. -1.
        2   -1    0    0  501    0  0.00000000000E+00  0.00000000000E+00 -0.84512193304E+03  0.84512193305E+03  0.25500000920E-02 0.  1.
    10030    2    1    2    0    0  0.00000000000E+00  0.00000000000E+00 -0.26602201065E+03  0.14242218554E+04  0.13991569545E+04 0.  0.
        1    1    3    3  502    0 -0.29566409008E+03 -0.47260768313E+03  0.29721257234E+03  0.63175199999E+03  0.50400001928E-02 0. -1.
       -1    1    3    3    0  502  0.29566409008E+03  0.47260768313E+03 -0.56323458298E+03  0.79246985546E+03  0.50400001928E-02 0.  1.
</event>
<event>
 5   0  0.9260916E-05  0.1399958E+04  0.7818609E-02  0.8953849E-01
        1   -1    0    0  501    0  0.00000000000E+00  0.00000000000E+00  0.17390882022E+04  0.17390882022E+04  0.50400001928E-02 0. -1.
       -1   -1    0    0    0  501  0.00000000000E+00  0.00000000000E+00 -0.28174013800E+03  0.28174013804E+03  0.50400001928E-02 0.  1.
    10030    2    1    2    0    0  0.00000000000E+00  0.00000000000E+00  0.14573480642E+04  0.20208283402E+04  0.13999584996E+04 0.  0.
        1    1    3    3  502    0  0.38583453427E+03 -0.43259630928E+03  0.12950731643E+04  0.14188806699E+04  0.50400001928E-02 0.  1.
       -1    1    3    3    0  502 -0.38583453427E+03  0.43259630928E+03  0.16227489994E+03  0.60194767033E+03  0.50400001928E-02 0. -1.
</event>
<event>
 5   0  0.1833681E-04  0.1405948E+04  0.7818609E-02  0.8949525E-01
       -2   -1    0    0    0  501  0.00000000000E+00  0.00000000000E+00  0.34853552536E+03  0.34853552537E+03  0.25500000920E-02 0.  1.
        2   -1    0    0  501    0  0.00000000000E+00  0.00000000000E+00 -0.14178533220E+04  0.14178533220E+04  0.25500000920E-02 0. -1.
    10030    2    1    2    0    0  0.00000000000E+00  0.00000000000E+00 -0.10693177966E+04  0.17663888474E+04  0.14059477266E+04 0.  0.
        4    1    3    3  502    0  0.64099530054E+03 -0.10944452484E+03 -0.19914124236E+03  0.68008229402E+03  0.12699999809E+01 0.  1.
       -4    1    3    3    0  502 -0.64099530054E+03  0.10944452484E+03 -0.87017655426E+03  0.10863065533E+04  0.12699999809E+01 0. -1.
</event>
<event>
 5   0  0.1766237E-04  0.1401040E+04  0.7818609E-02  0.8953066E-01
        2   -1    0    0  501    0  0.00000000000E+00  0.00000000000E+00  0.64806716917E+03  0.64806716917E+03  0.25500000920E-02 0.  1.
       -2   -1    0    0    0  501  0.00000000000E+00  0.00000000000E+00 -0.75721771589E+03  0.75721771590E+03  0.25500000920E-02 0. -1.
    10030    2    1    2    0    0  0.00000000000E+00  0.00000000000E+00 -0.10915054672E+03  0.14052848851E+04  0.14010395306E+04 0.  0.
        3    1    3    3  502    0 -0.30323839541E+03 -0.53145024679E+03 -0.39668802471E+03  0.72921484379E+03  0.10100000352E+00 0. -1.
       -3    1    3    3    0  502  0.30323839541E+03  0.53145024679E+03  0.28753747798E+03  0.67607004127E+03  0.10100000352E+00 0.  1.
</event>
<event>
 5   0  0.9900839E-05  0.1400327E+04  0.7818609E-02  0.8953582E-01
        1   -1    0    0  501    0  0.00000000000E+00  0.00000000000E+00  0.16829021302E+04  0.16829021303E+04  0.50400001928E-02 0.  1.
       -1   -1    0    0    0  501  0.00000000000E+00  0.00000000000E+00 -0.29129960115E+03  0.29129960120E+03  0.50400001928E-02 0. -1.
    10030    2    1    2    0    0  0.00000000000E+00  0.00000000000E+00  0.13916025291E+04  0.19742017315E+04  0.14003267038E+04 0.  0.
        3    1    3    3  502    0  0.44932727331E+03  0.30730344064E+03  0.75004899789E+02  0.54950536700E+03  0.10100000352E+00 0. -1.
       -3    1    3    3    0  502 -0.44932727331E+03 -0.30730344064E+03  0.13165976293E+04  0.14246963644E+04  0.10100000352E+00 0.  1.
</event>
<event>
 5   0  0.6671375E-05  0.1401357E+04  0.7818609E-02  0.8952837E-01
        1   -1    0    0  501    0  0.00000000000E+00  0.00000000000E+00  0.12315785011E+04  0.12315785011E+04  0.50400001928E-02 0. -1.
       -1   -1    0    0    0  501  0.00000000000E+00  0.00000000000E+00 -0.39863514070E+03  0.39863514073E+03  0.50400001928E-02 0.  1.
    10030    2    1    2    0    0  0.00000000000E+00  0.00000000000E+00  0.83294336043E+03  0.16302136419E+04  0.14013571552E+04 0.  0.
        5    1    3    3  502    0 -0.55899900543E+02  0.25531086966E+03 -0.33978753515E+03  0.42870280859E+03  0.46999998093E+01 0.  1.
       -5    1    3    3    0  502  0.55899900543E+02 -0.25531086966E+03  0.11727308956E+04  0.12015108333E+04  0.46999998093E+01 0. -1.
</event>
<event>
 5   0  0.6671375E-05  0.1390517E+04  0.7818609E-02  0.8960711E-01
       -1   -1    0    0    0  501  0.00000000000E+00  0.00000000000E+00  0.28891022633E+04  0.28891022633E+04  0.50400001928E-02 0. -1.
        1   -1    0    0  501    0  0.00000000000E+00  0.00000000000E+00 -0.16731306967E+03  0.16731306975E+03  0.50400001928E-02 0.  1.
    10030    2    1    2    0    0  0.00000000000E+00  0.00000000000E+00  0.27217891936E+04  0.30564153330E+04  0.13905172683E+04 0.  0.
        5    1    3    3  502    0  0.30009536860E+02 -0.57117117737E+03  0.49211063504E+03  0.75454095534E+03  0.46999998093E+01 0.  1.
       -5    1    3    3    0  502 -0.30009536860E+02  0.57117117737E+03  0.22296785585E+04  0.23018743777E+04  0.46999998093E+01 0. -1.
</event>
<event>
 5   0  0.9828111E-05  0.1396308E+04  0.7818609E-02  0.8956495E-01
        1   -1    0    0  501    0  0.00000000000E+00  0.00000000000E+00  0.11726765075E+04  0.11726765075E+04  0.50400001928E-02 0. -1.
       -1   -1    0    0    0  501  0.00000000000E+00  0.00000000000E+00 -0.41564669286E+03  0.41564669289E+03  0.50400001928E-02 0.  1.
    10030    2    1    2    0    0  0.00000000000E+00  0.00000000000E+00  0.75702981460E+03  0.15883232004E+04  0.13963081496E+04 0.  0.
        4    1    3    3  502    0 -0.57870297771E+03  0.40221123733E+02  0.82039659363E+03  0.10047721428E+04  0.12699999809E+01 0. -1.
       -4    1    3    3    0  502  0.57870297771E+03 -0.40221123733E+02 -0.63366779027E+02  0.58355105757E+03  0.12699999809E+01 0.  1.
</event>
<event>
 5   0  0.1780171E-04  0.1395282E+04  0.7818609E-02  0.8957240E-01
       -2   -1    0    0    0  501  0.00000000000E+00  0.00000000000E+00  0.56781408509E+03  0.56781408509E+03  0.25500000920E-02 0. -1.
        2   -1    0    0  501    0  0.00000000000E+00  0.00000000000E+00 -0.85715243324E+03  0.85715243324E+03  0.25500000920E-02 0.  1.
    10030    2    1    2    0    0  0.00000000000E+00  0.00000000000E+00 -0.28933834815E+03  0.14249665183E+04  0.13952823724E+04 0.  0.
        5    1    3    3  502    0  0.60496321499E+02  0.67460048216E+03 -0.31536422382E+03  0.74714275684E+03  0.46999998093E+01 0.  1.
       -5    1    3    3    0  502 -0.60496321499E+02 -0.67460048216E+03  0.26025875668E+02  0.67782376149E+03  0.46999998093E+01 0. -1.
</event>
<event>
 5   0  0.1794185E-04  0.1398557E+04  0.7818609E-02  0.8954864E-01
        2   -1    0    0  501    0  0.00000000000E+00  0.00000000000E+00  0.17914434350E+04  0.17914434350E+04  0.25500000920E-02 0.  1.
       -2   -1    0    0    0  501  0.00000000000E+00  0.00000000000E+00 -0.27295888188E+03  0.27295888189E+03  0.25500000920E-02 0. -1.
    10030    2    1    2    0    0  0.00000000000E+00  0.00000000000E+00  0.15184845531E+04  0.20644023169E+04  0.13985569663E+04 0.  0.
        2    1    3    3  502    0 -0.52059837368E+03 -0.39548921007E+03  0.11254684889E+04  0.13015812312E+04  0.25500000920E-02 0.  1.
       -2    1    3    3    0  502  0.52059837368E+03  0.39548921007E+03  0.39301606418E+03  0.76282108562E+03  0.25500000920E-02 0. -1.
</event>
<event>
 5   0  0.1766237E-04  0.1399117E+04  0.7818609E-02  0.8954458E-01
       -2   -1    0    0    0  501  0.00000000000E+00  0.00000000000E+00  0.35447355520E+03  0.35447355521E+03  0.25500000920E-02 0.  1.
        2   -1    0    0  501    0  0.00000000000E+00  0.00000000000E+00 -0.13805893338E+04  0.13805893338E+04  0.25500000920E-02 0. -1.
    10030    2    1    2    0    0  0.00000000000E+00  0.00000000000E+00 -0.10261157786E+04  0.17350628890E+04  0.13991174496E+04 0.  0.
        3    1    3    3  502    0  0.12165310530E+03  0.31456410866E+03 -0.12731085436E+04  0.13170252201E+04  0.10100000352E+00 0. -1.
       -3    1    3    3    0  502 -0.12165310530E+03 -0.31456410866E+03  0.24699276496E+03  0.41803766891E+03  0.10100000352E+00 0.  1.
</event>
<event>
 5   0  0.1794185E-04  0.1396837E+04  0.7818609E-02  0.8956112E-01
        2   -1    0    0  501    0  0.00000000000E+00  0.00000000000E+00  0.91592017485E+03  0.91592017485E+03  0.25500000920E-02 0. -1.
       -2   -1    0    0    0  501  0.00000000000E+00  0.00000000000E+00 -0.53256621883E+03  0.53256621884E+03  0.25500000920E-02 0.  1.
    10030    2    1    2    0    0  0.00000000000E+00  0.00000000000E+00  0.38335395602E+03  0.14484863937E+04  0.13968366322E+04 0.  0.
        2    1    3    3  502    0 -0.14307307367E+03 -0.27139982344E+03  0.84230034288E+03  0.89643607479E+03  0.25500000920E-02 0. -1.
       -2    1    3    3    0  502  0.14307307367E+03  0.27139982344E+03 -0.45894638686E+03  0.55205031890E+03  0.25500000920E-02 0.  1.
</event>
<event>
 5   0  0.1766237E-04  0.1399155E+04  0.7818609E-02  0.8954431E-01
        2   -1    0    0  501    0  0.00000000000E+00  0.00000000000E+00  0.15803692147E+04  0.15803692147E+04  0.25500000920E-02 0. -1.
       -2   -1    0    0    0  501  0.00000000000E+00  0.00000000000E+00 -0.30967980568E+03  0.30967980569E+03  0.25500000920E-02 0.  1.
    10030    2    1    2    0    0  0.00000000000E+00  0.00000000000E+00  0.12706894090E+04  0.18900490204E+04  0.13991546467E+04 0.  0.
        3    1    3    3  502    0 -0.56673786845E+03  0.21913079971E+03  0.16700981161E+03  0.63016061944E+03  0.10100000352E+00 0.  1.
       -3    1    3    3    0  502  0.56673786845E+03 -0.21913079971E+03  0.11036795974E+04  0.12598884010E+04  0.10100000352E+00 0. -1.
</event>
<event>
 5   0  0.1780171E-04  0.1400665E+04  0.7818609E-02  0.8953337E-01
       -2   -1    0    0    0  501  0.00000000000E+00  0.00000000000E+00  0.33393298084E+03  0.33393298085E+03  0.25500000920E-02 0.  1.
        2   -1    0    0  501    0  0.00000000000E+00  0.00000000000E+00 -0.14687556351E+04  0.14687556351E+04  0.25500000920E-02 0. -1.
    10030    2    1    2    0    0  0.00000000000E+00  0.00000000000E+00 -0.11348226543E+04  0.18026886160E+04  0.14006654809E+04 0.  0.
        5    1    3    3  502    0 -0.27792027210E+03  0.58661908034E+03 -0.22913665782E+03  0.68839474215E+03  0.46999998093E+01 0.  1.
       -5    1    3    3    0  502  0.27792027210E+03 -0.58661908034E+03 -0.90568599647E+03  0.11142938738E+04  0.46999998093E+01 0. -1.
</event>
<event>
 5   0  0.1833681E-04  0.1400405E+04  0.7818609E-02  0.8953525E-01
        2   -1    0    0  501    0  0.00000000000E+00  0.00000000000E+00  0.14450004473E+04  0.14450004473E+04  0.25500000920E-02 0.  1.
       -2   -1    0    0    0  501  0.00000000000E+00  0.00000000000E+00 -0.33929649479E+03  0.33929649480E+03  0.25500000920E-02 0. -1.
    10030    2    1    2    0    0  0.00000000000E+00  0.00000000000E+00  0.11057039525E+04  0.17842969421E+04  0.14004050653E+04 0.  0.
        4    1    3    3  502    0 -0.57327521227E+03  0.39862762641E+03  0.61946737167E+03  0.93342910336E+03  0.12699999809E+01 0.  1.
       -4    1    3    3    0  502  0.57327521227E+03 -0.39862762641E+03  0.48623658081E+03  0.85086783871E+03  0.12699999809E+01 0. -1.
</event>
<event>
 5   0  0.1833681E-04  0.1401996E+04  0.7818609E-02  0.8952375E-01
       -2   -1    0    0    0  501  0.00000000000E+00  0.00000000000E+00  0.28187882619E+03  0.28187882620E+03  0.25500000920E-02 0.  1.
        2   -1    0    0  501    0  0.00000000000E+00  0.00000000000E+00 -0.17432966729E+04  0.17432966729E+04  0.25500000920E-02 0. -1.
    10030    2    1    2    0    0  0.00000000000E+00  0.00000000000E+00 -0.14614178467E+04  0.20251754991E+04  0.14019963193E+04 0.  0.
        4    1    3    3  502    0 -0.65642044900E+03 -0.91692046063E+02 -0.40099203294E+03  0.77465570453E+03  0.12699999809E+01 0.  1.
       -4    1    3    3    0  502  0.65642044900E+03  0.91692046063E+02 -0.10604258137E+04  0.12505197945E+04  0.12699999809E+01 0. -1.
</event>
<event>
 5   0  0.9260916E-05  0.1400459E+04  0.7818609E-02  0.8953486E-01
        1   -1    0    0  501    0  0.00000000000E+00  0.00000000000E+00  0.82142326094E+03  0.82142326095E+03  0.50400001928E-02 0. -1.
       -1   -1    0    0    0  501  0.00000000000E+00  0.00000000000E+00 -0.59691683617E+03  0.59691683619E+03  0.50400001928E-02 0.  1.
    10030    2    1    2    0    0  0.00000000000E+00  0.00000000000E+00  0.22450642477E+03  0.14183400971E+04  0.14004590306E+04 0.  0.
        1    1    3    3  502    0 -0.10986765094E+03 -0.49617278651E+03 -0.37562672601E+03  0.63194443752E+03  0.50400001928E-02 0.  1.
       -1    1    3    3    0  502  0.10986765094E+03  0.49617278651E+03  0.60013315078E+03  0.78639565963E+03  0.50400001928E-02 0. -1.
</event>
<event>
 5   0  0.1794185E-04  0.1403942E+04  0.7818609E-02  0.8950970E-01
       -2   -1    0    0    0  501  0.00000000000E+00  0.00000000000E+00  0.85466351181E+03  0.85466351182E+03  0.25500000920E-02 0.  1.
        2   -1    0    0  501    0  0.00000000000E+00  0.00000000000E+00 -0.57655854068E+03  0.57655854068E+03  0.25500000920E-02 0. -1.
    10030    2    1    2    0    0  0.00000000000E+00  0.00000000000E+00  0.27810497113E+03  0.14312220525E+04  0.14039423737E+04 0.  0.
        2    1    3    3  502    0 -0.12510026584E+03  0.55011427100E+03  0.56488637403E+03  0.79835606295E+03  0.25500000920E-02 0.  1.
       -2    1    3    3    0  502  0.12510026584E+03 -0.55011427100E+03 -0.28678140290E+03  0.63286598955E+03  0.25500000920E-02 0. -1.
</event>
<event>
 5   0  0.6671375E-05  0.1401762E+04  0.7818609E-02  0.8952544E-01
       -1   -1    0    0    0  501  0.00000000000E+00  0.00000000000E+00  0.68716574921E+03  0.68716574922E+03  0.50400001928E-02 0. -1.
        1   -1    0    0  501    0  0.00000000000E+00  0.00000000000E+00 -0.71487037748E+03  0.71487037750E+03  0.50400001928E-02 0.  1.
    10030    2    1    2    0    0  0.00000000000E+00  0.00000000000E+00 -0.27704628279E+02  0.14020361267E+04  0.14017623744E+04 0.  0.
        5    1    3    3  502    0 -0.41982300487E+03  0.54756217288E+03  0.10920284694E+03  0.69858645876E+03  0.46999998093E+01 0. -1.
       -5    1    3    3    0  502  0.41982300487E+03 -0.54756217288E+03 -0.13690747522E+03  0.70344966796E+03  0.46999998093E+01 0.  1.
</event>
<event>
 5   0  0.9828111E-05  0.1399127E+04  0.7818609E-02  0.8954451E-01
       -1   -1    0    0    0  501  0.00000000000E+00  0.00000000000E+00  0.61408049435E+03  0.61408049437E+03  0.50400001928E-02 0. -1.
        1   -1    0    0  501    0  0.00000000000E+00  0.00000000000E+00 -0.79694573638E+03  0.79694573640E+03  0.50400001928E-02 0.  1.
    10030    2    1    2    0    0  0.00000000000E+00  0.00000000000E+00 -0.18286524204E+03  0.14110262308E+04  0.13991266301E+04 0.  0.
        4    1    3    3  502    0  0.88991684974E+02 -0.68546410214E+03  0.17217887358E+02  0.69143229883E+03  0.12699999809E+01 0. -1.
       -4    1    3    3    0  502 -0.88991684974E+02  0.68546410214E+03 -0.20008312939E+03  0.71959393194E+03  0.12699999809E+01 0.  1.
</event>
<event>
 5   0  0.6671375E-05  0.1399787E+04  0.7818609E-02  0.8953973E-01
       -1   -1    0    0    0  501  0.00000000000E+00  0.00000000000E+00  0.11477597272E+04  0.11477597272E+04  0.50400001928E-02 0.  1.
        1   -1    0    0  501    0  0.00000000000E+00  0.00000000000E+00 -0.42678861887E+03  0.42678861890E+03  0.50400001928E-02 0. -1.
    10030    2    1    2    0    0  0.00000000000E+00  0.00000000000E+00  0.72097110831E+03  0.15745483461E+04  0.13997868249E+04 0.  0.
        5    1    3    3  502    0 -0.62615470609E+03  0.19433223404E+03  0.84968882354E+02  0.66111764014E+03  0.46999998093E+01 0. -1.
       -5    1    3    3    0  502  0.62615470609E+03 -0.19433223404E+03  0.63600222596E+03  0.91343070594E+03  0.46999998093E+01 0.  1.
</event>
<event>
 5   0  0.1712327E-04  0.1399394E+04  0.7818609E-02  0.8954257E-01
        2   -1    0    0  501    0  0.00000000000E+00  0.00000000000E+00  0.13318458058E+04  0.13318458058E+04  0.25500000920E-02 0.  1.
       -2   -1    0    0    0  501  0.00000000000E+00  0.00000000000E+00 -0.36759219953E+03  0.36759219954E+03  0.25500000920E-02 0. -1.
    10030    2    1    2    0    0  0.00000000000E+00  0.00000000000E+00  0.96425360629E+03  0.16994380054E+04  0.13993943393E+04 0.  0.
        1    1    3    3  502    0  0.50629997799E+03  0.25236110656E+03  0.98217807656E+03  0.11334458831E+04  0.50400001928E-02 0.  1.
       -1    1    3    3    0  502 -0.50629997799E+03 -0.25236110656E+03 -0.17924470270E+02  0.56599212227E+03  0.50400001928E-02 0. -1.
</event>
<event>
 5   0  0.1766237E-04  0.1401704E+04  0.7818609E-02  0.8952586E-01
       -2   -1    0    0    0  501  0.00000000000E+00  0.00000000000E+00  0.31788294134E+03  0.31788294135E+03  0.25500000920E-02 0.  1.
        2   -1    0    0  501    0  0.00000000000E+00  0.00000000000E+00 -0.15452033698E+04  0.15452033698E+04  0.25500000920E-02 0. -1.
    10030    2    1    2    0    0  0.00000000000E+00  0.00000000000E+00 -0.12273204285E+04  0.18630863112E+04  0.14017043799E+04 0.  0.
        3    1    3    3  502    0  0.11462095442E+03  0.17745497239E+03 -0.15018773626E+04  0.15166620760E+04  0.10100000352E+00 0. -1.
       -3    1    3    3    0  502 -0.11462095442E+03 -0.17745497239E+03  0.27455693412E+03  0.34642423514E+03  0.10100000352E+00 0.  1.
</event>
<event>
 5   0  0.1780171E-04  0.1397878E+04  0.7818609E-02  0.8955356E-01
        2   -1    0    0  501    0  0.00000000000E+00  0.00000000000E+00  0.17462148753E+04  0.17462148753E+04  0.25500000920E-02 0. -1.
       -2   -1    0    0    0  501  0.00000000000E+00  0.00000000000E+00 -0.27975707035E+03  0.27975707036E+03  0.25500000920E-02 0.  1.
    10030    2    1    2    0    0  0.00000000000E+00  0.00000000000E+00  0.14664578050E+04  0.20259719457E+04  0.13978783319E+04 0.  0.
        5    1    3    3  502    0 -0.47318449928E+03 -0.42215599216E+03  0.11591774269E+04  0.13212999846E+04  0.46999998093E+01 0. -1.
       -5    1    3    3    0  502  0.47318449928E+03  0.42215599216E+03  0.30728037805E+03  0.70467196113E+03  0.46999998093E+01 0.  1.
</event>
<event>
 5   0  0.6671375E-05  0.1399714E+04  0.7818609E-02  0.8954026E-01
       -1   -1    0    0    0  501  0.00000000000E+00  0.00000000000E+00  0.69147044261E+03  0.69147044263E+03  0.50400001928E-02 0.  1.
        1   -1    0    0  501    0  0.00000000000E+00  0.00000000000E+00 -0.70834487397E+03  0.70834487399E+03  0.50400001928E-02 0. -1.
    10030    2    1    2    0    0  0.00000000000E+00  0.00000000000E+00 -0.16874431359E+02  0.13998153166E+04  0.13997136043E+04 0.  0.
        5    1    3    3  502    0 -0.16573294114E+03 -0.18328046840E+03 -0.66325064319E+03  0.70780127406E+03  0.46999998093E+01 0. -1.
       -5    1    3    3    0  502  0.16573294114E+03  0.18328046840E+03  0.64637621183E+03  0.69201404255E+03  0.46999998093E+01 0.  1.
</event>
<event>
 5   0  0.1766237E-04  0.1398779E+04  0.7818609E-02  0.8954702E-01
        2   -1    0    0  501    0  0.00000000000E+00  0.00000000000E+00  0.11098139356E+04  0.11098139356E+04  0.25500000920E-02 0.  1.
       -2   -1    0    0    0  501  0.00000000000E+00  0.00000000000E+00 -0.44074597170E+03  0.44074597170E+03  0.25500000920E-02 0. -1.
    10030    2    1    2    0    0  0.00000000000E+00  0.00000000000E+00  0.66906796387E+03  0.15505599073E+04  0.13987794986E+04 0.  0.
        3    1    3    3  502    0  0.45871899556E+02 -0.23734321148E+03  0.10620319076E+04  0.10891959485E+04  0.10100000352E+00 0.  1.
       -3    1    3    3    0  502 -0.45871899556E+02  0.23734321148E+03 -0.39296394373E+03  0.46136395880E+03  0.10100000352E+00 0. -1.
</event>
<event>
 5   0  0.1833681E-04  0.1399728E+04  0.7818609E-02  0.8954016E-01
        2   -1    0    0  501    0  0.00000000000E+00  0.00000000000E+00  0.16703463254E+04  0.16703463254E+04  0.25500000920E-02 0.  1.
       -2   -1    0    0    0  501  0.00000000000E+00  0.00000000000E+00 -0.29323827026E+03  0.29323827027E+03  0.25500000920E-02 0. -1.
    10030    2    1    2    0    0  0.00000000000E+00  0.00000000000E+00  0.13771080552E+04  0.19635845957E+04  0.13997277838E+04 0.  0.
        4    1    3    3  502    0  0.29303832810E+03  0.51116788487E+03  0.15872900916E+03  0.61021355238E+03  0.12699999809E+01 0. -1.
       -4    1    3    3    0  502 -0.29303832810E+03 -0.51116788487E+03  0.12183790460E+04  0.13533710433E+04  0.12699999809E+01 0.  1.
</event>
<event>
 5   0  0.1780171E-04  0.1399219E+04  0.7818609E-02  0.8954384E-01
        2   -1    0    0  501    0  0.00000000000E+00  0.00000000000E+00  0.60673401154E+03  0.60673401155E+03  0.25500000920E-02 0.  1.
       -2   -1    0    0    0  501  0.00000000000E+00  0.00000000000E+00 -0.80670180028E+03  0.80670180029E+03  0.25500000920E-02 0. -1.
    10030    2    1    2    0    0  0.00000000000E+00  0.00000000000E+00 -0.19996778874E+03  0.14134358118E+04  0.13992189527E+04 0.  0.
        5    1    3    3  502    0  0.40171615407E+03 -0.48449325785E+03 -0.40857388475E+03  0.75037610213E+03  0.46999998093E+01 0. -1.
       -5    1    3    3    0  502 -0.40171615407E+03  0.48449325785E+03  0.20860609601E+03  0.66305970971E+03  0.46999998093E+01 0.  1.
</event>
<event>
 5   0  0.6671375E-05  0.1398273E+04  0.7818609E-02  0.8955070E-01
       -1   -1    0    0    0  501  0.00000000000E+00  0.00000000000E+00  0.49798563924E+03  0.49798563926E+03  0.50400001928E-02 0.  1.
        1   -1    0    0  501    0  0.00000000000E+00  0.00000000000E+00 -0.98153744103E+03  0.98153744104E+03  0.50400001928E-02 0. -1.
    10030    2    1    2    0    0  0.00000000000E+00  0.00000000000E+00 -0.48355180179E+03  0.14795230803E+04  0.13982725772E+04 0.  0.
        5    1    3    3  502    0 -0.28391762840E+03 -0.63076469666E+03 -0.13440982598E+03  0.70467113861E+03  0.46999998093E+01 0. -1.
       -5    1    3    3    0  502  0.28391762840E+03  0.63076469666E+03 -0.34914197581E+03  0.77485194169E+03  0.46999998093E+01 0.  1.
</event>
<event>
 5   0  0.1766237E-04  0.1399674E+04  0.7818609E-02  0.8954055E-01
        2   -1    0    0  501    0  0.00000000000E+00  0.00000000000E+00  0.14128054592E+04  0.14128054592E+04  0.25500000920E-02 0. -1.
       -2   -1    0    0    0  501  0.00000000000E+00  0.00000000000E+00 -0.34666601167E+03  0.34666601168E+03  0.25500000920E-02 0.  1.
    10030    2    1    2    0    0  0.00000000000E+00  0.00000000000E+00  0.10661394475E+04  0.17594714709E+04  0.13996737246E+04 0.  0.
        3    1    3    3  502    0 -0.68687353227E+02  0.31783934243E+03 -0.24593309062E+03  0.40770442155E+03  0.10100000352E+00 0.  1.
       -3    1    3    3    0  502  0.68687353227E+02 -0.31783934243E+03  0.13120725382E+04  0.13517670493E+04  0.10100000352E+00 0. -1.
</event>
<event>
 5   0  0.1712327E-04  0.1377661E+04  0.7818609E-02  0.8970149E-01
       -2   -1    0    0    0  501  0.00000000000E+00  0.00000000000E+00  0.58652090449E+03  0.58652090449E+03  0.25500000920E-02 0. -1.
        2   -1    0    0  501    0  0.00000000000E+00  0.00000000000E+00 -0.80898647420E+03  0.80898647420E+03  0.25500000920E-02 0.  1.
    10030    2    1    2    0    0  0.00000000000E+00  0.00000000000E+00 -0.22246556971E+03  0.13955073787E+04  0.13776610303E+04 0.  0.
        1    1    3    3  502    0  0.65970956026E+03 -0.17967133448E+03 -0.26549663916E+02  0.68425388345E+03  0.50400001928E-02 0.  1.
       -1    1    3    3    0  502 -0.65970956026E+03  0.17967133448E+03 -0.19591590579E+03  0.71125349525E+03  0.50400001928E-02 0. -1.
</event>
<event>
 5   0  0.1833681E-04  0.1400042E+04  0.7818609E-02  0.8953788E-01
        2   -1    0    0  501    0  0.00000000000E+00  0.00000000000E+00  0.10314045071E+04  0.10314045071E+04  0.25500000920E-02 0. -1.
       -2   -1    0    0    0  501  0.00000000000E+00  0.00000000000E+00 -0.47510885488E+03  0.47510885489E+03  0.25500000920E-02 0.  1.
    10030    2    1    2    0    0  0.00000000000E+00  0.00000000000E+00  0.55629565217E+03  0.15065133619E+04  0.14000420198E+04 0.  0.
        4    1    3    3  502    0  0.29936295370E+03  0.36250052009E+03 -0.27995018681E+03  0.54717321308E+03  0.12699999809E+01 0.  1.
       -4    1    3    3    0  502 -0.29936295370E+03 -0.36250052009E+03  0.83624583898E+03  0.95934014887E+03  0.12699999809E+01 0. -1.
</event>
<event>
 5   0  0.1712327E-04  0.1398431E+04  0.7818609E-02  0.8954955E-01
        2   -1    0    0  501    0  0.00000000000E+00  0.00000000000E+00  0.56607246411E+03  0.56607246411E+03  0.25500000920E-02 0. -1.
       -2   -1    0    0    0  501  0.00000000000E+00  0.00000000000E+00 -0.86367460251E+03  0.86367460251E+03  0.25500000920E-02 0.  1.
    10030    2    1    2    0    0  0.00000000000E+00  0.00000000000E+00 -0.29760213840E+03  0.14297470666E+04  0.13984311359E+04 0.  0.
        1    1    3    3  502    0 -0.40355444053E+03  0.39517720744E+03 -0.57019743672E+03  0.80258727165E+03  0.50400001928E-02 0.  1.
       -1    1    3    3    0  502  0.40355444053E+03 -0.39517720744E+03  0.27259529832E+03  0.62715979498E+03  0.50400001928E-02 0. -1.
</event>
<event>
 5   0  0.1766237E-04  0.1400391E+04  0.7818609E-02  0.8953535E-01
        2   -1    0    0  501    0  0.00000000000E+00  0.00000000000E+00  0.81327306237E+03  0.81327306237E+03  0.25500000920E-02 0. -1.
       -2   -1    0    0    0  501  0.00000000000E+00  0.00000000000E+00 -0.60284044703E+03  0.60284044704E+03  0.25500000920E-02 0.  1.
    10030    2    1    2    0    0  0.00000000000E+00  0.00000000000E+00  0.21043261534E+03  0.14161135094E+04  0.14003912260E+04 0.  0.
        3    1    3    3  502    0 -0.51872054942E+03 -0.22189846075E+03  0.52455737110E+03  0.77037028827E+03  0.10100000352E+00 0. -1.
       -3    1    3    3    0  502  0.51872054942E+03  0.22189846075E+03 -0.31412475576E+03  0.64574322114E+03  0.10100000352E+00 0.  1.
</event>
<event>
 5   0  0.1794185E-04  0.1400502E+04  0.7818609E-02  0.8953456E-01
       -2   -1    0    0    0  501  0.00000000000E+00  0.00000000000E+00  0.18079757274E+03  0.18079757276E+03  0.25500000920E-02 0.  1.
        2   -1    0    0  501    0  0.00000000000E+00  0.00000000000E+00 -0.27121556669E+04  0.27121556669E+04  0.25500000920E-02 0. -1.
    10030    2    1    2    0    0  0.00000000000E+00  0.00000000000E+00 -0.25313580942E+04  0.28929532397E+04  0.14005015694E+04 0.  0.
        2    1    3    3  502    0 -0.56406880020E+03  0.25333094245E+03 -0.19445256824E+04  0.20404730597E+04  0.25500000920E-02 0. -1.
       -2    1    3    3    0  502  0.56406880020E+03 -0.25333094245E+03 -0.58683241174E+03  0.85248017997E+03  0.25500000920E-02 0.  1.
</event>
<event>
 5   0  0.1712327E-04  0.1398262E+04  0.7818609E-02  0.8955078E-01
       -2   -1    0    0    0  501  0.00000000000E+00  0.00000000000E+00  0.10311047348E+04  0.10311047348E+04  0.25500000920E-02 0. -1.
        2   -1    0    0  501    0  0.00000000000E+00  0.00000000000E+00 -0.47403923460E+03  0.47403923461E+03  0.25500000920E-02 0.  1.
    10030    2    1    2    0    0  0.00000000000E+00  0.00000000000E+00  0.55706550019E+03  0.15051439694E+04  0.13982619201E+04 0.  0.
        1    1    3    3  502    0  0.52261637543E+03 -0.45580429468E+03  0.37420069658E+03  0.78797943644E+03  0.50400001928E-02 0. -1.
       -1    1    3    3    0  502 -0.52261637543E+03  0.45580429468E+03  0.18286480362E+03  0.71716453296E+03  0.50400001928E-02 0.  1.
</event>
<event>
 5   0  0.1794185E-04  0.1400449E+04  0.7818609E-02  0.8953494E-01
       -2   -1    0    0    0  501  0.00000000000E+00  0.00000000000E+00  0.12484687697E+04  0.12484687697E+04  0.25500000920E-02 0.  1.
        2   -1    0    0  501    0  0.00000000000E+00  0.00000000000E+00 -0.39273253342E+03  0.39273253343E+03  0.25500000920E-02 0. -1.
    10030    2    1    2    0    0  0.00000000000E+00  0.00000000000E+00  0.85573623624E+03  0.16412013031E+04  0.14004489320E+04 0.  0.
        2    1    3    3  502    0 -0.33954597320E+03  0.43267553030E+03  0.93574610609E+03  0.10854125287E+04  0.25500000920E-02 0.  1.
       -2    1    3    3    0  502  0.33954597320E+03 -0.43267553030E+03 -0.80009869848E+02  0.55578877437E+03  0.25500000920E-02 0. -1.
</event>
<event>
 5   0  0.9260916E-05  0.1399750E+04  0.7818609E-02  0.8953999E-01
        1   -1    0    0  501    0  0.00000000000E+00  0.00000000000E+00  0.15969414487E+04  0.15969414487E+04  0.50400001928E-02 0.  1.
       -1   -1    0    0    0  501  0.00000000000E+00  0.00000000000E+00 -0.30672706020E+03  0.30672706024E+03  0.50400001928E-02 0. -1.
    10030    2    1    2    0    0  0.00000000000E+00  0.00000000000E+00  0.12902143885E+04  0.19036685090E+04  0.13997502005E+04 0.  0.
        1    1    3    3  502    0  0.21681929063E+03 -0.62240450038E+03  0.32492128586E+03  0.73482774097E+03  0.50400001928E-02 0. -1.
       -1    1    3    3    0  502 -0.21681929063E+03  0.62240450038E+03  0.96529310268E+03  0.11688407680E+04  0.50400001928E-02 0.  1.
</event>
<event>
 5   0  0.9978422E-05  0.1400900E+04  0.7818609E-02  0.8953167E-01
       -1   -1    0    0    0  501  0.00000000000E+00  0.00000000000E+00  0.52346228312E+03  0.52346228314E+03  0.50400001928E-02 0. -1.
        1   -1    0    0  501    0  0.00000000000E+00  0.00000000000E+00 -0.93727871110E+03  0.93727871111E+03  0.50400001928E-02 0.  1.
    10030    2    1    2    0    0  0.00000000000E+00  0.00000000000E+00 -0.41381642798E+03  0.14607409943E+04  0.14008997881E+04 0.  0.
        2    1    3    3  502    0 -0.20429380659E+03 -0.58302866833E+03 -0.55111778678E+03  0.82788236025E+03  0.25500000920E-02 0.  1.
       -2    1    3    3    0  502  0.20429380659E+03  0.58302866833E+03  0.13730135880E+03  0.63285863400E+03  0.25500000920E-02 0. -1.
</event>
<event>
 5   0  0.9828111E-05  0.1398906E+04  0.7818609E-02  0.8954611E-01
       -1   -1    0    0    0  501  0.00000000000E+00  0.00000000000E+00  0.33350846215E+03  0.33350846218E+03  0.50400001928E-02 0.  1.
        1   -1    0    0  501    0  0.00000000000E+00  0.00000000000E+00 -0.14669329901E+04  0.14669329901E+04  0.50400001928E-02 0. -1.
    10030    2    1    2    0    0  0.00000000000E+00  0.00000000000E+00 -0.11334245279E+04  0.18004414523E+04  0.13989060950E+04 0.  0.
        4    1    3    3  502    0 -0.49748595759E+03 -0.27171828961E+03 -0.39326354382E+02  0.56821763608E+03  0.12699999809E+01 0. -1.
       -4    1    3    3    0  502  0.49748595759E+03  0.27171828961E+03 -0.10940981735E+04  0.12322238162E+04  0.12699999809E+01 0.  1.
</event>
<event>
 5   0  0.6671375E-05  0.1403599E+04  0.7818609E-02  0.8951217E-01
       -3   -1    0    0    0  501  0.00000000000E+00  0.00000000000E+00  0.46974406676E+03  0.46974407762E+03  0.10100000352E+00 0. -1.
        3   -1    0    0  501    0  0.00000000000E+00  0.00000000000E+00 -0.10484915938E+04  0.10484915987E+04  0.10100000352E+00 0.  1.
    10030    2    1    2    0    0  0.00000000000E+00  0.00000000000E+00 -0.57874752702E+03  0.15182356763E+04  0.14035992550E+04 0.  0.
        5    1    3    3  502    0  0.37109555276E+03  0.33968424416E+03 -0.81862411960E+03  0.96086670990E+03  0.46999998093E+01 0.  1.
       -5    1    3    3    0  502 -0.37109555276E+03 -0.33968424416E+03  0.23987659258E+03  0.55736896637E+03  0.46999998093E+01 0. -1.
</event>
<event>
 5   0  0.6671375E-05  0.1402514E+04  0.7818609E-02  0.8952001E-01
       -1   -1    0    0    0  501  0.00000000000E+00  0.00000000000E+00  0.39385283980E+03  0.39385283984E+03  0.50400001928E-02 0. -1.
        1   -1    0    0  501    0  0.00000000000E+00  0.00000000000E+00 -0.12485907973E+04  0.12485907973E+04  0.50400001928E-02 0.  1.
    10030    2    1    2    0    0  0.00000000000E+00  0.00000000000E+00 -0.85473795746E+03  0.16424436371E+04  0.14025135027E+04 0.  0.
        5    1    3    3  502    0 -0.29750498896E+03 -0.45528695918E+03  0.91011768071E+02  0.55145323064E+03  0.46999998093E+01 0.  1.
       -5    1    3    3    0  502  0.29750498896E+03  0.45528695918E+03 -0.94574972553E+03  0.10909904065E+04  0.46999998093E+01 0. -1.
</event>
<event>
 5   0  0.1766237E-04  0.1410254E+04  0.7818609E-02  0.8946429E-01
        2   -1    0    0  501    0  0.00000000000E+00  0.00000000000E+00  0.19726951649E+04  0.19726951649E+04  0.25500000920E-02 0.  1.
       -2   -1    0    0    0  501  0.00000000000E+00  0.00000000000E+00 -0.25204303682E+03  0.25204303684E+03  0.25500000920E-02 0. -1.
    10030    2    1    2    0    0  0.00000000000E+00  0.00000000000E+00  0.17206521280E+04  0.22247382017E+04  0.14102539914E+04 0.  0.
        3    1    3    3  502    0 -0.82421499820E+02  0.21640954306E+03 -0.19034413762E+03  0.29976206379E+03  0.10100000352E+00 0. -1.
       -3    1    3    3    0  502  0.82421499820E+02 -0.21640954306E+03  0.19109962657E+04  0.19249761379E+04  0.10100000352E+00 0.  1.
</event>
<event>
 5   0  0.6671375E-05  0.1399339E+04  0.7818609E-02  0.8954297E-01
       -1   -1    0    0    0  501  0.00000000000E+00  0.00000000000E+00  0.30063765450E+03  0.30063765455E+03  0.50400001928E-02 0.  1.
        1   -1    0    0  501    0  0.00000000000E+00  0.00000000000E+00 -0.16283294090E+04  0.16283294090E+04  0.50400001928E-02 0. -1.
    10030    2    1    2    0    0  0.00000000000E+00  0.00000000000E+00 -0.13276917545E+04  0.19289670636E+04  0.13993386071E+04 0.  0.
        5    1    3    3  502    0  0.46615585942E+03  0.50703627574E+03 -0.83339376461E+03  0.10811819121E+04  0.46999998093E+01 0. -1.
       -5    1    3    3    0  502 -0.46615585942E+03 -0.50703627574E+03 -0.49429798988E+03  0.84778515144E+03  0.46999998093E+01 0.  1.
</event>
<event>
 5   0  0.1766237E-04  0.1396858E+04  0.7818609E-02  0.8956096E-01
       -2   -1    0    0    0  501  0.00000000000E+00  0.00000000000E+00  0.62651676954E+03  0.62651676954E+03  0.25500000920E-02 0.  1.
        2   -1    0    0  501    0  0.00000000000E+00  0.00000000000E+00 -0.77859521169E+03  0.77859521170E+03  0.25500000920E-02 0. -1.
    10030    2    1    2    0    0  0.00000000000E+00  0.00000000000E+00 -0.15207844215E+03  0.14051119812E+04  0.13968578407E+04 0.  0.
        3    1    3    3  502    0 -0.28278642491E+03 -0.54531466725E+03 -0.41036850159E+03  0.73874120349E+03  0.10100000352E+00 0. -1.
       -3    1    3    3    0  502  0.28278642491E+03  0.54531466725E+03  0.25829005944E+03  0.66637077775E+03  0.10100000352E+00 0.  1.
</event>
<event>
 5   0  0.9900839E-05  0.1399165E+04  0.7818609E-02  0.8954423E-01
       -1   -1    0    0    0  501  0.00000000000E+00  0.00000000000E+00  0.44938873156E+03  0.44938873159E+03  0.50400001928E-02 0.  1.
        1   -1    0    0  501    0  0.00000000000E+00  0.00000000000E+00 -0.10890703210E+04  0.10890703211E+04  0.50400001928E-02 0. -1.
    10030    2    1    2    0    0  0.00000000000E+00  0.00000000000E+00 -0.63968158948E+03  0.15384590526E+04  0.13991653658E+04 0.  0.
        3    1    3    3  502    0  0.28456208705E+03  0.96846375542E+02 -0.10144437119E+04  0.10580410467E+04  0.10100000352E+00 0. -1.
       -3    1    3    3    0  502 -0.28456208705E+03 -0.96846375542E+02  0.37476212237E+03  0.48041800592E+03  0.10100000352E+00 0.  1.
</event>
<event>
 5   0  0.9828111E-05  0.1400471E+04  0.7818609E-02  0.8953478E-01
       -1   -1    0    0    0  501  0.00000000000E+00  0.00000000000E+00  0.46724388275E+03  0.46724388277E+03  0.50400001928E-02 0. -1.
        1   -1    0    0  501    0  0.00000000000E+00  0.00000000000E+00 -0.10494082527E+04  0.10494082527E+04  0.50400001928E-02 0.  1.
    10030    2    1    2    0    0  0.00000000000E+00  0.00000000000E+00 -0.58216436996E+03  0.15166521355E+04  0.14004707589E+04 0.  0.
        4    1    3    3  502    0  0.63429771518E+03 -0.26921026204E+03 -0.42599736919E+03  0.81011303417E+03  0.12699999809E+01 0. -1.
       -4    1    3    3    0  502 -0.63429771518E+03  0.26921026204E+03 -0.15616700078E+03  0.70653910133E+03  0.12699999809E+01 0.  1.
</event>
<event>
 5   0  0.6671375E-05  0.1398775E+04  0.7818609E-02  0.8954705E-01
        1   -1    0    0  501    0  0.00000000000E+00  0.00000000000E+00  0.10526908828E+04  0.10526908828E+04  0.50400001928E-02 0. -1.
       -1   -1    0    0    0  501  0.00000000000E+00  0.00000000000E+00 -0.46465988477E+03  0.46465988480E+03  0.50400001928E-02 0.  1.
    10030    2    1    2    0    0  0.00000000000E+00  0.00000000000E+00  0.58803099804E+03  0.15173507676E+04  0.13987754993E+04 0.  0.
        5    1    3    3  502    0  0.13628041458E+03 -0.57540594374E+03  0.69911134814E+03  0.91566539663E+03  0.46999998093E+01 0. -1.
       -5    1    3    3    0  502 -0.13628041458E+03  0.57540594374E+03 -0.11108035009E+03  0.60168537099E+03  0.46999998093E+01 0.  1.
</event>
<event>
 5   0  0.1833681E-04  0.1398838E+04  0.7818609E-02  0.8954660E-01
       -2   -1    0    0    0  501  0.00000000000E+00  0.00000000000E+00  0.48931709138E+03  0.48931709139E+03  0.25500000920E-02 0.  1.
        2   -1    0    0  501    0  0.00000000000E+00  0.00000000000E+00 -0.99973362762E+03  0.99973362763E+03  0.25500000920E-02 0. -1.
    10030    2    1    2    0    0  0.00000000000E+00  0.00000000000E+00 -0.51041653624E+03  0.14890507190E+04  0.13988377330E+04 0.  0.
        4    1    3    3  502    0  0.64043647575E+02  0.38040459121E+03  0.36583455993E+03  0.53164441119E+03  0.12699999809E+01 0.  1.
       -4    1    3    3    0  502 -0.64043647575E+02 -0.38040459121E+03 -0.87625109618E+03  0.95740630782E+03  0.12699999809E+01 0. -1.
</event>
<event>
 5   0  0.1833681E-04  0.1400750E+04  0.7818609E-02  0.8953276E-01
       -2   -1    0    0    0  501  0.00000000000E+00  0.00000000000E+00  0.32944326136E+03  0.32944326137E+03  0.25500000920E-02 0.  1.
        2   -1    0    0  501    0  0.00000000000E+00  0.00000000000E+00 -0.14889525590E+04  0.14889525591E+04  0.25500000920E-02 0. -1.
    10030    2    1    2    0    0  0.00000000000E+00  0.00000000000E+00 -0.11595092977E+04  0.18183958204E+04  0.14007503519E+04 0.  0.
        4    1    3    3  502    0  0.66523795951E+03  0.47314849239E+02 -0.85740137235E+03  0.10862407486E+04  0.12699999809E+01 0. -1.
       -4    1    3    3    0  502 -0.66523795951E+03 -0.47314849239E+02 -0.30210792534E+03  0.73215507181E+03  0.12699999809E+01 0.  1.
</event>
<event>
 5   0  0.1766237E-04  0.1395886E+04  0.7818609E-02  0.8956802E-01
        2   -1    0    0  501    0  0.00000000000E+00  0.00000000000E+00  0.10642666048E+04  0.10642666048E+04  0.25500000920E-02 0. -1.
       -2   -1    0    0    0  501  0.00000000000E+00  0.00000000000E+00 -0.45770874315E+03  0.45770874316E+03  0.25500000920E-02 0.  1.
    10030    2    1    2    0    0  0.00000000000E+00  0.00000000000E+00  0.60655786161E+03  0.15219753479E+04  0.13958855684E+04 0.  0.
        3    1    3    3  502    0 -0.22568988323E+03  0.24897658767E+03 -0.36369525885E+03  0.49517624753E+03  0.10100000352E+00 0.  1.
       -3    1    3    3    0  502  0.22568988323E+03 -0.24897658767E+03  0.97025312046E+03  0.10267991004E+04  0.10100000352E+00 0. -1.
</event>
<event>
 5   0  0.9260916E-05  0.1402078E+04  0.7818609E-02  0.8952316E-01
       -1   -1    0    0    0  501  0.00000000000E+00  0.00000000000E+00  0.57821645766E+03  0.57821645769E+03  0.50400001928E-02 0.  1.
        1   -1    0    0  501    0  0.00000000000E+00  0.00000000000E+00 -0.84995122822E+03  0.84995122823E+03  0.50400001928E-02 0. -1.
    10030    2    1    2    0    0  0.00000000000E+00  0.00000000000E+00 -0.27173477055E+03  0.14281676859E+04  0.14020781553E+04 0.  0.
        1    1    3    3  502    0  0.14783193481E+03 -0.58356254173E+03  0.23006136239E+03  0.64445927067E+03  0.50400001928E-02 0.  1.
       -1    1    3    3    0  502 -0.14783193481E+03  0.58356254173E+03 -0.50179613294E+03  0.78370841525E+03  0.50400001928E-02 0. -1.
</event>
<event>
 5   0  0.1833681E-04  0.1407178E+04  0.7818609E-02  0.8948639E-01
        2   -1    0    0  501    0  0.00000000000E+00  0.00000000000E+00  0.32234260358E+03  0.32234260359E+03  0.25500000920E-02 0.  1.
       -2   -1    0    0    0  501  0.00000000000E+00  0.00000000000E+00 -0.15357499170E+04  0.15357499170E+04  0.25500000920E-02 0. -1.
    10030    2    1    2    0    0  0.00000000000E+00  0.00000000000E+00 -0.12134073134E+04  0.18580925206E+04  0.14071782072E+04 0.  0.
        4    1    3    3  502    0 -0.61836496614E+03  0.10613579111E+03 -0.10271674413E+04  0.12036256075E+04  0.12699999809E+01 0. -1.
       -4    1    3    3    0  502  0.61836496614E+03 -0.10613579111E+03 -0.18623987206E+03  0.65446691311E+03  0.12699999809E+01 0.  1.
</event>
<event>
 5   0  0.9828111E-05  0.1394964E+04  0.7818609E-02  0.8957472E-01
       -1   -1    0    0    0  501  0.00000000000E+00  0.00000000000E+00  0.97657665460E+03  0.97657665461E+03  0.50400001928E-02 0. -1.
        1   -1    0    0  501    0  0.00000000000E+00  0.00000000000E+00 -0.49814924477E+03  0.49814924480E+03  0.50400001928E-02 0.  1.
    10030    2    1    2    0    0  0.00000000000E+00  0.00000000000E+00  0.47842740983E+03  0.14747258994E+04  0.13949636884E+04 0.  0.
        4    1    3    3  502    0 -0.25315393975E+03 -0.40326268532E+03  0.77803436409E+03  0.91216599102E+03  0.12699999809E+01 0. -1.
       -4    1    3    3    0  502  0.25315393975E+03  0.40326268532E+03 -0.29960695426E+03  0.56255990838E+03  0.12699999809E+01 0.  1.
</event>
<event>
 5   0  0.1712327E-04  0.1400599E+04  0.7818609E-02  0.8953385E-01
        2   -1    0    0  501    0  0.00000000000E+00  0.00000000000E+00  0.12130877756E+04  0.12130877756E+04  0.25500000920E-02 0.  1.
       -2   -1    0    0    0  501  0.00000000000E+00  0.00000000000E+00 -0.40427350449E+03  0.40427350450E+03  0.25500000920E-02 0. -1.
    10030    2    1    2    0    0  0.00000000000E+00  0.00000000000E+00  0.80881427107E+03  0.16173612801E+04  0.14005987952E+04 0.  0.
        1    1    3    3  502    0  0.22353447233E+03  0.31375389660E+03  0.10797320082E+04  0.11463988736E+04  0.50400001928E-02 0.  1.
       -1    1    3    3    0  502 -0.22353447233E+03 -0.31375389660E+03 -0.27091773712E+03  0.47096240642E+03  0.50400001928E-02 0. -1.
</event>
<event>
 5   0  0.1780171E-04  0.1400398E+04  0.7818609E-02  0.8953530E-01
       -2   -1    0    0    0  501  0.00000000000E+00  0.00000000000E+00  0.43070887011E+03  0.43070887012E+03  0.25500000920E-02 0.  1.
        2   -1    0    0  501    0  0.00000000000E+00  0.00000000000E+00 -0.11383064793E+04  0.11383064793E+04  0.25500000920E-02 0. -1.
    10030    2    1    2    0    0  0.00000000000E+00  0.00000000000E+00 -0.70759760919E+03  0.15690153494E+04  0.14003980828E+04 0.  0.
        5    1    3    3  502    0  0.87495753493E+02 -0.41478196105E+03  0.27057742941E+03  0.50292526025E+03  0.46999998093E+01 0.  1.
       -5    1    3    3    0  502 -0.87495753493E+02  0.41478196105E+03 -0.97817503860E+03  0.10660900892E+04  0.46999998093E+01 0. -1.
</event>
<event>
 5   0  0.9260916E-05  0.1396861E+04  0.7818609E-02  0.8956094E-01
       -1   -1    0    0    0  501  0.00000000000E+00  0.00000000000E+00  0.11407538889E+04  0.11407538890E+04  0.50400001928E-02 0.  1.
        1   -1    0    0  501    0  0.00000000000E+00  0.00000000000E+00 -0.42761649311E+03  0.42761649314E+03  0.50400001928E-02 0. -1.
    10030    2    1    2    0    0  0.00000000000E+00  0.00000000000E+00  0.71313739583E+03  0.15683703821E+04  0.13968610203E+04 0.  0.
        1    1    3    3  502    0 -0.55674070892E+03  0.38543565306E+03  0.16443081989E+03  0.69682017348E+03  0.50400001928E-02 0. -1.
       -1    1    3    3    0  502  0.55674070892E+03 -0.38543565306E+03  0.54870657594E+03  0.87155020861E+03  0.50400001928E-02 0.  1.
</event>
<event>
 5   0  0.9260916E-05  0.1400832E+04  0.7818609E-02  0.8953217E-01
        1   -1    0    0  501    0  0.00000000000E+00  0.00000000000E+00  0.12995603430E+04  0.12995603430E+04  0.50400001928E-02 0.  1.
       -1   -1    0    0    0  501  0.00000000000E+00  0.00000000000E+00 -0.37749868363E+03  0.37749868367E+03  0.50400001928E-02 0. -1.
    10030    2    1    2    0    0  0.00000000000E+00  0.00000000000E+00  0.92206165937E+03  0.16770590267E+04  0.14008316370E+04 0.  0.
        1    1    3    3  502    0 -0.36254025814E+03 -0.36106979780E+03  0.10336516645E+04  0.11533614356E+04  0.50400001928E-02 0.  1.
       -1    1    3    3    0  502  0.36254025814E+03  0.36106979780E+03 -0.11159000508E+03  0.52369759109E+03  0.50400001928E-02 0. -1.
</event>
<event>
 5   0  0.9828111E-05  0.1399105E+04  0.7818609E-02  0.8954467E-01
        1   -1    0    0  501    0  0.00000000000E+00  0.00000000000E+00  0.17448414112E+04  0.17448414112E+04  0.50400001928E-02 0. -1.
       -1   -1    0    0    0  501  0.00000000000E+00  0.00000000000E+00 -0.28046893968E+03  0.28046893973E+03  0.50400001928E-02 0.  1.
    10030    2    1    2    0    0  0.00000000000E+00  0.00000000000E+00  0.14643724715E+04  0.20253103509E+04  0.13991051720E+04 0.  0.
        4    1    3    3  502    0  0.45037549937E+03 -0.45236574352E+03  0.31791817506E+03  0.71312441781E+03  0.12699999809E+01 0.  1.
       -4    1    3    3    0  502 -0.45037549937E+03  0.45236574352E+03  0.11464542965E+04  0.13121859331E+04  0.12699999809E+01 0. -1.
</event>
<event>
 5   0  0.1833681E-04  0.1402257E+04  0.7818609E-02  0.8952186E-01
        2   -1    0    0  501    0  0.00000000000E+00  0.00000000000E+00  0.29220842900E+04  0.29220842900E+04  0.25500000920E-02 0.  1.
       -2   -1    0    0    0  501  0.00000000000E+00  0.00000000000E+00 -0.16822961729E+03  0.16822961731E+03  0.25500000920E-02 0. -1.
    10030    2    1    2    0    0  0.00000000000E+00  0.00000000000E+00  0.27538546727E+04  0.30903139073E+04  0.14022569263E+04 0.  0.
        4    1    3    3  502    0 -0.51499255397E+03 -0.33892208972E+03  0.21127967330E+04  0.22009082583E+04  0.12699999809E+01 0.  1.
       -4    1    3    3    0  502  0.51499255397E+03  0.33892208972E+03  0.64105793968E+03  0.88940564899E+03  0.12699999809E+01 0. -1.
</event>
<event>
 5   0  0.9260916E-05  0.1396783E+04  0.7818609E-02  0.8956150E-01
       -1   -1    0    0    0  501  0.00000000000E+00  0.00000000000E+00  0.24893500461E+03  0.24893500466E+03  0.50400001928E-02 0. -1.
        1   -1    0    0  501    0  0.00000000000E+00  0.00000000000E+00 -0.19593498652E+04  0.19593498652E+04  0.50400001928E-02 0.  1.
    10030    2    1    2    0    0  0.00000000000E+00  0.00000000000E+00 -0.17104148606E+04  0.22082848699E+04  0.13967831153E+04 0.  0.
        1    1    3    3  502    0  0.17925222882E+03  0.13963266582E+03 -0.18992787838E+04  0.19128221406E+04  0.50400001928E-02 0.  1.
       -1    1    3    3    0  502 -0.17925222882E+03 -0.13963266582E+03  0.18886392318E+03  0.29546272930E+03  0.50400001928E-02 0. -1.
</event>
<event>
 5   0  0.1712327E-04  0.1398455E+04  0.7818609E-02  0.8954937E-01
       -2   -1    0    0    0  501  0.00000000000E+00  0.00000000000E+00  0.11771973973E+04  0.11771973973E+04  0.25500000920E-02 0. -1.
        2   -1    0    0  501    0  0.00000000000E+00  0.00000000000E+00 -0.41532482724E+03  0.41532482725E+03  0.25500000920E-02 0.  1.
    10030    2    1    2    0    0  0.00000000000E+00  0.00000000000E+00  0.76187257005E+03  0.15925222245E+04  0.13984552988E+04 0.  0.
        1    1    3    3  502    0 -0.55952394250E+03  0.12904927134E+03 -0.73430384228E+02  0.57888926231E+03  0.50400001928E-02 0.  1.
       -1    1    3    3    0  502  0.55952394250E+03 -0.12904927134E+03  0.83530295428E+03  0.10136329622E+04  0.50400001928E-02 0. -1.
</event>
<event>
 5   0  0.6671375E-05  0.1388191E+04  0.7818609E-02  0.8962411E-01
        1   -1    0    0  501    0  0.00000000000E+00  0.00000000000E+00  0.41904416448E+03  0.41904416451E+03  0.50400001928E-02 0. -1.
       -1   -1    0    0    0  501  0.00000000000E+00  0.00000000000E+00 -0.11496841468E+04  0.11496841469E+04  0.50400001928E-02 0.  1.
    10030    2    1    2    0    0  0.00000000000E+00  0.00000000000E+00 -0.73063998237E+03  0.15687283114E+04  0.13881908122E+04 0.  0.
        5    1    3    3  502    0 -0.46912849430E+03  0.82267431397E+02  0.20521307361E+03  0.51863664546E+03  0.46999998093E+01 0. -1.
       -5    1    3    3    0  502  0.46912849430E+03 -0.82267431397E+02 -0.93585305598E+03  0.10500916659E+04  0.46999998093E+01 0.  1.
</event>
<event>
 5   0  0.6671375E-05  0.1398276E+04  0.7818609E-02  0.8955068E-01
       -1   -1    0    0    0  501  0.00000000000E+00  0.00000000000E+00  0.79647706333E+03  0.79647706335E+03  0.50400001928E-02 0. -1.
        1   -1    0    0  501    0  0.00000000000E+00  0.00000000000E+00 -0.61369480215E+03  0.61369480217E+03  0.50400001928E-02 0.  1.
    10030    2    1    2    0    0  0.00000000000E+00  0.00000000000E+00  0.18278226118E+03  0.14101718655E+04  0.13982758438E+04 0.  0.
        5    1    3    3  502    0 -0.16585027526E+03  0.67914330362E+03  0.96896802628E+02  0.70579956150E+03  0.46999998093E+01 0.  1.
       -5    1    3    3    0  502  0.16585027526E+03 -0.67914330362E+03  0.85885458556E+02  0.70437230401E+03  0.46999998093E+01 0. -1.
</event>
<event>
 5   0  0.1766237E-04  0.1404188E+04  0.7818609E-02  0.8950793E-01
        2   -1    0    0  501    0  0.00000000000E+00  0.00000000000E+00  0.74932689714E+03  0.74932689714E+03  0.25500000920E-02 0. -1.
       -2   -1    0    0    0  501  0.00000000000E+00  0.00000000000E+00 -0.65783824825E+03  0.65783824826E+03  0.25500000920E-02 0.  1.
    10030    2    1    2    0    0  0.00000000000E+00  0.00000000000E+00  0.91488648889E+02  0.14071651454E+04  0.14041878697E+04 0.  0.
        3    1    3    3  502    0 -0.56855974879E+02  0.65259235298E+03 -0.20743041674E+03  0.68712209180E+03  0.10100000352E+00 0. -1.
       -3    1    3    3    0  502  0.56855974879E+02 -0.65259235298E+03  0.29891906563E+03  0.72004305360E+03  0.10100000352E+00 0.  1.
</event>
<event>
 5   0  0.9260916E-05  0.1399053E+04  0.7818609E-02  0.8954504E-01
        1   -1    0    0  501    0  0.00000000000E+00  0.00000000000E+00  0.51327990245E+03  0.51327990247E+03  0.50400001928E-02 0. -1.
       -1   -1    0    0    0  501  0.00000000000E+00  0.00000000000E+00 -0.95335358739E+03  0.95335358740E+03  0.50400001928E-02 0.  1.
    10030    2    1    2    0    0  0.00000000000E+00  0.00000000000E+00 -0.44007368494E+03  0.14666334899E+04  0.13990528744E+04 0.  0.
        1    1    3    3  502    0  0.63279937764E+02  0.41812596951E+03  0.36410828854E+03  0.55803989348E+03  0.50400001928E-02 0. -1.
       -1    1    3    3    0  502 -0.63279937764E+02 -0.41812596951E+03 -0.80418197348E+03  0.90859359639E+03  0.50400001928E-02 0.  1.
</event>
<event>
 5   0  0.6671375E-05  0.1398734E+04  0.7818609E-02  0.8954735E-01
        1   -1    0    0  501    0  0.00000000000E+00  0.00000000000E+00  0.91950458675E+03  0.91950458677E+03  0.50400001928E-02 0. -1.
       -1   -1    0    0    0  501  0.00000000000E+00  0.00000000000E+00 -0.53193265208E+03  0.53193265211E+03  0.50400001928E-02 0.  1.
    10030    2    1    2    0    0  0.00000000000E+00  0.00000000000E+00  0.38757193467E+03  0.14514372389E+04  0.13987344472E+04 0.  0.
        5    1    3    3  502    0 -0.96498283095E+02 -0.65169095302E+03 -0.49746919588E+02  0.66068893051E+03  0.46999998093E+01 0.  1.
       -5    1    3    3    0  502  0.96498283095E+02  0.65169095302E+03  0.43731885426E+03  0.79074830836E+03  0.46999998093E+01 0. -1.
</event>
<event>
 5   0  0.6671375E-05  0.1399101E+04  0.7818609E-02  0.8954469E-01
        1   -1    0    0  501    0  0.00000000000E+00  0.00000000000E+00  0.95596042284E+03  0.95596042285E+03  0.50400001928E-02 0. -1.
       -1   -1    0    0    0  501  0.00000000000E+00  0.00000000000E+00 -0.51191563424E+03  0.51191563427E+03  0.50400001928E-02 0.  1.
    10030    2    1    2    0    0  0.00000000000E+00  0.00000000000E+00  0.44404478859E+03  0.14678760571E+04  0.13991012632E+04 0.  0.
        5    1    3    3  502    0  0.31639000747E+03 -0.59345759733E+02 -0.42957421640E+03  0.53682460210E+03  0.46999998093E+01 0.  1.
       -5    1    3    3    0  502 -0.31639000747E+03  0.59345759733E+02  0.87361900499E+03  0.93105145502E+03  0.46999998093E+01 0. -1.
</event>
<event>
 5   0  0.6671375E-05  0.1401738E+04  0.7818609E-02  0.8952562E-01
        3   -1    0    0  501    0  0.00000000000E+00  0.00000000000E+00  0.55657846792E+03  0.55657847709E+03  0.10100000352E+00 0. -1.
       -3   -1    0    0    0  501  0.00000000000E+00  0.00000000000E+00 -0.88256603811E+03  0.88256604389E+03  0.10100000352E+00 0.  1.
    10030    2    1    2    0    0  0.00000000000E+00  0.00000000000E+00 -0.32598757019E+03  0.14391445210E+04  0.14017378701E+04 0.  0.
        5    1    3    3  502    0  0.84772255285E+02 -0.17714318425E+03 -0.85372463435E+03  0.87603303835E+03  0.46999998093E+01 0.  1.
       -5    1    3    3    0  502 -0.84772255285E+02  0.17714318425E+03  0.52773706415E+03  0.56311148263E+03  0.46999998093E+01 0. -1.
</event>
<event>
 5   0  0.1780171E-04  0.1400142E+04  0.7818609E-02  0.8953716E-01
        2   -1    0    0  501    0  0.00000000000E+00  0.00000000000E+00  0.17844542425E+04  0.17844542425E+04  0.25500000920E-02 0. -1.
       -2   -1    0    0    0  501  0.00000000000E+00  0.00000000000E+00 -0.27464945294E+03  0.27464945295E+03  0.25500000920E-02 0.  1.
    10030    2    1    2    0    0  0.00000000000E+00  0.00000000000E+00  0.15098047896E+04  0.20591036955E+04  0.14001419664E+04 0.  0.
        5    1    3    3  502    0  0.28239077643E+03 -0.63364485980E+03  0.61673325652E+03  0.92824154112E+03  0.46999998093E+01 0.  1.
       -5    1    3    3    0  502 -0.28239077643E+03  0.63364485980E+03  0.89307153304E+03  0.11308621543E+04  0.46999998093E+01 0. -1.
</event>
<event>
 5   0  0.9260916E-05  0.1400448E+04  0.7818609E-02  0.8953494E-01
        1   -1    0    0  501    0  0.00000000000E+00  0.00000000000E+00  0.15914821119E+04  0.15914821119E+04  0.50400001928E-02 0.  1.
       -1   -1    0    0    0  501  0.00000000000E+00  0.00000000000E+00 -0.30808633108E+03  0.30808633112E+03  0.50400001928E-02 0. -1.
    10030    2    1    2    0    0  0.00000000000E+00  0.00000000000E+00  0.12833957809E+04  0.18995684431E+04  0.14004483352E+04 0.  0.
        1    1    3    3  502    0 -0.11912257506E+03  0.29435060517E+03 -0.20481041969E+03  0.37786211068E+03  0.50400001928E-02 0. -1.
       -1    1    3    3    0  502  0.11912257506E+03 -0.29435060517E+03  0.14882062005E+04  0.15217063324E+04  0.50400001928E-02 0.  1.
</event>
<event>
 5   0  0.6671375E-05  0.1398867E+04  0.7818609E-02  0.8954639E-01
       -1   -1    0    0    0  501  0.00000000000E+00  0.00000000000E+00  0.19876276791E+03  0.19876276797E+03  0.50400001928E-02 0. -1.
        1   -1    0    0  501    0  0.00000000000E+00  0.00000000000E+00 -0.24612605287E+04  0.24612605287E+04  0.50400001928E-02 0.  1.
    10030    2    1    2    0    0  0.00000000000E+00  0.00000000000E+00 -0.22624977608E+04  0.26600232966E+04  0.13988666203E+04 0.  0.
        5    1    3    3  502    0  0.86672146280E+02  0.44146938669E+03 -0.21495629274E+04  0.21961443826E+04  0.46999998093E+01 0.  1.
       -5    1    3    3    0  502 -0.86672146280E+02 -0.44146938669E+03 -0.11293483336E+03  0.46387891406E+03  0.46999998093E+01 0. -1.
</event>
<event>
 5   0  0.9900839E-05  0.1400173E+04  0.7818609E-02  0.8953693E-01
       -1   -1    0    0    0  501  0.00000000000E+00  0.00000000000E+00  0.96105263647E+03  0.96105263648E+03  0.50400001928E-02 0. -1.
        1   -1    0    0  501    0  0.00000000000E+00  0.00000000000E+00 -0.50998356147E+03  0.50998356149E+03  0.50400001928E-02 0.  1.
    10030    2    1    2    0    0  0.00000000000E+00  0.00000000000E+00  0.45106907500E+03  0.14710361980E+04  0.14001729127E+04 0.  0.
        3    1    3    3  502    0 -0.65184625743E+03  0.24524520156E+03  0.15071009917E+03  0.71257441464E+03  0.10100000352E+00 0. -1.
       -3    1    3    3    0  502  0.65184625743E+03 -0.24524520156E+03  0.30035897583E+03  0.75846178333E+03  0.10100000352E+00 0.  1.
</event>
<event>
 5   0  0.1833681E-04  0.1399591E+04  0.7818609E-02  0.8954115E-01
        2   -1    0    0  501    0  0.00000000000E+00  0.00000000000E+00  0.69219205873E+03  0.69219205873E+03  0.25500000920E-02 0. -1.
       -2   -1    0    0    0  501  0.00000000000E+00  0.00000000000E+00 -0.70748222903E+03  0.70748222903E+03  0.25500000920E-02 0.  1.
    10030    2    1    2    0    0  0.00000000000E+00  0.00000000000E+00 -0.15290170298E+02  0.13996742878E+04  0.13995907697E+04 0.  0.
        4    1    3    3  502    0  0.16662969739E+03  0.25483098983E+03  0.62247796726E+03  0.69295362186E+03  0.12699999809E+01 0. -1.
       -4    1    3    3    0  502 -0.16662969739E+03 -0.25483098983E+03 -0.63776813756E+03  0.70672066590E+03  0.12699999809E+01 0.  1.
</event>
<event>
 5   0  0.9978422E-05  0.1398540E+04  0.7818609E-02  0.8954876E-01
       -1   -1    0    0    0  501  0.00000000000E+00  0.00000000000E+00  0.39387658969E+03  0.39387658973E+03  0.50400001928E-02 0. -1.
        1   -1    0    0  501    0  0.00000000000E+00  0.00000000000E+00 -0.12414504502E+04  0.12414504502E+04  0.50400001928E-02 0.  1.
    10030    2    1    2    0    0  0.00000000000E+00  0.00000000000E+00 -0.84757386051E+03  0.16353270399E+04  0.13985396235E+04 0.  0.
        2    1    3    3  502    0  0.35034933788E+03 -0.59740812899E+03 -0.31079777994E+03  0.75910235881E+03  0.25500000920E-02 0. -1.
       -2    1    3    3    0  502 -0.35034933788E+03  0.59740812899E+03 -0.53677608057E+03  0.87622468112E+03  0.25500000920E-02 0.  1.
</event>
<event>
 5   0  0.6671375E-05  0.1399709E+04  0.7818609E-02  0.8954029E-01
       -1   -1    0    0    0  501  0.00000000000E+00  0.00000000000E+00  0.12363145908E+04  0.12363145908E+04  0.50400001928E-02 0.  1.
        1   -1    0    0  501    0  0.00000000000E+00  0.00000000000E+00 -0.39617439719E+03  0.39617439722E+03  0.50400001928E-02 0. -1.
    10030    2    1    2    0    0  0.00000000000E+00  0.00000000000E+00  0.84014019360E+03  0.16324889880E+04  0.13997088094E+04 0.  0.
        5    1    3    3  502    0  0.44192547912E+03 -0.11909498037E+03 -0.19740321326E+03  0.49846951968E+03  0.46999998093E+01 0. -1.
       -5    1    3    3    0  502 -0.44192547912E+03  0.11909498037E+03  0.10375434069E+04  0.11340194683E+04  0.46999998093E+01 0.  1.
</event>
<event>
 5   0  0.1712327E-04  0.1395444E+04  0.7818609E-02  0.8957123E-01
       -2   -1    0    0    0  501  0.00000000000E+00  0.00000000000E+00  0.12033632085E+04  0.12033632085E+04  0.25500000920E-02 0. -1.
        2   -1    0    0  501    0  0.00000000000E+00  0.00000000000E+00 -0.40454590255E+03  0.40454590256E+03  0.25500000920E-02 0.  1.
    10030    2    1    2    0    0  0.00000000000E+00  0.00000000000E+00  0.79881730595E+03  0.16079091111E+04  0.13954435213E+04 0.  0.
        1    1    3    3  502    0  0.65018253758E+02  0.62035955768E+03  0.39169832377E+02  0.62498610378E+03  0.50400001928E-02 0.  1.
       -1    1    3    3    0  502 -0.65018253758E+02 -0.62035955768E+03  0.75964747357E+03  0.98292300728E+03  0.50400001928E-02 0. -1.
</event>
<event>
 5   0  0.1833681E-04  0.1399214E+04  0.7818609E-02  0.8954388E-01
        2   -1    0    0  501    0  0.00000000000E+00  0.00000000000E+00  0.13758997383E+04  0.13758997383E+04  0.25500000920E-02 0.  1.
       -2   -1    0    0    0  501  0.00000000000E+00  0.00000000000E+00 -0.35573074589E+03  0.35573074590E+03  0.25500000920E-02 0. -1.
    10030    2    1    2    0    0  0.00000000000E+00  0.00000000000E+00  0.10201689924E+04  0.17316304842E+04  0.13992138367E+04 0.  0.
        4    1    3    3  502    0 -0.21907455133E+03 -0.50992680245E+03 -0.17054024482E+02  0.55525800809E+03  0.12699999809E+01 0. -1.
       -4    1    3    3    0  502  0.21907455133E+03  0.50992680245E+03  0.10372230169E+04  0.11763724761E+04  0.12699999809E+01 0.  1.
</event>
<event>
 5   0  0.1833681E-04  0.1400936E+04  0.7818609E-02  0.8953142E-01
       -2   -1    0    0    0  501  0.00000000000E+00  0.00000000000E+00  0.12293129271E+04  0.12293129271E+04  0.25500000920E-02 0. -1.
        2   -1    0    0  501    0  0.00000000000E+00  0.00000000000E+00 -0.39912954869E+03  0.39912954870E+03  0.25500000920E-02 0.  1.
    10030    2    1    2    0    0  0.00000000000E+00  0.00000000000E+00  0.83018337842E+03  0.16284424758E+04  0.14009355643E+04 0.  0.
        4    1    3    3  502    0  0.58347056957E+03  0.37615285264E+03  0.30651722594E+03  0.75886974956E+03  0.12699999809E+01 0. -1.
       -4    1    3    3    0  502 -0.58347056957E+03 -0.37615285264E+03  0.52366615248E+03  0.86957272626E+03  0.12699999809E+01 0.  1.
</event>
<event>
 5   0  0.1794185E-04  0.1399781E+04  0.7818609E-02  0.8953977E-01
        2   -1    0    0  501    0  0.00000000000E+00  0.00000000000E+00  0.38596996193E+03  0.38596996194E+03  0.25500000920E-02 0. -1.
       -2   -1    0    0    0  501  0.00000000000E+00  0.00000000000E+00 -0.12691317705E+04  0.12691317705E+04  0.25500000920E-02 0.  1.
    10030    2    1    2    0    0  0.00000000000E+00  0.00000000000E+00 -0.88316180853E+03  0.16551017324E+04  0.13997810417E+04 0.  0.
        2    1    3    3  502    0  0.56994612185E+03  0.37859400871E+03 -0.26750386432E+03  0.73466340774E+03  0.25500000920E-02 0.  1.
       -2    1    3    3    0  502 -0.56994612185E+03 -0.37859400871E+03 -0.61565794421E+03  0.92043832467E+03  0.25500000920E-02 0. -1.
</event>
<event>
 5   0  0.1766237E-04  0.1397412E+04  0.7818609E-02  0.8955694E-01
        2   -1    0    0  501    0  0.00000000000E+00  0.00000000000E+00  0.66950581378E+03  0.66950581378E+03  0.25500000920E-02 0.  1.
       -2   -1    0    0    0  501  0.00000000000E+00  0.00000000000E+00 -0.72917967274E+03  0.72917967274E+03  0.25500000920E-02 0. -1.
    10030    2    1    2    0    0  0.00000000000E+00  0.00000000000E+00 -0.59673858964E+02  0.13986854865E+04  0.13974119367E+04 0.  0.
        3    1    3    3  502    0 -0.46863201332E+03  0.32791722592E+03  0.37183211660E+03  0.68220583705E+03  0.10100000352E+00 0. -1.
       -3    1    3    3    0  502  0.46863201332E+03 -0.32791722592E+03 -0.43150597556E+03  0.71647964948E+03  0.10100000352E+00 0.  1.
</event>
<event>
 5   0  0.9900839E-05  0.1396168E+04  0.7818609E-02  0.8956597E-01
        1   -1    0    0  501    0  0.00000000000E+00  0.00000000000E+00  0.13740964913E+04  0.13740964913E+04  0.50400001928E-02 0. -1.
       -1   -1    0    0    0  501  0.00000000000E+00  0.00000000000E+00 -0.35464858102E+03  0.35464858106E+03  0.50400001928E-02 0.  1.
    10030    2    1    2    0    0  0.00000000000E+00  0.00000000000E+00  0.10194479103E+04  0.17287450724E+04  0.13961681430E+04 0.  0.
        3    1    3    3  502    0  0.21964263919E+03  0.36648912956E+03 -0.17383377433E+03  0.46127579855E+03  0.10100000352E+00 0.  1.
       -3    1    3    3    0  502 -0.21964263919E+03 -0.36648912956E+03  0.11932816846E+04  0.12674692738E+04  0.10100000352E+00 0. -1.
</event>
<event>
 5   0  0.9828111E-05  0.1405048E+04  0.7818609E-02  0.8950173E-01
       -1   -1    0    0    0  501  0.00000000000E+00  0.00000000000E+00  0.84475907027E+03  0.84475907028E+03  0.50400001928E-02 0.  1.
        1   -1    0    0  501    0  0.00000000000E+00  0.00000000000E+00 -0.58423762053E+03  0.58423762055E+03  0.50400001928E-02 0. -1.
    10030    2    1    2    0    0  0.00000000000E+00  0.00000000000E+00  0.26052144974E+03  0.14289966908E+04  0.14050480834E+04 0.  0.
        4    1    3    3  502    0  0.33610464770E+03  0.25629871896E+03 -0.44044821686E+03  0.61045197369E+03  0.12699999809E+01 0. -1.
       -4    1    3    3    0  502 -0.33610464770E+03 -0.25629871896E+03  0.70096966661E+03  0.81854471714E+03  0.12699999809E+01 0.  1.
</event>
<event>
 5   0  0.1766237E-04  0.1394192E+04  0.7818609E-02  0.8958034E-01
        2   -1    0    0  501    0  0.00000000000E+00  0.00000000000E+00  0.15114680478E+04  0.15114680478E+04  0.25500000920E-02 0.  1.
       -2   -1    0    0    0  501  0.00000000000E+00  0.00000000000E+00 -0.32150375599E+03  0.32150375600E+03  0.25500000920E-02 0. -1.
    10030    2    1    2    0    0  0.00000000000E+00  0.00000000000E+00  0.11899642919E+04  0.18329718038E+04  0.13941917435E+04 0.  0.
        3    1    3    3  502    0 -0.28408816637E+03 -0.24200404815E+03 -0.17910843510E+03  0.41394672038E+03  0.10100000352E+00 0. -1.
       -3    1    3    3    0  502  0.28408816637E+03  0.24200404815E+03  0.13690727269E+04  0.14190250835E+04  0.10100000352E+00 0.  1.
</event>
<event>
 5   0  0.1794185E-04  0.1402010E+04  0.7818609E-02  0.8952365E-01
        2   -1    0    0  501    0  0.00000000000E+00  0.00000000000E+00  0.25548388321E+04  0.25548388321E+04  0.25500000920E-02 0. -1.
       -2   -1    0    0    0  501  0.00000000000E+00  0.00000000000E+00 -0.19234408066E+03  0.19234408068E+03  0.25500000920E-02 0.  1.
    10030    2    1    2    0    0  0.00000000000E+00  0.00000000000E+00  0.23624947514E+04  0.27471829128E+04  0.14020101660E+04 0.  0.
        2    1    3    3  502    0 -0.16330128286E+03 -0.67802537397E+03  0.13201122744E+04  0.14930110964E+04  0.25500000920E-02 0.  1.
       -2    1    3    3    0  502  0.16330128286E+03  0.67802537397E+03  0.10423824770E+04  0.12541718164E+04  0.25500000920E-02 0. -1.
</event>
<event>
 5   0  0.9260916E-05  0.1407397E+04  0.7818609E-02  0.8948481E-01
       -1   -1    0    0    0  501  0.00000000000E+00  0.00000000000E+00  0.26255872932E+03  0.26255872937E+03  0.50400001928E-02 0.  1.
        1   -1    0    0  501    0  0.00000000000E+00  0.00000000000E+00 -0.18860232343E+04  0.18860232343E+04  0.50400001928E-02 0. -1.
    10030    2    1    2    0    0  0.00000000000E+00  0.00000000000E+00 -0.16234645050E+04  0.21485819637E+04  0.14073974051E+04 0.  0.
        1    1    3    3  502    0  0.35781499134E+03  0.33235944040E+03 -0.38257757067E+02  0.48985510271E+03  0.50400001928E-02 0.  1.
       -1    1    3    3    0  502 -0.35781499134E+03 -0.33235944040E+03 -0.15852067479E+04  0.16587268610E+04  0.50400001928E-02 0. -1.
</event>
<event>
 5   0  0.1712327E-04  0.1399383E+04  0.7818609E-02  0.8954266E-01
       -2   -1    0    0    0  501  0.00000000000E+00  0.00000000000E+00  0.45373534996E+03  0.45373534996E+03  0.25500000920E-02 0. -1.
        2   -1    0    0  501    0  0.00000000000E+00  0.00000000000E+00 -0.10789723229E+04  0.10789723229E+04  0.25500000920E-02 0.  1.
    10030    2    1    2    0    0  0.00000000000E+00  0.00000000000E+00 -0.62523697294E+03  0.15327076729E+04  0.13993825560E+04 0.  0.
        1    1    3    3  502    0  0.42968700754E+03  0.14515370429E+02  0.29199498461E+03  0.51971404781E+03  0.50400001928E-02 0. -1.
       -1    1    3    3    0  502 -0.42968700754E+03 -0.14515370429E+02 -0.91723195754E+03  0.10129936251E+04  0.50400001928E-02 0.  1.
</event>
<event>
 5   0  0.9978422E-05  0.1403201E+04  0.7818609E-02  0.8951505E-01
        1   -1    0    0  501    0  0.00000000000E+00  0.00000000000E+00  0.55786998395E+03  0.55786998398E+03  0.50400001928E-02 0.  1.
       -1   -1    0    0    0  501  0.00000000000E+00  0.00000000000E+00 -0.88236138576E+03  0.88236138578E+03  0.50400001928E-02 0. -1.
    10030    2    1    2    0    0  0.00000000000E+00  0.00000000000E+00 -0.32449140181E+03  0.14402313698E+04  0.14032005304E+04 0.  0.
        2    1    3    3  502    0  0.55061456829E+03 -0.34230605279E+03 -0.43745057273E+03  0.78212073248E+03  0.25500000920E-02 0. -1.
       -2    1    3    3    0  502 -0.55061456829E+03  0.34230605279E+03  0.11295917092E+03  0.65811063727E+03  0.25500000920E-02 0.  1.
</event>
<event>
 5   0  0.1780171E-04  0.1399447E+04  0.7818609E-02  0.8954219E-01
       -2   -1    0    0    0  501  0.00000000000E+00  0.00000000000E+00  0.28117720373E+03  0.28117720374E+03  0.25500000920E-02 0. -1.
        2   -1    0    0  501    0  0.00000000000E+00  0.00000000000E+00 -0.17412970524E+04  0.17412970524E+04  0.25500000920E-02 0.  1.
    10030    2    1    2    0    0  0.00000000000E+00  0.00000000000E+00 -0.14601198487E+04  0.20224742562E+04  0.13994470852E+04 0.  0.
        5    1    3    3  502    0  0.12502172199E+03 -0.17851185030E+03  0.23085258605E+03  0.31750892610E+03  0.46999998093E+01 0. -1.
       -5    1    3    3    0  502 -0.12502172199E+03  0.17851185030E+03 -0.16909724347E+04  0.17049653301E+04  0.46999998093E+01 0.  1.
</event>
<event>
 5   0  0.9978422E-05  0.1403209E+04  0.7818609E-02  0.8951499E-01
        1   -1    0    0  501    0  0.00000000000E+00  0.00000000000E+00  0.96683097663E+03  0.96683097664E+03  0.50400001928E-02 0. -1.
       -1   -1    0    0    0  501  0.00000000000E+00  0.00000000000E+00 -0.50913678604E+03  0.50913678607E+03  0.50400001928E-02 0.  1.
    10030    2    1    2    0    0  0.00000000000E+00  0.00000000000E+00  0.45769419059E+03  0.14759677627E+04  0.14032094870E+04 0.  0.
        2    1    3    3  502    0  0.45972242686E+03 -0.47693968890E+03 -0.14294521023E+02  0.66258622831E+03  0.25500000920E-02 0.  1.
       -2    1    3    3    0  502 -0.45972242686E+03  0.47693968890E+03  0.47198871161E+03  0.81338153440E+03  0.25500000920E-02 0. -1.
</event>
<event>
 5   0  0.9900839E-05  0.1401763E+04  0.7818609E-02  0.8952544E-01
       -1   -1    0    0    0  501  0.00000000000E+00  0.00000000000E+00  0.72217699647E+03  0.72217699649E+03  0.50400001928E-02 0.  1.
        1   -1    0    0  501    0  0.00000000000E+00  0.00000000000E+00 -0.68021349385E+03  0.68021349387E+03  0.50400001928E-02 0. -1.
    10030    2    1    2    0    0  0.00000000000E+00  0.00000000000E+00  0.41963502623E+02  0.14023904904E+04  0.14017625162E+04 0.  0.
        3    1    3    3  502    0 -0.94696914261E+01 -0.52973238636E+03  0.48002109892E+03  0.71493100494E+03  0.10100000352E+00 0.  1.
       -3    1    3    3    0  502  0.94696914261E+01  0.52973238636E+03 -0.43805759630E+03  0.68745948542E+03  0.10100000352E+00 0. -1.
</event>
<event>
 5   0  0.6671375E-05  0.1399574E+04  0.7818609E-02  0.8954127E-01
       -1   -1    0    0    0  501  0.00000000000E+00  0.00000000000E+00  0.46531217052E+03  0.46531217055E+03  0.50400001928E-02 0.  1.
        1   -1    0    0  501    0  0.00000000000E+00  0.00000000000E+00 -0.10524156628E+04  0.10524156628E+04  0.50400001928E-02 0. -1.
    10030    2    1    2    0    0  0.00000000000E+00  0.00000000000E+00 -0.58710349224E+03  0.15177278333E+04  0.13995739585E+04 0.  0.
        5    1    3    3  502    0 -0.19436069523E+03 -0.24881032466E+03  0.38366660345E+03  0.49689517014E+03  0.46999998093E+01 0.  1.
       -5    1    3    3    0  502  0.19436069523E+03  0.24881032466E+03 -0.97077009569E+03  0.10208326632E+04  0.46999998093E+01 0. -1.
</event>
<event>
 5   0  0.1712327E-04  0.1399712E+04  0.7818609E-02  0.8954027E-01
       -2   -1    0    0    0  501  0.00000000000E+00  0.00000000000E+00  0.76947885556E+03  0.76947885557E+03  0.25500000920E-02 0.  1.
        2   -1    0    0  501    0  0.00000000000E+00  0.00000000000E+00 -0.63653247373E+03  0.63653247373E+03  0.25500000920E-02 0. -1.
    10030    2    1    2    0    0  0.00000000000E+00  0.00000000000E+00  0.13294638184E+03  0.14060113293E+04  0.13997117981E+04 0.  0.
        1    1    3    3  502    0 -0.62879015662E+03  0.11309577588E+03  0.35346968728E+03  0.73014281852E+03  0.50400001928E-02 0.  1.
       -1    1    3    3    0  502  0.62879015662E+03 -0.11309577588E+03 -0.22052330544E+03  0.67586851078E+03  0.50400001928E-02 0. -1.
</event>
<event>
 5   0  0.9900839E-05  0.1384658E+04  0.7818609E-02  0.8964999E-01
        1   -1    0    0  501    0  0.00000000000E+00  0.00000000000E+00  0.47477292019E+03  0.47477292022E+03  0.50400001928E-02 0. -1.
       -1   -1    0    0    0  501  0.00000000000E+00  0.00000000000E+00 -0.10095760747E+04  0.10095760747E+04  0.50400001928E-02 0.  1.
    10030    2    1    2    0    0  0.00000000000E+00  0.00000000000E+00 -0.53480315453E+03  0.14843489950E+04  0.13846579089E+04 0.  0.
        3    1    3    3  502    0  0.12929366402E+03 -0.10590573344E+03 -0.98762594797E+03  0.10016675592E+04  0.10100000352E+00 0.  1.
       -3    1    3    3    0  502 -0.12929366402E+03  0.10590573344E+03  0.45282279344E+03  0.48268143572E+03  0.10100000352E+00 0. -1.
</event>
<event>
 5   0  0.1794185E-04  0.1397165E+04  0.7818609E-02  0.8955873E-01
        2   -1    0    0  501    0  0.00000000000E+00  0.00000000000E+00  0.78021439858E+03  0.78021439858E+03  0.25500000920E-02 0.  1.
       -2   -1    0    0    0  501  0.00000000000E+00  0.00000000000E+00 -0.62549144001E+03  0.62549144002E+03  0.25500000920E-02 0. -1.
    10030    2    1    2    0    0  0.00000000000E+00  0.00000000000E+00  0.15472295857E+03  0.14057058386E+04  0.13971648832E+04 0.  0.
        2    1    3    3  502    0  0.57019266500E+03 -0.38735048071E+03  0.19144492977E+03  0.71540983448E+03  0.25500000920E-02 0.  1.
       -2    1    3    3    0  502 -0.57019266500E+03  0.38735048071E+03 -0.36721971201E+02  0.69029600412E+03  0.25500000920E-02 0. -1.
</event>
<event>
 5   0  0.9828111E-05  0.1396587E+04  0.7818609E-02  0.8956293E-01
       -1   -1    0    0    0  501  0.00000000000E+00  0.00000000000E+00  0.11323568814E+04  0.11323568814E+04  0.50400001928E-02 0.  1.
        1   -1    0    0  501    0  0.00000000000E+00  0.00000000000E+00 -0.43061839951E+03  0.43061839954E+03  0.50400001928E-02 0. -1.
    10030    2    1    2    0    0  0.00000000000E+00  0.00000000000E+00  0.70173848185E+03  0.15629752809E+04  0.13965868508E+04 0.  0.
        4    1    3    3  502    0  0.69436932357E+03 -0.25975363516E+02  0.42831350541E+03  0.81625826111E+03  0.12699999809E+01 0. -1.
       -4    1    3    3    0  502 -0.69436932357E+03  0.25975363516E+02  0.27342497644E+03  0.74671701980E+03  0.12699999809E+01 0.  1.
</event>
<event>
 5   0  0.6671375E-05  0.1398987E+04  0.7818609E-02  0.8954552E-01
        1   -1    0    0  501    0  0.00000000000E+00  0.00000000000E+00  0.13808526612E+04  0.13808526613E+04  0.50400001928E-02 0. -1.
       -1   -1    0    0    0  501  0.00000000000E+00  0.00000000000E+00 -0.35433969826E+03  0.35433969830E+03  0.50400001928E-02 0.  1.
    10030    2    1    2    0    0  0.00000000000E+00  0.00000000000E+00  0.10265129630E+04  0.17351923596E+04  0.13989866552E+04 0.  0.
        5    1    3    3  502    0  0.12827402287E+03  0.25397533682E+03 -0.27929898063E+03  0.39873262625E+03  0.46999998093E+01 0.  1.
       -5    1    3    3    0  502 -0.12827402287E+03 -0.25397533682E+03  0.13058119436E+04  0.13364597333E+04  0.46999998093E+01 0. -1.
</event>
<event>
 5   0  0.1780171E-04  0.1401629E+04  0.7818609E-02  0.8952640E-01
       -2   -1    0    0    0  501  0.00000000000E+00  0.00000000000E+00  0.34174076385E+03  0.34174076386E+03  0.25500000920E-02 0.  1.
        2   -1    0    0  501    0  0.00000000000E+00  0.00000000000E+00 -0.14371748394E+04  0.14371748394E+04  0.25500000920E-02 0. -1.
    10030    2    1    2    0    0  0.00000000000E+00  0.00000000000E+00 -0.10954340755E+04  0.17789156032E+04  0.14016293767E+04 0.  0.
        5    1    3    3  502    0  0.34671835104E+03  0.59546118823E+03 -0.70991116850E+03  0.98933492751E+03  0.46999998093E+01 0.  1.
       -5    1    3    3    0  502 -0.34671835104E+03 -0.59546118823E+03 -0.38552290703E+03  0.78958067572E+03  0.46999998093E+01 0. -1.
</event>
<event>
 5   0  0.6671375E-05  0.1400854E+04  0.7818609E-02  0.8953201E-01
        1   -1    0    0  501    0  0.00000000000E+00  0.00000000000E+00  0.10857961550E+04  0.10857961550E+04  0.50400001928E-02 0.  1.
       -1   -1    0    0    0  501  0.00000000000E+00  0.00000000000E+00 -0.45183233415E+03  0.45183233417E+03  0.50400001928E-02 0. -1.
    10030    2    1    2    0    0  0.00000000000E+00  0.00000000000E+00  0.63396382083E+03  0.15376284892E+04  0.14008537556E+04 0.  0.
        5    1    3    3  502    0  0.51607468844E+02  0.26893888475E+03  0.10245824688E+04  0.10605577683E+04  0.46999998093E+01 0.  1.
       -5    1    3    3    0  502 -0.51607468844E+02 -0.26893888475E+03 -0.39061864795E+03  0.47707072086E+03  0.46999998093E+01 0. -1.
</event>
<event>
 5   0  0.9978422E-05  0.1397014E+04  0.7818609E-02  0.8955983E-01
       -1   -1    0    0    0  501  0.00000000000E+00  0.00000000000E+00  0.48332359611E+03  0.48332359613E+03  0.50400001928E-02 0.  1.
        1   -1    0    0  501    0  0.00000000000E+00  0.00000000000E+00 -0.10094931518E+04  0.10094931518E+04  0.50400001928E-02 0. -1.
    10030    2    1    2    0    0  0.00000000000E+00  0.00000000000E+00 -0.52616955571E+03  0.14928167480E+04  0.13970137586E+04 0.  0.
        2    1    3    3  502    0  0.67691998518E+01  0.28967785203E+03  0.41607368440E+03  0.50702701198E+03  0.25500000920E-02 0.  1.
       -2    1    3    3    0  502 -0.67691998518E+01 -0.28967785203E+03 -0.94224324011E+03  0.98578973598E+03  0.25500000920E-02 0. -1.
</event>
<event>
 5   0  0.1712327E-04  0.1399103E+04  0.7818609E-02  0.8954468E-01
       -2   -1    0    0    0  501  0.00000000000E+00  0.00000000000E+00  0.18922968337E+04  0.18922968337E+04  0.25500000920E-02 0. -1.
        2   -1    0    0  501    0  0.00000000000E+00  0.00000000000E+00 -0.25861291109E+03  0.25861291110E+03  0.25500000920E-02 0.  1.
    10030    2    1    2    0    0  0.00000000000E+00  0.00000000000E+00  0.16336839226E+04  0.21509097448E+04  0.13991031310E+04 0.  0.
        1    1    3    3  502    0  0.13232975030E+03  0.68301934330E+03  0.92924526673E+03  0.11608287350E+04  0.50400001928E-02 0.  1.
       -1    1    3    3    0  502 -0.13232975030E+03 -0.68301934330E+03  0.70443865592E+03  0.99008100987E+03  0.50400001928E-02 0. -1.
</event>
<event>
 5   0  0.9828111E-05  0.1408170E+04  0.7818609E-02  0.8947926E-01
       -1   -1    0    0    0  501  0.00000000000E+00  0.00000000000E+00  0.55179751581E+03  0.55179751584E+03  0.50400001928E-02 0. -1.
        1   -1    0    0  501    0  0.00000000000E+00  0.00000000000E+00 -0.89840166364E+03  0.89840166365E+03  0.50400001928E-02 0.  1.
    10030    2    1    2    0    0  0.00000000000E+00  0.00000000000E+00 -0.34660414783E+03  0.14501991795E+04  0.14081701690E+04 0.  0.
        4    1    3    3  502    0  0.26035362672E+03  0.37024820223E+03 -0.72871928223E+03  0.85784680881E+03  0.12699999809E+01 0.  1.
       -4    1    3    3    0  502 -0.26035362672E+03 -0.37024820223E+03  0.38211513440E+03  0.59235237067E+03  0.12699999809E+01 0. -1.
</event>
<event>
 5   0  0.1712327E-04  0.1393735E+04  0.7818609E-02  0.8958366E-01
        2   -1    0    0  501    0  0.00000000000E+00  0.00000000000E+00  0.75106656044E+03  0.75106656044E+03  0.25500000920E-02 0. -1.
       -2   -1    0    0    0  501  0.00000000000E+00  0.00000000000E+00 -0.64657925901E+03  0.64657925902E+03  0.25500000920E-02 0.  1.
    10030    2    1    2    0    0  0.00000000000E+00  0.00000000000E+00  0.10448730142E+03  0.13976458195E+04  0.13937346378E+04 0.  0.
        1    1    3    3  502    0 -0.52871849164E+03  0.29137771915E+03  0.40132948551E+03  0.72492039189E+03  0.50400001928E-02 0. -1.
       -1    1    3    3    0  502  0.52871849164E+03 -0.29137771915E+03 -0.29684218409E+03  0.67272542757E+03  0.50400001928E-02 0.  1.
</event>
<event>
 5   0  0.1712327E-04  0.1401356E+04  0.7818609E-02  0.8952838E-01
        2   -1    0    0  501    0  0.00000000000E+00  0.00000000000E+00  0.21560929730E+04  0.21560929730E+04  0.25500000920E-02 0. -1.
       -2   -1    0    0    0  501  0.00000000000E+00  0.00000000000E+00 -0.22770336968E+03  0.22770336969E+03  0.25500000920E-02 0.  1.
    10030    2    1    2    0    0  0.00000000000E+00  0.00000000000E+00  0.19283896033E+04  0.23837963427E+04  0.14013559652E+04 0.  0.
        1    1    3    3  502    0  0.94693679563E+02  0.67979026550E+03  0.72442357086E+03  0.99793346875E+03  0.50400001928E-02 0. -1.
       -1    1    3    3    0  502 -0.94693679563E+02 -0.67979026550E+03  0.12039660324E+04  0.13858628739E+04  0.50400001928E-02 0.  1.
</event>
<event>
 5   0  0.9828111E-05  0.1395197E+04  0.7818609E-02  0.8957302E-01
       -1   -1    0    0    0  501  0.00000000000E+00  0.00000000000E+00  0.45165777256E+03  0.45165777259E+03  0.50400001928E-02 0. -1.
        1   -1    0    0  501    0  0.00000000000E+00  0.00000000000E+00 -0.10774615590E+04  0.10774615590E+04  0.50400001928E-02 0.  1.
    10030    2    1    2    0    0  0.00000000000E+00  0.00000000000E+00 -0.62580378641E+03  0.15291193316E+04  0.13951973162E+04 0.  0.
        4    1    3    3  502    0 -0.20496646072E+03  0.63580635368E+03 -0.53314175414E+03  0.85469451403E+03  0.12699999809E+01 0.  1.
       -4    1    3    3    0  502  0.20496646072E+03 -0.63580635368E+03 -0.92662032269E+02  0.67442481755E+03  0.12699999809E+01 0. -1.
</event>
<event>
 5   0  0.9900839E-05  0.1387034E+04  0.7818609E-02  0.8963258E-01
       -1   -1    0    0    0  501  0.00000000000E+00  0.00000000000E+00  0.39216099541E+03  0.39216099544E+03  0.50400001928E-02 0.  1.
        1   -1    0    0  501    0  0.00000000000E+00  0.00000000000E+00 -0.12264491325E+04  0.12264491325E+04  0.50400001928E-02 0. -1.
    10030    2    1    2    0    0  0.00000000000E+00  0.00000000000E+00 -0.83428813710E+03  0.16186101280E+04  0.13870335434E+04 0.  0.
        3    1    3    3  502    0 -0.20390016644E+02 -0.33488889766E+03  0.29115164662E+03  0.44422473826E+03  0.10100000352E+00 0.  1.
       -3    1    3    3    0  502  0.20390016644E+02  0.33488889766E+03 -0.11254397837E+04  0.11743853897E+04  0.10100000352E+00 0. -1.
</event>
<event>
 5   0  0.6671375E-05  0.1399592E+04  0.7818609E-02  0.8954114E-01
        3   -1    0    0  501    0  0.00000000000E+00  0.00000000000E+00  0.52016323904E+03  0.52016324884E+03  0.10100000352E+00 0.  1.
       -3   -1    0    0    0  501  0.00000000000E+00  0.00000000000E+00 -0.94146298063E+03  0.94146298605E+03  0.10100000352E+00 0. -1.
    10030    2    1    2    0    0  0.00000000000E+00  0.00000000000E+00 -0.42129974159E+03  0.14616262349E+04  0.13995920042E+04 0.  0.
        2    1    3    3  502    0 -0.33519536626E+03  0.22356596343E+03 -0.80817862241E+03  0.90304504832E+03  0.25500000920E-02 0. -1.
       -2    1    3    3    0  502  0.33519536626E+03 -0.22356596343E+03  0.38687888081E+03  0.55858118657E+03  0.25500000920E-02 0.  1.
</event>
<event>
 5   0  0.1833681E-04  0.1398817E+04  0.7818609E-02  0.8954675E-01
        2   -1    0    0  501    0  0.00000000000E+00  0.00000000000E+00  0.10856143444E+04  0.10856143444E+04  0.25500000920E-02 0. -1.
       -2   -1    0    0    0  501  0.00000000000E+00  0.00000000000E+00 -0.45059483221E+03  0.45059483222E+03  0.25500000920E-02 0.  1.
    10030    2    1    2    0    0  0.00000000000E+00  0.00000000000E+00  0.63501951217E+03  0.15362091766E+04  0.13988169478E+04 0.  0.
        4    1    3    3  502    0 -0.47815915299E+03  0.30415806240E+03 -0.13265649157E+03  0.58202032625E+03  0.12699999809E+01 0.  1.
       -4    1    3    3    0  502  0.47815915299E+03 -0.30415806240E+03  0.76767600374E+03  0.95418885035E+03  0.12699999809E+01 0. -1.
</event>
<event>
 5   0  0.9828111E-05  0.1400874E+04  0.7818609E-02  0.8953186E-01
        1   -1    0    0  501    0  0.00000000000E+00  0.00000000000E+00  0.41715794632E+03  0.41715794635E+03  0.50400001928E-02 0.  1.
       -1   -1    0    0    0  501  0.00000000000E+00  0.00000000000E+00 -0.11760812830E+04  0.11760812830E+04  0.50400001928E-02 0. -1.
    10030    2    1    2    0    0  0.00000000000E+00  0.00000000000E+00 -0.75892333669E+03  0.15932392294E+04  0.14008735171E+04 0.  0.
        4    1    3    3  502    0 -0.29411786444E+03  0.63569163808E+03 -0.38051818307E+03  0.79712287475E+03  0.12699999809E+01 0.  1.
       -4    1    3    3    0  502  0.29411786444E+03 -0.63569163808E+03 -0.37840515362E+03  0.79611635462E+03  0.12699999809E+01 0. -1.
</event>
<event>
 5   0  0.9260916E-05  0.1396948E+04  0.7818609E-02  0.8956031E-01
        1   -1    0    0  501    0  0.00000000000E+00  0.00000000000E+00  0.50274919880E+03  0.50274919882E+03  0.50400001928E-02 0.  1.
       -1   -1    0    0    0  501  0.00000000000E+00  0.00000000000E+00 -0.97039571767E+03  0.97039571768E+03  0.50400001928E-02 0. -1.
    10030    2    1    2    0    0  0.00000000000E+00  0.00000000000E+00 -0.46764651887E+03  0.14731449165E+04  0.13969476291E+04 0.  0.
        1    1    3    3  502    0  0.68835504436E+03 -0.59867363430E+02 -0.34161876645E+03  0.77079189793E+03  0.50400001928E-02 0.  1.
       -1    1    3    3    0  502 -0.68835504436E+03  0.59867363430E+02 -0.12602775242E+03  0.70235301858E+03  0.50400001928E-02 0. -1.
</event>
<event>
 5   0  0.6671375E-05  0.1402861E+04  0.7818609E-02  0.8951750E-01
        1   -1    0    0  501    0  0.00000000000E+00  0.00000000000E+00  0.14022949868E+04  0.14022949868E+04  0.50400001928E-02 0. -1.
       -1   -1    0    0    0  501  0.00000000000E+00  0.00000000000E+00 -0.35085676354E+03  0.35085676358E+03  0.50400001928E-02 0.  1.
    10030    2    1    2    0    0  0.00000000000E+00  0.00000000000E+00  0.10514382233E+04  0.17531517504E+04  0.14028609063E+04 0.  0.
        5    1    3    3  502    0 -0.31979272761E+03 -0.59800736296E+03  0.74962917851E+03  0.10108640809E+04  0.46999998093E+01 0. -1.
       -5    1    3    3    0  502  0.31979272761E+03  0.59800736296E+03  0.30180904475E+03  0.74228766949E+03  0.46999998093E+01 0.  1.
</event>
<event>
 5   0  0.1833681E-04  0.1399588E+04  0.7818609E-02  0.8954117E-01
       -2   -1    0    0    0  501  0.00000000000E+00  0.00000000000E+00  0.11374455354E+04  0.11374455354E+04  0.25500000920E-02 0.  1.
        2   -1    0    0  501    0  0.00000000000E+00  0.00000000000E+00 -0.43053635663E+03  0.43053635663E+03  0.25500000920E-02 0. -1.
    10030    2    1    2    0    0  0.00000000000E+00  0.00000000000E+00  0.70690917879E+03  0.15679818920E+04  0.13995880204E+04 0.  0.
        4    1    3    3  502    0  0.63654188355E+03  0.43236271330E+02  0.31365768258E+02  0.63878037618E+03  0.12699999809E+01 0. -1.
       -4    1    3    3    0  502 -0.63654188355E+03 -0.43236271330E+02  0.67554341053E+03  0.92920151587E+03  0.12699999809E+01 0.  1.
</event>
<event>
 5   0  0.1794185E-04  0.1404159E+04  0.7818609E-02  0.8950814E-01
       -2   -1    0    0    0  501  0.00000000000E+00  0.00000000000E+00  0.29538268908E+03  0.29538268909E+03  0.25500000920E-02 0.  1.
        2   -1    0    0  501    0  0.00000000000E+00  0.00000000000E+00 -0.16687345086E+04  0.16687345086E+04  0.25500000920E-02 0. -1.
    10030    2    1    2    0    0  0.00000000000E+00  0.00000000000E+00 -0.13733518195E+04  0.19641171977E+04  0.14041585188E+04 0.  0.
        2    1    3    3  502    0  0.85243471355E+02 -0.57909350920E+03 -0.12289640314E+04  0.13612377942E+04  0.25500000920E-02 0. -1.
       -2    1    3    3    0  502 -0.85243471355E+02  0.57909350920E+03 -0.14438778811E+03  0.60287940350E+03  0.25500000920E-02 0.  1.
</event>
<event>
 5   0  0.6671375E-05  0.1402198E+04  0.7818609E-02  0.8952229E-01
       -1   -1    0    0    0  501  0.00000000000E+00  0.00000000000E+00  0.66136854283E+03  0.66136854285E+03  0.50400001928E-02 0.  1.
        1   -1    0    0  501    0  0.00000000000E+00  0.00000000000E+00 -0.74321669382E+03  0.74321669383E+03  0.50400001928E-02 0. -1.
    10030    2    1    2    0    0  0.00000000000E+00  0.00000000000E+00 -0.81848150985E+02  0.14045852367E+04  0.14021984764E+04 0.  0.
        5    1    3    3  502    0 -0.25888896488E+02  0.67387951135E+03  0.15106389863E+03  0.69110507323E+03  0.46999998093E+01 0.  1.
       -5    1    3    3    0  502  0.25888896488E+02 -0.67387951135E+03 -0.23291204962E+03  0.71348016345E+03  0.46999998093E+01 0. -1.
</event>
<event>
 5   0  0.9260916E-05  0.1409707E+04  0.7818609E-02  0.8946822E-01
        1   -1    0    0  501    0  0.00000000000E+00  0.00000000000E+00  0.92209008053E+03  0.92209008055E+03  0.50400001928E-02 0.  1.
       -1   -1    0    0    0  501  0.00000000000E+00  0.00000000000E+00 -0.53879580900E+03  0.53879580902E+03  0.50400001928E-02 0. -1.
    10030    2    1    2    0    0  0.00000000000E+00  0.00000000000E+00  0.38329427154E+03  0.14608858896E+04  0.14097067368E+04 0.  0.
        1    1    3    3  502    0  0.36975017036E+03 -0.20250483191E+03 -0.39374574165E+03  0.57685275809E+03  0.50400001928E-02 0. -1.
       -1    1    3    3    0  502 -0.36975017036E+03  0.20250483191E+03  0.77704001318E+03  0.88403313147E+03  0.50400001928E-02 0.  1.
</event>
<event>
 5   0  0.1766237E-04  0.1386818E+04  0.7818609E-02  0.8963416E-01
       -2   -1    0    0    0  501  0.00000000000E+00  0.00000000000E+00  0.43949080861E+03  0.43949080861E+03  0.25500000920E-02 0. -1.
        2   -1    0    0  501    0  0.00000000000E+00  0.00000000000E+00 -0.10940290921E+04  0.10940290921E+04  0.25500000920E-02 0.  1.
    10030    2    1    2    0    0  0.00000000000E+00  0.00000000000E+00 -0.65453828346E+03  0.15335199007E+04  0.13868175516E+04 0.  0.
        3    1    3    3  502    0 -0.44045973849E+03  0.35512625865E+03 -0.77054389579E+03  0.95595886227E+03  0.10100000352E+00 0.  1.
       -3    1    3    3    0  502  0.44045973849E+03 -0.35512625865E+03  0.11600561232E+03  0.57756103842E+03  0.10100000352E+00 0. -1.
</event>
<event>
 5   0  0.1833681E-04  0.1400513E+04  0.7818609E-02  0.8953448E-01
       -2   -1    0    0    0  501  0.00000000000E+00  0.00000000000E+00  0.71932570170E+03  0.71932570170E+03  0.25500000920E-02 0.  1.
        2   -1    0    0  501    0  0.00000000000E+00  0.00000000000E+00 -0.68169238159E+03  0.68169238159E+03  0.25500000920E-02 0. -1.
    10030    2    1    2    0    0  0.00000000000E+00  0.00000000000E+00  0.37633320111E+02  0.14010180833E+04  0.14005125501E+04 0.  0.
        4    1    3    3  502    0  0.10934839578E+03 -0.40731435180E+03 -0.54039781053E+03  0.68548775289E+03  0.12699999809E+01 0. -1.
       -4    1    3    3    0  502 -0.10934839578E+03  0.40731435180E+03  0.57803113064E+03  0.71553033040E+03  0.12699999809E+01 0.  1.
</event>
<event>
 5   0  0.1833681E-04  0.1400619E+04  0.7818609E-02  0.8953370E-01
       -2   -1    0    0    0  501  0.00000000000E+00  0.00000000000E+00  0.46551224934E+03  0.46551224935E+03  0.25500000920E-02 0. -1.
        2   -1    0    0  501    0  0.00000000000E+00  0.00000000000E+00 -0.10535351542E+04  0.10535351542E+04  0.25500000920E-02 0.  1.
    10030    2    1    2    0    0  0.00000000000E+00  0.00000000000E+00 -0.58802290490E+03  0.15190474036E+04  0.14006191765E+04 0.  0.
        4    1    3    3  502    0  0.12941123247E+02  0.48018537372E+03 -0.84669418419E+03  0.97346706172E+03  0.12699999809E+01 0.  1.
       -4    1    3    3    0  502 -0.12941123247E+02 -0.48018537372E+03  0.25867127930E+03  0.54558034187E+03  0.12699999809E+01 0. -1.
</event>
<event>
 5   0  0.9900839E-05  0.1401299E+04  0.7818609E-02  0.8952879E-01
       -1   -1    0    0    0  501  0.00000000000E+00  0.00000000000E+00  0.45737690118E+03  0.45737690121E+03  0.50400001928E-02 0.  1.
        1   -1    0    0  501    0  0.00000000000E+00  0.00000000000E+00 -0.10733156259E+04  0.10733156259E+04  0.50400001928E-02 0. -1.
    10030    2    1    2    0    0  0.00000000000E+00  0.00000000000E+00 -0.61593872474E+03  0.15306925272E+04  0.14012990759E+04 0.  0.
        3    1    3    3  502    0  0.15757877126E+03  0.47603821213E+03  0.22656957145E+03  0.55025196908E+03  0.10100000352E+00 0.  1.
       -3    1    3    3    0  502 -0.15757877126E+03 -0.47603821213E+03 -0.84250829620E+03  0.98044055808E+03  0.10100000352E+00 0. -1.
</event>
<event>
 5   0  0.9900839E-05  0.1401249E+04  0.7818609E-02  0.8952915E-01
        1   -1    0    0  501    0  0.00000000000E+00  0.00000000000E+00  0.51387645292E+03  0.51387645294E+03  0.50400001928E-02 0.  1.
       -1   -1    0    0    0  501  0.00000000000E+00  0.00000000000E+00 -0.95523826215E+03  0.95523826216E+03  0.50400001928E-02 0. -1.
    10030    2    1    2    0    0  0.00000000000E+00  0.00000000000E+00 -0.44136180923E+03  0.14691147151E+04  0.14012486573E+04 0.  0.
        3    1    3    3  502    0 -0.25630741172E+03 -0.45972471285E+03  0.26413741309E+03  0.58890481753E+03  0.10100000352E+00 0.  1.
       -3    1    3    3    0  502  0.25630741172E+03  0.45972471285E+03 -0.70549922232E+03  0.88020989758E+03  0.10100000352E+00 0. -1.
</event>
<event>
 5   0  0.9260916E-05  0.1395238E+04  0.7818609E-02  0.8957273E-01
        1   -1    0    0  501    0  0.00000000000E+00  0.00000000000E+00  0.11356825675E+04  0.11356825675E+04  0.50400001928E-02 0. -1.
       -1   -1    0    0    0  501  0.00000000000E+00  0.00000000000E+00 -0.42852843631E+03  0.42852843634E+03  0.50400001928E-02 0.  1.
    10030    2    1    2    0    0  0.00000000000E+00  0.00000000000E+00  0.70715413118E+03  0.15642110039E+04  0.13952380081E+04 0.  0.
        1    1    3    3  502    0 -0.49784216081E+03  0.19791555366E+03 -0.14736443851E+03  0.55563806676E+03  0.50400001928E-02 0.  1.
       -1    1    3    3    0  502  0.49784216081E+03 -0.19791555366E+03  0.85451856969E+03  0.10085729371E+04  0.50400001928E-02 0. -1.
</event>
<event>
 5   0  0.9978422E-05  0.1401859E+04  0.7818609E-02  0.8952474E-01
        1   -1    0    0  501    0  0.00000000000E+00  0.00000000000E+00  0.67226263880E+03  0.67226263882E+03  0.50400001928E-02 0. -1.
       -1   -1    0    0    0  501  0.00000000000E+00  0.00000000000E+00 -0.73081897284E+03  0.73081897286E+03  0.50400001928E-02 0.  1.
    10030    2    1    2    0    0  0.00000000000E+00  0.00000000000E+00 -0.58556334045E+02  0.14030816117E+04  0.14018591815E+04 0.  0.
        2    1    3    3  502    0 -0.18584996356E+02 -0.55731792982E+02  0.66979410781E+03  0.67236566071E+03  0.25500000920E-02 0. -1.
       -2    1    3    3    0  502  0.18584996356E+02  0.55731792982E+02 -0.72835044185E+03  0.73071595096E+03  0.25500000920E-02 0.  1.
</event>
<event>
 5   0  0.1766237E-04  0.1400964E+04  0.7818609E-02  0.8953121E-01
       -2   -1    0    0    0  501  0.00000000000E+00  0.00000000000E+00  0.33265389184E+03  0.33265389185E+03  0.25500000920E-02 0. -1.
        2   -1    0    0  501    0  0.00000000000E+00  0.00000000000E+00 -0.14750323423E+04  0.14750323423E+04  0.25500000920E-02 0.  1.
    10030    2    1    2    0    0  0.00000000000E+00  0.00000000000E+00 -0.11423784505E+04  0.18076862342E+04  0.14009643097E+04 0.  0.
        3    1    3    3  502    0  0.58217727908E+03 -0.88525140158E+02 -0.10606734288E+04  0.12131756746E+04  0.10100000352E+00 0.  1.
       -3    1    3    3    0  502 -0.58217727908E+03  0.88525140158E+02 -0.81705021743E+02  0.59451055962E+03  0.10100000352E+00 0. -1.
</event>
<event>
 5   0  0.1766237E-04  0.1400038E+04  0.7818609E-02  0.8953791E-01
       -2   -1    0    0    0  501  0.00000000000E+00  0.00000000000E+00  0.78168209575E+03  0.78168209576E+03  0.25500000920E-02 0.  1.
        2   -1    0    0  501    0  0.00000000000E+00  0.00000000000E+00 -0.62688755051E+03  0.62688755052E+03  0.25500000920E-02 0. -1.
    10030    2    1    2    0    0  0.00000000000E+00  0.00000000000E+00  0.15479454524E+03  0.14085696463E+04  0.14000382485E+04 0.  0.
        3    1    3    3  502    0 -0.40483680801E+03  0.75916301683E+02 -0.49206476525E+03  0.64170387982E+03  0.10100000352E+00 0. -1.
       -3    1    3    3    0  502  0.40483680801E+03 -0.75916301683E+02  0.64685931049E+03  0.76686576645E+03  0.10100000352E+00 0.  1.
</event>
<event>
 5   0  0.6671375E-05  0.1400896E+04  0.7818609E-02  0.8953170E-01
       -3   -1    0    0    0  501  0.00000000000E+00  0.00000000000E+00  0.61567021154E+03  0.61567021982E+03  0.10100000352E+00 0. -1.
        3   -1    0    0  501    0  0.00000000000E+00  0.00000000000E+00 -0.79689955042E+03  0.79689955682E+03  0.10100000352E+00 0.  1.
    10030    2    1    2    0    0  0.00000000000E+00  0.00000000000E+00 -0.18122933888E+03  0.14125697766E+04  0.14008958921E+04 0.  0.
        4    1    3    3  502    0  0.23268611954E+03 -0.38672197792E+03 -0.63073592151E+03  0.77558115888E+03  0.12699999809E+01 0.  1.
       -4    1    3    3    0  502 -0.23268611954E+03  0.38672197792E+03  0.44950658263E+03  0.63698861776E+03  0.12699999809E+01 0. -1.
</event>
<event>
 5   0  0.9900839E-05  0.1398658E+04  0.7818609E-02  0.8954790E-01
        1   -1    0    0  501    0  0.00000000000E+00  0.00000000000E+00  0.10398121297E+04  0.10398121297E+04  0.50400001928E-02 0.  1.
       -1   -1    0    0    0  501  0.00000000000E+00  0.00000000000E+00 -0.47033600430E+03  0.47033600433E+03  0.50400001928E-02 0. -1.
    10030    2    1    2    0    0  0.00000000000E+00  0.00000000000E+00  0.56947612542E+03  0.15101481341E+04  0.13986580459E+04 0.  0.
        3    1    3    3  502    0  0.49475620939E+03 -0.76011310633E+02 -0.24255477442E+03  0.55623219511E+03  0.10100000352E+00 0. -1.
       -3    1    3    3    0  502 -0.49475620939E+03  0.76011310633E+02  0.81203089985E+03  0.95391593895E+03  0.10100000352E+00 0.  1.
</event>
<event>
 5   0  0.1794185E-04  0.1398487E+04  0.7818609E-02  0.8954915E-01
        2   -1    0    0  501    0  0.00000000000E+00  0.00000000000E+00  0.68707003467E+03  0.68707003468E+03  0.25500000920E-02 0. -1.
       -2   -1    0    0    0  501  0.00000000000E+00  0.00000000000E+00 -0.71163244473E+03  0.71163244473E+03  0.25500000920E-02 0.  1.
    10030    2    1    2    0    0  0.00000000000E+00  0.00000000000E+00 -0.24562410052E+02  0.13987024794E+04  0.13984867943E+04 0.  0.
        2    1    3    3  502    0 -0.58048667609E+03 -0.37392640034E+03  0.97988211502E+02  0.69741481458E+03  0.25500000920E-02 0.  1.
       -2    1    3    3    0  502  0.58048667609E+03  0.37392640034E+03 -0.12255062155E+03  0.70128766483E+03  0.25500000920E-02 0. -1.
</event>
<event>
 5   0  0.1712327E-04  0.1394149E+04  0.7818609E-02  0.8958065E-01
       -2   -1    0    0    0  501  0.00000000000E+00  0.00000000000E+00  0.59555258112E+03  0.59555258112E+03  0.25500000920E-02 0.  1.
        2   -1    0    0  501    0  0.00000000000E+00  0.00000000000E+00 -0.81590280258E+03  0.81590280258E+03  0.25500000920E-02 0. -1.
    10030    2    1    2    0    0  0.00000000000E+00  0.00000000000E+00 -0.22035022146E+03  0.14114553837E+04  0.13941492316E+04 0.  0.
        1    1    3    3  502    0  0.19524172127E+03  0.25598148930E+03  0.51577740626E+03  0.60800673139E+03  0.50400001928E-02 0.  1.
       -1    1    3    3    0  502 -0.19524172127E+03 -0.25598148930E+03 -0.73612762772E+03  0.80344865231E+03  0.50400001928E-02 0. -1.
</event>
<event>
 5   0  0.1833681E-04  0.1399866E+04  0.7818609E-02  0.8953916E-01
       -2   -1    0    0    0  501  0.00000000000E+00  0.00000000000E+00  0.57780680356E+03  0.57780680357E+03  0.25500000920E-02 0. -1.
        2   -1    0    0  501    0  0.00000000000E+00  0.00000000000E+00 -0.84787143300E+03  0.84787143300E+03  0.25500000920E-02 0.  1.
    10030    2    1    2    0    0  0.00000000000E+00  0.00000000000E+00 -0.27006462944E+03  0.14256782366E+04  0.13998655400E+04 0.  0.
        4    1    3    3  502    0 -0.15596900088E+03  0.94197199775E+02 -0.82329305704E+03  0.84321557881E+03  0.12699999809E+01 0.  1.
       -4    1    3    3    0  502  0.15596900088E+03 -0.94197199775E+02  0.55322842760E+03  0.58246265776E+03  0.12699999809E+01 0. -1.
</event>
<event>
 5   0  0.6671375E-05  0.1397818E+04  0.7818609E-02  0.8955400E-01
       -3   -1    0    0    0  501  0.00000000000E+00  0.00000000000E+00  0.87509962049E+03  0.87509962632E+03  0.10100000352E+00 0. -1.
        3   -1    0    0  501    0  0.00000000000E+00  0.00000000000E+00 -0.55819195966E+03  0.55819196879E+03  0.10100000352E+00 0.  1.
    10030    2    1    2    0    0  0.00000000000E+00  0.00000000000E+00  0.31690766083E+03  0.14332915951E+04  0.13978177031E+04 0.  0.
        4    1    3    3  502    0 -0.57461814908E+02 -0.14513786266E+03 -0.54008763845E+03  0.56219492123E+03  0.12699999809E+01 0.  1.
       -4    1    3    3    0  502  0.57461814908E+02  0.14513786266E+03  0.85699529928E+03  0.87109667388E+03  0.12699999809E+01 0. -1.
</event>
<event>
 5   0  0.6671375E-05  0.1400140E+04  0.7818609E-02  0.8953717E-01
        1   -1    0    0  501    0  0.00000000000E+00  0.00000000000E+00  0.20294521092E+04  0.20294521092E+04  0.50400001928E-02 0. -1.
       -1   -1    0    0    0  501  0.00000000000E+00  0.00000000000E+00 -0.24149269870E+03  0.24149269875E+03  0.50400001928E-02 0.  1.
    10030    2    1    2    0    0  0.00000000000E+00  0.00000000000E+00  0.17879594105E+04  0.22709448080E+04  0.14001398027E+04 0.  0.
        5    1    3    3  502    0  0.23902043312E+03 -0.34390618264E+03 -0.15860858779E+02  0.41913707393E+03  0.46999998093E+01 0.  1.
       -5    1    3    3    0  502 -0.23902043312E+03  0.34390618264E+03  0.18038202693E+04  0.18518077340E+04  0.46999998093E+01 0. -1.
</event>
<event>
 5   0  0.1712327E-04  0.1400889E+04  0.7818609E-02  0.8953175E-01
       -2   -1    0    0    0  501  0.00000000000E+00  0.00000000000E+00  0.76752019595E+03  0.76752019596E+03  0.25500000920E-02 0.  1.
        2   -1    0    0  501    0  0.00000000000E+00  0.00000000000E+00 -0.63923052653E+03  0.63923052653E+03  0.25500000920E-02 0. -1.
    10030    2    1    2    0    0  0.00000000000E+00  0.00000000000E+00  0.12828966943E+03  0.14067507225E+04  0.14008887736E+04 0.  0.
        1    1    3    3  502    0 -0.31532145688E+03 -0.43788782645E+03  0.51261069736E+03  0.74427353627E+03  0.50400001928E-02 0.  1.
       -1    1    3    3    0  502  0.31532145688E+03  0.43788782645E+03 -0.38432102793E+03  0.66247718622E+03  0.50400001928E-02 0. -1.
</event>
<event>
 5   0  0.1766237E-04  0.1401214E+04  0.7818609E-02  0.8952940E-01
        2   -1    0    0  501    0  0.00000000000E+00  0.00000000000E+00  0.12480330441E+04  0.12480330441E+04  0.25500000920E-02 0.  1.
       -2   -1    0    0    0  501  0.00000000000E+00  0.00000000000E+00 -0.39329895158E+03  0.39329895159E+03  0.25500000920E-02 0. -1.
    10030    2    1    2    0    0  0.00000000000E+00  0.00000000000E+00  0.85473409249E+03  0.16413319957E+04  0.14012138849E+04 0.  0.
        3    1    3    3  502    0 -0.20982393493E+03 -0.62352453902E+03  0.70956897791E+03  0.96762445145E+03  0.10100000352E+00 0.  1.
       -3    1    3    3    0  502  0.20982393493E+03  0.62352453902E+03  0.14516511458E+03  0.67370754421E+03  0.10100000352E+00 0. -1.
</event>
<event>
 5   0  0.9828111E-05  0.1401314E+04  0.7818609E-02  0.8952868E-01
       -1   -1    0    0    0  501  0.00000000000E+00  0.00000000000E+00  0.42088843432E+03  0.42088843436E+03  0.50400001928E-02 0. -1.
        1   -1    0    0  501    0  0.00000000000E+00  0.00000000000E+00 -0.11663900694E+04  0.11663900694E+04  0.50400001928E-02 0.  1.
    10030    2    1    2    0    0  0.00000000000E+00  0.00000000000E+00 -0.74550163508E+03  0.15872785038E+04  0.14013137981E+04 0.  0.
        4    1    3    3  502    0 -0.24054289388E+03  0.20960599593E+03  0.33382886044E+03  0.46177795345E+03  0.12699999809E+01 0. -1.
       -4    1    3    3    0  502  0.24054289388E+03 -0.20960599593E+03 -0.10793304955E+04  0.11255005503E+04  0.12699999809E+01 0.  1.
</event>
<event>
 5   0  0.6671375E-05  0.1398356E+04  0.7818609E-02  0.8955009E-01
        3   -1    0    0  501    0  0.00000000000E+00  0.00000000000E+00  0.66384730755E+03  0.66384731523E+03  0.10100000352E+00 0. -1.
       -3   -1    0    0    0  501  0.00000000000E+00  0.00000000000E+00 -0.73638906913E+03  0.73638907606E+03  0.10100000352E+00 0.  1.
    10030    2    1    2    0    0  0.00000000000E+00  0.00000000000E+00 -0.72541761584E+02  0.14002363913E+04  0.13983560506E+04 0.  0.
        5    1    3    3  502    0  0.24981071099E+03 -0.23680722234E+02  0.61718739486E+03  0.66626461583E+03  0.46999998093E+01 0. -1.
       -5    1    3    3    0  502 -0.24981071099E+03  0.23680722234E+02 -0.68972915645E+03  0.73397177547E+03  0.46999998093E+01 0.  1.
</event>
<event>
 5   0  0.1780171E-04  0.1398344E+04  0.7818609E-02  0.8955018E-01
        2   -1    0    0  501    0  0.00000000000E+00  0.00000000000E+00  0.42830921499E+03  0.42830921500E+03  0.25500000920E-02 0.  1.
       -2   -1    0    0    0  501  0.00000000000E+00  0.00000000000E+00 -0.11413280106E+04  0.11413280106E+04  0.25500000920E-02 0. -1.
    10030    2    1    2    0    0  0.00000000000E+00  0.00000000000E+00 -0.71301879565E+03  0.15696372256E+04  0.13983437407E+04 0.  0.
        5    1    3    3  502    0  0.34162443303E+03  0.60926490553E+03 -0.32268074609E+03  0.76945170885E+03  0.46999998093E+01 0.  1.
       -5    1    3    3    0  502 -0.34162443303E+03 -0.60926490553E+03 -0.39033804956E+03  0.80018551679E+03  0.46999998093E+01 0. -1.
</event>
<event>
 5   0  0.1794185E-04  0.1403489E+04  0.7818609E-02  0.8951297E-01
        2   -1    0    0  501    0  0.00000000000E+00  0.00000000000E+00  0.21285136873E+04  0.21285136873E+04  0.25500000920E-02 0.  1.
       -2   -1    0    0    0  501  0.00000000000E+00  0.00000000000E+00 -0.23135631733E+03  0.23135631734E+03  0.25500000920E-02 0. -1.
    10030    2    1    2    0    0  0.00000000000E+00  0.00000000000E+00  0.18971573700E+04  0.23598700047E+04  0.14034886364E+04 0.  0.
        2    1    3    3  502    0 -0.22752619188E+03 -0.44029700981E+03  0.11323467616E+03  0.50838146773E+03  0.25500000920E-02 0. -1.
       -2    1    3    3    0  502  0.22752619188E+03  0.44029700981E+03  0.17839226939E+04  0.18514885370E+04  0.25500000920E-02 0.  1.
</event>
<event>
 5   0  0.1794185E-04  0.1403053E+04  0.7818609E-02  0.8951612E-01
        2   -1    0    0  501    0  0.00000000000E+00  0.00000000000E+00  0.18373243278E+04  0.18373243278E+04  0.25500000920E-02 0. -1.
       -2   -1    0    0    0  501  0.00000000000E+00  0.00000000000E+00 -0.26785643737E+03  0.26785643738E+03  0.25500000920E-02 0.  1.
    10030    2    1    2    0    0  0.00000000000E+00  0.00000000000E+00  0.15694678905E+04  0.21051807652E+04  0.14030525988E+04 0.  0.
        2    1    3    3  502    0 -0.33438386899E+03 -0.56886118387E+03  0.42738124570E+03  0.78617450197E+03  0.25500000920E-02 0. -1.
       -2    1    3    3    0  502  0.33438386899E+03  0.56886118387E+03  0.11420866448E+04  0.13190062633E+04  0.25500000920E-02 0.  1.
</event>
<event>
 5   0  0.9900839E-05  0.1400298E+04  0.7818609E-02  0.8953603E-01
       -1   -1    0    0    0  501  0.00000000000E+00  0.00000000000E+00  0.53014668020E+03  0.53014668022E+03  0.50400001928E-02 0.  1.
        1   -1    0    0  501    0  0.00000000000E+00  0.00000000000E+00 -0.92466571349E+03  0.92466571350E+03  0.50400001928E-02 0. -1.
    10030    2    1    2    0    0  0.00000000000E+00  0.00000000000E+00 -0.39451903329E+03  0.14548123937E+04  0.14002977659E+04 0.  0.
        3    1    3    3  502    0  0.48813938663E+03 -0.37613006047E+03 -0.54254508831E+03  0.82104145219E+03  0.10100000352E+00 0. -1.
       -3    1    3    3    0  502 -0.48813938663E+03  0.37613006047E+03  0.14802605502E+03  0.63377094153E+03  0.10100000352E+00 0.  1.
</event>
<event>
 5   0  0.9978422E-05  0.1400512E+04  0.7818609E-02  0.8953448E-01
       -1   -1    0    0    0  501  0.00000000000E+00  0.00000000000E+00  0.71890697022E+03  0.71890697024E+03  0.50400001928E-02 0. -1.
        1   -1    0    0  501    0  0.00000000000E+00  0.00000000000E+00 -0.68208883307E+03  0.68208883308E+03  0.50400001928E-02 0.  1.
    10030    2    1    2    0    0  0.00000000000E+00  0.00000000000E+00  0.36818137156E+02  0.14009958033E+04  0.14005119299E+04 0.  0.
        2    1    3    3  502    0  0.62845983968E+03 -0.62509042397E+02 -0.28416736063E+03  0.69254620013E+03  0.25500000920E-02 0.  1.
       -2    1    3    3    0  502 -0.62845983968E+03  0.62509042397E+02  0.32098549778E+03  0.70844960319E+03  0.25500000920E-02 0. -1.
</event>
<event>
 5   0  0.1712327E-04  0.1401184E+04  0.7818609E-02  0.8952962E-01
        2   -1    0    0  501    0  0.00000000000E+00  0.00000000000E+00  0.73464724404E+03  0.73464724405E+03  0.25500000920E-02 0.  1.
       -2   -1    0    0    0  501  0.00000000000E+00  0.00000000000E+00 -0.66811528749E+03  0.66811528750E+03  0.25500000920E-02 0. -1.
    10030    2    1    2    0    0  0.00000000000E+00  0.00000000000E+00  0.66531956552E+02  0.14027625315E+04  0.14011838633E+04 0.  0.
        1    1    3    3  502    0 -0.66126312781E+03  0.11676692586E+03 -0.16677309774E+03  0.69189356503E+03  0.50400001928E-02 0. -1.
       -1    1    3    3    0  502  0.66126312781E+03 -0.11676692586E+03  0.23330505429E+03  0.71086896652E+03  0.50400001928E-02 0.  1.
</event>
<event>
 5   0  0.6671375E-05  0.1399498E+04  0.7818609E-02  0.8954182E-01
        4   -1    0    0  501    0  0.00000000000E+00  0.00000000000E+00  0.39249782842E+03  0.39249988307E+03  0.12699999809E+01 0. -1.
       -4   -1    0    0    0  501  0.00000000000E+00  0.00000000000E+00 -0.12475136065E+04  0.12475142529E+04  0.12699999809E+01 0.  1.
    10030    2    1    2    0    0  0.00000000000E+00  0.00000000000E+00 -0.85501577806E+03  0.16400141360E+04  0.13994979048E+04 0.  0.
        5    1    3    3  502    0 -0.55427506816E+03 -0.11043156297E+02 -0.92782949868E+03  0.10808480333E+04  0.46999998093E+01 0.  1.
       -5    1    3    3    0  502  0.55427506816E+03  0.11043156297E+02  0.72813720616E+02  0.55916610269E+03  0.46999998093E+01 0. -1.
</event>
<event>
 5   0  0.6671375E-05  0.1399307E+04  0.7818609E-02  0.8954320E-01
       -1   -1    0    0    0  501  0.00000000000E+00  0.00000000000E+00  0.57919519555E+03  0.57919519557E+03  0.50400001928E-02 0.  1.
        1   -1    0    0  501    0  0.00000000000E+00  0.00000000000E+00 -0.84516453514E+03  0.84516453516E+03  0.50400001928E-02 0. -1.
    10030    2    1    2    0    0  0.00000000000E+00  0.00000000000E+00 -0.26596933960E+03  0.14243597307E+04  0.13993073118E+04 0.  0.
        5    1    3    3  502    0  0.43321464589E+03  0.54582238957E+03 -0.19652123621E+03  0.72404398806E+03  0.46999998093E+01 0. -1.
       -5    1    3    3    0  502 -0.43321464589E+03 -0.54582238957E+03 -0.69448103392E+02  0.70031574267E+03  0.46999998093E+01 0.  1.
</event>
<event>
 5   0  0.1780171E-04  0.1399581E+04  0.7818609E-02  0.8954122E-01
        2   -1    0    0  501    0  0.00000000000E+00  0.00000000000E+00  0.11172580095E+04  0.11172580095E+04  0.25500000920E-02 0. -1.
       -2   -1    0    0    0  501  0.00000000000E+00  0.00000000000E+00 -0.43831096921E+03  0.43831096922E+03  0.25500000920E-02 0.  1.
    10030    2    1    2    0    0  0.00000000000E+00  0.00000000000E+00  0.67894704025E+03  0.15555689787E+04  0.13995805672E+04 0.  0.
        5    1    3    3  502    0  0.11816921574E+03  0.61458926157E+03  0.68741431720E+03  0.92964749098E+03  0.46999998093E+01 0. -1.
       -5    1    3    3    0  502 -0.11816921574E+03 -0.61458926157E+03 -0.84672769537E+01  0.62592148770E+03  0.46999998093E+01 0.  1.
</event>
<event>
 5   0  0.9978422E-05  0.1396525E+04  0.7818609E-02  0.8956338E-01
       -1   -1    0    0    0  501  0.00000000000E+00  0.00000000000E+00  0.47763878311E+03  0.47763878313E+03  0.50400001928E-02 0.  1.
        1   -1    0    0  501    0  0.00000000000E+00  0.00000000000E+00 -0.10207930765E+04  0.10207930765E+04  0.50400001928E-02 0. -1.
    10030    2    1    2    0    0  0.00000000000E+00  0.00000000000E+00 -0.54315429342E+03  0.14984318597E+04  0.13965247766E+04 0.  0.
        2    1    3    3  502    0  0.57292678464E+03  0.34622835218E+03 -0.58459991782E+02  0.67196483767E+03  0.25500000920E-02 0.  1.
       -2    1    3    3    0  502 -0.57292678464E+03 -0.34622835218E+03 -0.48469430164E+03  0.82646702200E+03  0.25500000920E-02 0. -1.
</event>
<event>
 5   0  0.9900839E-05  0.1399299E+04  0.7818609E-02  0.8954326E-01
       -1   -1    0    0    0  501  0.00000000000E+00  0.00000000000E+00  0.34379010671E+03  0.34379010675E+03  0.50400001928E-02 0. -1.
        1   -1    0    0  501    0  0.00000000000E+00  0.00000000000E+00 -0.14238603698E+04  0.14238603698E+04  0.50400001928E-02 0.  1.
    10030    2    1    2    0    0  0.00000000000E+00  0.00000000000E+00 -0.10800702631E+04  0.17676504765E+04  0.13992985507E+04 0.  0.
        3    1    3    3  502    0 -0.37249683068E+03  0.53771660478E+03 -0.85360403034E+03  0.10754221900E+04  0.10100000352E+00 0.  1.
       -3    1    3    3    0  502  0.37249683068E+03 -0.53771660478E+03 -0.22646623273E+03  0.69222828654E+03  0.10100000352E+00 0. -1.
</event>
<event>
 5   0  0.6671375E-05  0.1401218E+04  0.7818609E-02  0.8952937E-01
       -1   -1    0    0    0  501  0.00000000000E+00  0.00000000000E+00  0.78968070010E+03  0.78968070012E+03  0.50400001928E-02 0. -1.
        1   -1    0    0  501    0  0.00000000000E+00  0.00000000000E+00 -0.62158432371E+03  0.62158432373E+03  0.50400001928E-02 0.  1.
    10030    2    1    2    0    0  0.00000000000E+00  0.00000000000E+00  0.16809637639E+03  0.14112650238E+04  0.14012182470E+04 0.  0.
        5    1    3    3  502    0  0.27205788842E+03 -0.10690760430E+03  0.72531289817E+03  0.78201382389E+03  0.46999998093E+01 0. -1.
       -5    1    3    3    0  502 -0.27205788842E+03  0.10690760430E+03 -0.55721652177E+03  0.62925119995E+03  0.46999998093E+01 0.  1.
</event>
<event>
 5   0  0.1794185E-04  0.1402485E+04  0.7818609E-02  0.8952022E-01
        2   -1    0    0  501    0  0.00000000000E+00  0.00000000000E+00  0.19812658605E+04  0.19812658605E+04  0.25500000920E-02 0.  1.
       -2   -1    0    0    0  501  0.00000000000E+00  0.00000000000E+00 -0.24819527339E+03  0.24819527341E+03  0.25500000920E-02 0. -1.
    10030    2    1    2    0    0  0.00000000000E+00  0.00000000000E+00  0.17330705871E+04  0.22294611339E+04  0.14024846836E+04 0.  0.
        2    1    3    3  502    0 -0.46511253979E+02  0.56068747967E+03  0.20114325729E+03  0.59748837358E+03  0.25500000920E-02 0. -1.
       -2    1    3    3    0  502  0.46511253979E+02 -0.56068747967E+03  0.15319273298E+04  0.16319727603E+04  0.25500000920E-02 0.  1.
</event>
<event>
 5   0  0.1712327E-04  0.1394442E+04  0.7818609E-02  0.8957852E-01
       -2   -1    0    0    0  501  0.00000000000E+00  0.00000000000E+00  0.17146549673E+03  0.17146549675E+03  0.25500000920E-02 0.  1.
        2   -1    0    0  501    0  0.00000000000E+00  0.00000000000E+00 -0.28350726938E+04  0.28350726938E+04  0.25500000920E-02 0. -1.
    10030    2    1    2    0    0  0.00000000000E+00  0.00000000000E+00 -0.26636071971E+04  0.30065381906E+04  0.13944420357E+04 0.  0.
        1    1    3    3  502    0 -0.25325177768E+03 -0.22213488849E+03 -0.15642302119E+02  0.33723145349E+03  0.50400001928E-02 0.  1.
       -1    1    3    3    0  502  0.25325177768E+03  0.22213488849E+03 -0.26479648950E+04  0.26693067371E+04  0.50400001928E-02 0. -1.
</event>
<event>
 5   0  0.9900839E-05  0.1399088E+04  0.7818609E-02  0.8954479E-01
       -1   -1    0    0    0  501  0.00000000000E+00  0.00000000000E+00  0.66024472551E+03  0.66024472553E+03  0.50400001928E-02 0. -1.
        1   -1    0    0  501    0  0.00000000000E+00  0.00000000000E+00 -0.74118197968E+03  0.74118197969E+03  0.50400001928E-02 0.  1.
    10030    2    1    2    0    0  0.00000000000E+00  0.00000000000E+00 -0.80937254166E+02  0.14014267052E+04  0.13990875494E+04 0.  0.
        3    1    3    3  502    0  0.33847458640E+03 -0.57267618228E+03  0.17631508505E+03  0.68819334115E+03  0.10100000352E+00 0. -1.
       -3    1    3    3    0  502 -0.33847458640E+03  0.57267618228E+03 -0.25725233922E+03  0.71323336407E+03  0.10100000352E+00 0.  1.
</event>
<event>
 5   0  0.1712327E-04  0.1399076E+04  0.7818609E-02  0.8954488E-01
       -2   -1    0    0    0  501  0.00000000000E+00  0.00000000000E+00  0.39877428473E+03  0.39877428473E+03  0.25500000920E-02 0. -1.
        2   -1    0    0  501    0  0.00000000000E+00  0.00000000000E+00 -0.12271431516E+04  0.12271431516E+04  0.25500000920E-02 0.  1.
    10030    2    1    2    0    0  0.00000000000E+00  0.00000000000E+00 -0.82836886691E+03  0.16259174364E+04  0.13990755985E+04 0.  0.
        1    1    3    3  502    0  0.51596139473E+03 -0.15304040940E+03  0.10516935782E+03  0.54835948210E+03  0.50400001928E-02 0. -1.
       -1    1    3    3    0  502 -0.51596139473E+03  0.15304040940E+03 -0.93353822473E+03  0.10775579543E+04  0.50400001928E-02 0.  1.
</event>
<event>
 5   0  0.1712327E-04  0.1399493E+04  0.7818609E-02  0.8954186E-01
        2   -1    0    0  501    0  0.00000000000E+00  0.00000000000E+00  0.97962921326E+03  0.97962921326E+03  0.25500000920E-02 0. -1.
       -2   -1    0    0    0  501  0.00000000000E+00  0.00000000000E+00 -0.49982687318E+03  0.49982687319E+03  0.25500000920E-02 0.  1.
    10030    2    1    2    0    0  0.00000000000E+00  0.00000000000E+00  0.47980234008E+03  0.14794560865E+04  0.13994927746E+04 0.  0.
        1    1    3    3  502    0 -0.35014144872E+03  0.44401803614E+03  0.67563410034E+03  0.88104057120E+03  0.50400001928E-02 0. -1.
       -1    1    3    3    0  502  0.35014144872E+03 -0.44401803614E+03 -0.19583176026E+03  0.59841551525E+03  0.50400001928E-02 0.  1.
</event>
<event>
 5   0  0.1780171E-04  0.1397359E+04  0.7818609E-02  0.8955733E-01
       -2   -1    0    0    0  501  0.00000000000E+00  0.00000000000E+00  0.66927069725E+03  0.66927069726E+03  0.25500000920E-02 0. -1.
        2   -1    0    0  501    0  0.00000000000E+00  0.00000000000E+00 -0.72938039360E+03  0.72938039360E+03  0.25500000920E-02 0.  1.
    10030    2    1    2    0    0  0.00000000000E+00  0.00000000000E+00 -0.60109696347E+02  0.13986510909E+04  0.13973588295E+04 0.  0.
        5    1    3    3  502    0  0.62049508972E+03  0.30746630101E+03  0.62665326601E+02  0.69534071920E+03  0.46999998093E+01 0.  1.
       -5    1    3    3    0  502 -0.62049508972E+03 -0.30746630101E+03 -0.12277502295E+03  0.70331037166E+03  0.46999998093E+01 0. -1.
</event>
<event>
 5   0  0.1766237E-04  0.1396458E+04  0.7818609E-02  0.8956386E-01
       -2   -1    0    0    0  501  0.00000000000E+00  0.00000000000E+00  0.27473184475E+03  0.27473184477E+03  0.25500000920E-02 0.  1.
        2   -1    0    0  501    0  0.00000000000E+00  0.00000000000E+00 -0.17745440016E+04  0.17745440016E+04  0.25500000920E-02 0. -1.
    10030    2    1    2    0    0  0.00000000000E+00  0.00000000000E+00 -0.14998121568E+04  0.20492758463E+04  0.13964580154E+04 0.  0.
        3    1    3    3  502    0  0.60052621543E+00 -0.54806770466E+03 -0.11506963970E+03  0.56001750124E+03  0.10100000352E+00 0.  1.
       -3    1    3    3    0  502 -0.60052621543E+00  0.54806770466E+03 -0.13847425171E+04  0.14892583451E+04  0.10100000352E+00 0. -1.
</event>
<event>
 5   0  0.9260916E-05  0.1402341E+04  0.7818609E-02  0.8952126E-01
        1   -1    0    0  501    0  0.00000000000E+00  0.00000000000E+00  0.14869078907E+04  0.14869078907E+04  0.50400001928E-02 0. -1.
       -1   -1    0    0    0  501  0.00000000000E+00  0.00000000000E+00 -0.33064584055E+03  0.33064584059E+03  0.50400001928E-02 0.  1.
    10030    2    1    2    0    0  0.00000000000E+00  0.00000000000E+00  0.11562620501E+04  0.18175537312E+04  0.14023407708E+04 0.  0.
        1    1    3    3  502    0 -0.36388275136E+03  0.59019981405E+03  0.71340556423E+03  0.99483364255E+03  0.50400001928E-02 0. -1.
       -1    1    3    3    0  502  0.36388275136E+03 -0.59019981405E+03  0.44285648588E+03  0.82272008870E+03  0.50400001928E-02 0.  1.
</event>
<event>
 5   0  0.9260916E-05  0.1399361E+04  0.7818609E-02  0.8954281E-01
        1   -1    0    0  501    0  0.00000000000E+00  0.00000000000E+00  0.95192917515E+03  0.95192917516E+03  0.50400001928E-02 0. -1.
       -1   -1    0    0    0  501  0.00000000000E+00  0.00000000000E+00 -0.51427461158E+03  0.51427461160E+03  0.50400001928E-02 0.  1.
    10030    2    1    2    0    0  0.00000000000E+00  0.00000000000E+00  0.43765456357E+03  0.14662037868E+04  0.13993612926E+04 0.  0.
        1    1    3    3  502    0 -0.31144831583E+03  0.71972037579E+02  0.87094971723E+03  0.92775720832E+03  0.50400001928E-02 0. -1.
       -1    1    3    3    0  502  0.31144831583E+03 -0.71972037579E+02 -0.43329515366E+03  0.53844657844E+03  0.50400001928E-02 0.  1.
</event>
<event>
 5   0  0.9260916E-05  0.1399069E+04  0.7818609E-02  0.8954493E-01
        1   -1    0    0  501    0  0.00000000000E+00  0.00000000000E+00  0.72675741726E+03  0.72675741728E+03  0.50400001928E-02 0.  1.
       -1   -1    0    0    0  501  0.00000000000E+00  0.00000000000E+00 -0.67333114018E+03  0.67333114020E+03  0.50400001928E-02 0. -1.
    10030    2    1    2    0    0  0.00000000000E+00  0.00000000000E+00  0.53426277083E+02  0.14000885575E+04  0.13990688338E+04 0.  0.
        1    1    3    3  502    0 -0.33869596404E+03  0.22672224660E+03 -0.54223485356E+03  0.67833367129E+03  0.50400001928E-02 0. -1.
       -1    1    3    3    0  502  0.33869596404E+03 -0.22672224660E+03  0.59566113064E+03  0.72175488619E+03  0.50400001928E-02 0.  1.
</event>
<event>
 5   0  0.1780171E-04  0.1397443E+04  0.7818609E-02  0.8955671E-01
       -2   -1    0    0    0  501  0.00000000000E+00  0.00000000000E+00  0.39484733500E+03  0.39484733501E+03  0.25500000920E-02 0. -1.
        2   -1    0    0  501    0  0.00000000000E+00  0.00000000000E+00 -0.12364570772E+04  0.12364570772E+04  0.25500000920E-02 0.  1.
    10030    2    1    2    0    0  0.00000000000E+00  0.00000000000E+00 -0.84160974223E+03  0.16313044123E+04  0.13974430676E+04 0.  0.
        5    1    3    3  502    0  0.60458062912E+03  0.28389856561E+03 -0.66024972806E+03  0.93918471350E+03  0.46999998093E+01 0.  1.
       -5    1    3    3    0  502 -0.60458062912E+03 -0.28389856561E+03 -0.18136001418E+03  0.69211969876E+03  0.46999998093E+01 0. -1.
</event>
<event>
 5   0  0.1712327E-04  0.1426433E+04  0.7818609E-02  0.8934904E-01
        2   -1    0    0  501    0  0.00000000000E+00  0.00000000000E+00  0.13059593165E+04  0.13059593165E+04  0.25500000920E-02 0. -1.
       -2   -1    0    0    0  501  0.00000000000E+00  0.00000000000E+00 -0.38950488517E+03  0.38950488518E+03  0.25500000920E-02 0.  1.
    10030    2    1    2    0    0  0.00000000000E+00  0.00000000000E+00  0.91645443133E+03  0.16954642017E+04  0.14264326603E+04 0.  0.
        1    1    3    3  502    0  0.57435037649E+03  0.41752917003E+03  0.53768229610E+03  0.89068019758E+03  0.50400001928E-02 0. -1.
       -1    1    3    3    0  502 -0.57435037649E+03 -0.41752917003E+03  0.37877213522E+03  0.80478400409E+03  0.50400001928E-02 0.  1.
</event>
<event>
 5   0  0.6671375E-05  0.1400823E+04  0.7818609E-02  0.8953223E-01
        1   -1    0    0  501    0  0.00000000000E+00  0.00000000000E+00  0.45742820363E+03  0.45742820366E+03  0.50400001928E-02 0.  1.
       -1   -1    0    0    0  501  0.00000000000E+00  0.00000000000E+00 -0.10724669008E+04  0.10724669008E+04  0.50400001928E-02 0. -1.
    10030    2    1    2    0    0  0.00000000000E+00  0.00000000000E+00 -0.61503869714E+03  0.15298951044E+04  0.14008234834E+04 0.  0.
        5    1    3    3  502    0  0.38912014132E+03 -0.80949072215E+02 -0.93736053970E+03  0.10181523010E+04  0.46999998093E+01 0. -1.
       -5    1    3    3    0  502 -0.38912014132E+03  0.80949072215E+02  0.32232184256E+03  0.51174280343E+03  0.46999998093E+01 0.  1.
</event>
<event>
 5   0  0.9900839E-05  0.1399986E+04  0.7818609E-02  0.8953829E-01
        1   -1    0    0  501    0  0.00000000000E+00  0.00000000000E+00  0.11763784831E+04  0.11763784831E+04  0.50400001928E-02 0. -1.
       -1   -1    0    0    0  501  0.00000000000E+00  0.00000000000E+00 -0.41652414872E+03  0.41652414875E+03  0.50400001928E-02 0.  1.
    10030    2    1    2    0    0  0.00000000000E+00  0.00000000000E+00  0.75985433441E+03  0.15929026319E+04  0.13999857803E+04 0.  0.
        3    1    3    3  502    0  0.65511385188E+03  0.18787862384E+03  0.56168145526E+03  0.88315265023E+03  0.10100000352E+00 0. -1.
       -3    1    3    3    0  502 -0.65511385188E+03 -0.18787862384E+03  0.19817287915E+03  0.70974998166E+03  0.10100000352E+00 0.  1.
</event>
<event>
 5   0  0.1712327E-04  0.1401110E+04  0.7818609E-02  0.8953015E-01
       -2   -1    0    0    0  501  0.00000000000E+00  0.00000000000E+00  0.71747813742E+03  0.71747813742E+03  0.25500000920E-02 0. -1.
        2   -1    0    0  501    0  0.00000000000E+00  0.00000000000E+00 -0.68403116113E+03  0.68403116114E+03  0.25500000920E-02 0.  1.
    10030    2    1    2    0    0  0.00000000000E+00  0.00000000000E+00  0.33446976284E+02  0.14015092986E+04  0.14011101362E+04 0.  0.
        1    1    3    3  502    0 -0.46366240111E+03  0.44223822096E+03  0.30003542110E+03  0.70751587984E+03  0.50400001928E-02 0.  1.
       -1    1    3    3    0  502  0.46366240111E+03 -0.44223822096E+03 -0.26658844482E+03  0.69399341872E+03  0.50400001928E-02 0. -1.
</event>
<event>
 5   0  0.9260916E-05  0.1398504E+04  0.7818609E-02  0.8954902E-01
        1   -1    0    0  501    0  0.00000000000E+00  0.00000000000E+00  0.88691011675E+03  0.88691011677E+03  0.50400001928E-02 0.  1.
       -1   -1    0    0    0  501  0.00000000000E+00  0.00000000000E+00 -0.55129965003E+03  0.55129965005E+03  0.50400001928E-02 0. -1.
    10030    2    1    2    0    0  0.00000000000E+00  0.00000000000E+00  0.33561046673E+03  0.14382097668E+04  0.13985038248E+04 0.  0.
        1    1    3    3  502    0 -0.25536858064E+03 -0.29868879871E+03 -0.42699748826E+03  0.58030592402E+03  0.50400001928E-02 0. -1.
       -1    1    3    3    0  502  0.25536858064E+03  0.29868879871E+03  0.76260795499E+03  0.85790384280E+03  0.50400001928E-02 0.  1.
</event>
<event>
 5   0  0.9978422E-05  0.1400829E+04  0.7818609E-02  0.8953218E-01
        1   -1    0    0  501    0  0.00000000000E+00  0.00000000000E+00  0.83554250905E+03  0.83554250907E+03  0.50400001928E-02 0.  1.
       -1   -1    0    0    0  501  0.00000000000E+00  0.00000000000E+00 -0.58714028456E+03  0.58714028458E+03  0.50400001928E-02 0. -1.
    10030    2    1    2    0    0  0.00000000000E+00  0.00000000000E+00  0.24840222449E+03  0.14226827937E+04  0.14008292780E+04 0.  0.
        2    1    3    3  502    0 -0.60599915908E+02  0.57581200894E+03  0.52449308970E+03  0.78123288500E+03  0.25500000920E-02 0.  1.
       -2    1    3    3    0  502  0.60599915908E+02 -0.57581200894E+03 -0.27609086521E+03  0.64144990865E+03  0.25500000920E-02 0. -1.
</event>
<event>
 5   0  0.9828111E-05  0.1404262E+04  0.7818609E-02  0.8950739E-01
        1   -1    0    0  501    0  0.00000000000E+00  0.00000000000E+00  0.11539778681E+04  0.11539778681E+04  0.50400001928E-02 0.  1.
       -1   -1    0    0    0  501  0.00000000000E+00  0.00000000000E+00 -0.42720745188E+03  0.42720745191E+03  0.50400001928E-02 0. -1.
    10030    2    1    2    0    0  0.00000000000E+00  0.00000000000E+00  0.72677041618E+03  0.15811853200E+04  0.14042620049E+04 0.  0.
        4    1    3    3  502    0 -0.42289350246E+03  0.50765207704E+01  0.99446396399E+03  0.10806594626E+04  0.12699999809E+01 0.  1.
       -4    1    3    3    0  502  0.42289350246E+03 -0.50765207704E+01 -0.26769354781E+03  0.50052585740E+03  0.12699999809E+01 0. -1.
</event>
<event>
 5   0  0.9828111E-05  0.1401941E+04  0.7818609E-02  0.8952415E-01
        1   -1    0    0  501    0  0.00000000000E+00  0.00000000000E+00  0.54042359267E+03  0.54042359270E+03  0.50400001928E-02 0.  1.
       -1   -1    0    0    0  501  0.00000000000E+00  0.00000000000E+00 -0.90921161958E+03  0.90921161959E+03  0.50400001928E-02 0. -1.
    10030    2    1    2    0    0  0.00000000000E+00  0.00000000000E+00 -0.36878802691E+03  0.14496352123E+04  0.14019406692E+04 0.  0.
        4    1    3    3  502    0  0.11377400729E+03 -0.63781162326E+03 -0.46109756665E+03  0.79521114830E+03  0.12699999809E+01 0. -1.
       -4    1    3    3    0  502 -0.11377400729E+03  0.63781162326E+03  0.92309539745E+02  0.65442406399E+03  0.12699999809E+01 0.  1.
</event>
<event>
 5   0  0.9260916E-05  0.1399499E+04  0.7818609E-02  0.8954181E-01
       -1   -1    0    0    0  501  0.00000000000E+00  0.00000000000E+00  0.76721909152E+03  0.76721909154E+03  0.50400001928E-02 0. -1.
        1   -1    0    0  501    0  0.00000000000E+00  0.00000000000E+00 -0.63821313027E+03  0.63821313029E+03  0.50400001928E-02 0.  1.
    10030    2    1    2    0    0  0.00000000000E+00  0.00000000000E+00  0.12900596125E+03  0.14054322218E+04  0.13994989075E+04 0.  0.
        1    1    3    3  502    0 -0.31614993207E+03 -0.12573732811E+03  0.67855968732E+03  0.75908096044E+03  0.50400001928E-02 0. -1.
       -1    1    3    3    0  502  0.31614993207E+03  0.12573732811E+03 -0.54955372607E+03  0.64635126138E+03  0.50400001928E-02 0.  1.
</event>
<event>
 5   0  0.9900839E-05  0.1399176E+04  0.7818609E-02  0.8954416E-01
       -1   -1    0    0    0  501  0.00000000000E+00  0.00000000000E+00  0.35022340880E+03  0.35022340883E+03  0.50400001928E-02 0. -1.
        1   -1    0    0  501    0  0.00000000000E+00  0.00000000000E+00 -0.13974595160E+04  0.13974595160E+04  0.50400001928E-02 0.  1.
    10030    2    1    2    0    0  0.00000000000E+00  0.00000000000E+00 -0.10472361072E+04  0.17476829249E+04  0.13991755221E+04 0.  0.
        3    1    3    3  502    0  0.45437094638E+03  0.32964565546E+03 -0.10451055317E+04  0.11863240694E+04  0.10100000352E+00 0.  1.
       -3    1    3    3    0  502 -0.45437094638E+03 -0.32964565546E+03 -0.21305755625E+01  0.56135885549E+03  0.10100000352E+00 0. -1.
</event>
<event>
 5   0  0.9828111E-05  0.1400675E+04  0.7818609E-02  0.8953330E-01
       -1   -1    0    0    0  501  0.00000000000E+00  0.00000000000E+00  0.23880212414E+03  0.23880212419E+03  0.50400001928E-02 0.  1.
        1   -1    0    0  501    0  0.00000000000E+00  0.00000000000E+00 -0.20538859145E+04  0.20538859145E+04  0.50400001928E-02 0. -1.
    10030    2    1    2    0    0  0.00000000000E+00  0.00000000000E+00 -0.18150837904E+04  0.22926880387E+04  0.14006745792E+04 0.  0.
        4    1    3    3  502    0  0.47344349415E+03 -0.35094729425E+03 -0.15268624158E+04  0.16366499917E+04  0.12699999809E+01 0. -1.
       -4    1    3    3    0  502 -0.47344349415E+03  0.35094729425E+03 -0.28822137452E+03  0.65603804701E+03  0.12699999809E+01 0.  1.
</event>
<event>
 5   0  0.1766237E-04  0.1398444E+04  0.7818609E-02  0.8954945E-01
        2   -1    0    0  501    0  0.00000000000E+00  0.00000000000E+00  0.71100629547E+03  0.71100629548E+03  0.25500000920E-02 0. -1.
       -2   -1    0    0    0  501  0.00000000000E+00  0.00000000000E+00 -0.68763339223E+03  0.68763339224E+03  0.25500000920E-02 0.  1.
    10030    2    1    2    0    0  0.00000000000E+00  0.00000000000E+00  0.23372903238E+02  0.13986396877E+04  0.13984443798E+04 0.  0.
        3    1    3    3  502    0 -0.61837709910E+03 -0.25587177675E+03 -0.19095245156E+03  0.69593351104E+03  0.10100000352E+00 0. -1.
       -3    1    3    3    0  502  0.61837709910E+03  0.25587177675E+03  0.21432535480E+03  0.70270617668E+03  0.10100000352E+00 0.  1.
</event>
<event>
 5   0  0.9978422E-05  0.1400646E+04  0.7818609E-02  0.8953351E-01
       -1   -1    0    0    0  501  0.00000000000E+00  0.00000000000E+00  0.39103165965E+03  0.39103165968E+03  0.50400001928E-02 0.  1.
        1   -1    0    0  501    0  0.00000000000E+00  0.00000000000E+00 -0.12542529594E+04  0.12542529595E+04  0.50400001928E-02 0. -1.
    10030    2    1    2    0    0  0.00000000000E+00  0.00000000000E+00 -0.86322129980E+03  0.16452846191E+04  0.14006464456E+04 0.  0.
        2    1    3    3  502    0 -0.30733122142E+03  0.17447617282E+02 -0.11705234489E+04  0.12103231153E+04  0.25500000920E-02 0. -1.
       -2    1    3    3    0  502  0.30733122142E+03 -0.17447617282E+02  0.30730214908E+03  0.43496150386E+03  0.25500000920E-02 0.  1.
</event>
<event>
 5   0  0.9900839E-05  0.1397205E+04  0.7818609E-02  0.8955844E-01
       -1   -1    0    0    0  501  0.00000000000E+00  0.00000000000E+00  0.23792476039E+04  0.23792476039E+04  0.50400001928E-02 0. -1.
        1   -1    0    0  501    0  0.00000000000E+00  0.00000000000E+00 -0.20512602517E+03  0.20512602523E+03  0.50400001928E-02 0.  1.
    10030    2    1    2    0    0  0.00000000000E+00  0.00000000000E+00  0.21741215787E+04  0.25843736292E+04  0.13972052161E+04 0.  0.
        3    1    3    3  502    0 -0.28733867773E+03  0.55583294747E+03  0.51237516559E+03  0.80872869476E+03  0.10100000352E+00 0.  1.
       -3    1    3    3    0  502  0.28733867773E+03 -0.55583294747E+03  0.16617464132E+04  0.17756449344E+04  0.10100000352E+00 0. -1.
</event>
<event>
 5   0  0.9978422E-05  0.1400264E+04  0.7818609E-02  0.8953628E-01
        1   -1    0    0  501    0  0.00000000000E+00  0.00000000000E+00  0.14473696680E+04  0.14473696680E+04  0.50400001928E-02 0. -1.
       -1   -1    0    0    0  501  0.00000000000E+00  0.00000000000E+00 -0.33867274234E+03  0.33867274237E+03  0.50400001928E-02 0.  1.
    10030    2    1    2    0    0  0.00000000000E+00  0.00000000000E+00  0.11086969257E+04  0.17860424104E+04  0.14002637676E+04 0.  0.
        2    1    3    3  502    0 -0.39147447002E+03 -0.39835818341E+03  0.10928517296E+04  0.12273004546E+04  0.25500000920E-02 0. -1.
       -2    1    3    3    0  502  0.39147447002E+03  0.39835818341E+03  0.15845196127E+02  0.55874195584E+03  0.25500000920E-02 0.  1.
</event>
<event>
 5   0  0.1712327E-04  0.1398715E+04  0.7818609E-02  0.8954749E-01
       -2   -1    0    0    0  501  0.00000000000E+00  0.00000000000E+00  0.31851831685E+03  0.31851831686E+03  0.25500000920E-02 0.  1.
        2   -1    0    0  501    0  0.00000000000E+00  0.00000000000E+00 -0.15355512624E+04  0.15355512624E+04  0.25500000920E-02 0. -1.
    10030    2    1    2    0    0  0.00000000000E+00  0.00000000000E+00 -0.12170329455E+04  0.18540695792E+04  0.13987154157E+04 0.  0.
        1    1    3    3  502    0 -0.46514773936E+03 -0.41278120105E+03 -0.10325904028E+04  0.12054018747E+04  0.50400001928E-02 0. -1.
       -1    1    3    3    0  502  0.46514773936E+03  0.41278120105E+03 -0.18444254267E+03  0.64866770456E+03  0.50400001928E-02 0.  1.
</event>
<event>
 5   0  0.6671375E-05  0.1401986E+04  0.7818609E-02  0.8952382E-01
       -3   -1    0    0    0  501  0.00000000000E+00  0.00000000000E+00  0.84548210756E+03  0.84548211359E+03  0.10100000352E+00 0. -1.
        3   -1    0    0  501    0  0.00000000000E+00  0.00000000000E+00 -0.58119658926E+03  0.58119659804E+03  0.10100000352E+00 0.  1.
    10030    2    1    2    0    0  0.00000000000E+00  0.00000000000E+00  0.26428551830E+03  0.14266787116E+04  0.14019862022E+04 0.  0.
        2    1    3    3  502    0  0.10058034329E+02 -0.59856605836E+03 -0.23898435984E+03  0.64458980331E+03  0.25500000920E-02 0.  1.
       -2    1    3    3    0  502 -0.10058034329E+02  0.59856605836E+03  0.50326987814E+03  0.78208890832E+03  0.25500000920E-02 0. -1.
</event>
<event>
 5   0  0.9260916E-05  0.1398686E+04  0.7818609E-02  0.8954770E-01
        1   -1    0    0  501    0  0.00000000000E+00  0.00000000000E+00  0.15009106873E+04  0.15009106874E+04  0.50400001928E-02 0. -1.
       -1   -1    0    0    0  501  0.00000000000E+00  0.00000000000E+00 -0.32585595969E+03  0.32585595973E+03  0.50400001928E-02 0.  1.
    10030    2    1    2    0    0  0.00000000000E+00  0.00000000000E+00  0.11750547277E+04  0.18267666471E+04  0.13986860870E+04 0.  0.
        1    1    3    3  502    0 -0.43542290719E+03 -0.48252854608E+03  0.25033694011E+03  0.69648796795E+03  0.50400001928E-02 0.  1.
       -1    1    3    3    0  502  0.43542290719E+03  0.48252854608E+03  0.92471778754E+03  0.11302786791E+04  0.50400001928E-02 0. -1.
</event>
<event>
 5   0  0.1794185E-04  0.1399829E+04  0.7818609E-02  0.8953943E-01
        2   -1    0    0  501    0  0.00000000000E+00  0.00000000000E+00  0.12808278949E+04  0.12808278949E+04  0.25500000920E-02 0.  1.
       -2   -1    0    0    0  501  0.00000000000E+00  0.00000000000E+00 -0.38247135613E+03  0.38247135614E+03  0.25500000920E-02 0. -1.
    10030    2    1    2    0    0  0.00000000000E+00  0.00000000000E+00  0.89835653877E+03  0.16632992511E+04  0.13998285351E+04 0.  0.
        2    1    3    3  502    0 -0.51865977077E+03 -0.20450474945E+03 -0.53606957057E+02  0.56009272109E+03  0.25500000920E-02 0. -1.
       -2    1    3    3    0  502  0.51865977077E+03  0.20450474945E+03  0.95196349583E+03  0.11032065300E+04  0.25500000920E-02 0.  1.
</event>
<event>
 5   0  0.6671375E-05  0.1401086E+04  0.7818609E-02  0.8953033E-01
        1   -1    0    0  501    0  0.00000000000E+00  0.00000000000E+00  0.13057132930E+04  0.13057132930E+04  0.50400001928E-02 0.  1.
       -1   -1    0    0    0  501  0.00000000000E+00  0.00000000000E+00 -0.37585605558E+03  0.37585605561E+03  0.50400001928E-02 0. -1.
    10030    2    1    2    0    0  0.00000000000E+00  0.00000000000E+00  0.92985723738E+03  0.16815693486E+04  0.14010856477E+04 0.  0.
        5    1    3    3  502    0  0.14440173126E+03  0.64957460875E+03  0.72771033987E+03  0.98609505682E+03  0.46999998093E+01 0.  1.
       -5    1    3    3    0  502 -0.14440173126E+03 -0.64957460875E+03  0.20214689750E+03  0.69547429176E+03  0.46999998093E+01 0. -1.
</event>
<event>
 5   0  0.9260916E-05  0.1398014E+04  0.7818609E-02  0.8955257E-01
        1   -1    0    0  501    0  0.00000000000E+00  0.00000000000E+00  0.63800696482E+03  0.63800696484E+03  0.50400001928E-02 0.  1.
       -1   -1    0    0    0  501  0.00000000000E+00  0.00000000000E+00 -0.76583969610E+03  0.76583969611E+03  0.50400001928E-02 0. -1.
    10030    2    1    2    0    0  0.00000000000E+00  0.00000000000E+00 -0.12783273127E+03  0.14038466610E+04  0.13980143920E+04 0.  0.
        1    1    3    3  502    0  0.41288871190E+03 -0.35718376292E+03  0.37442934328E+03  0.66200805285E+03  0.50400001928E-02 0.  1.
       -1    1    3    3    0  502 -0.41288871190E+03  0.35718376292E+03 -0.50226207456E+03  0.74183860810E+03  0.50400001928E-02 0. -1.
</event>
<event>
 5   0  0.9900839E-05  0.1402386E+04  0.7818609E-02  0.8952093E-01
       -1   -1    0    0    0  501  0.00000000000E+00  0.00000000000E+00  0.59315023486E+03  0.59315023489E+03  0.50400001928E-02 0. -1.
        1   -1    0    0  501    0  0.00000000000E+00  0.00000000000E+00 -0.82891640350E+03  0.82891640351E+03  0.50400001928E-02 0.  1.
    10030    2    1    2    0    0  0.00000000000E+00  0.00000000000E+00 -0.23576616863E+03  0.14220666384E+04  0.14023864795E+04 0.  0.
        3    1    3    3  502    0  0.54943281485E+03  0.34797593763E+03  0.14791800975E+03  0.66696583047E+03  0.10100000352E+00 0. -1.
       -3    1    3    3    0  502 -0.54943281485E+03 -0.34797593763E+03 -0.38368417838E+03  0.75510080793E+03  0.10100000352E+00 0.  1.
</event>
<event>
 5   0  0.6671375E-05  0.1382814E+04  0.7818609E-02  0.8966353E-01
       -1   -1    0    0    0  501  0.00000000000E+00  0.00000000000E+00  0.48976161822E+03  0.48976161824E+03  0.50400001928E-02 0.  1.
        1   -1    0    0  501    0  0.00000000000E+00  0.00000000000E+00 -0.97607476687E+03  0.97607476688E+03  0.50400001928E-02 0. -1.
    10030    2    1    2    0    0  0.00000000000E+00  0.00000000000E+00 -0.48631314865E+03  0.14658363851E+04  0.13828144595E+04 0.  0.
        5    1    3    3  502    0 -0.26602251395E+03  0.16714591730E+02  0.43309017567E+03  0.50856321707E+03  0.46999998093E+01 0.  1.
       -5    1    3    3    0  502  0.26602251395E+03 -0.16714591730E+02 -0.91940332432E+03  0.95727316805E+03  0.46999998093E+01 0. -1.
</event>
<event>
 5   0  0.1766237E-04  0.1399135E+04  0.7818609E-02  0.8954445E-01
       -2   -1    0    0    0  501  0.00000000000E+00  0.00000000000E+00  0.38915952739E+03  0.38915952740E+03  0.25500000920E-02 0.  1.
        2   -1    0    0  501    0  0.00000000000E+00  0.00000000000E+00 -0.12575676588E+04  0.12575676588E+04  0.25500000920E-02 0. -1.
    10030    2    1    2    0    0  0.00000000000E+00  0.00000000000E+00 -0.86840813142E+03  0.16467271862E+04  0.13991346408E+04 0.  0.
        3    1    3    3  502    0  0.30669752211E+03  0.23407761872E+03 -0.11210279641E+04  0.11855629077E+04  0.10100000352E+00 0. -1.
       -3    1    3    3    0  502 -0.30669752211E+03 -0.23407761872E+03  0.25261983271E+03  0.46116427847E+03  0.10100000352E+00 0.  1.
</event>
<event>
 5   0  0.1833681E-04  0.1400766E+04  0.7818609E-02  0.8953265E-01
        2   -1    0    0  501    0  0.00000000000E+00  0.00000000000E+00  0.14337419470E+04  0.14337419470E+04  0.25500000920E-02 0. -1.
       -2   -1    0    0    0  501  0.00000000000E+00  0.00000000000E+00 -0.34213693628E+03  0.34213693629E+03  0.25500000920E-02 0.  1.
    10030    2    1    2    0    0  0.00000000000E+00  0.00000000000E+00  0.10916050107E+04  0.17758788832E+04  0.14007656152E+04 0.  0.
        4    1    3    3  502    0  0.32192586846E+03 -0.33902783634E+03 -0.11534604494E+03  0.48154175476E+03  0.12699999809E+01 0.  1.
       -4    1    3    3    0  502 -0.32192586846E+03  0.33902783634E+03  0.12069510556E+04  0.12943371285E+04  0.12699999809E+01 0. -1.
</event>
<event>
 5   0  0.9260916E-05  0.1399534E+04  0.7818609E-02  0.8954156E-01
        1   -1    0    0  501    0  0.00000000000E+00  0.00000000000E+00  0.10580370241E+04  0.10580370241E+04  0.50400001928E-02 0. -1.
       -1   -1    0    0    0  501  0.00000000000E+00  0.00000000000E+00 -0.46281375293E+03  0.46281375296E+03  0.50400001928E-02 0.  1.
    10030    2    1    2    0    0  0.00000000000E+00  0.00000000000E+00  0.59522327115E+03  0.15208507771E+04  0.13995343310E+04 0.  0.
        1    1    3    3  502    0  0.41146426046E+03 -0.30090400949E+03  0.81857182946E+03  0.96431628659E+03  0.50400001928E-02 0. -1.
       -1    1    3    3    0  502 -0.41146426046E+03  0.30090400949E+03 -0.22334855831E+03  0.55653449047E+03  0.50400001928E-02 0.  1.
</event>
<event>
 5   0  0.6671375E-05  0.1401758E+04  0.7818609E-02  0.8952547E-01
        1   -1    0    0  501    0  0.00000000000E+00  0.00000000000E+00  0.34270875708E+03  0.34270875711E+03  0.50400001928E-02 0.  1.
       -1   -1    0    0    0  501  0.00000000000E+00  0.00000000000E+00 -0.14333779020E+04  0.14333779020E+04  0.50400001928E-02 0. -1.
    10030    2    1    2    0    0  0.00000000000E+00  0.00000000000E+00 -0.10906691449E+04  0.17760866591E+04  0.14017576955E+04 0.  0.
        5    1    3    3  502    0  0.53731193813E+03  0.54911716779E+02 -0.11112498148E+04  0.12355636998E+04  0.46999998093E+01 0. -1.
       -5    1    3    3    0  502 -0.53731193813E+03 -0.54911716779E+02  0.20580669905E+02  0.54052295924E+03  0.46999998093E+01 0.  1.
</event>
<event>
 5   0  0.1766237E-04  0.1399865E+04  0.7818609E-02  0.8953916E-01
       -2   -1    0    0    0  501  0.00000000000E+00  0.00000000000E+00  0.31370630507E+03  0.31370630508E+03  0.25500000920E-02 0. -1.
        2   -1    0    0  501    0  0.00000000000E+00  0.00000000000E+00 -0.15616699353E+04  0.15616699353E+04  0.25500000920E-02 0.  1.
    10030    2    1    2    0    0  0.00000000000E+00  0.00000000000E+00 -0.12479636303E+04  0.18753762404E+04  0.13998652866E+04 0.  0.
        3    1    3    3  502    0 -0.15882845193E+03 -0.61915528516E+02  0.28547049014E+03  0.33249574547E+03  0.10100000352E+00 0. -1.
       -3    1    3    3    0  502  0.15882845193E+03  0.61915528516E+02 -0.15334341204E+04  0.15428804949E+04  0.10100000352E+00 0.  1.
</event>
<event>
 5   0  0.9828111E-05  0.1397183E+04  0.7818609E-02  0.8955860E-01
       -1   -1    0    0    0  501  0.00000000000E+00  0.00000000000E+00  0.62014457683E+03  0.62014457685E+03  0.50400001928E-02 0.  1.
        1   -1    0    0  501    0  0.00000000000E+00  0.00000000000E+00 -0.78696159667E+03  0.78696159668E+03  0.50400001928E-02 0. -1.
    10030    2    1    2    0    0  0.00000000000E+00  0.00000000000E+00 -0.16681701984E+03  0.14071061735E+04  0.13971828318E+04 0.  0.
        4    1    3    3  502    0 -0.42864382791E+03  0.50239027000E+02 -0.63664502990E+03  0.76914107811E+03  0.12699999809E+01 0. -1.
       -4    1    3    3    0  502  0.42864382791E+03 -0.50239027000E+02  0.46982801006E+03  0.63796509542E+03  0.12699999809E+01 0.  1.
</event>
<event>
 5   0  0.1766237E-04  0.1400303E+04  0.7818609E-02  0.8953600E-01
       -2   -1    0    0    0  501  0.00000000000E+00  0.00000000000E+00  0.37016355173E+03  0.37016355174E+03  0.25500000920E-02 0. -1.
        2   -1    0    0  501    0  0.00000000000E+00  0.00000000000E+00 -0.13243115545E+04  0.13243115545E+04  0.25500000920E-02 0.  1.
    10030    2    1    2    0    0  0.00000000000E+00  0.00000000000E+00 -0.95414800273E+03  0.16944751062E+04  0.14003026367E+04 0.  0.
        3    1    3    3  502    0  0.56291191626E+03 -0.38893357369E+03 -0.65685388594E+03  0.94847044650E+03  0.10100000352E+00 0. -1.
       -3    1    3    3    0  502 -0.56291191626E+03  0.38893357369E+03 -0.29729411679E+03  0.74600465969E+03  0.10100000352E+00 0.  1.
</event>
<event>
 5   0  0.6671375E-05  0.1410838E+04  0.7818609E-02  0.8946010E-01
        1   -1    0    0  501    0  0.00000000000E+00  0.00000000000E+00  0.48951792104E+03  0.48951792107E+03  0.50400001928E-02 0. -1.
       -1   -1    0    0    0  501  0.00000000000E+00  0.00000000000E+00 -0.10165433014E+04  0.10165433015E+04  0.50400001928E-02 0.  1.
    10030    2    1    2    0    0  0.00000000000E+00  0.00000000000E+00 -0.52702538040E+03  0.15060612225E+04  0.14108382807E+04 0.  0.
        5    1    3    3  502    0  0.55171270732E+03  0.40765802069E+03 -0.88033774212E+02  0.69162418165E+03  0.46999998093E+01 0. -1.
       -5    1    3    3    0  502 -0.55171270732E+03 -0.40765802069E+03 -0.43899160619E+03  0.81443704088E+03  0.46999998093E+01 0.  1.
</event>
<event>
 5   0  0.9978422E-05  0.1400535E+04  0.7818609E-02  0.8953431E-01
       -1   -1    0    0    0  501  0.00000000000E+00  0.00000000000E+00  0.28852345081E+03  0.28852345085E+03  0.50400001928E-02 0.  1.
        1   -1    0    0  501    0  0.00000000000E+00  0.00000000000E+00 -0.16996006858E+04  0.16996006858E+04  0.50400001928E-02 0. -1.
    10030    2    1    2    0    0  0.00000000000E+00  0.00000000000E+00 -0.14110772350E+04  0.19881241366E+04  0.14005351190E+04 0.  0.
        2    1    3    3  502    0  0.23381597164E+02 -0.37355761321E+03  0.13461522368E+03  0.39776028953E+03  0.25500000920E-02 0.  1.
       -2    1    3    3    0  502 -0.23381597164E+02  0.37355761321E+03 -0.15456924586E+04  0.15903638471E+04  0.25500000920E-02 0. -1.
</event>
<event>
 5   0  0.1780171E-04  0.1403999E+04  0.7818609E-02  0.8950929E-01
        2   -1    0    0  501    0  0.00000000000E+00  0.00000000000E+00  0.29905912933E+03  0.29905912934E+03  0.25500000920E-02 0.  1.
       -2   -1    0    0    0  501  0.00000000000E+00  0.00000000000E+00 -0.16478452145E+04  0.16478452145E+04  0.25500000920E-02 0. -1.
    10030    2    1    2    0    0  0.00000000000E+00  0.00000000000E+00 -0.13487860852E+04  0.19469043438E+04  0.14039987965E+04 0.  0.
        5    1    3    3  502    0 -0.55941450915E+03 -0.27742786477E+03 -0.11191500305E+04  0.12815731325E+04  0.46999998093E+01 0. -1.
       -5    1    3    3    0  502  0.55941450915E+03  0.27742786477E+03 -0.22963605471E+03  0.66533121137E+03  0.46999998093E+01 0.  1.
</event>
<event>
 5   0  0.9260916E-05  0.1391032E+04  0.7818609E-02  0.8960336E-01
        1   -1    0    0  501    0  0.00000000000E+00  0.00000000000E+00  0.48944447016E+03  0.48944447019E+03  0.50400001928E-02 0.  1.
       -1   -1    0    0    0  501  0.00000000000E+00  0.00000000000E+00 -0.98835001745E+03  0.98835001746E+03  0.50400001928E-02 0. -1.
    10030    2    1    2    0    0  0.00000000000E+00  0.00000000000E+00 -0.49890554729E+03  0.14777944876E+04  0.13910319201E+04 0.  0.
        1    1    3    3  502    0 -0.33446569642E+02 -0.33556827673E+03  0.39677884234E+03  0.52072851959E+03  0.50400001928E-02 0.  1.
       -1    1    3    3    0  502  0.33446569642E+02  0.33556827673E+03 -0.89568438962E+03  0.95706596805E+03  0.50400001928E-02 0. -1.
</event>
<event>
 5   0  0.9260916E-05  0.1400645E+04  0.7818609E-02  0.8953352E-01
        1   -1    0    0  501    0  0.00000000000E+00  0.00000000000E+00  0.77309713904E+03  0.77309713905E+03  0.50400001928E-02 0.  1.
       -1   -1    0    0    0  501  0.00000000000E+00  0.00000000000E+00 -0.63439815864E+03  0.63439815866E+03  0.50400001928E-02 0. -1.
    10030    2    1    2    0    0  0.00000000000E+00  0.00000000000E+00  0.13869898040E+03  0.14074952977E+04  0.14006447108E+04 0.  0.
        1    1    3    3  502    0  0.14464353184E+03 -0.45180201150E+03  0.58704355242E+03  0.75476283783E+03  0.50400001928E-02 0.  1.
       -1    1    3    3    0  502 -0.14464353184E+03  0.45180201150E+03 -0.44834457202E+03  0.65273245988E+03  0.50400001928E-02 0. -1.
</event>
<event>
 5   0  0.1766237E-04  0.1398234E+04  0.7818609E-02  0.8955098E-01
       -2   -1    0    0    0  501  0.00000000000E+00  0.00000000000E+00  0.99624672493E+03  0.99624672493E+03  0.25500000920E-02 0. -1.
        2   -1    0    0  501    0  0.00000000000E+00  0.00000000000E+00 -0.49060570741E+03  0.49060570742E+03  0.25500000920E-02 0.  1.
    10030    2    1    2    0    0  0.00000000000E+00  0.00000000000E+00  0.50564101751E+03  0.14868524323E+04  0.13982336418E+04 0.  0.
        3    1    3    3  502    0  0.85226807869E+01 -0.62528755123E+03 -0.79572069581E+02  0.63038788240E+03  0.10100000352E+00 0. -1.
       -3    1    3    3    0  502 -0.85226807869E+01  0.62528755123E+03  0.58521308709E+03  0.85646454995E+03  0.10100000352E+00 0.  1.
</event>
<event>
 5   0  0.9828111E-05  0.1397101E+04  0.7818609E-02  0.8955920E-01
       -1   -1    0    0    0  501  0.00000000000E+00  0.00000000000E+00  0.83975140361E+03  0.83975140363E+03  0.50400001928E-02 0. -1.
        1   -1    0    0  501    0  0.00000000000E+00  0.00000000000E+00 -0.58109158701E+03  0.58109158703E+03  0.50400001928E-02 0.  1.
    10030    2    1    2    0    0  0.00000000000E+00  0.00000000000E+00  0.25865981661E+03  0.14208429907E+04  0.13971005345E+04 0.  0.
        4    1    3    3  502    0 -0.41111630986E+03 -0.48761459829E+03  0.41910407206E+03  0.76317393353E+03  0.12699999809E+01 0. -1.
       -4    1    3    3    0  502  0.41111630986E+03  0.48761459829E+03 -0.16044425545E+03  0.65766905713E+03  0.12699999809E+01 0.  1.
</event>
<event>
 5   0  0.9260916E-05  0.1400303E+04  0.7818609E-02  0.8953599E-01
       -1   -1    0    0    0  501  0.00000000000E+00  0.00000000000E+00  0.87679190387E+03  0.87679190388E+03  0.50400001928E-02 0.  1.
        1   -1    0    0  501    0  0.00000000000E+00  0.00000000000E+00 -0.55909750505E+03  0.55909750507E+03  0.50400001928E-02 0. -1.
    10030    2    1    2    0    0  0.00000000000E+00  0.00000000000E+00  0.31769439882E+03  0.14358894090E+04  0.14003030614E+04 0.  0.
        1    1    3    3  502    0  0.58164110509E+03  0.38706014395E+03  0.11196622940E+03  0.70757216361E+03  0.50400001928E-02 0. -1.
       -1    1    3    3    0  502 -0.58164110509E+03 -0.38706014395E+03  0.20572816942E+03  0.72831724535E+03  0.50400001928E-02 0.  1.
</event>
<event>
 5   0  0.1780171E-04  0.1399336E+04  0.7818609E-02  0.8954299E-01
        2   -1    0    0  501    0  0.00000000000E+00  0.00000000000E+00  0.13613916240E+04  0.13613916240E+04  0.25500000920E-02 0.  1.
       -2   -1    0    0    0  501  0.00000000000E+00  0.00000000000E+00 -0.35958441741E+03  0.35958441742E+03  0.25500000920E-02 0. -1.
    10030    2    1    2    0    0  0.00000000000E+00  0.00000000000E+00  0.10018072066E+04  0.17209760414E+04  0.13993358625E+04 0.  0.
        5    1    3    3  502    0  0.63355416417E+03 -0.27009145922E+03  0.34941274588E+03  0.77230281125E+03  0.46999998093E+01 0. -1.
       -5    1    3    3    0  502 -0.63355416417E+03  0.27009145922E+03  0.65239446069E+03  0.94867323016E+03  0.46999998093E+01 0.  1.
</event>
<event>
 5   0  0.6671375E-05  0.1401244E+04  0.7818609E-02  0.8952918E-01
        1   -1    0    0  501    0  0.00000000000E+00  0.00000000000E+00  0.10739112579E+04  0.10739112579E+04  0.50400001928E-02 0. -1.
       -1   -1    0    0    0  501  0.00000000000E+00  0.00000000000E+00 -0.45708740625E+03  0.45708740628E+03  0.50400001928E-02 0.  1.
    10030    2    1    2    0    0  0.00000000000E+00  0.00000000000E+00  0.61682385167E+03  0.15309986642E+04  0.14012441778E+04 0.  0.
        5    1    3    3  502    0 -0.77139549760E+02 -0.17401523611E+03  0.10451006488E+04  0.10623037554E+04  0.46999998093E+01 0. -1.
       -5    1    3    3    0  502  0.77139549760E+02  0.17401523611E+03 -0.42827679718E+03  0.46869490880E+03  0.46999998093E+01 0.  1.
</event>
<event>
 5   0  0.1766237E-04  0.1400852E+04  0.7818609E-02  0.8953202E-01
        2   -1    0    0  501    0  0.00000000000E+00  0.00000000000E+00  0.18075583061E+04  0.18075583061E+04  0.25500000920E-02 0. -1.
       -2   -1    0    0    0  501  0.00000000000E+00  0.00000000000E+00 -0.27141409918E+03  0.27141409919E+03  0.25500000920E-02 0.  1.
    10030    2    1    2    0    0  0.00000000000E+00  0.00000000000E+00  0.15361442070E+04  0.20789724053E+04  0.14008523254E+04 0.  0.
        3    1    3    3  502    0  0.13859569591E+03  0.63133995542E+03  0.36765209160E+03  0.74361749367E+03  0.10100000352E+00 0. -1.
       -3    1    3    3    0  502 -0.13859569591E+03 -0.63133995542E+03  0.11684921154E+04  0.13353549117E+04  0.10100000352E+00 0.  1.
</event>
<event>
 5   0  0.9978422E-05  0.1396646E+04  0.7818609E-02  0.8956250E-01
       -1   -1    0    0    0  501  0.00000000000E+00  0.00000000000E+00  0.79677963109E+03  0.79677963111E+03  0.50400001928E-02 0. -1.
        1   -1    0    0  501    0  0.00000000000E+00  0.00000000000E+00 -0.61203270787E+03  0.61203270789E+03  0.50400001928E-02 0.  1.
    10030    2    1    2    0    0  0.00000000000E+00  0.00000000000E+00  0.18474692322E+03  0.14088123390E+04  0.13966462619E+04 0.  0.
        2    1    3    3  502    0 -0.59718780101E+03  0.13360854454E+03  0.43171239515E+03  0.74890593868E+03  0.25500000920E-02 0.  1.
       -2    1    3    3    0  502  0.59718780101E+03 -0.13360854454E+03 -0.24696547193E+03  0.65990640032E+03  0.25500000920E-02 0. -1.
</event>
<event>
 5   0  0.9828111E-05  0.1398915E+04  0.7818609E-02  0.8954605E-01
        1   -1    0    0  501    0  0.00000000000E+00  0.00000000000E+00  0.14853780664E+04  0.14853780664E+04  0.50400001928E-02 0.  1.
       -1   -1    0    0    0  501  0.00000000000E+00  0.00000000000E+00 -0.32937104746E+03  0.32937104750E+03  0.50400001928E-02 0. -1.
    10030    2    1    2    0    0  0.00000000000E+00  0.00000000000E+00  0.11560070190E+04  0.18147491139E+04  0.13989146216E+04 0.  0.
        4    1    3    3  502    0  0.47371858070E+03  0.11713612404E+03  0.12280677970E+04  0.13214697470E+04  0.12699999809E+01 0.  1.
       -4    1    3    3    0  502 -0.47371858070E+03 -0.11713612404E+03 -0.72060778001E+02  0.49327936698E+03  0.12699999809E+01 0. -1.
</event>
<event>
 5   0  0.9260916E-05  0.1400765E+04  0.7818609E-02  0.8953265E-01
        1   -1    0    0  501    0  0.00000000000E+00  0.00000000000E+00  0.16617698802E+04  0.16617698802E+04  0.50400001928E-02 0. -1.
       -1   -1    0    0    0  501  0.00000000000E+00  0.00000000000E+00 -0.29518879608E+03  0.29518879612E+03  0.50400001928E-02 0.  1.
    10030    2    1    2    0    0  0.00000000000E+00  0.00000000000E+00  0.13665810841E+04  0.19569586763E+04  0.14007652913E+04 0.  0.
        1    1    3    3  502    0 -0.23196829286E+03  0.66074749446E+03  0.66680104505E+03  0.96696441198E+03  0.50400001928E-02 0.  1.
       -1    1    3    3    0  502  0.23196829286E+03 -0.66074749446E+03  0.69978003906E+03  0.98999426434E+03  0.50400001928E-02 0. -1.
</event>
<event>
 5   0  0.9828111E-05  0.1393869E+04  0.7818609E-02  0.8958269E-01
        1   -1    0    0  501    0  0.00000000000E+00  0.00000000000E+00  0.62949876592E+03  0.62949876594E+03  0.50400001928E-02 0.  1.
       -1   -1    0    0    0  501  0.00000000000E+00  0.00000000000E+00 -0.77159415764E+03  0.77159415766E+03  0.50400001928E-02 0. -1.
    10030    2    1    2    0    0  0.00000000000E+00  0.00000000000E+00 -0.14209539172E+03  0.14010929236E+04  0.13938688174E+04 0.  0.
        4    1    3    3  502    0 -0.28934787780E+03  0.52205225740E+03 -0.43271128897E+03  0.73722549220E+03  0.12699999809E+01 0. -1.
       -4    1    3    3    0  502  0.28934787780E+03 -0.52205225740E+03  0.29061589725E+03  0.66386743140E+03  0.12699999809E+01 0.  1.
</event>
<event>
 5   0  0.1794185E-04  0.1402601E+04  0.7818609E-02  0.8951938E-01
       -2   -1    0    0    0  501  0.00000000000E+00  0.00000000000E+00  0.83443632533E+03  0.83443632533E+03  0.25500000920E-02 0.  1.
        2   -1    0    0  501    0  0.00000000000E+00  0.00000000000E+00 -0.58940706601E+03  0.58940706602E+03  0.25500000920E-02 0. -1.
    10030    2    1    2    0    0  0.00000000000E+00  0.00000000000E+00  0.24502925932E+03  0.14238433913E+04  0.14026013921E+04 0.  0.
        2    1    3    3  502    0 -0.15084514944E+03 -0.50135474417E+03 -0.35114783457E+03  0.63040910554E+03  0.25500000920E-02 0. -1.
       -2    1    3    3    0  502  0.15084514944E+03  0.50135474417E+03  0.59617709389E+03  0.79343428581E+03  0.25500000920E-02 0.  1.
</event>
<event>
 5   0  0.1712327E-04  0.1399743E+04  0.7818609E-02  0.8954004E-01
        2   -1    0    0  501    0  0.00000000000E+00  0.00000000000E+00  0.69287504029E+03  0.69287504030E+03  0.25500000920E-02 0.  1.
       -2   -1    0    0    0  501  0.00000000000E+00  0.00000000000E+00 -0.70693878033E+03  0.70693878034E+03  0.25500000920E-02 0. -1.
    10030    2    1    2    0    0  0.00000000000E+00  0.00000000000E+00 -0.14063740039E+02  0.13998138206E+04  0.13997431706E+04 0.  0.
        1    1    3    3  502    0 -0.59997251863E+03  0.35853789465E+03  0.29077997092E+02  0.69954411937E+03  0.50400001928E-02 0.  1.
       -1    1    3    3    0  502  0.59997251863E+03 -0.35853789465E+03 -0.43141737130E+02  0.70026970127E+03  0.50400001928E-02 0. -1.
</event>
<event>
 5   0  0.1766237E-04  0.1400546E+04  0.7818609E-02  0.8953423E-01
        2   -1    0    0  501    0  0.00000000000E+00  0.00000000000E+00  0.86112324272E+03  0.86112324273E+03  0.25500000920E-02 0. -1.
       -2   -1    0    0    0  501  0.00000000000E+00  0.00000000000E+00 -0.56946852899E+03  0.56946852899E+03  0.25500000920E-02 0.  1.
    10030    2    1    2    0    0  0.00000000000E+00  0.00000000000E+00  0.29165471373E+03  0.14305917717E+04  0.14005464452E+04 0.  0.
        3    1    3    3  502    0  0.29567014010E+03  0.39304842256E+03  0.65499322005E+03  0.81909951944E+03  0.10100000352E+00 0. -1.
       -3    1    3    3    0  502 -0.29567014010E+03 -0.39304842256E+03 -0.36333850632E+03  0.61149225228E+03  0.10100000352E+00 0.  1.
</event>
<event>
 5   0  0.1712327E-04  0.1398160E+04  0.7818609E-02  0.8955152E-01
        2   -1    0    0  501    0  0.00000000000E+00  0.00000000000E+00  0.68900625412E+03  0.68900625413E+03  0.25500000920E-02 0. -1.
       -2   -1    0    0    0  501  0.00000000000E+00  0.00000000000E+00 -0.70930058344E+03  0.70930058345E+03  0.25500000920E-02 0.  1.
    10030    2    1    2    0    0  0.00000000000E+00  0.00000000000E+00 -0.20294329321E+02  0.13983068376E+04  0.13981595589E+04 0.  0.
        1    1    3    3  502    0 -0.62258475707E+03  0.26306961820E+03  0.16846373683E+03  0.69656114908E+03  0.50400001928E-02 0. -1.
       -1    1    3    3    0  502  0.62258475707E+03 -0.26306961820E+03 -0.18875806615E+03  0.70174568849E+03  0.50400001928E-02 0.  1.
</event>
<event>
 5   0  0.1833681E-04  0.1399738E+04  0.7818609E-02  0.8954008E-01
       -2   -1    0    0    0  501  0.00000000000E+00  0.00000000000E+00  0.54020846826E+03  0.54020846827E+03  0.25500000920E-02 0. -1.
        2   -1    0    0  501    0  0.00000000000E+00  0.00000000000E+00 -0.90671746228E+03  0.90671746228E+03  0.25500000920E-02 0.  1.
    10030    2    1    2    0    0  0.00000000000E+00  0.00000000000E+00 -0.36650899402E+03  0.14469259306E+04  0.13997377632E+04 0.  0.
        4    1    3    3  502    0 -0.14758665036E+03 -0.35306266375E+02 -0.88950497982E+03  0.90235750888E+03  0.12699999809E+01 0.  1.
       -4    1    3    3    0  502  0.14758665036E+03  0.35306266375E+02  0.52299598581E+03  0.54456842167E+03  0.12699999809E+01 0. -1.
</event>
<event>
 5   0  0.9900839E-05  0.1400703E+04  0.7818609E-02  0.8953310E-01
        1   -1    0    0  501    0  0.00000000000E+00  0.00000000000E+00  0.53258821528E+03  0.53258821531E+03  0.50400001928E-02 0.  1.
       -1   -1    0    0    0  501  0.00000000000E+00  0.00000000000E+00 -0.92096013464E+03  0.92096013465E+03  0.50400001928E-02 0. -1.
    10030    2    1    2    0    0  0.00000000000E+00  0.00000000000E+00 -0.38837191935E+03  0.14535483500E+04  0.14007034154E+04 0.  0.
        3    1    3    3  502    0  0.26930704164E+03 -0.12419249969E+03 -0.85258491742E+03  0.90269103865E+03  0.10100000352E+00 0. -1.
       -3    1    3    3    0  502 -0.26930704164E+03  0.12419249969E+03  0.46421299806E+03  0.55085731131E+03  0.10100000352E+00 0.  1.
</event>
<event>
 5   0  0.9260916E-05  0.1401526E+04  0.7818609E-02  0.8952714E-01
        1   -1    0    0  501    0  0.00000000000E+00  0.00000000000E+00  0.55128024829E+03  0.55128024831E+03  0.50400001928E-02 0. -1.
       -1   -1    0    0    0  501  0.00000000000E+00  0.00000000000E+00 -0.89077943626E+03  0.89077943628E+03  0.50400001928E-02 0.  1.
    10030    2    1    2    0    0  0.00000000000E+00  0.00000000000E+00 -0.33949918797E+03  0.14420596846E+04  0.14015264661E+04 0.  0.
        1    1    3    3  502    0  0.69525550513E+03 -0.55433953697E+02 -0.23965541403E+03  0.73748753083E+03  0.50400001928E-02 0. -1.
       -1    1    3    3    0  502 -0.69525550513E+03  0.55433953697E+02 -0.99843773942E+02  0.70457215376E+03  0.50400001928E-02 0.  1.
</event>
<event>
 5   0  0.6671375E-05  0.1400552E+04  0.7818609E-02  0.8953419E-01
        1   -1    0    0  501    0  0.00000000000E+00  0.00000000000E+00  0.10758792154E+04  0.10758792154E+04  0.50400001928E-02 0. -1.
       -1   -1    0    0    0  501  0.00000000000E+00  0.00000000000E+00 -0.45580078173E+03  0.45580078176E+03  0.50400001928E-02 0.  1.
    10030    2    1    2    0    0  0.00000000000E+00  0.00000000000E+00  0.62007843368E+03  0.15316799972E+04  0.14005521589E+04 0.  0.
        5    1    3    3  502    0  0.57634224901E+03 -0.25072227837E+03  0.64770661186E+03  0.90253974644E+03  0.46999998093E+01 0. -1.
       -5    1    3    3    0  502 -0.57634224901E+03  0.25072227837E+03 -0.27628178185E+02  0.62914025073E+03  0.46999998093E+01 0.  1.
</event>
<event>
 5   0  0.9260916E-05  0.1397751E+04  0.7818609E-02  0.8955448E-01
       -1   -1    0    0    0  501  0.00000000000E+00  0.00000000000E+00  0.10800689184E+04  0.10800689184E+04  0.50400001928E-02 0.  1.
        1   -1    0    0  501    0  0.00000000000E+00  0.00000000000E+00 -0.45221851256E+03  0.45221851259E+03  0.50400001928E-02 0. -1.
    10030    2    1    2    0    0  0.00000000000E+00  0.00000000000E+00  0.62785040582E+03  0.15322874310E+04  0.13977512794E+04 0.  0.
        1    1    3    3  502    0  0.20866415619E+03 -0.30420542693E+03 -0.33679561042E+03  0.49951271763E+03  0.50400001928E-02 0. -1.
       -1    1    3    3    0  502 -0.20866415619E+03  0.30420542693E+03  0.96464601624E+03  0.10327747133E+04  0.50400001928E-02 0.  1.
</event>
<event>
 5   0  0.9828111E-05  0.1398226E+04  0.7818609E-02  0.8955104E-01
       -1   -1    0    0    0  501  0.00000000000E+00  0.00000000000E+00  0.83634894572E+03  0.83634894573E+03  0.50400001928E-02 0. -1.
        1   -1    0    0  501    0  0.00000000000E+00  0.00000000000E+00 -0.58439570348E+03  0.58439570350E+03  0.50400001928E-02 0.  1.
    10030    2    1    2    0    0  0.00000000000E+00  0.00000000000E+00  0.25195324224E+03  0.14207446492E+04  0.13982256335E+04 0.  0.
        4    1    3    3  502    0 -0.87651676152E+02  0.10695983594E+03 -0.57035879806E+03  0.58688499236E+03  0.12699999809E+01 0.  1.
       -4    1    3    3    0  502  0.87651676152E+02 -0.10695983594E+03  0.82231204030E+03  0.83385965687E+03  0.12699999809E+01 0. -1.
</event>
<event>
 5   0  0.9900839E-05  0.1401920E+04  0.7818609E-02  0.8952430E-01
        1   -1    0    0  501    0  0.00000000000E+00  0.00000000000E+00  0.41906507722E+03  0.41906507725E+03  0.50400001928E-02 0. -1.
       -1   -1    0    0    0  501  0.00000000000E+00  0.00000000000E+00 -0.11724784710E+04  0.11724784710E+04  0.50400001928E-02 0.  1.
    10030    2    1    2    0    0  0.00000000000E+00  0.00000000000E+00 -0.75341339379E+03  0.15915435483E+04  0.14019197995E+04 0.  0.
        3    1    3    3  502    0 -0.57404267622E+03  0.39660843018E+03 -0.30036917517E+03  0.75963470998E+03  0.10100000352E+00 0. -1.
       -3    1    3    3    0  502  0.57404267622E+03 -0.39660843018E+03 -0.45304421863E+03  0.83190883830E+03  0.10100000352E+00 0.  1.
</event>
<event>
 5   0  0.1833681E-04  0.1409384E+04  0.7818609E-02  0.8947054E-01
       -2   -1    0    0    0  501  0.00000000000E+00  0.00000000000E+00  0.51732055128E+03  0.51732055129E+03  0.25500000920E-02 0. -1.
        2   -1    0    0  501    0  0.00000000000E+00  0.00000000000E+00 -0.95992860623E+03  0.95992860623E+03  0.25500000920E-02 0.  1.
    10030    2    1    2    0    0  0.00000000000E+00  0.00000000000E+00 -0.44260805495E+03  0.14772491575E+04  0.14093839729E+04 0.  0.
        4    1    3    3  502    0  0.49485454002E+03 -0.39097427397E+03  0.10823495266E+03  0.63988930023E+03  0.12699999809E+01 0. -1.
       -4    1    3    3    0  502 -0.49485454002E+03  0.39097427397E+03 -0.55084300760E+03  0.83735985729E+03  0.12699999809E+01 0.  1.
</event>
<event>
 5   0  0.9978422E-05  0.1400831E+04  0.7818609E-02  0.8953217E-01
        1   -1    0    0  501    0  0.00000000000E+00  0.00000000000E+00  0.12462958549E+04  0.12462958549E+04  0.50400001928E-02 0. -1.
       -1   -1    0    0    0  501  0.00000000000E+00  0.00000000000E+00 -0.39363184610E+03  0.39363184614E+03  0.50400001928E-02 0.  1.
    10030    2    1    2    0    0  0.00000000000E+00  0.00000000000E+00  0.85266400876E+03  0.16399277010E+04  0.14008308080E+04 0.  0.
        2    1    3    3  502    0 -0.23394271722E+03 -0.51829538532E+03  0.90505720657E+03  0.10688722321E+04  0.25500000920E-02 0. -1.
       -2    1    3    3    0  502  0.23394271722E+03  0.51829538532E+03 -0.52393197811E+02  0.57105546891E+03  0.25500000920E-02 0.  1.
</event>
<event>
 5   0  0.9900839E-05  0.1400766E+04  0.7818609E-02  0.8953265E-01
       -1   -1    0    0    0  501  0.00000000000E+00  0.00000000000E+00  0.71961721069E+03  0.71961721071E+03  0.50400001928E-02 0. -1.
        1   -1    0    0  501    0  0.00000000000E+00  0.00000000000E+00 -0.68166253908E+03  0.68166253910E+03  0.50400001928E-02 0.  1.
    10030    2    1    2    0    0  0.00000000000E+00  0.00000000000E+00  0.37954671611E+02  0.14012797498E+04  0.14007656407E+04 0.  0.
        3    1    3    3  502    0 -0.68831310293E+03 -0.10823399304E+02 -0.11008168485E+03  0.69714421835E+03  0.10100000352E+00 0.  1.
       -3    1    3    3    0  502  0.68831310293E+03  0.10823399304E+02  0.14803635646E+03  0.70413553147E+03  0.10100000352E+00 0. -1.
</event>
<event>
 5   0  0.1780171E-04  0.1399360E+04  0.7818609E-02  0.8954282E-01
        2   -1    0    0  501    0  0.00000000000E+00  0.00000000000E+00  0.63010335685E+03  0.63010335685E+03  0.25500000920E-02 0.  1.
       -2   -1    0    0    0  501  0.00000000000E+00  0.00000000000E+00 -0.77693928878E+03  0.77693928879E+03  0.25500000920E-02 0. -1.
    10030    2    1    2    0    0  0.00000000000E+00  0.00000000000E+00 -0.14683593194E+03  0.14070426456E+04  0.13993599307E+04 0.  0.
        5    1    3    3  502    0 -0.67416175987E+03 -0.14534336210E+03 -0.19201122594E+03  0.71589745932E+03  0.46999998093E+01 0. -1.
       -5    1    3    3    0  502  0.67416175987E+03  0.14534336210E+03  0.45175294006E+02  0.69114518631E+03  0.46999998093E+01 0.  1.
</event>
<event>
 5   0  0.9978422E-05  0.1402762E+04  0.7818609E-02  0.8951822E-01
        1   -1    0    0  501    0  0.00000000000E+00  0.00000000000E+00  0.19255287276E+04  0.19255287276E+04  0.50400001928E-02 0.  1.
       -1   -1    0    0    0  501  0.00000000000E+00  0.00000000000E+00 -0.25548054448E+03  0.25548054453E+03  0.50400001928E-02 0. -1.
    10030    2    1    2    0    0  0.00000000000E+00  0.00000000000E+00  0.16700481831E+04  0.21810092721E+04  0.14027617443E+04 0.  0.
        2    1    3    3  502    0 -0.20615597656E+03  0.20880624756E+02 -0.20680434746E+03  0.29275301074E+03  0.25500000920E-02 0. -1.
       -2    1    3    3    0  502  0.20615597656E+03 -0.20880624756E+02  0.18768525306E+04  0.18882562614E+04  0.25500000920E-02 0.  1.
</event>
<event>
 5   0  0.6671375E-05  0.1402618E+04  0.7818609E-02  0.8951926E-01
        1   -1    0    0  501    0  0.00000000000E+00  0.00000000000E+00  0.15314054658E+04  0.15314054658E+04  0.50400001928E-02 0.  1.
       -1   -1    0    0    0  501  0.00000000000E+00  0.00000000000E+00 -0.32116518597E+03  0.32116518601E+03  0.50400001928E-02 0. -1.
    10030    2    1    2    0    0  0.00000000000E+00  0.00000000000E+00  0.12102402798E+04  0.18525706518E+04  0.14026177259E+04 0.  0.
        5    1    3    3  502    0  0.17880412255E+03  0.46068576119E+02 -0.28846272761E+03  0.34252892311E+03  0.46999998093E+01 0. -1.
       -5    1    3    3    0  502 -0.17880412255E+03 -0.46068576119E+02  0.14987030074E+04  0.15100417287E+04  0.46999998093E+01 0.  1.
</event>
<event>
 5   0  0.6671375E-05  0.1398181E+04  0.7818609E-02  0.8955136E-01
       -1   -1    0    0    0  501  0.00000000000E+00  0.00000000000E+00  0.53338887693E+03  0.53338887696E+03  0.50400001928E-02 0.  1.
        1   -1    0    0  501    0  0.00000000000E+00  0.00000000000E+00 -0.91626858363E+03  0.91626858365E+03  0.50400001928E-02 0. -1.
    10030    2    1    2    0    0  0.00000000000E+00  0.00000000000E+00 -0.38287970670E+03  0.14496574606E+04  0.13981809194E+04 0.  0.
        5    1    3    3  502    0  0.13644123467E+03  0.45095403621E+03 -0.72691294666E+03  0.86625647202E+03  0.46999998093E+01 0. -1.
       -5    1    3    3    0  502 -0.13644123467E+03 -0.45095403621E+03  0.34403323995E+03  0.58340098859E+03  0.46999998093E+01 0.  1.
</event>
<event>
 5   0  0.1794185E-04  0.1401347E+04  0.7818609E-02  0.8952844E-01
       -2   -1    0    0    0  501  0.00000000000E+00  0.00000000000E+00  0.28564416779E+03  0.28564416780E+03  0.25500000920E-02 0. -1.
        2   -1    0    0  501    0  0.00000000000E+00  0.00000000000E+00 -0.17187244135E+04  0.17187244135E+04  0.25500000920E-02 0.  1.
    10030    2    1    2    0    0  0.00000000000E+00  0.00000000000E+00 -0.14330802457E+04  0.20043685813E+04  0.14013473585E+04 0.  0.
        2    1    3    3  502    0  0.23772105243E+03  0.65440519731E+03 -0.82903734284E+03  0.10826173733E+04  0.25500000920E-02 0. -1.
       -2    1    3    3    0  502 -0.23772105243E+03 -0.65440519731E+03 -0.60404290288E+03  0.92175120806E+03  0.25500000920E-02 0.  1.
</event>
<event>
 5   0  0.1794185E-04  0.1401312E+04  0.7818609E-02  0.8952870E-01
       -2   -1    0    0    0  501  0.00000000000E+00  0.00000000000E+00  0.12433185486E+04  0.12433185486E+04  0.25500000920E-02 0.  1.
        2   -1    0    0  501    0  0.00000000000E+00  0.00000000000E+00 -0.39484544044E+03  0.39484544045E+03  0.25500000920E-02 0. -1.
    10030    2    1    2    0    0  0.00000000000E+00  0.00000000000E+00  0.84847310820E+03  0.16381639891E+04  0.14013117568E+04 0.  0.
        2    1    3    3  502    0 -0.34241662392E+03  0.55250627250E+03  0.72998958360E+03  0.97744417624E+03  0.25500000920E-02 0.  1.
       -2    1    3    3    0  502  0.34241662392E+03 -0.55250627250E+03  0.11848352460E+03  0.66071981285E+03  0.25500000920E-02 0. -1.
</event>
<event>
 5   0  0.1780171E-04  0.1400057E+04  0.7818609E-02  0.8953777E-01
       -2   -1    0    0    0  501  0.00000000000E+00  0.00000000000E+00  0.32870088615E+03  0.32870088616E+03  0.25500000920E-02 0.  1.
        2   -1    0    0  501    0  0.00000000000E+00  0.00000000000E+00 -0.14908392458E+04  0.14908392458E+04  0.25500000920E-02 0. -1.
    10030    2    1    2    0    0  0.00000000000E+00  0.00000000000E+00 -0.11621383596E+04  0.18195401319E+04  0.14000574005E+04 0.  0.
        5    1    3    3  502    0  0.21301744193E+03  0.37163124183E+03  0.13846863385E+03  0.45020202469E+03  0.46999998093E+01 0.  1.
       -5    1    3    3    0  502 -0.21301744193E+03 -0.37163124183E+03 -0.13006069935E+04  0.13693381072E+04  0.46999998093E+01 0. -1.
</event>
<event>
 5   0  0.1833681E-04  0.1401882E+04  0.7818609E-02  0.8952457E-01
        2   -1    0    0  501    0  0.00000000000E+00  0.00000000000E+00  0.13433866283E+04  0.13433866283E+04  0.25500000920E-02 0. -1.
       -2   -1    0    0    0  501  0.00000000000E+00  0.00000000000E+00 -0.36573130697E+03  0.36573130698E+03  0.25500000920E-02 0.  1.
    10030    2    1    2    0    0  0.00000000000E+00  0.00000000000E+00  0.97765532131E+03  0.17091179353E+04  0.14018823736E+04 0.  0.
        4    1    3    3  502    0  0.43827785038E+01 -0.19746102514E+03 -0.33110285149E+03  0.38553959117E+03  0.12699999809E+01 0.  1.
       -4    1    3    3    0  502 -0.43827785038E+01  0.19746102514E+03  0.13087581728E+04  0.13235783441E+04  0.12699999809E+01 0. -1.
</event>
<event>
 5   0  0.9260916E-05  0.1399251E+04  0.7818609E-02  0.8954361E-01
       -1   -1    0    0    0  501  0.00000000000E+00  0.00000000000E+00  0.22123453575E+03  0.22123453581E+03  0.50400001928E-02 0.  1.
        1   -1    0    0  501    0  0.00000000000E+00  0.00000000000E+00 -0.22124735755E+04  0.22124735755E+04  0.50400001928E-02 0. -1.
    10030    2    1    2    0    0  0.00000000000E+00  0.00000000000E+00 -0.19912390397E+04  0.24337081113E+04  0.13992506057E+04 0.  0.
        1    1    3    3  502    0 -0.39936041951E+03 -0.60413307682E+01 -0.19946926164E+04  0.20342870683E+04  0.50400001928E-02 0. -1.
       -1    1    3    3    0  502  0.39936041951E+03  0.60413307682E+01  0.34535766838E+01  0.39942104297E+03  0.50400001928E-02 0.  1.
</event>
<event>
 5   0  0.1833681E-04  0.1402202E+04  0.7818609E-02  0.8952226E-01
        2   -1    0    0  501    0  0.00000000000E+00  0.00000000000E+00  0.97106355892E+03  0.97106355892E+03  0.25500000920E-02 0.  1.
       -2   -1    0    0    0  501  0.00000000000E+00  0.00000000000E+00 -0.50618969581E+03  0.50618969582E+03  0.25500000920E-02 0. -1.
    10030    2    1    2    0    0  0.00000000000E+00  0.00000000000E+00  0.46487386311E+03  0.14772532547E+04  0.14022016510E+04 0.  0.
        4    1    3    3  502    0 -0.68074085616E+03 -0.90572786447E+02  0.83710026053E+02  0.69182405585E+03  0.12699999809E+01 0. -1.
       -4    1    3    3    0  502  0.68074085616E+03  0.90572786447E+02  0.38116383706E+03  0.78542919889E+03  0.12699999809E+01 0.  1.
</event>
<event>
 5   0  0.9828111E-05  0.1400374E+04  0.7818609E-02  0.8953548E-01
       -1   -1    0    0    0  501  0.00000000000E+00  0.00000000000E+00  0.59598263010E+03  0.59598263013E+03  0.50400001928E-02 0.  1.
        1   -1    0    0  501    0  0.00000000000E+00  0.00000000000E+00 -0.82261050256E+03  0.82261050257E+03  0.50400001928E-02 0. -1.
    10030    2    1    2    0    0  0.00000000000E+00  0.00000000000E+00 -0.22662787245E+03  0.14185931327E+04  0.14003736228E+04 0.  0.
        4    1    3    3  502    0  0.13658831735E+03 -0.24515333250E+03 -0.76314529124E+03  0.81311061567E+03  0.12699999809E+01 0. -1.
       -4    1    3    3    0  502 -0.13658831735E+03  0.24515333250E+03  0.53651741879E+03  0.60548251703E+03  0.12699999809E+01 0.  1.
</event>
<event>
 5   0  0.1712327E-04  0.1400086E+04  0.7818609E-02  0.8953756E-01
        2   -1    0    0  501    0  0.00000000000E+00  0.00000000000E+00  0.24245878476E+04  0.24245878476E+04  0.25500000920E-02 0. -1.
       -2   -1    0    0    0  501  0.00000000000E+00  0.00000000000E+00 -0.20212106199E+03  0.20212106201E+03  0.25500000920E-02 0.  1.
    10030    2    1    2    0    0  0.00000000000E+00  0.00000000000E+00  0.22224667856E+04  0.26267089096E+04  0.14000860983E+04 0.  0.
        1    1    3    3  502    0  0.60839156460E+03  0.41097056404E+02  0.46613954879E+03  0.76753849603E+03  0.50400001928E-02 0.  1.
       -1    1    3    3    0  502 -0.60839156460E+03 -0.41097056404E+02  0.17563272369E+04  0.18591704136E+04  0.50400001928E-02 0. -1.
</event>
<event>
 5   0  0.9900839E-05  0.1402604E+04  0.7818609E-02  0.8951936E-01
       -1   -1    0    0    0  501  0.00000000000E+00  0.00000000000E+00  0.85472523385E+03  0.85472523386E+03  0.50400001928E-02 0. -1.
        1   -1    0    0  501    0  0.00000000000E+00  0.00000000000E+00 -0.57541803042E+03  0.57541803044E+03  0.50400001928E-02 0.  1.
    10030    2    1    2    0    0  0.00000000000E+00  0.00000000000E+00  0.27930720343E+03  0.14301432643E+04  0.14026037368E+04 0.  0.
        3    1    3    3  502    0  0.54202773011E+02  0.38678568837E+03  0.73357055931E+03  0.83106370696E+03  0.10100000352E+00 0. -1.
       -3    1    3    3    0  502 -0.54202773011E+02 -0.38678568837E+03 -0.45426335588E+03  0.59907955735E+03  0.10100000352E+00 0.  1.
</event>
<event>
 5   0  0.1766237E-04  0.1399440E+04  0.7818609E-02  0.8954224E-01
       -2   -1    0    0    0  501  0.00000000000E+00  0.00000000000E+00  0.11805217439E+04  0.11805217439E+04  0.25500000920E-02 0.  1.
        2   -1    0    0  501    0  0.00000000000E+00  0.00000000000E+00 -0.41473876301E+03  0.41473876302E+03  0.25500000920E-02 0. -1.
    10030    2    1    2    0    0  0.00000000000E+00  0.00000000000E+00  0.76578298089E+03  0.15952605069E+04  0.13994400706E+04 0.  0.
        3    1    3    3  502    0 -0.24919358984E+03  0.45980141579E+03  0.91279645715E+03  0.10520038829E+04  0.10100000352E+00 0.  1.
       -3    1    3    3    0  502  0.24919358984E+03 -0.45980141579E+03 -0.14701347626E+03  0.54325662406E+03  0.10100000352E+00 0. -1.
</event>
<event>
 5   0  0.6671375E-05  0.1402057E+04  0.7818609E-02  0.8952331E-01
        1   -1    0    0  501    0  0.00000000000E+00  0.00000000000E+00  0.88157289401E+03  0.88157289403E+03  0.50400001928E-02 0.  1.
       -1   -1    0    0    0  501  0.00000000000E+00  0.00000000000E+00 -0.55745962044E+03  0.55745962046E+03  0.50400001928E-02 0. -1.
    10030    2    1    2    0    0  0.00000000000E+00  0.00000000000E+00  0.32411327357E+03  0.14390325145E+04  0.14020574752E+04 0.  0.
        5    1    3    3  502    0  0.15557437851E+02 -0.39201405774E+03 -0.43421349952E+03  0.58521834259E+03  0.46999998093E+01 0. -1.
       -5    1    3    3    0  502 -0.15557437851E+02  0.39201405774E+03  0.75832677310E+03  0.85381417190E+03  0.46999998093E+01 0.  1.
</event>
<event>
 5   0  0.1712327E-04  0.1404459E+04  0.7818609E-02  0.8950597E-01
        2   -1    0    0  501    0  0.00000000000E+00  0.00000000000E+00  0.77388604590E+03  0.77388604590E+03  0.25500000920E-02 0.  1.
       -2   -1    0    0    0  501  0.00000000000E+00  0.00000000000E+00 -0.63720820403E+03  0.63720820404E+03  0.25500000920E-02 0. -1.
    10030    2    1    2    0    0  0.00000000000E+00  0.00000000000E+00  0.13667784187E+03  0.14110942499E+04  0.14044593799E+04 0.  0.
        1    1    3    3  502    0  0.16227430484E+03 -0.73141342062E+01  0.75475017031E+03  0.77203255513E+03  0.50400001928E-02 0.  1.
       -1    1    3    3    0  502 -0.16227430484E+03  0.73141342062E+01 -0.61807232844E+03  0.63906169482E+03  0.50400001928E-02 0. -1.
</event>
<event>
 5   0  0.1766237E-04  0.1393194E+04  0.7818609E-02  0.8958760E-01
       -2   -1    0    0    0  501  0.00000000000E+00  0.00000000000E+00  0.91500052268E+03  0.91500052268E+03  0.25500000920E-02 0.  1.
        2   -1    0    0  501    0  0.00000000000E+00  0.00000000000E+00 -0.53032470530E+03  0.53032470531E+03  0.25500000920E-02 0. -1.
    10030    2    1    2    0    0  0.00000000000E+00  0.00000000000E+00  0.38467581737E+03  0.14453252280E+04  0.13931940031E+04 0.  0.
        3    1    3    3  502    0 -0.22706772997E+03 -0.52670682996E+03 -0.21776076600E+03  0.61351414012E+03  0.10100000352E+00 0. -1.
       -3    1    3    3    0  502  0.22706772997E+03  0.52670682996E+03  0.60243658337E+03  0.83181108787E+03  0.10100000352E+00 0.  1.
</event>
<event>
 5   0  0.6671375E-05  0.1399646E+04  0.7818609E-02  0.8954075E-01
       -1   -1    0    0    0  501  0.00000000000E+00  0.00000000000E+00  0.52489653423E+03  0.52489653426E+03  0.50400001928E-02 0. -1.
        1   -1    0    0  501    0  0.00000000000E+00  0.00000000000E+00 -0.93304464380E+03  0.93304464381E+03  0.50400001928E-02 0.  1.
    10030    2    1    2    0    0  0.00000000000E+00  0.00000000000E+00 -0.40814810956E+03  0.14579411781E+04  0.13996455263E+04 0.  0.
        5    1    3    3  502    0 -0.11950040124E+03  0.68435912365E+03 -0.11629034677E+03  0.70439569190E+03  0.46999998093E+01 0. -1.
       -5    1    3    3    0  502  0.11950040124E+03 -0.68435912365E+03 -0.29185776279E+03  0.75354548616E+03  0.46999998093E+01 0.  1.
</event>
<event>
 5   0  0.9828111E-05  0.1395692E+04  0.7818609E-02  0.8956943E-01
        1   -1    0    0  501    0  0.00000000000E+00  0.00000000000E+00  0.88587648602E+03  0.88587648604E+03  0.50400001928E-02 0. -1.
       -1   -1    0    0    0  501  0.00000000000E+00  0.00000000000E+00 -0.54972555633E+03  0.54972555636E+03  0.50400001928E-02 0.  1.
    10030    2    1    2    0    0  0.00000000000E+00  0.00000000000E+00  0.33615092969E+03  0.14356020424E+04  0.13956918631E+04 0.  0.
        4    1    3    3  502    0  0.50012551924E+03 -0.41529191724E+03 -0.92941441515E+02  0.65668305595E+03  0.12699999809E+01 0.  1.
       -4    1    3    3    0  502 -0.50012551924E+03  0.41529191724E+03  0.42909237121E+03  0.77891898645E+03  0.12699999809E+01 0. -1.
</event>
<event>
 5   0  0.9978422E-05  0.1401370E+04  0.7818609E-02  0.8952827E-01
       -1   -1    0    0    0  501  0.00000000000E+00  0.00000000000E+00  0.95893869001E+03  0.95893869003E+03  0.50400001928E-02 0. -1.
        1   -1    0    0  501    0  0.00000000000E+00  0.00000000000E+00 -0.51198242072E+03  0.51198242074E+03  0.50400001928E-02 0.  1.
    10030    2    1    2    0    0  0.00000000000E+00  0.00000000000E+00  0.44695626930E+03  0.14709211108E+04  0.14013704034E+04 0.  0.
        2    1    3    3  502    0  0.59650236815E+03  0.18128406811E+03  0.55916428235E+03  0.83746264586E+03  0.25500000920E-02 0. -1.
       -2    1    3    3    0  502 -0.59650236815E+03 -0.18128406811E+03 -0.11220801305E+03  0.63345846490E+03  0.25500000920E-02 0.  1.
</event>
<event>
 5   0  0.1833681E-04  0.1399877E+04  0.7818609E-02  0.8953908E-01
       -2   -1    0    0    0  501  0.00000000000E+00  0.00000000000E+00  0.10301649218E+04  0.10301649219E+04  0.25500000920E-02 0.  1.
        2   -1    0    0  501    0  0.00000000000E+00  0.00000000000E+00 -0.47556834623E+03  0.47556834624E+03  0.25500000920E-02 0. -1.
    10030    2    1    2    0    0  0.00000000000E+00  0.00000000000E+00  0.55459657561E+03  0.15057332681E+04  0.13998768921E+04 0.  0.
        4    1    3    3  502    0  0.31541593912E+02  0.49191157585E+03 -0.25720973267E+03  0.55599490113E+03  0.12699999809E+01 0. -1.
       -4    1    3    3    0  502 -0.31541593912E+02 -0.49191157585E+03  0.81180630829E+03  0.94973836696E+03  0.12699999809E+01 0.  1.
</event>
<event>
 5   0  0.1712327E-04  0.1400033E+04  0.7818609E-02  0.8953795E-01
        2   -1    0    0  501    0  0.00000000000E+00  0.00000000000E+00  0.19839108231E+04  0.19839108231E+04  0.25500000920E-02 0. -1.
       -2   -1    0    0    0  501  0.00000000000E+00  0.00000000000E+00 -0.24699855707E+03  0.24699855708E+03  0.25500000920E-02 0.  1.
    10030    2    1    2    0    0  0.00000000000E+00  0.00000000000E+00  0.17369122661E+04  0.22309093802E+04  0.14000330149E+04 0.  0.
        1    1    3    3  502    0 -0.45946094338E+02  0.47203992214E+03  0.16888844384E+04  0.17542130367E+04  0.50400001928E-02 0. -1.
       -1    1    3    3    0  502  0.45946094338E+02 -0.47203992214E+03  0.48027827626E+02  0.47669634352E+03  0.50400001928E-02 0.  1.
</event>
<event>
 5   0  0.9260916E-05  0.1394882E+04  0.7818609E-02  0.8957531E-01
       -1   -1    0    0    0  501  0.00000000000E+00  0.00000000000E+00  0.10622851574E+04  0.10622851574E+04  0.50400001928E-02 0. -1.
        1   -1    0    0  501    0  0.00000000000E+00  0.00000000000E+00 -0.45790366455E+03  0.45790366458E+03  0.50400001928E-02 0.  1.
    10030    2    1    2    0    0  0.00000000000E+00  0.00000000000E+00  0.60438149283E+03  0.15201888220E+04  0.13948824558E+04 0.  0.
        1    1    3    3  502    0 -0.58029256118E+03 -0.89245831824E+02 -0.10808465719E+03  0.59698121260E+03  0.50400001928E-02 0.  1.
       -1    1    3    3    0  502  0.58029256118E+03  0.89245831824E+02  0.71246615002E+03  0.92320760938E+03  0.50400001928E-02 0. -1.
</event>
<event>
 5   0  0.1780171E-04  0.1397968E+04  0.7818609E-02  0.8955291E-01
        2   -1    0    0  501    0  0.00000000000E+00  0.00000000000E+00  0.84747675508E+03  0.84747675509E+03  0.25500000920E-02 0. -1.
       -2   -1    0    0    0  501  0.00000000000E+00  0.00000000000E+00 -0.57650996966E+03  0.57650996967E+03  0.25500000920E-02 0.  1.
    10030    2    1    2    0    0  0.00000000000E+00  0.00000000000E+00  0.27096678542E+03  0.14239867248E+04  0.13979682377E+04 0.  0.
        5    1    3    3  502    0 -0.46889040685E+03  0.83071904390E+02  0.65666781694E+03  0.81116821113E+03  0.46999998093E+01 0. -1.
       -5    1    3    3    0  502  0.46889040685E+03 -0.83071904390E+02 -0.38570103152E+03  0.61281851363E+03  0.46999998093E+01 0.  1.
</event>
<event>
 5   0  0.9828111E-05  0.1400752E+04  0.7818609E-02  0.8953274E-01
        1   -1    0    0  501    0  0.00000000000E+00  0.00000000000E+00  0.71189766672E+03  0.71189766674E+03  0.50400001928E-02 0.  1.
       -1   -1    0    0    0  501  0.00000000000E+00  0.00000000000E+00 -0.68904067929E+03  0.68904067931E+03  0.50400001928E-02 0. -1.
    10030    2    1    2    0    0  0.00000000000E+00  0.00000000000E+00  0.22856987429E+02  0.14009383460E+04  0.14007518722E+04 0.  0.
        4    1    3    3  502    0  0.29778621732E+03  0.27539171739E+03  0.58247526453E+03  0.70978607758E+03  0.12699999809E+01 0.  1.
       -4    1    3    3    0  502 -0.29778621732E+03 -0.27539171739E+03 -0.55961827711E+03  0.69115226846E+03  0.12699999809E+01 0. -1.
</event>
<event>
 5   0  0.9900839E-05  0.1399998E+04  0.7818609E-02  0.8953820E-01
        1   -1    0    0  501    0  0.00000000000E+00  0.00000000000E+00  0.59854680413E+03  0.59854680415E+03  0.50400001928E-02 0.  1.
       -1   -1    0    0    0  501  0.00000000000E+00  0.00000000000E+00 -0.81864706680E+03  0.81864706682E+03  0.50400001928E-02 0. -1.
    10030    2    1    2    0    0  0.00000000000E+00  0.00000000000E+00 -0.22010026267E+03  0.14171938710E+04  0.13999979794E+04 0.  0.
        3    1    3    3  502    0 -0.34392001810E+03  0.56396503404E+03 -0.34454394335E+03  0.74501548814E+03  0.10100000352E+00 0.  1.
       -3    1    3    3    0  502  0.34392001810E+03 -0.56396503404E+03  0.12444368068E+03  0.67217838282E+03  0.10100000352E+00 0. -1.
</event>
<event>
 5   0  0.6671375E-05  0.1400299E+04  0.7818609E-02  0.8953602E-01
        1   -1    0    0  501    0  0.00000000000E+00  0.00000000000E+00  0.84164582188E+03  0.84164582190E+03  0.50400001928E-02 0. -1.
       -1   -1    0    0    0  501  0.00000000000E+00  0.00000000000E+00 -0.58244172827E+03  0.58244172829E+03  0.50400001928E-02 0.  1.
    10030    2    1    2    0    0  0.00000000000E+00  0.00000000000E+00  0.25920409361E+03  0.14240875502E+04  0.14002994638E+04 0.  0.
        5    1    3    3  502    0  0.28557533283E+03 -0.45227781340E+03  0.58902744041E+03  0.79566570039E+03  0.46999998093E+01 0. -1.
       -5    1    3    3    0  502 -0.28557533283E+03  0.45227781340E+03 -0.32982334679E+03  0.62842184980E+03  0.46999998093E+01 0.  1.
</event>
<event>
 5   0  0.9978422E-05  0.1401763E+04  0.7818609E-02  0.8952543E-01
        1   -1    0    0  501    0  0.00000000000E+00  0.00000000000E+00  0.16782321311E+04  0.16782321311E+04  0.50400001928E-02 0.  1.
       -1   -1    0    0    0  501  0.00000000000E+00  0.00000000000E+00 -0.29270978061E+03  0.29270978066E+03  0.50400001928E-02 0. -1.
    10030    2    1    2    0    0  0.00000000000E+00  0.00000000000E+00  0.13855223505E+04  0.19709419117E+04  0.14017631169E+04 0.  0.
        2    1    3    3  502    0  0.56248977176E+03  0.30277047040E+03  0.28726830716E+03  0.70041971802E+03  0.25500000920E-02 0. -1.
       -2    1    3    3    0  502 -0.56248977176E+03 -0.30277047040E+03  0.10982540433E+04  0.12705221937E+04  0.25500000920E-02 0.  1.
</event>
<event>
 5   0  0.6671375E-05  0.1395695E+04  0.7818609E-02  0.8956940E-01
        1   -1    0    0  501    0  0.00000000000E+00  0.00000000000E+00  0.15238417534E+04  0.15238417534E+04  0.50400001928E-02 0.  1.
       -1   -1    0    0    0  501  0.00000000000E+00  0.00000000000E+00 -0.31958138354E+03  0.31958138358E+03  0.50400001928E-02 0. -1.
    10030    2    1    2    0    0  0.00000000000E+00  0.00000000000E+00  0.12042603698E+04  0.18434231370E+04  0.13956954623E+04 0.  0.
        5    1    3    3  502    0  0.58753790904E+03 -0.20017975066E+03  0.18093085943E+03  0.64655300867E+03  0.46999998093E+01 0.  1.
       -5    1    3    3    0  502 -0.58753790904E+03  0.20017975066E+03  0.10233295104E+04  0.11968701283E+04  0.46999998093E+01 0. -1.
</event>
<event>
 5   0  0.1833681E-04  0.1398479E+04  0.7818609E-02  0.8954920E-01
        2   -1    0    0  501    0  0.00000000000E+00  0.00000000000E+00  0.10900972677E+04  0.10900972677E+04  0.25500000920E-02 0.  1.
       -2   -1    0    0    0  501  0.00000000000E+00  0.00000000000E+00 -0.44852528404E+03  0.44852528405E+03  0.25500000920E-02 0. -1.
    10030    2    1    2    0    0  0.00000000000E+00  0.00000000000E+00  0.64157198364E+03  0.15386225517E+04  0.13984794409E+04 0.  0.
        4    1    3    3  502    0 -0.71573929726E+02  0.58087854057E+03 -0.10016785527E+03  0.59378271989E+03  0.12699999809E+01 0. -1.
       -4    1    3    3    0  502  0.71573929726E+02 -0.58087854057E+03  0.74173983892E+03  0.94483983185E+03  0.12699999809E+01 0.  1.
</event>
<event>
 5   0  0.9260916E-05  0.1399462E+04  0.7818609E-02  0.8954208E-01
       -1   -1    0    0    0  501  0.00000000000E+00  0.00000000000E+00  0.33698098797E+04  0.33698098797E+04  0.50400001928E-02 0. -1.
        1   -1    0    0  501    0  0.00000000000E+00  0.00000000000E+00 -0.14529699550E+03  0.14529699559E+03  0.50400001928E-02 0.  1.
    10030    2    1    2    0    0  0.00000000000E+00  0.00000000000E+00  0.32245128842E+04  0.35151068753E+04  0.13994616838E+04 0.  0.
        1    1    3    3  502    0  0.45261728681E+03  0.10593539637E+03  0.29858493694E+03  0.55248319532E+03  0.50400001928E-02 0.  1.
       -1    1    3    3    0  502 -0.45261728681E+03 -0.10593539637E+03  0.29259279473E+04  0.29626236800E+04  0.50400001928E-02 0. -1.
</event>
<event>
 5   0  0.9900839E-05  0.1402165E+04  0.7818609E-02  0.8952253E-01
       -1   -1    0    0    0  501  0.00000000000E+00  0.00000000000E+00  0.41939090181E+03  0.41939090184E+03  0.50400001928E-02 0.  1.
        1   -1    0    0  501    0  0.00000000000E+00  0.00000000000E+00 -0.11719767434E+04  0.11719767434E+04  0.50400001928E-02 0. -1.
    10030    2    1    2    0    0  0.00000000000E+00  0.00000000000E+00 -0.75258584162E+03  0.15913676453E+04  0.14021645886E+04 0.  0.
        3    1    3    3  502    0  0.68602297146E+03  0.90933475553E+02 -0.50379007697E+03  0.85597947767E+03  0.10100000352E+00 0. -1.
       -3    1    3    3    0  502 -0.68602297146E+03 -0.90933475553E+02 -0.24879576465E+03  0.73538816760E+03  0.10100000352E+00 0.  1.
</event>
<event>
 5   0  0.1794185E-04  0.1401267E+04  0.7818609E-02  0.8952902E-01
        2   -1    0    0  501    0  0.00000000000E+00  0.00000000000E+00  0.25185043500E+04  0.25185043500E+04  0.25500000920E-02 0. -1.
       -2   -1    0    0    0  501  0.00000000000E+00  0.00000000000E+00 -0.19491225315E+03  0.19491225317E+03  0.25500000920E-02 0.  1.
    10030    2    1    2    0    0  0.00000000000E+00  0.00000000000E+00  0.23235920969E+04  0.27134166032E+04  0.14012670801E+04 0.  0.
        2    1    3    3  502    0  0.30929395128E+03 -0.33943798598E+03  0.13713651164E+03  0.47925704737E+03  0.25500000920E-02 0.  1.
       -2    1    3    3    0  502 -0.30929395128E+03  0.33943798598E+03  0.21864555853E+04  0.22341595558E+04  0.25500000920E-02 0. -1.
</event>
<event>
 5   0  0.1833681E-04  0.1399281E+04  0.7818609E-02  0.8954339E-01
       -2   -1    0    0    0  501  0.00000000000E+00  0.00000000000E+00  0.39459290941E+03  0.39459290941E+03  0.25500000920E-02 0.  1.
        2   -1    0    0  501    0  0.00000000000E+00  0.00000000000E+00 -0.12405103553E+04  0.12405103553E+04  0.25500000920E-02 0. -1.
    10030    2    1    2    0    0  0.00000000000E+00  0.00000000000E+00 -0.84591744588E+03  0.16351032647E+04  0.13992806584E+04 0.  0.
        4    1    3    3  502    0  0.45746777856E+03  0.37833675811E+02 -0.10399463787E+04  0.11367489780E+04  0.12699999809E+01 0. -1.
       -4    1    3    3    0  502 -0.45746777856E+03 -0.37833675811E+02  0.19402893281E+03  0.49835428674E+03  0.12699999809E+01 0.  1.
</event>
<event>
 5   0  0.6671375E-05  0.1394241E+04  0.7818609E-02  0.8957998E-01
        1   -1    0    0  501    0  0.00000000000E+00  0.00000000000E+00  0.10382154306E+04  0.10382154306E+04  0.50400001928E-02 0.  1.
       -1   -1    0    0    0  501  0.00000000000E+00  0.00000000000E+00 -0.46808865237E+03  0.46808865240E+03  0.50400001928E-02 0. -1.
    10030    2    1    2    0    0  0.00000000000E+00  0.00000000000E+00  0.57012677824E+03  0.15063040830E+04  0.13942408139E+04 0.  0.
        5    1    3    3  502    0  0.66738322163E+03 -0.11295249938E+03  0.10494124494E+03  0.68497692408E+03  0.46999998093E+01 0. -1.
       -5    1    3    3    0  502 -0.66738322163E+03  0.11295249938E+03  0.46518553330E+03  0.82132715895E+03  0.46999998093E+01 0.  1.
</event>
<event>
 5   0  0.1833681E-04  0.1401262E+04  0.7818609E-02  0.8952905E-01
       -2   -1    0    0    0  501  0.00000000000E+00  0.00000000000E+00  0.67987512784E+03  0.67987512784E+03  0.25500000920E-02 0.  1.
        2   -1    0    0  501    0  0.00000000000E+00  0.00000000000E+00 -0.72202081023E+03  0.72202081023E+03  0.25500000920E-02 0. -1.
    10030    2    1    2    0    0  0.00000000000E+00  0.00000000000E+00 -0.42145682390E+02  0.14018959381E+04  0.14012622748E+04 0.  0.
        4    1    3    3  502    0 -0.32717174456E+03  0.39741897854E+03 -0.49657629678E+03  0.71524319386E+03  0.12699999809E+01 0. -1.
       -4    1    3    3    0  502  0.32717174456E+03 -0.39741897854E+03  0.45443061439E+03  0.68665274421E+03  0.12699999809E+01 0.  1.
</event>
<event>
 5   0  0.9978422E-05  0.1400522E+04  0.7818609E-02  0.8953441E-01
       -1   -1    0    0    0  501  0.00000000000E+00  0.00000000000E+00  0.10962358170E+04  0.10962358170E+04  0.50400001928E-02 0. -1.
        1   -1    0    0  501    0  0.00000000000E+00  0.00000000000E+00 -0.44731719810E+03  0.44731719813E+03  0.50400001928E-02 0.  1.
    10030    2    1    2    0    0  0.00000000000E+00  0.00000000000E+00  0.64891861887E+03  0.15435530151E+04  0.14005215231E+04 0.  0.
        2    1    3    3  502    0  0.60800330026E+03  0.22208750457E+03  0.61890321949E+03  0.89556243105E+03  0.25500000920E-02 0. -1.
       -2    1    3    3    0  502 -0.60800330026E+03 -0.22208750457E+03  0.30015399386E+02  0.64799058406E+03  0.25500000920E-02 0.  1.
</event>
<event>
 5   0  0.1780171E-04  0.1386335E+04  0.7818609E-02  0.8963770E-01
       -2   -1    0    0    0  501  0.00000000000E+00  0.00000000000E+00  0.33347282339E+03  0.33347282340E+03  0.25500000920E-02 0.  1.
        2   -1    0    0  501    0  0.00000000000E+00  0.00000000000E+00 -0.14408402035E+04  0.14408402035E+04  0.25500000920E-02 0. -1.
    10030    2    1    2    0    0  0.00000000000E+00  0.00000000000E+00 -0.11073673801E+04  0.17743130269E+04  0.13863348091E+04 0.  0.
        5    1    3    3  502    0 -0.10856652570E+03  0.68049703977E+03 -0.45794160718E+03  0.82740287480E+03  0.46999998093E+01 0.  1.
       -5    1    3    3    0  502  0.10856652570E+03 -0.68049703977E+03 -0.64942577296E+03  0.94691015214E+03  0.46999998093E+01 0. -1.
</event>
<event>
 5   0  0.9828111E-05  0.1400482E+04  0.7818609E-02  0.8953470E-01
        1   -1    0    0  501    0  0.00000000000E+00  0.00000000000E+00  0.46887946995E+03  0.46887946997E+03  0.50400001928E-02 0. -1.
       -1   -1    0    0    0  501  0.00000000000E+00  0.00000000000E+00 -0.10457647449E+04  0.10457647449E+04  0.50400001928E-02 0.  1.
    10030    2    1    2    0    0  0.00000000000E+00  0.00000000000E+00 -0.57688527491E+03  0.15146442148E+04  0.14004822302E+04 0.  0.
        4    1    3    3  502    0 -0.10198003545E+03  0.16535658318E+03  0.43914795977E+03  0.48020336390E+03  0.12699999809E+01 0. -1.
       -4    1    3    3    0  502  0.10198003545E+03 -0.16535658318E+03 -0.10160332347E+04  0.10344408509E+04  0.12699999809E+01 0.  1.
</event>
<event>
 5   0  0.1766237E-04  0.1400595E+04  0.7818609E-02  0.8953388E-01
        2   -1    0    0  501    0  0.00000000000E+00  0.00000000000E+00  0.10532648039E+04  0.10532648039E+04  0.25500000920E-02 0. -1.
       -2   -1    0    0    0  501  0.00000000000E+00  0.00000000000E+00 -0.46561587212E+03  0.46561587213E+03  0.25500000920E-02 0.  1.
    10030    2    1    2    0    0  0.00000000000E+00  0.00000000000E+00  0.58764893174E+03  0.15188806760E+04  0.14005953166E+04 0.  0.
        3    1    3    3  502    0 -0.12908683185E+02 -0.10628889402E+03  0.10443359845E+04  0.10498102789E+04  0.10100000352E+00 0. -1.
       -3    1    3    3    0  502  0.12908683185E+02  0.10628889402E+03 -0.45668705271E+03  0.46907039707E+03  0.10100000352E+00 0.  1.
</event>
<event>
 5   0  0.6671375E-05  0.1398889E+04  0.7818609E-02  0.8954623E-01
        4   -1    0    0  501    0  0.00000000000E+00  0.00000000000E+00  0.35073758624E+03  0.35073988553E+03  0.12699999809E+01 0. -1.
       -4   -1    0    0    0  501  0.00000000000E+00  0.00000000000E+00 -0.13948317526E+04  0.13948323308E+04  0.12699999809E+01 0.  1.
    10030    2    1    2    0    0  0.00000000000E+00  0.00000000000E+00 -0.10440941664E+04  0.17455722163E+04  0.13988887497E+04 0.  0.
        1    1    3    3  502    0  0.67257760385E+03 -0.18683329570E+03 -0.57722195647E+03  0.90578833104E+03  0.50400001928E-02 0.  1.
       -1    1    3    3    0  502 -0.67257760385E+03  0.18683329570E+03 -0.46687220992E+03  0.83978388530E+03  0.50400001928E-02 0. -1.
</event>
<event>
 5   0  0.1794185E-04  0.1408367E+04  0.7818609E-02  0.8947784E-01
       -2   -1    0    0    0  501  0.00000000000E+00  0.00000000000E+00  0.71428736591E+03  0.71428736591E+03  0.25500000920E-02 0.  1.
        2   -1    0    0  501    0  0.00000000000E+00  0.00000000000E+00 -0.69422244514E+03  0.69422244515E+03  0.25500000920E-02 0. -1.
    10030    2    1    2    0    0  0.00000000000E+00  0.00000000000E+00  0.20064920766E+02  0.14085098111E+04  0.14083668864E+04 0.  0.
        2    1    3    3  502    0 -0.49191424211E+03  0.21579273646E+03 -0.44534680739E+03  0.69776780203E+03  0.25500000920E-02 0. -1.
       -2    1    3    3    0  502  0.49191424211E+03 -0.21579273646E+03  0.46541172815E+03  0.71074200903E+03  0.25500000920E-02 0.  1.
</event>
<event>
 5   0  0.6671375E-05  0.1410655E+04  0.7818609E-02  0.8946142E-01
       -1   -1    0    0    0  501  0.00000000000E+00  0.00000000000E+00  0.10150247928E+04  0.10150247928E+04  0.50400001928E-02 0. -1.
        1   -1    0    0  501    0  0.00000000000E+00  0.00000000000E+00 -0.49012268578E+03  0.49012268581E+03  0.50400001928E-02 0.  1.
    10030    2    1    2    0    0  0.00000000000E+00  0.00000000000E+00  0.52490210701E+03  0.15051474786E+04  0.14106547099E+04 0.  0.
        5    1    3    3  502    0  0.50413224303E+03 -0.12663276049E+03  0.77112369703E+03  0.92996721480E+03  0.46999998093E+01 0. -1.
       -5    1    3    3    0  502 -0.50413224303E+03  0.12663276049E+03 -0.24622159001E+03  0.57518026381E+03  0.46999998093E+01 0.  1.
</event>
<event>
 5   0  0.1833681E-04  0.1401805E+04  0.7818609E-02  0.8952513E-01
       -2   -1    0    0    0  501  0.00000000000E+00  0.00000000000E+00  0.43545607878E+03  0.43545607878E+03  0.25500000920E-02 0. -1.
        2   -1    0    0  501    0  0.00000000000E+00  0.00000000000E+00 -0.11281604824E+04  0.11281604824E+04  0.25500000920E-02 0.  1.
    10030    2    1    2    0    0  0.00000000000E+00  0.00000000000E+00 -0.69270440359E+03  0.15636165612E+04  0.14018050362E+04 0.  0.
        4    1    3    3  502    0  0.60963757986E+03  0.54651306059E+02 -0.72726486300E+03  0.95055801396E+03  0.12699999809E+01 0.  1.
       -4    1    3    3    0  502 -0.60963757986E+03 -0.54651306059E+02  0.34560459414E+02  0.61305854720E+03  0.12699999809E+01 0. -1.
</event>
<event>
 5   0  0.1780171E-04  0.1399121E+04  0.7818609E-02  0.8954455E-01
        2   -1    0    0  501    0  0.00000000000E+00  0.00000000000E+00  0.43586413297E+03  0.43586413297E+03  0.25500000920E-02 0.  1.
       -2   -1    0    0    0  501  0.00000000000E+00  0.00000000000E+00 -0.11227915056E+04  0.11227915056E+04  0.25500000920E-02 0. -1.
    10030    2    1    2    0    0  0.00000000000E+00  0.00000000000E+00 -0.68692737267E+03  0.15586556386E+04  0.13991205039E+04 0.  0.
        5    1    3    3  502    0  0.90649855464E+02  0.22984607950E+03  0.38561956477E+03  0.45800781139E+03  0.46999998093E+01 0.  1.
       -5    1    3    3    0  502 -0.90649855464E+02 -0.22984607950E+03 -0.10725469374E+04  0.11006478272E+04  0.46999998093E+01 0. -1.
</event>
<event>
 5   0  0.9828111E-05  0.1402689E+04  0.7818609E-02  0.8951875E-01
        1   -1    0    0  501    0  0.00000000000E+00  0.00000000000E+00  0.67563878118E+03  0.67563878120E+03  0.50400001928E-02 0.  1.
       -1   -1    0    0    0  501  0.00000000000E+00  0.00000000000E+00 -0.72802808479E+03  0.72802808481E+03  0.50400001928E-02 0. -1.
    10030    2    1    2    0    0  0.00000000000E+00  0.00000000000E+00 -0.52389303613E+02  0.14036668660E+04  0.14026888577E+04 0.  0.
        4    1    3    3  502    0  0.10026490916E+02 -0.65155540728E+03  0.23332651748E+03  0.69214727907E+03  0.12699999809E+01 0.  1.
       -4    1    3    3    0  502 -0.10026490916E+02  0.65155540728E+03 -0.28571582109E+03  0.71151958694E+03  0.12699999809E+01 0. -1.
</event>
<event>
 5   0  0.6671375E-05  0.1396682E+04  0.7818609E-02  0.8956223E-01
       -4   -1    0    0    0  501  0.00000000000E+00  0.00000000000E+00  0.60580202033E+03  0.60580335154E+03  0.12699999809E+01 0.  1.
        4   -1    0    0  501    0  0.00000000000E+00  0.00000000000E+00 -0.80501358243E+03  0.80501458421E+03  0.12699999809E+01 0. -1.
    10030    2    1    2    0    0  0.00000000000E+00  0.00000000000E+00 -0.19921156209E+03  0.14108179358E+04  0.13966824984E+04 0.  0.
        5    1    3    3  502    0  0.14684260901E+03  0.54079733250E+03  0.32130548072E+03  0.64597508358E+03  0.46999998093E+01 0.  1.
       -5    1    3    3    0  502 -0.14684260901E+03 -0.54079733250E+03 -0.52051704281E+03  0.76484285217E+03  0.46999998093E+01 0. -1.
</event>
<event>
 5   0  0.1780171E-04  0.1396619E+04  0.7818609E-02  0.8956269E-01
        2   -1    0    0  501    0  0.00000000000E+00  0.00000000000E+00  0.13645935033E+04  0.13645935033E+04  0.25500000920E-02 0.  1.
       -2   -1    0    0    0  501  0.00000000000E+00  0.00000000000E+00 -0.35734906536E+03  0.35734906537E+03  0.25500000920E-02 0. -1.
    10030    2    1    2    0    0  0.00000000000E+00  0.00000000000E+00  0.10072444380E+04  0.17219425687E+04  0.13966190791E+04 0.  0.
        5    1    3    3  502    0  0.57207584438E+03  0.68495820881E+02  0.99004912527E+03  0.11455050457E+04  0.46999998093E+01 0.  1.
       -5    1    3    3    0  502 -0.57207584438E+03 -0.68495820881E+02  0.17195312715E+02  0.57643752305E+03  0.46999998093E+01 0. -1.
</event>
<event>
 5   0  0.9900839E-05  0.1399886E+04  0.7818609E-02  0.8953901E-01
        1   -1    0    0  501    0  0.00000000000E+00  0.00000000000E+00  0.10732836249E+04  0.10732836249E+04  0.50400001928E-02 0.  1.
       -1   -1    0    0    0  501  0.00000000000E+00  0.00000000000E+00 -0.45646828419E+03  0.45646828421E+03  0.50400001928E-02 0. -1.
    10030    2    1    2    0    0  0.00000000000E+00  0.00000000000E+00  0.61681534070E+03  0.15297519091E+04  0.13998856164E+04 0.  0.
        3    1    3    3  502    0  0.49582333341E+03  0.27179905939E+03  0.75923876959E+03  0.94665676255E+03  0.10100000352E+00 0.  1.
       -3    1    3    3    0  502 -0.49582333341E+03 -0.27179905939E+03 -0.14242342889E+03  0.58309514656E+03  0.10100000352E+00 0. -1.
</event>
<event>
 5   0  0.1712327E-04  0.1396505E+04  0.7818609E-02  0.8956352E-01
       -2   -1    0    0    0  501  0.00000000000E+00  0.00000000000E+00  0.46655872695E+03  0.46655872696E+03  0.25500000920E-02 0.  1.
        2   -1    0    0  501    0  0.00000000000E+00  0.00000000000E+00 -0.10450055944E+04  0.10450055944E+04  0.25500000920E-02 0. -1.
    10030    2    1    2    0    0  0.00000000000E+00  0.00000000000E+00 -0.57844686749E+03  0.15115643214E+04  0.13965048941E+04 0.  0.
        1    1    3    3  502    0 -0.65884824046E+03 -0.23105686346E+03 -0.27905807795E+03  0.75189207271E+03  0.50400001928E-02 0. -1.
       -1    1    3    3    0  502  0.65884824046E+03  0.23105686346E+03 -0.29938878954E+03  0.75967224869E+03  0.50400001928E-02 0.  1.
</event>
<event>
 5   0  0.9260916E-05  0.1397131E+04  0.7818609E-02  0.8955898E-01
        1   -1    0    0  501    0  0.00000000000E+00  0.00000000000E+00  0.68184347642E+03  0.68184347644E+03  0.50400001928E-02 0.  1.
       -1   -1    0    0    0  501  0.00000000000E+00  0.00000000000E+00 -0.71569717517E+03  0.71569717519E+03  0.50400001928E-02 0. -1.
    10030    2    1    2    0    0  0.00000000000E+00  0.00000000000E+00 -0.33853698755E+02  0.13975406516E+04  0.13971305594E+04 0.  0.
        1    1    3    3  502    0  0.38649526549E+02 -0.35984491496E+03 -0.61460645856E+03  0.71324837725E+03  0.50400001928E-02 0. -1.
       -1    1    3    3    0  502 -0.38649526549E+02  0.35984491496E+03  0.58075275980E+03  0.68429227438E+03  0.50400001928E-02 0.  1.
</event>
<event>
 5   0  0.1712327E-04  0.1401631E+04  0.7818609E-02  0.8952639E-01
        2   -1    0    0  501    0  0.00000000000E+00  0.00000000000E+00  0.10394989035E+04  0.10394989035E+04  0.25500000920E-02 0.  1.
       -2   -1    0    0    0  501  0.00000000000E+00  0.00000000000E+00 -0.47247998953E+03  0.47247998954E+03  0.25500000920E-02 0. -1.
    10030    2    1    2    0    0  0.00000000000E+00  0.00000000000E+00  0.56701891396E+03  0.15119788930E+04  0.14016310942E+04 0.  0.
        1    1    3    3  502    0  0.60860027902E+03  0.48160362155E+02  0.65473726938E+03  0.89520646336E+03  0.50400001928E-02 0.  1.
       -1    1    3    3    0  502 -0.60860027902E+03 -0.48160362155E+02 -0.87718355417E+02  0.61677242967E+03  0.50400001928E-02 0. -1.
</event>
<event>
 5   0  0.1712327E-04  0.1404359E+04  0.7818609E-02  0.8950669E-01
        2   -1    0    0  501    0  0.00000000000E+00  0.00000000000E+00  0.33787397224E+03  0.33787397225E+03  0.25500000920E-02 0. -1.
       -2   -1    0    0    0  501  0.00000000000E+00  0.00000000000E+00 -0.14592903951E+04  0.14592903951E+04  0.25500000920E-02 0.  1.
    10030    2    1    2    0    0  0.00000000000E+00  0.00000000000E+00 -0.11214164229E+04  0.17971643674E+04  0.14043592738E+04 0.  0.
        1    1    3    3  502    0  0.69108889916E+02 -0.29434312036E+03 -0.13717240062E+04  0.14046496575E+04  0.50400001928E-02 0.  1.
       -1    1    3    3    0  502 -0.69108889916E+02  0.29434312036E+03  0.25030758331E+03  0.39251470986E+03  0.50400001928E-02 0. -1.
</event>
<event>
 5   0  0.1780171E-04  0.1400538E+04  0.7818609E-02  0.8953429E-01
       -2   -1    0    0    0  501  0.00000000000E+00  0.00000000000E+00  0.45148679433E+03  0.45148679434E+03  0.25500000920E-02 0. -1.
        2   -1    0    0  501    0  0.00000000000E+00  0.00000000000E+00 -0.10861369925E+04  0.10861369925E+04  0.25500000920E-02 0.  1.
    10030    2    1    2    0    0  0.00000000000E+00  0.00000000000E+00 -0.63465019818E+03  0.15376237869E+04  0.14005377667E+04 0.  0.
        5    1    3    3  502    0 -0.35608789706E+03  0.21869127216E+03  0.29957261217E+03  0.51418897588E+03  0.46999998093E+01 0. -1.
       -5    1    3    3    0  502  0.35608789706E+03 -0.21869127216E+03 -0.93422281035E+03  0.10234348110E+04  0.46999998093E+01 0.  1.
</event>
<event>
 5   0  0.1766237E-04  0.1399519E+04  0.7818609E-02  0.8954167E-01
        2   -1    0    0  501    0  0.00000000000E+00  0.00000000000E+00  0.14048792623E+04  0.14048792623E+04  0.25500000920E-02 0. -1.
       -2   -1    0    0    0  501  0.00000000000E+00  0.00000000000E+00 -0.34854491871E+03  0.34854491872E+03  0.25500000920E-02 0.  1.
    10030    2    1    2    0    0  0.00000000000E+00  0.00000000000E+00  0.10563343436E+04  0.17534241810E+04  0.13995192436E+04 0.  0.
        3    1    3    3  502    0  0.36307764032E+03  0.28827731644E+03 -0.12852915292E+03  0.48109140236E+03  0.10100000352E+00 0.  1.
       -3    1    3    3    0  502 -0.36307764032E+03 -0.28827731644E+03  0.11848634965E+04  0.12723327786E+04  0.10100000352E+00 0. -1.
</event>
<event>
 5   0  0.9978422E-05  0.1401094E+04  0.7818609E-02  0.8953027E-01
        1   -1    0    0  501    0  0.00000000000E+00  0.00000000000E+00  0.11111349617E+04  0.11111349617E+04  0.50400001928E-02 0. -1.
       -1   -1    0    0    0  501  0.00000000000E+00  0.00000000000E+00 -0.44168022181E+03  0.44168022184E+03  0.50400001928E-02 0.  1.
    10030    2    1    2    0    0  0.00000000000E+00  0.00000000000E+00  0.66945473988E+03  0.15528151836E+04  0.14010943385E+04 0.  0.
        2    1    3    3  502    0 -0.52963464925E+03  0.41503411989E+03  0.11868194739E+03  0.68326538548E+03  0.25500000920E-02 0.  1.
       -2    1    3    3    0  502  0.52963464925E+03 -0.41503411989E+03  0.55077279250E+03  0.86954979807E+03  0.25500000920E-02 0. -1.
</event>
<event>
 5   0  0.9900839E-05  0.1399638E+04  0.7818609E-02  0.8954080E-01
       -1   -1    0    0    0  501  0.00000000000E+00  0.00000000000E+00  0.46077726661E+03  0.46077726664E+03  0.50400001928E-02 0. -1.
        1   -1    0    0  501    0  0.00000000000E+00  0.00000000000E+00 -0.10628713684E+04  0.10628713684E+04  0.50400001928E-02 0.  1.
    10030    2    1    2    0    0  0.00000000000E+00  0.00000000000E+00 -0.60209410182E+03  0.15236486351E+04  0.13996384732E+04 0.  0.
        3    1    3    3  502    0  0.19280551338E+03  0.63733744302E+03 -0.53547322528E+03  0.85446156582E+03  0.10100000352E+00 0.  1.
       -3    1    3    3    0  502 -0.19280551338E+03 -0.63733744302E+03 -0.66620876538E+02  0.66918706926E+03  0.10100000352E+00 0. -1.
</event>
<event>
 5   0  0.6671375E-05  0.1404169E+04  0.7818609E-02  0.8950807E-01
        1   -1    0    0  501    0  0.00000000000E+00  0.00000000000E+00  0.13335125643E+04  0.13335125643E+04  0.50400001928E-02 0.  1.
       -1   -1    0    0    0  501  0.00000000000E+00  0.00000000000E+00 -0.36964212743E+03  0.36964212747E+03  0.50400001928E-02 0. -1.
    10030    2    1    2    0    0  0.00000000000E+00  0.00000000000E+00  0.96387043684E+03  0.17031546917E+04  0.14041686811E+04 0.  0.
        5    1    3    3  502    0 -0.24337797839E+03 -0.28404877699E+03 -0.23869453570E+03  0.44374961345E+03  0.46999998093E+01 0. -1.
       -5    1    3    3    0  502  0.24337797839E+03  0.28404877699E+03  0.12025649725E+04  0.12594050783E+04  0.46999998093E+01 0.  1.
</event>
<event>
 5   0  0.6671375E-05  0.1401264E+04  0.7818609E-02  0.8952904E-01
       -3   -1    0    0    0  501  0.00000000000E+00  0.00000000000E+00  0.11291400032E+04  0.11291400077E+04  0.10100000352E+00 0. -1.
        3   -1    0    0  501    0  0.00000000000E+00  0.00000000000E+00 -0.43474233718E+03  0.43474234891E+03  0.10100000352E+00 0.  1.
    10030    2    1    2    0    0  0.00000000000E+00  0.00000000000E+00  0.69439766601E+03  0.15638823566E+04  0.14012636821E+04 0.  0.
        2    1    3    3  502    0  0.25296110016E+03 -0.14057616230E+03  0.10593183696E+04  0.10981376889E+04  0.25500000920E-02 0. -1.
       -2    1    3    3    0  502 -0.25296110016E+03  0.14057616230E+03 -0.36492070359E+03  0.46574466773E+03  0.25500000920E-02 0.  1.
</event>
<event>
 5   0  0.9978422E-05  0.1400039E+04  0.7818609E-02  0.8953790E-01
        1   -1    0    0  501    0  0.00000000000E+00  0.00000000000E+00  0.34823939132E+03  0.34823939136E+03  0.50400001928E-02 0.  1.
       -1   -1    0    0    0  501  0.00000000000E+00  0.00000000000E+00 -0.14071566996E+04  0.14071566996E+04  0.50400001928E-02 0. -1.
    10030    2    1    2    0    0  0.00000000000E+00  0.00000000000E+00 -0.10589173083E+04  0.17553960910E+04  0.14000391318E+04 0.  0.
        2    1    3    3  502    0 -0.60853448419E+03  0.17281907833E+03 -0.90528404261E+03  0.11044092765E+04  0.25500000920E-02 0. -1.
       -2    1    3    3    0  502  0.60853448419E+03 -0.17281907833E+03 -0.15363326570E+03  0.65098681448E+03  0.25500000920E-02 0.  1.
</event>
<event>
 5   0  0.9260916E-05  0.1397510E+04  0.7818609E-02  0.8955623E-01
        1   -1    0    0  501    0  0.00000000000E+00  0.00000000000E+00  0.28656530213E+03  0.28656530217E+03  0.50400001928E-02 0. -1.
       -1   -1    0    0    0  501  0.00000000000E+00  0.00000000000E+00 -0.17038300731E+04  0.17038300731E+04  0.50400001928E-02 0.  1.
    10030    2    1    2    0    0  0.00000000000E+00  0.00000000000E+00 -0.14172647710E+04  0.19903953753E+04  0.13975100425E+04 0.  0.
        1    1    3    3  502    0 -0.56384643740E+03  0.56524771095E+02 -0.12636085362E+03  0.58059014810E+03  0.50400001928E-02 0. -1.
       -1    1    3    3    0  502  0.56384643740E+03 -0.56524771095E+02 -0.12909039174E+04  0.14098052272E+04  0.50400001928E-02 0.  1.
</event>
<event>
 5   0  0.1712327E-04  0.1401517E+04  0.7818609E-02  0.8952721E-01
       -2   -1    0    0    0  501  0.00000000000E+00  0.00000000000E+00  0.73859035980E+03  0.73859035981E+03  0.25500000920E-02 0. -1.
        2   -1    0    0  501    0  0.00000000000E+00  0.00000000000E+00 -0.66486435577E+03  0.66486435578E+03  0.25500000920E-02 0.  1.
    10030    2    1    2    0    0  0.00000000000E+00  0.00000000000E+00  0.73726004028E+02  0.14034547156E+04  0.14015168979E+04 0.  0.
        1    1    3    3  502    0  0.55082484518E+03 -0.41303294191E+03 -0.93924560154E+02  0.69485685158E+03  0.50400001928E-02 0.  1.
       -1    1    3    3    0  502 -0.55082484518E+03  0.41303294191E+03  0.16765056418E+03  0.70859786400E+03  0.50400001928E-02 0. -1.
</event>
<event>
 5   0  0.9900839E-05  0.1401614E+04  0.7818609E-02  0.8952651E-01
       -1   -1    0    0    0  501  0.00000000000E+00  0.00000000000E+00  0.31326120532E+03  0.31326120536E+03  0.50400001928E-02 0.  1.
        1   -1    0    0  501    0  0.00000000000E+00  0.00000000000E+00 -0.15677987629E+04  0.15677987629E+04  0.50400001928E-02 0. -1.
    10030    2    1    2    0    0  0.00000000000E+00  0.00000000000E+00 -0.12545375575E+04  0.18810599682E+04  0.14016141127E+04 0.  0.
        3    1    3    3  502    0  0.59786484842E+03  0.35752117539E+03 -0.52447352797E+03  0.87197262547E+03  0.10100000352E+00 0.  1.
       -3    1    3    3    0  502 -0.59786484842E+03 -0.35752117539E+03 -0.73006402957E+03  0.10090873428E+04  0.10100000352E+00 0. -1.
</event>
<event>
 5   0  0.1794185E-04  0.1402154E+04  0.7818609E-02  0.8952261E-01
        2   -1    0    0  501    0  0.00000000000E+00  0.00000000000E+00  0.20853644150E+04  0.20853644150E+04  0.25500000920E-02 0.  1.
       -2   -1    0    0    0  501  0.00000000000E+00  0.00000000000E+00 -0.23569441314E+03  0.23569441316E+03  0.25500000920E-02 0. -1.
    10030    2    1    2    0    0  0.00000000000E+00  0.00000000000E+00  0.18496700019E+04  0.23210588282E+04  0.14021536892E+04 0.  0.
        2    1    3    3  502    0  0.44530644597E+03  0.36086691316E+03  0.15931260679E+04  0.16930958118E+04  0.25500000920E-02 0.  1.
       -2    1    3    3    0  502 -0.44530644597E+03 -0.36086691316E+03  0.25654393400E+03  0.62796301636E+03  0.25500000920E-02 0. -1.
</event>
<event>
 5   0  0.6671375E-05  0.1396604E+04  0.7818609E-02  0.8956280E-01
        1   -1    0    0  501    0  0.00000000000E+00  0.00000000000E+00  0.52054846627E+03  0.52054846629E+03  0.50400001928E-02 0.  1.
       -1   -1    0    0    0  501  0.00000000000E+00  0.00000000000E+00 -0.93675401123E+03  0.93675401125E+03  0.50400001928E-02 0. -1.
    10030    2    1    2    0    0  0.00000000000E+00  0.00000000000E+00 -0.41620554497E+03  0.14573024775E+04  0.13966042587E+04 0.  0.
        5    1    3    3  502    0  0.32521367777E+03 -0.49683015749E+03 -0.59149440830E+03  0.83814787874E+03  0.46999998093E+01 0. -1.
       -5    1    3    3    0  502 -0.32521367777E+03  0.49683015749E+03  0.17528886333E+03  0.61915459879E+03  0.46999998093E+01 0.  1.
</event>
<event>
 5   0  0.1833681E-04  0.1398821E+04  0.7818609E-02  0.8954673E-01
        2   -1    0    0  501    0  0.00000000000E+00  0.00000000000E+00  0.13963113406E+04  0.13963113406E+04  0.25500000920E-02 0.  1.
       -2   -1    0    0    0  501  0.00000000000E+00  0.00000000000E+00 -0.35033370493E+03  0.35033370494E+03  0.25500000920E-02 0. -1.
    10030    2    1    2    0    0  0.00000000000E+00  0.00000000000E+00  0.10459776357E+04  0.17466450456E+04  0.13988208251E+04 0.  0.
        4    1    3    3  502    0 -0.39209453637E+03  0.44162105438E+03  0.55107775514E+02  0.59313216145E+03  0.12699999809E+01 0. -1.
       -4    1    3    3    0  502  0.39209453637E+03 -0.44162105438E+03  0.99086986019E+03  0.11535128841E+04  0.12699999809E+01 0.  1.
</event>
<event>
 5   0  0.1712327E-04  0.1399352E+04  0.7818609E-02  0.8954287E-01
        2   -1    0    0  501    0  0.00000000000E+00  0.00000000000E+00  0.12696399851E+04  0.12696399851E+04  0.25500000920E-02 0.  1.
       -2   -1    0    0    0  501  0.00000000000E+00  0.00000000000E+00 -0.38557919637E+03  0.38557919638E+03  0.25500000920E-02 0. -1.
    10030    2    1    2    0    0  0.00000000000E+00  0.00000000000E+00  0.88406078868E+03  0.16552191814E+04  0.13993523718E+04 0.  0.
        1    1    3    3  502    0  0.29955633171E+03  0.23187450075E+03  0.11378488717E+04  0.11992496966E+04  0.50400001928E-02 0.  1.
       -1    1    3    3    0  502 -0.29955633171E+03 -0.23187450075E+03 -0.25378808304E+03  0.45596948481E+03  0.50400001928E-02 0. -1.
</event>
<event>
 5   0  0.1712327E-04  0.1400093E+04  0.7818609E-02  0.8953751E-01
       -2   -1    0    0    0  501  0.00000000000E+00  0.00000000000E+00  0.36226836452E+03  0.36226836453E+03  0.25500000920E-02 0. -1.
        2   -1    0    0  501    0  0.00000000000E+00  0.00000000000E+00 -0.13527677412E+04  0.13527677412E+04  0.25500000920E-02 0.  1.
    10030    2    1    2    0    0  0.00000000000E+00  0.00000000000E+00 -0.99049937667E+03  0.17150361057E+04  0.14000927929E+04 0.  0.
        1    1    3    3  502    0  0.23892209917E+03 -0.13419580049E+01 -0.13012775570E+04  0.13230301775E+04  0.50400001928E-02 0.  1.
       -1    1    3    3    0  502 -0.23892209917E+03  0.13419580049E+01  0.31077818034E+03  0.39200592817E+03  0.50400001928E-02 0. -1.
</event>
<event>
 5   0  0.9828111E-05  0.1373763E+04  0.7818609E-02  0.8973032E-01
       -1   -1    0    0    0  501  0.00000000000E+00  0.00000000000E+00  0.76381496187E+03  0.76381496189E+03  0.50400001928E-02 0.  1.
        1   -1    0    0  501    0  0.00000000000E+00  0.00000000000E+00 -0.61769693484E+03  0.61769693486E+03  0.50400001928E-02 0. -1.
    10030    2    1    2    0    0  0.00000000000E+00  0.00000000000E+00  0.14611802703E+03  0.13815118968E+04  0.13737629501E+04 0.  0.
        4    1    3    3  502    0  0.28938441799E+03 -0.61825920376E+03  0.14975692374E+03  0.69886803727E+03  0.12699999809E+01 0.  1.
       -4    1    3    3    0  502 -0.28938441799E+03  0.61825920376E+03 -0.36388967088E+01  0.68264385948E+03  0.12699999809E+01 0. -1.
</event>
<event>
 5   0  0.1833681E-04  0.1397849E+04  0.7818609E-02  0.8955377E-01
       -2   -1    0    0    0  501  0.00000000000E+00  0.00000000000E+00  0.39305552552E+03  0.39305552552E+03  0.25500000920E-02 0.  1.
        2   -1    0    0  501    0  0.00000000000E+00  0.00000000000E+00 -0.12428154731E+04  0.12428154731E+04  0.25500000920E-02 0. -1.
    10030    2    1    2    0    0  0.00000000000E+00  0.00000000000E+00 -0.84975994759E+03  0.16358709986E+04  0.13978490461E+04 0.  0.
        4    1    3    3  502    0  0.10548132280E+03 -0.18242584131E+03 -0.12047522521E+04  0.12230433757E+04  0.12699999809E+01 0. -1.
       -4    1    3    3    0  502 -0.10548132280E+03  0.18242584131E+03  0.35499230454E+03  0.41282762289E+03  0.12699999809E+01 0.  1.
</event>
<event>
 5   0  0.1833681E-04  0.1400965E+04  0.7818609E-02  0.8953120E-01
       -2   -1    0    0    0  501  0.00000000000E+00  0.00000000000E+00  0.18595448562E+03  0.18595448564E+03  0.25500000920E-02 0. -1.
        2   -1    0    0  501    0  0.00000000000E+00  0.00000000000E+00 -0.26386885453E+04  0.26386885453E+04  0.25500000920E-02 0.  1.
    10030    2    1    2    0    0  0.00000000000E+00  0.00000000000E+00 -0.24527340597E+04  0.28246430310E+04  0.14009653403E+04 0.  0.
        4    1    3    3  502    0 -0.45325223849E+03  0.37493564100E+03 -0.19932170933E+04  0.20782036283E+04  0.12699999809E+01 0.  1.
       -4    1    3    3    0  502  0.45325223849E+03 -0.37493564100E+03 -0.45951696637E+03  0.74643940268E+03  0.12699999809E+01 0. -1.
</event>
<event>
 5   0  0.9978422E-05  0.1401180E+04  0.7818609E-02  0.8952965E-01
        1   -1    0    0  501    0  0.00000000000E+00  0.00000000000E+00  0.14824930538E+04  0.14824930538E+04  0.50400001928E-02 0. -1.
       -1   -1    0    0    0  501  0.00000000000E+00  0.00000000000E+00 -0.33108161144E+03  0.33108161148E+03  0.50400001928E-02 0.  1.
    10030    2    1    2    0    0  0.00000000000E+00  0.00000000000E+00  0.11514114423E+04  0.18135746653E+04  0.14011797732E+04 0.  0.
        2    1    3    3  502    0  0.17341134860E+03  0.49297751786E+03  0.11796523802E+04  0.12902240376E+04  0.25500000920E-02 0. -1.
       -2    1    3    3    0  502 -0.17341134860E+03 -0.49297751786E+03 -0.28240937897E+02  0.52335062770E+03  0.25500000920E-02 0.  1.
</event>
<event>
 5   0  0.1712327E-04  0.1397550E+04  0.7818609E-02  0.8955594E-01
        2   -1    0    0  501    0  0.00000000000E+00  0.00000000000E+00  0.10064719640E+04  0.10064719640E+04  0.25500000920E-02 0.  1.
       -2   -1    0    0    0  501  0.00000000000E+00  0.00000000000E+00 -0.48514645435E+03  0.48514645436E+03  0.25500000920E-02 0. -1.
    10030    2    1    2    0    0  0.00000000000E+00  0.00000000000E+00  0.52132550963E+03  0.14916184183E+04  0.13975497197E+04 0.  0.
        1    1    3    3  502    0  0.22893853496E+03 -0.62937425715E+03  0.47838152807E+02  0.67142631557E+03  0.50400001928E-02 0. -1.
       -1    1    3    3    0  502 -0.22893853496E+03  0.62937425715E+03  0.47348735683E+03  0.82019210278E+03  0.50400001928E-02 0.  1.
</event>
<event>
 5   0  0.6671375E-05  0.1403593E+04  0.7818609E-02  0.8951222E-01
       -1   -1    0    0    0  501  0.00000000000E+00  0.00000000000E+00  0.51776505755E+03  0.51776505758E+03  0.50400001928E-02 0.  1.
        1   -1    0    0  501    0  0.00000000000E+00  0.00000000000E+00 -0.95123904682E+03  0.95123904683E+03  0.50400001928E-02 0. -1.
    10030    2    1    2    0    0  0.00000000000E+00  0.00000000000E+00 -0.43347398927E+03  0.14690041044E+04  0.14035930177E+04 0.  0.
        5    1    3    3  502    0 -0.45809180508E+03  0.17570312018E+03  0.30842036868E+03  0.57953852515E+03  0.46999998093E+01 0.  1.
       -5    1    3    3    0  502  0.45809180508E+03 -0.17570312018E+03 -0.74189435795E+03  0.88946557926E+03  0.46999998093E+01 0. -1.
</event>
<event>
 5   0  0.6671375E-05  0.1396033E+04  0.7818609E-02  0.8956695E-01
        1   -1    0    0  501    0  0.00000000000E+00  0.00000000000E+00  0.67120122965E+03  0.67120122967E+03  0.50400001928E-02 0. -1.
       -1   -1    0    0    0  501  0.00000000000E+00  0.00000000000E+00 -0.72590261161E+03  0.72590261163E+03  0.50400001928E-02 0.  1.
    10030    2    1    2    0    0  0.00000000000E+00  0.00000000000E+00 -0.54701381959E+02  0.13971038413E+04  0.13960325577E+04 0.  0.
        5    1    3    3  502    0  0.23228629175E+03  0.51558712761E+03  0.38213028732E+03  0.68251934330E+03  0.46999998093E+01 0. -1.
       -5    1    3    3    0  502 -0.23228629175E+03 -0.51558712761E+03 -0.43683166928E+03  0.71458449800E+03  0.46999998093E+01 0.  1.
</event>
<event>
 5   0  0.6671375E-05  0.1412131E+04  0.7818609E-02  0.8945084E-01
       -1   -1    0    0    0  501  0.00000000000E+00  0.00000000000E+00  0.13261191329E+04  0.13261191329E+04  0.50400001928E-02 0. -1.
        1   -1    0    0  501    0  0.00000000000E+00  0.00000000000E+00 -0.37593017732E+03  0.37593017735E+03  0.50400001928E-02 0.  1.
    10030    2    1    2    0    0  0.00000000000E+00  0.00000000000E+00  0.95018895555E+03  0.17020493102E+04  0.14121305900E+04 0.  0.
        5    1    3    3  502    0 -0.99677537356E+01 -0.10075565815E+03 -0.36711601886E+03  0.38085078451E+03  0.46999998093E+01 0.  1.
       -5    1    3    3    0  502  0.99677537356E+01  0.10075565815E+03  0.13173049744E+04  0.13211985257E+04  0.46999998093E+01 0. -1.
</event>
<event>
 5   0  0.9978422E-05  0.1399221E+04  0.7818609E-02  0.8954382E-01
       -1   -1    0    0    0  501  0.00000000000E+00  0.00000000000E+00  0.30053479579E+03  0.30053479583E+03  0.50400001928E-02 0. -1.
        1   -1    0    0  501    0  0.00000000000E+00  0.00000000000E+00 -0.16286133469E+04  0.16286133469E+04  0.50400001928E-02 0.  1.
    10030    2    1    2    0    0  0.00000000000E+00  0.00000000000E+00 -0.13280785511E+04  0.19291481427E+04  0.13992211829E+04 0.  0.
        2    1    3    3  502    0 -0.67645492447E+03 -0.35466443820E+02 -0.90524155266E+03  0.11306243417E+04  0.25500000920E-02 0.  1.
       -2    1    3    3    0  502  0.67645492447E+03  0.35466443820E+02 -0.42283699843E+03  0.79852380097E+03  0.25500000920E-02 0. -1.
</event>
<event>
 5   0  0.1766237E-04  0.1401141E+04  0.7818609E-02  0.8952993E-01
       -2   -1    0    0    0  501  0.00000000000E+00  0.00000000000E+00  0.48157669661E+03  0.48157669662E+03  0.25500000920E-02 0.  1.
        2   -1    0    0  501    0  0.00000000000E+00  0.00000000000E+00 -0.10191496721E+04  0.10191496722E+04  0.25500000920E-02 0. -1.
    10030    2    1    2    0    0  0.00000000000E+00  0.00000000000E+00 -0.53757297553E+03  0.15007263688E+04  0.14011405818E+04 0.  0.
        3    1    3    3  502    0  0.63533554452E+03 -0.13865483203E+03  0.10356043029E+02  0.65037195081E+03  0.10100000352E+00 0.  1.
       -3    1    3    3    0  502 -0.63533554452E+03  0.13865483203E+03 -0.54792901856E+03  0.85035441796E+03  0.10100000352E+00 0. -1.
</event>
<event>
 5   0  0.1780171E-04  0.1400008E+04  0.7818609E-02  0.8953813E-01
        2   -1    0    0  501    0  0.00000000000E+00  0.00000000000E+00  0.16415967822E+04  0.16415967822E+04  0.25500000920E-02 0. -1.
       -2   -1    0    0    0  501  0.00000000000E+00  0.00000000000E+00 -0.29849325774E+03  0.29849325775E+03  0.25500000920E-02 0.  1.
    10030    2    1    2    0    0  0.00000000000E+00  0.00000000000E+00  0.13431035245E+04  0.19400900400E+04  0.14000079592E+04 0.  0.
        5    1    3    3  502    0  0.49303391079E+03 -0.44943392445E+03  0.96522463819E+03  0.11733516019E+04  0.46999998093E+01 0. -1.
       -5    1    3    3    0  502 -0.49303391079E+03  0.44943392445E+03  0.37787888627E+03  0.76673843801E+03  0.46999998093E+01 0.  1.
</event>
<event>
 5   0  0.1794185E-04  0.1398435E+04  0.7818609E-02  0.8954952E-01
        2   -1    0    0  501    0  0.00000000000E+00  0.00000000000E+00  0.10658951435E+04  0.10658951435E+04  0.25500000920E-02 0.  1.
       -2   -1    0    0    0  501  0.00000000000E+00  0.00000000000E+00 -0.45868001329E+03  0.45868001329E+03  0.25500000920E-02 0. -1.
    10030    2    1    2    0    0  0.00000000000E+00  0.00000000000E+00  0.60721513019E+03  0.15245751568E+04  0.13984345513E+04 0.  0.
        2    1    3    3  502    0  0.21862223037E+03 -0.25002152912E+03  0.97441219847E+03  0.10294588759E+04  0.25500000920E-02 0.  1.
       -2    1    3    3    0  502 -0.21862223037E+03  0.25002152912E+03 -0.36719706827E+03  0.49511628088E+03  0.25500000920E-02 0. -1.
</event>
<event>
 5   0  0.9978422E-05  0.1388456E+04  0.7818609E-02  0.8962217E-01
        1   -1    0    0  501    0  0.00000000000E+00  0.00000000000E+00  0.43669740096E+03  0.43669740099E+03  0.50400001928E-02 0.  1.
       -1   -1    0    0    0  501  0.00000000000E+00  0.00000000000E+00 -0.11036300253E+04  0.11036300253E+04  0.50400001928E-02 0. -1.
    10030    2    1    2    0    0  0.00000000000E+00  0.00000000000E+00 -0.66693262436E+03  0.15403274263E+04  0.13884557807E+04 0.  0.
        2    1    3    3  502    0  0.15772180748E+03 -0.14810687087E+03 -0.10652719880E+04  0.10870217211E+04  0.25500000920E-02 0. -1.
       -2    1    3    3    0  502 -0.15772180748E+03  0.14810687087E+03  0.39833936363E+03  0.45330570521E+03  0.25500000920E-02 0.  1.
</event>
<event>
 5   0  0.1712327E-04  0.1393644E+04  0.7818609E-02  0.8958432E-01
        2   -1    0    0  501    0  0.00000000000E+00  0.00000000000E+00  0.94687022941E+03  0.94687022941E+03  0.25500000920E-02 0.  1.
       -2   -1    0    0    0  501  0.00000000000E+00  0.00000000000E+00 -0.51280609361E+03  0.51280609362E+03  0.25500000920E-02 0. -1.
    10030    2    1    2    0    0  0.00000000000E+00  0.00000000000E+00  0.43406413580E+03  0.14596763230E+04  0.13936438907E+04 0.  0.
        1    1    3    3  502    0 -0.33219359158E+02  0.28982291497E+03 -0.44577068947E+03  0.53274042036E+03  0.50400001928E-02 0. -1.
       -1    1    3    3    0  502  0.33219359158E+02 -0.28982291497E+03  0.87983482527E+03  0.92693590267E+03  0.50400001928E-02 0.  1.
</event>
<event>
 5   0  0.6671375E-05  0.1398085E+04  0.7818609E-02  0.8955206E-01
       -1   -1    0    0    0  501  0.00000000000E+00  0.00000000000E+00  0.39106534817E+03  0.39106534820E+03  0.50400001928E-02 0.  1.
        1   -1    0    0  501    0  0.00000000000E+00  0.00000000000E+00 -0.12495624633E+04  0.12495624633E+04  0.50400001928E-02 0. -1.
    10030    2    1    2    0    0  0.00000000000E+00  0.00000000000E+00 -0.85849711516E+03  0.16406278115E+04  0.13980852332E+04 0.  0.
        5    1    3    3  502    0  0.48638672597E+03 -0.43710226147E+03 -0.71909636047E+03  0.97198359031E+03  0.46999998093E+01 0. -1.
       -5    1    3    3    0  502 -0.48638672597E+03  0.43710226147E+03 -0.13940075469E+03  0.66864422124E+03  0.46999998093E+01 0.  1.
</event>
<event>
 5   0  0.6671375E-05  0.1401389E+04  0.7818609E-02  0.8952813E-01
       -4   -1    0    0    0  501  0.00000000000E+00  0.00000000000E+00  0.33619705571E+03  0.33619945444E+03  0.12699999809E+01 0. -1.
        4   -1    0    0  501    0  0.00000000000E+00  0.00000000000E+00 -0.14603650432E+04  0.14603655954E+04  0.12699999809E+01 0.  1.
    10030    2    1    2    0    0  0.00000000000E+00  0.00000000000E+00 -0.11241679875E+04  0.17965650499E+04  0.14013894228E+04 0.  0.
        5    1    3    3  502    0  0.44518313671E+03  0.33463458900E+03 -0.11071668109E+04  0.12393582091E+04  0.46999998093E+01 0.  1.
       -5    1    3    3    0  502 -0.44518313671E+03 -0.33463458900E+03 -0.17001176581E+02  0.55720684074E+03  0.46999998093E+01 0. -1.
</event>
<event>
 5   0  0.9260916E-05  0.1410321E+04  0.7818609E-02  0.8946382E-01
       -1   -1    0    0    0  501  0.00000000000E+00  0.00000000000E+00  0.34705790373E+03  0.34705790377E+03  0.50400001928E-02 0. -1.
        1   -1    0    0  501    0  0.00000000000E+00  0.00000000000E+00 -0.14327609857E+04  0.14327609857E+04  0.50400001928E-02 0.  1.
    10030    2    1    2    0    0  0.00000000000E+00  0.00000000000E+00 -0.10857030820E+04  0.17798188895E+04  0.14103205654E+04 0.  0.
        1    1    3    3  502    0  0.60046094073E+03 -0.18627900317E+03 -0.94589642131E+03  0.11357698923E+04  0.50400001928E-02 0. -1.
       -1    1    3    3    0  502 -0.60046094073E+03  0.18627900317E+03 -0.13980666065E+03  0.64404899717E+03  0.50400001928E-02 0.  1.
</event>
<event>
 5   0  0.6671375E-05  0.1404426E+04  0.7818609E-02  0.8950621E-01
        3   -1    0    0  501    0  0.00000000000E+00  0.00000000000E+00  0.15760081748E+04  0.15760081780E+04  0.10100000352E+00 0. -1.
       -3   -1    0    0    0  501  0.00000000000E+00  0.00000000000E+00 -0.31288087981E+03  0.31288089611E+03  0.10100000352E+00 0.  1.
    10030    2    1    2    0    0  0.00000000000E+00  0.00000000000E+00  0.12631272950E+04  0.18888890741E+04  0.14044256374E+04 0.  0.
        4    1    3    3  502    0  0.27438334097E+03  0.64577895232E+03  0.59389154090E+03  0.91925265749E+03  0.12699999809E+01 0. -1.
       -4    1    3    3    0  502 -0.27438334097E+03 -0.64577895232E+03  0.66923575409E+03  0.96963641666E+03  0.12699999809E+01 0.  1.
</event>
<event>
 5   0  0.9900839E-05  0.1399654E+04  0.7818609E-02  0.8954069E-01
        1   -1    0    0  501    0  0.00000000000E+00  0.00000000000E+00  0.25412146581E+04  0.25412146581E+04  0.50400001928E-02 0.  1.
       -1   -1    0    0    0  501  0.00000000000E+00  0.00000000000E+00 -0.19272592209E+03  0.19272592215E+03  0.50400001928E-02 0. -1.
    10030    2    1    2    0    0  0.00000000000E+00  0.00000000000E+00  0.23484887360E+04  0.27339405802E+04  0.13996541548E+04 0.  0.
        3    1    3    3  502    0  0.38600367968E+03  0.51061765380E+03  0.62166939387E+03  0.89230156033E+03  0.10100000352E+00 0. -1.
       -3    1    3    3    0  502 -0.38600367968E+03 -0.51061765380E+03  0.17268193421E+04  0.18416390199E+04  0.10100000352E+00 0.  1.
</event>
<event>
 5   0  0.9978422E-05  0.1397813E+04  0.7818609E-02  0.8955403E-01
       -1   -1    0    0    0  501  0.00000000000E+00  0.00000000000E+00  0.64405120765E+03  0.64405120767E+03  0.50400001928E-02 0.  1.
        1   -1    0    0  501    0  0.00000000000E+00  0.00000000000E+00 -0.75843411581E+03  0.75843411583E+03  0.50400001928E-02 0. -1.
    10030    2    1    2    0    0  0.00000000000E+00  0.00000000000E+00 -0.11438290816E+03  0.14024853235E+04  0.13978131610E+04 0.  0.
        2    1    3    3  502    0 -0.11642955388E+03  0.66686267958E+03  0.11719608985E+03  0.68702008552E+03  0.25500000920E-02 0. -1.
       -2    1    3    3    0  502  0.11642955388E+03 -0.66686267958E+03 -0.23157899800E+03  0.71546523798E+03  0.25500000920E-02 0.  1.
</event>
<event>
 5   0  0.9900839E-05  0.1402184E+04  0.7818609E-02  0.8952239E-01
        1   -1    0    0  501    0  0.00000000000E+00  0.00000000000E+00  0.93724387066E+03  0.93724387068E+03  0.50400001928E-02 0. -1.
       -1   -1    0    0    0  501  0.00000000000E+00  0.00000000000E+00 -0.52444223407E+03  0.52444223410E+03  0.50400001928E-02 0.  1.
    10030    2    1    2    0    0  0.00000000000E+00  0.00000000000E+00  0.41280163659E+03  0.14616861048E+04  0.14021843951E+04 0.  0.
        3    1    3    3  502    0  0.26834315912E+03  0.63295436203E+03  0.63123885307E+02  0.69037954095E+03  0.10100000352E+00 0.  1.
       -3    1    3    3    0  502 -0.26834315912E+03 -0.63295436203E+03  0.34967775128E+03  0.77130656383E+03  0.10100000352E+00 0. -1.
</event>
<event>
 5   0  0.9828111E-05  0.1400356E+04  0.7818609E-02  0.8953561E-01
       -1   -1    0    0    0  501  0.00000000000E+00  0.00000000000E+00  0.48148725052E+03  0.48148725054E+03  0.50400001928E-02 0. -1.
        1   -1    0    0  501    0  0.00000000000E+00  0.00000000000E+00 -0.10181973936E+04  0.10181973936E+04  0.50400001928E-02 0.  1.
    10030    2    1    2    0    0  0.00000000000E+00  0.00000000000E+00 -0.53671014304E+03  0.14996846441E+04  0.14003557599E+04 0.  0.
        4    1    3    3  502    0 -0.40904478242E+03  0.93997010844E+02  0.33183892137E+03  0.53504369420E+03  0.12699999809E+01 0. -1.
       -4    1    3    3    0  502  0.40904478242E+03 -0.93997010844E+02 -0.86854906440E+03  0.96464094991E+03  0.12699999809E+01 0.  1.
</event>
<event>
 5   0  0.9978422E-05  0.1400579E+04  0.7818609E-02  0.8953399E-01
        1   -1    0    0  501    0  0.00000000000E+00  0.00000000000E+00  0.22693551326E+04  0.22693551326E+04  0.50400001928E-02 0.  1.
       -1   -1    0    0    0  501  0.00000000000E+00  0.00000000000E+00 -0.21609904473E+03  0.21609904479E+03  0.50400001928E-02 0. -1.
    10030    2    1    2    0    0  0.00000000000E+00  0.00000000000E+00  0.20532560879E+04  0.24854541774E+04  0.14005791322E+04 0.  0.
        2    1    3    3  502    0 -0.69140397630E+02 -0.40462824610E+03  0.20334653888E+04  0.20744844901E+04  0.25500000920E-02 0.  1.
       -2    1    3    3    0  502  0.69140397630E+02  0.40462824610E+03  0.19790699074E+02  0.41096968733E+03  0.25500000920E-02 0. -1.
</event>
<event>
 5   0  0.1794185E-04  0.1400097E+04  0.7818609E-02  0.8953748E-01
       -2   -1    0    0    0  501  0.00000000000E+00  0.00000000000E+00  0.20518252916E+03  0.20518252918E+03  0.25500000920E-02 0.  1.
        2   -1    0    0  501    0  0.00000000000E+00  0.00000000000E+00 -0.23884495299E+04  0.23884495299E+04  0.25500000920E-02 0. -1.
    10030    2    1    2    0    0  0.00000000000E+00  0.00000000000E+00 -0.21832670007E+04  0.25936320591E+04  0.14000973043E+04 0.  0.
        2    1    3    3  502    0  0.44072449456E+03  0.32820308812E+03 -0.18950842929E+04  0.19731446537E+04  0.25500000920E-02 0. -1.
       -2    1    3    3    0  502 -0.44072449456E+03 -0.32820308812E+03 -0.28818270783E+03  0.62048740539E+03  0.25500000920E-02 0.  1.
</event>
<event>
 5   0  0.9978422E-05  0.1398807E+04  0.7818609E-02  0.8954682E-01
        1   -1    0    0  501    0  0.00000000000E+00  0.00000000000E+00  0.68422505723E+03  0.68422505725E+03  0.50400001928E-02 0.  1.
       -1   -1    0    0    0  501  0.00000000000E+00  0.00000000000E+00 -0.71491875181E+03  0.71491875183E+03  0.50400001928E-02 0. -1.
    10030    2    1    2    0    0  0.00000000000E+00  0.00000000000E+00 -0.30693694582E+02  0.13991438091E+04  0.13988070973E+04 0.  0.
        2    1    3    3  502    0 -0.31701484856E+03 -0.17384749577E+02 -0.63868597802E+03  0.71324639659E+03  0.25500000920E-02 0. -1.
       -2    1    3    3    0  502  0.31701484856E+03  0.17384749577E+02  0.60799228344E+03  0.68589741248E+03  0.25500000920E-02 0.  1.
</event>
<event>
 5   0  0.6671375E-05  0.1399551E+04  0.7818609E-02  0.8954143E-01
        1   -1    0    0  501    0  0.00000000000E+00  0.00000000000E+00  0.70917100247E+03  0.70917100249E+03  0.50400001928E-02 0. -1.
       -1   -1    0    0    0  501  0.00000000000E+00  0.00000000000E+00 -0.69050481628E+03  0.69050481629E+03  0.50400001928E-02 0.  1.
    10030    2    1    2    0    0  0.00000000000E+00  0.00000000000E+00  0.18666186193E+02  0.13996758188E+04  0.13995513464E+04 0.  0.
        5    1    3    3  502    0 -0.24100134943E+03 -0.61380097444E+03  0.24351330053E+03  0.70296095495E+03  0.46999998093E+01 0.  1.
       -5    1    3    3    0  502  0.24100134943E+03  0.61380097444E+03 -0.22484711433E+03  0.69671486383E+03  0.46999998093E+01 0. -1.
</event>
<event>
 5   0  0.6671375E-05  0.1416146E+04  0.7818609E-02  0.8942214E-01
        1   -1    0    0  501    0  0.00000000000E+00  0.00000000000E+00  0.21801040246E+04  0.21801040246E+04  0.50400001928E-02 0.  1.
       -1   -1    0    0    0  501  0.00000000000E+00  0.00000000000E+00 -0.22997397460E+03  0.22997397466E+03  0.50400001928E-02 0. -1.
    10030    2    1    2    0    0  0.00000000000E+00  0.00000000000E+00  0.19501300499E+04  0.24100779992E+04  0.14161457378E+04 0.  0.
        5    1    3    3  502    0  0.44106813065E+03  0.17529853199E+03  0.18692682625E+04  0.19285892768E+04  0.46999998093E+01 0.  1.
       -5    1    3    3    0  502 -0.44106813065E+03 -0.17529853199E+03  0.80861787442E+02  0.48148872247E+03  0.46999998093E+01 0. -1.
</event>
<event>
 5   0  0.1766237E-04  0.1404043E+04  0.7818609E-02  0.8950897E-01
        2   -1    0    0  501    0  0.00000000000E+00  0.00000000000E+00  0.18263298424E+04  0.18263298424E+04  0.25500000920E-02 0. -1.
       -2   -1    0    0    0  501  0.00000000000E+00  0.00000000000E+00 -0.26984964531E+03  0.26984964532E+03  0.25500000920E-02 0.  1.
    10030    2    1    2    0    0  0.00000000000E+00  0.00000000000E+00  0.15564801971E+04  0.20961794877E+04  0.14040433899E+04 0.  0.
        3    1    3    3  502    0 -0.43821025783E+03  0.98513890260E+02 -0.27268091266E+02  0.44997419442E+03  0.10100000352E+00 0.  1.
       -3    1    3    3    0  502  0.43821025783E+03 -0.98513890260E+02  0.15837482884E+04  0.16462052933E+04  0.10100000352E+00 0. -1.
</event>
<event>
 5   0  0.1766237E-04  0.1402085E+04  0.7818609E-02  0.8952311E-01
        2   -1    0    0  501    0  0.00000000000E+00  0.00000000000E+00  0.12383370446E+04  0.12383370446E+04  0.25500000920E-02 0. -1.
       -2   -1    0    0    0  501  0.00000000000E+00  0.00000000000E+00 -0.39687129334E+03  0.39687129334E+03  0.25500000920E-02 0.  1.
    10030    2    1    2    0    0  0.00000000000E+00  0.00000000000E+00  0.84146575128E+03  0.16352083380E+04  0.14020847685E+04 0.  0.
        3    1    3    3  502    0  0.11570408325E+03  0.61235242564E+02 -0.38248990347E+03  0.40427184699E+03  0.10100000352E+00 0.  1.
       -3    1    3    3    0  502 -0.11570408325E+03 -0.61235242564E+02  0.12239556547E+04  0.12309364910E+04  0.10100000352E+00 0. -1.
</event>
<event>
 5   0  0.1833681E-04  0.1393598E+04  0.7818609E-02  0.8958466E-01
        2   -1    0    0  501    0  0.00000000000E+00  0.00000000000E+00  0.95911101591E+03  0.95911101591E+03  0.25500000920E-02 0. -1.
       -2   -1    0    0    0  501  0.00000000000E+00  0.00000000000E+00 -0.50622795282E+03  0.50622795282E+03  0.25500000920E-02 0.  1.
    10030    2    1    2    0    0  0.00000000000E+00  0.00000000000E+00  0.45288306309E+03  0.14653389687E+04  0.13935979422E+04 0.  0.
        4    1    3    3  502    0  0.32196142915E+03  0.29771755792E+03 -0.34294409106E+03  0.55669306502E+03  0.12699999809E+01 0.  1.
       -4    1    3    3    0  502 -0.32196142915E+03 -0.29771755792E+03  0.79582715415E+03  0.90864590371E+03  0.12699999809E+01 0. -1.
</event>
<event>
 5   0  0.1766237E-04  0.1398322E+04  0.7818609E-02  0.8955034E-01
       -2   -1    0    0    0  501  0.00000000000E+00  0.00000000000E+00  0.77255388699E+03  0.77255388699E+03  0.25500000920E-02 0.  1.
        2   -1    0    0  501    0  0.00000000000E+00  0.00000000000E+00 -0.63274086524E+03  0.63274086525E+03  0.25500000920E-02 0. -1.
    10030    2    1    2    0    0  0.00000000000E+00  0.00000000000E+00  0.13981302175E+03  0.14052947522E+04  0.13983224448E+04 0.  0.
        3    1    3    3  502    0 -0.12564248363E+03 -0.33847935271E+03 -0.53180424545E+03  0.64278306728E+03  0.10100000352E+00 0. -1.
       -3    1    3    3    0  502  0.12564248363E+03  0.33847935271E+03  0.67161726720E+03  0.76251168496E+03  0.10100000352E+00 0.  1.
</event>
<event>
 5   0  0.1712327E-04  0.1401822E+04  0.7818609E-02  0.8952501E-01
        2   -1    0    0  501    0  0.00000000000E+00  0.00000000000E+00  0.84501722289E+03  0.84501722289E+03  0.25500000920E-02 0.  1.
       -2   -1    0    0    0  501  0.00000000000E+00  0.00000000000E+00 -0.58138005089E+03  0.58138005090E+03  0.25500000920E-02 0. -1.
    10030    2    1    2    0    0  0.00000000000E+00  0.00000000000E+00  0.26363717200E+03  0.14263972738E+04  0.14018218946E+04 0.  0.
        1    1    3    3  502    0  0.29048403816E+03  0.61854654109E+03  0.29042081839E+03  0.74251266097E+03  0.50400001928E-02 0.  1.
       -1    1    3    3    0  502 -0.29048403816E+03 -0.61854654109E+03 -0.26783646394E+02  0.68388461282E+03  0.50400001928E-02 0. -1.
</event>
<event>
 5   0  0.1766237E-04  0.1390821E+04  0.7818609E-02  0.8960490E-01
        2   -1    0    0  501    0  0.00000000000E+00  0.00000000000E+00  0.68849087138E+03  0.68849087139E+03  0.25500000920E-02 0.  1.
       -2   -1    0    0    0  501  0.00000000000E+00  0.00000000000E+00 -0.70239926541E+03  0.70239926541E+03  0.25500000920E-02 0. -1.
    10030    2    1    2    0    0  0.00000000000E+00  0.00000000000E+00 -0.13908394027E+02  0.13908901368E+04  0.13908205956E+04 0.  0.
        3    1    3    3  502    0 -0.45783551486E+03  0.38218958888E+03  0.35071327880E+03  0.69186852410E+03  0.10100000352E+00 0.  1.
       -3    1    3    3    0  502  0.45783551486E+03 -0.38218958888E+03 -0.36462167283E+03  0.69902161269E+03  0.10100000352E+00 0. -1.
</event>
<event>
 5   0  0.1780171E-04  0.1400695E+04  0.7818609E-02  0.8953316E-01
       -2   -1    0    0    0  501  0.00000000000E+00  0.00000000000E+00  0.43920289744E+03  0.43920289745E+03  0.25500000920E-02 0.  1.
        2   -1    0    0  501    0  0.00000000000E+00  0.00000000000E+00 -0.11167648477E+04  0.11167648477E+04  0.25500000920E-02 0. -1.
    10030    2    1    2    0    0  0.00000000000E+00  0.00000000000E+00 -0.67756195026E+03  0.15559677452E+04  0.14006946232E+04 0.  0.
        5    1    3    3  502    0 -0.30746583748E+03 -0.27852283780E+03  0.28799497085E+03  0.50504792409E+03  0.46999998093E+01 0.  1.
       -5    1    3    3    0  502  0.30746583748E+03  0.27852283780E+03 -0.96555692112E+03  0.10509198211E+04  0.46999998093E+01 0. -1.
</event>
<event>
 5   0  0.9900839E-05  0.1402332E+04  0.7818609E-02  0.8952132E-01
        1   -1    0    0  501    0  0.00000000000E+00  0.00000000000E+00  0.14802956934E+04  0.14802956934E+04  0.50400001928E-02 0.  1.
       -1   -1    0    0    0  501  0.00000000000E+00  0.00000000000E+00 -0.33211854558E+03  0.33211854562E+03  0.50400001928E-02 0. -1.
    10030    2    1    2    0    0  0.00000000000E+00  0.00000000000E+00  0.11481771478E+04  0.18124142390E+04  0.14023318477E+04 0.  0.
        3    1    3    3  502    0  0.65944142170E+03 -0.83724858036E+02  0.28578478220E+03  0.72356464290E+03  0.10100000352E+00 0. -1.
       -3    1    3    3    0  502 -0.65944142170E+03  0.83724858036E+02  0.86239236557E+03  0.10888495961E+04  0.10100000352E+00 0.  1.
</event>
<event>
 5   0  0.6671375E-05  0.1399250E+04  0.7818609E-02  0.8954361E-01
       -3   -1    0    0    0  501  0.00000000000E+00  0.00000000000E+00  0.18879586332E+04  0.18879586359E+04  0.10100000352E+00 0. -1.
        3   -1    0    0  501    0  0.00000000000E+00  0.00000000000E+00 -0.25926165201E+03  0.25926167169E+03  0.10100000352E+00 0.  1.
    10030    2    1    2    0    0  0.00000000000E+00  0.00000000000E+00  0.16286969811E+04  0.21472203075E+04  0.13992502252E+04 0.  0.
        2    1    3    3  502    0 -0.64317056701E+03  0.13407942452E+03  0.11833740261E+04  0.13535212432E+04  0.25500000920E-02 0. -1.
       -2    1    3    3    0  502  0.64317056701E+03 -0.13407942452E+03  0.44532295507E+03  0.79369906430E+03  0.25500000920E-02 0.  1.
</event>
<event>
 5   0  0.9260916E-05  0.1403821E+04  0.7818609E-02  0.8951058E-01
        1   -1    0    0  501    0  0.00000000000E+00  0.00000000000E+00  0.69044324401E+03  0.69044324403E+03  0.50400001928E-02 0.  1.
       -1   -1    0    0    0  501  0.00000000000E+00  0.00000000000E+00 -0.71356791051E+03  0.71356791052E+03  0.50400001928E-02 0. -1.
    10030    2    1    2    0    0  0.00000000000E+00  0.00000000000E+00 -0.23124666493E+02  0.14040111546E+04  0.14038207050E+04 0.  0.
        1    1    3    3  502    0 -0.97227393171E+02 -0.36441363403E+03  0.58048730013E+03  0.69225426563E+03  0.50400001928E-02 0.  1.
       -1    1    3    3    0  502  0.97227393171E+02  0.36441363403E+03 -0.60361196662E+03  0.71175688892E+03  0.50400001928E-02 0. -1.
</event>
<event>
 5   0  0.9900839E-05  0.1399898E+04  0.7818609E-02  0.8953892E-01
        1   -1    0    0  501    0  0.00000000000E+00  0.00000000000E+00  0.42766253694E+03  0.42766253697E+03  0.50400001928E-02 0.  1.
       -1   -1    0    0    0  501  0.00000000000E+00  0.00000000000E+00 -0.11455967424E+04  0.11455967424E+04  0.50400001928E-02 0. -1.
    10030    2    1    2    0    0  0.00000000000E+00  0.00000000000E+00 -0.71793420549E+03  0.15732592794E+04  0.13998982952E+04 0.  0.
        3    1    3    3  502    0 -0.13573948984E+03 -0.33458209843E+03  0.31492216910E+03  0.47910997953E+03  0.10100000352E+00 0.  1.
       -3    1    3    3    0  502  0.13573948984E+03  0.33458209843E+03 -0.10328563746E+04  0.10941492999E+04  0.10100000352E+00 0. -1.
</event>
<event>
 5   0  0.9260916E-05  0.1398059E+04  0.7818609E-02  0.8955225E-01
        1   -1    0    0  501    0  0.00000000000E+00  0.00000000000E+00  0.68041122325E+03  0.68041122327E+03  0.50400001928E-02 0.  1.
       -1   -1    0    0    0  501  0.00000000000E+00  0.00000000000E+00 -0.71815738976E+03  0.71815738978E+03  0.50400001928E-02 0. -1.
    10030    2    1    2    0    0  0.00000000000E+00  0.00000000000E+00 -0.37746166513E+02  0.13985686130E+04  0.13980591519E+04 0.  0.
        1    1    3    3  502    0  0.40237365844E+03 -0.29668666867E+03 -0.50763562027E+03  0.71247558791E+03  0.50400001928E-02 0. -1.
       -1    1    3    3    0  502 -0.40237365844E+03  0.29668666867E+03  0.46988945376E+03  0.68609302514E+03  0.50400001928E-02 0.  1.
</event>
<event>
 5   0  0.9828111E-05  0.1401953E+04  0.7818609E-02  0.8952406E-01
       -1   -1    0    0    0  501  0.00000000000E+00  0.00000000000E+00  0.58895532841E+03  0.58895532843E+03  0.50400001928E-02 0. -1.
        1   -1    0    0  501    0  0.00000000000E+00  0.00000000000E+00 -0.83430417905E+03  0.83430417906E+03  0.50400001928E-02 0.  1.
    10030    2    1    2    0    0  0.00000000000E+00  0.00000000000E+00 -0.24534885063E+03  0.14232595075E+04  0.14019527692E+04 0.  0.
        4    1    3    3  502    0  0.27751117809E+03 -0.32730159017E+03  0.44003054339E+03  0.61462775475E+03  0.12699999809E+01 0. -1.
       -4    1    3    3    0  502 -0.27751117809E+03  0.32730159017E+03 -0.68537939403E+03  0.80863175275E+03  0.12699999809E+01 0.  1.
</event>
<event>
 5   0  0.1833681E-04  0.1401201E+04  0.7818609E-02  0.8952950E-01
       -2   -1    0    0    0  501  0.00000000000E+00  0.00000000000E+00  0.63955781513E+03  0.63955781514E+03  0.25500000920E-02 0.  1.
        2   -1    0    0  501    0  0.00000000000E+00  0.00000000000E+00 -0.76746923295E+03  0.76746923296E+03  0.25500000920E-02 0. -1.
    10030    2    1    2    0    0  0.00000000000E+00  0.00000000000E+00 -0.12791141782E+03  0.14070270481E+04  0.14012008362E+04 0.  0.
        4    1    3    3  502    0 -0.52621765133E+03  0.62042781017E+02  0.39630043113E+03  0.66167209995E+03  0.12699999809E+01 0.  1.
       -4    1    3    3    0  502  0.52621765133E+03 -0.62042781017E+02 -0.52421184895E+03  0.74535494814E+03  0.12699999809E+01 0. -1.
</event>
<event>
 5   0  0.1780171E-04  0.1400218E+04  0.7818609E-02  0.8953661E-01
        2   -1    0    0  501    0  0.00000000000E+00  0.00000000000E+00  0.77937991177E+03  0.77937991177E+03  0.25500000920E-02 0. -1.
       -2   -1    0    0    0  501  0.00000000000E+00  0.00000000000E+00 -0.62890059590E+03  0.62890059591E+03  0.25500000920E-02 0.  1.
    10030    2    1    2    0    0  0.00000000000E+00  0.00000000000E+00  0.15047931587E+03  0.14082805077E+04  0.14002178273E+04 0.  0.
        5    1    3    3  502    0  0.65795479513E+03  0.13513839056E+03  0.27376802392E+03  0.72535365027E+03  0.46999998093E+01 0. -1.
       -5    1    3    3    0  502 -0.65795479513E+03 -0.13513839056E+03 -0.12328870805E+03  0.68292685741E+03  0.46999998093E+01 0.  1.
</event>
<event>
 5   0  0.9260916E-05  0.1398036E+04  0.7818609E-02  0.8955241E-01
       -1   -1    0    0    0  501  0.00000000000E+00  0.00000000000E+00  0.48929884273E+03  0.48929884276E+03  0.50400001928E-02 0.  1.
        1   -1    0    0  501    0  0.00000000000E+00  0.00000000000E+00 -0.99862550608E+03  0.99862550609E+03  0.50400001928E-02 0. -1.
    10030    2    1    2    0    0  0.00000000000E+00  0.00000000000E+00 -0.50932666335E+03  0.14879243488E+04  0.13980362005E+04 0.  0.
        1    1    3    3  502    0 -0.27527730059E+03 -0.58701619988E+03  0.23402598918E+02  0.64877830790E+03  0.50400001928E-02 0.  1.
       -1    1    3    3    0  502  0.27527730059E+03  0.58701619988E+03 -0.53272926227E+03  0.83914604095E+03  0.50400001928E-02 0. -1.
</event>
<event>
 5   0  0.1766237E-04  0.1392827E+04  0.7818609E-02  0.8959027E-01
        2   -1    0    0  501    0  0.00000000000E+00  0.00000000000E+00  0.10350652253E+04  0.10350652253E+04  0.25500000920E-02 0.  1.
       -2   -1    0    0    0  501  0.00000000000E+00  0.00000000000E+00 -0.46856182146E+03  0.46856182147E+03  0.25500000920E-02 0. -1.
    10030    2    1    2    0    0  0.00000000000E+00  0.00000000000E+00  0.56650340381E+03  0.15036270467E+04  0.13928274083E+04 0.  0.
        3    1    3    3  502    0 -0.61581813372E+02 -0.61024878960E+03 -0.72829914473E+02  0.61765695300E+03  0.10100000352E+00 0. -1.
       -3    1    3    3    0  502  0.61581813372E+02  0.61024878960E+03  0.63933331828E+03  0.88597009375E+03  0.10100000352E+00 0.  1.
</event>
<event>
 5   0  0.1712327E-04  0.1398956E+04  0.7818609E-02  0.8954574E-01
       -2   -1    0    0    0  501  0.00000000000E+00  0.00000000000E+00  0.41857684256E+03  0.41857684257E+03  0.25500000920E-02 0. -1.
        2   -1    0    0  501    0  0.00000000000E+00  0.00000000000E+00 -0.11688884411E+04  0.11688884411E+04  0.25500000920E-02 0.  1.
    10030    2    1    2    0    0  0.00000000000E+00  0.00000000000E+00 -0.75031159856E+03  0.15874652837E+04  0.13989562295E+04 0.  0.
        1    1    3    3  502    0 -0.33187324015E+03 -0.61436853139E+03 -0.32862976988E+03  0.77174222741E+03  0.50400001928E-02 0. -1.
       -1    1    3    3    0  502  0.33187324015E+03  0.61436853139E+03 -0.42168182868E+03  0.81572305628E+03  0.50400001928E-02 0.  1.
</event>
<event>
 5   0  0.6671375E-05  0.1400062E+04  0.7818609E-02  0.8953774E-01
       -3   -1    0    0    0  501  0.00000000000E+00  0.00000000000E+00  0.82650423261E+03  0.82650423879E+03  0.10100000352E+00 0. -1.
        3   -1    0    0  501    0  0.00000000000E+00  0.00000000000E+00 -0.59291063338E+03  0.59291064199E+03  0.10100000352E+00 0.  1.
    10030    2    1    2    0    0  0.00000000000E+00  0.00000000000E+00  0.23359359923E+03  0.14194148808E+04  0.14000616537E+04 0.  0.
        3    1    3    3  502    0 -0.39930163104E+03  0.49914404973E+03  0.40614798210E+03  0.75732606484E+03  0.10100000352E+00 0. -1.
       -3    1    3    3    0  502  0.39930163104E+03 -0.49914404973E+03 -0.17255438287E+03  0.66208881593E+03  0.10100000352E+00 0.  1.
</event>
<event>
 5   0  0.1794185E-04  0.1400982E+04  0.7818609E-02  0.8953108E-01
        2   -1    0    0  501    0  0.00000000000E+00  0.00000000000E+00  0.86411476389E+03  0.86411476389E+03  0.25500000920E-02 0. -1.
       -2   -1    0    0    0  501  0.00000000000E+00  0.00000000000E+00 -0.56785014684E+03  0.56785014684E+03  0.25500000920E-02 0.  1.
    10030    2    1    2    0    0  0.00000000000E+00  0.00000000000E+00  0.29626461705E+03  0.14319649107E+04  0.14009820778E+04 0.  0.
        2    1    3    3  502    0 -0.52892059023E+03  0.32077747616E+03 -0.18781954452E+03  0.64647611038E+03  0.25500000920E-02 0.  1.
       -2    1    3    3    0  502  0.52892059023E+03 -0.32077747616E+03  0.48408416157E+03  0.78548880035E+03  0.25500000920E-02 0. -1.
</event>
<event>
 5   0  0.6671375E-05  0.1400958E+04  0.7818609E-02  0.8953126E-01
       -4   -1    0    0    0  501  0.00000000000E+00  0.00000000000E+00  0.30277049317E+03  0.30277315672E+03  0.12699999809E+01 0.  1.
        4   -1    0    0  501    0  0.00000000000E+00  0.00000000000E+00 -0.16205924000E+04  0.16205928976E+04  0.12699999809E+01 0. -1.
    10030    2    1    2    0    0  0.00000000000E+00  0.00000000000E+00 -0.13178219068E+04  0.19233660543E+04  0.14009576728E+04 0.  0.
        5    1    3    3  502    0 -0.52786010065E+02  0.43854531624E+03  0.87443587820E+02  0.45030748195E+03  0.46999998093E+01 0.  1.
       -5    1    3    3    0  502  0.52786010065E+02 -0.43854531624E+03 -0.14052654946E+04  0.14730585724E+04  0.46999998093E+01 0. -1.
</event>
<event>
 5   0  0.9828111E-05  0.1400285E+04  0.7818609E-02  0.8953612E-01
       -1   -1    0    0    0  501  0.00000000000E+00  0.00000000000E+00  0.84125608885E+03  0.84125608887E+03  0.50400001928E-02 0. -1.
        1   -1    0    0  501    0  0.00000000000E+00  0.00000000000E+00 -0.58269928696E+03  0.58269928698E+03  0.50400001928E-02 0.  1.
    10030    2    1    2    0    0  0.00000000000E+00  0.00000000000E+00  0.25855680190E+03  0.14239553758E+04  0.14002847184E+04 0.  0.
        4    1    3    3  502    0  0.24223652566E+03 -0.27565168327E+03 -0.47706884485E+03  0.60187929062E+03  0.12699999809E+01 0.  1.
       -4    1    3    3    0  502 -0.24223652566E+03  0.27565168327E+03  0.73562564674E+03  0.82207608523E+03  0.12699999809E+01 0. -1.
</event>
<event>
 5   0  0.1780171E-04  0.1400645E+04  0.7818609E-02  0.8953352E-01
        2   -1    0    0  501    0  0.00000000000E+00  0.00000000000E+00  0.12909698981E+04  0.12909698981E+04  0.25500000920E-02 0. -1.
       -2   -1    0    0    0  501  0.00000000000E+00  0.00000000000E+00 -0.37990942204E+03  0.37990942205E+03  0.25500000920E-02 0.  1.
    10030    2    1    2    0    0  0.00000000000E+00  0.00000000000E+00  0.91106047606E+03  0.16708793201E+04  0.14006450341E+04 0.  0.
        5    1    3    3  502    0 -0.40280892057E+02 -0.43102753590E+03 -0.20115047044E+03  0.47737918757E+03  0.46999998093E+01 0.  1.
       -5    1    3    3    0  502  0.40280892057E+02  0.43102753590E+03  0.11122109465E+04  0.11935001326E+04  0.46999998093E+01 0. -1.
</event>
<event>
 5   0  0.6671375E-05  0.1425709E+04  0.7818609E-02  0.8935416E-01
       -4   -1    0    0    0  501  0.00000000000E+00  0.00000000000E+00  0.32430147620E+03  0.32430396291E+03  0.12699999809E+01 0. -1.
        4   -1    0    0  501    0  0.00000000000E+00  0.00000000000E+00 -0.15669332128E+04  0.15669337274E+04  0.12699999809E+01 0.  1.
    10030    2    1    2    0    0  0.00000000000E+00  0.00000000000E+00 -0.12426317366E+04  0.18912376904E+04  0.14257090757E+04 0.  0.
        1    1    3    3  502    0 -0.84330034129E+02 -0.34181660387E+03 -0.14435591807E+04  0.14858712103E+04  0.50400001928E-02 0.  1.
       -1    1    3    3    0  502  0.84330034129E+02  0.34181660387E+03  0.20092744412E+03  0.40536648007E+03  0.50400001928E-02 0. -1.
</event>
<event>
 5   0  0.6671375E-05  0.1403171E+04  0.7818609E-02  0.8951526E-01
       -1   -1    0    0    0  501  0.00000000000E+00  0.00000000000E+00  0.74366697627E+03  0.74366697629E+03  0.50400001928E-02 0.  1.
        1   -1    0    0  501    0  0.00000000000E+00  0.00000000000E+00 -0.66188553079E+03  0.66188553081E+03  0.50400001928E-02 0. -1.
    10030    2    1    2    0    0  0.00000000000E+00  0.00000000000E+00  0.81781445479E+02  0.14055525071E+04  0.14031712816E+04 0.  0.
        5    1    3    3  502    0  0.41450268786E+03  0.67664306166E+01  0.60783890561E+03  0.73576388060E+03  0.46999998093E+01 0.  1.
       -5    1    3    3    0  502 -0.41450268786E+03 -0.67664306166E+01 -0.52605746013E+03  0.66978862650E+03  0.46999998093E+01 0. -1.
</event>
<event>
 5   0  0.9828111E-05  0.1400561E+04  0.7818609E-02  0.8953412E-01
       -1   -1    0    0    0  501  0.00000000000E+00  0.00000000000E+00  0.71056759787E+03  0.71056759788E+03  0.50400001928E-02 0. -1.
        1   -1    0    0  501    0  0.00000000000E+00  0.00000000000E+00 -0.69014266296E+03  0.69014266298E+03  0.50400001928E-02 0.  1.
    10030    2    1    2    0    0  0.00000000000E+00  0.00000000000E+00  0.20424934904E+02  0.14007102609E+04  0.14005613364E+04 0.  0.
        4    1    3    3  502    0 -0.34011085949E+03 -0.49673824189E+03  0.36797543238E+03  0.70557197325E+03  0.12699999809E+01 0.  1.
       -4    1    3    3    0  502  0.34011085949E+03  0.49673824189E+03 -0.34755049748E+03  0.69513828761E+03  0.12699999809E+01 0. -1.
</event>
<event>
 5   0  0.9900839E-05  0.1401177E+04  0.7818609E-02  0.8952967E-01
        1   -1    0    0  501    0  0.00000000000E+00  0.00000000000E+00  0.83439715575E+03  0.83439715577E+03  0.50400001928E-02 0.  1.
       -1   -1    0    0    0  501  0.00000000000E+00  0.00000000000E+00 -0.58823780584E+03  0.58823780586E+03  0.50400001928E-02 0. -1.
    10030    2    1    2    0    0  0.00000000000E+00  0.00000000000E+00  0.24615934992E+03  0.14226349616E+04  0.14011765801E+04 0.  0.
        3    1    3    3  502    0  0.65307454894E+03 -0.24640754516E+03  0.62153212143E+02  0.70077533973E+03  0.10100000352E+00 0.  1.
       -3    1    3    3    0  502 -0.65307454894E+03  0.24640754516E+03  0.18400613777E+03  0.72185962190E+03  0.10100000352E+00 0. -1.
</event>
<event>
 5   0  0.6671375E-05  0.1399770E+04  0.7818609E-02  0.8953985E-01
        3   -1    0    0  501    0  0.00000000000E+00  0.00000000000E+00  0.58624411978E+03  0.58624412848E+03  0.10100000352E+00 0.  1.
       -3   -1    0    0    0  501  0.00000000000E+00  0.00000000000E+00 -0.83555502626E+03  0.83555503236E+03  0.10100000352E+00 0. -1.
    10030    2    1    2    0    0  0.00000000000E+00  0.00000000000E+00 -0.24931090648E+03  0.14217991608E+04  0.13997703118E+04 0.  0.
        1    1    3    3  502    0  0.57106616936E+03 -0.14914121742E+02 -0.53537054387E+03  0.78291801620E+03  0.50400001928E-02 0.  1.
       -1    1    3    3    0  502 -0.57106616936E+03  0.14914121742E+02  0.28605963739E+03  0.63888114465E+03  0.50400001928E-02 0. -1.
</event>
<event>
 5   0  0.6671375E-05  0.1398648E+04  0.7818609E-02  0.8954798E-01
       -1   -1    0    0    0  501  0.00000000000E+00  0.00000000000E+00  0.13379838382E+04  0.13379838382E+04  0.50400001928E-02 0.  1.
        1   -1    0    0  501    0  0.00000000000E+00  0.00000000000E+00 -0.36551575713E+03  0.36551575717E+03  0.50400001928E-02 0. -1.
    10030    2    1    2    0    0  0.00000000000E+00  0.00000000000E+00  0.97246808109E+03  0.17034995954E+04  0.13986481698E+04 0.  0.
        5    1    3    3  502    0  0.18959919260E+03 -0.16020970785E+03  0.12825024580E+04  0.13063114672E+04  0.46999998093E+01 0.  1.
       -5    1    3    3    0  502 -0.18959919260E+03  0.16020970785E+03 -0.31003437696E+03  0.39718812824E+03  0.46999998093E+01 0. -1.
</event>
<event>
 5   0  0.6671375E-05  0.1402475E+04  0.7818609E-02  0.8952029E-01
       -1   -1    0    0    0  501  0.00000000000E+00  0.00000000000E+00  0.79976482099E+03  0.79976482101E+03  0.50400001928E-02 0. -1.
        1   -1    0    0  501    0  0.00000000000E+00  0.00000000000E+00 -0.61484792834E+03  0.61484792836E+03  0.50400001928E-02 0.  1.
    10030    2    1    2    0    0  0.00000000000E+00  0.00000000000E+00  0.18491689265E+03  0.14146127494E+04  0.14024745892E+04 0.  0.
        5    1    3    3  502    0  0.59158144876E+03  0.16866100572E+03 -0.24705019206E+03  0.66292611410E+03  0.46999998093E+01 0.  1.
       -5    1    3    3    0  502 -0.59158144876E+03 -0.16866100572E+03  0.43196708471E+03  0.75168663526E+03  0.46999998093E+01 0. -1.
</event>
<event>
 5   0  0.9260916E-05  0.1400238E+04  0.7818609E-02  0.8953646E-01
        1   -1    0    0  501    0  0.00000000000E+00  0.00000000000E+00  0.70182743930E+03  0.70182743932E+03  0.50400001928E-02 0.  1.
       -1   -1    0    0    0  501  0.00000000000E+00  0.00000000000E+00 -0.69841476841E+03  0.69841476843E+03  0.50400001928E-02 0. -1.
    10030    2    1    2    0    0  0.00000000000E+00  0.00000000000E+00  0.34126708916E+01  0.14002422077E+04  0.14002380491E+04 0.  0.
        1    1    3    3  502    0 -0.30817785623E+02 -0.67570203136E+03 -0.17896981488E+03  0.69968075988E+03  0.50400001928E-02 0. -1.
       -1    1    3    3    0  502  0.30817785623E+02  0.67570203136E+03  0.18238248577E+03  0.70056144786E+03  0.50400001928E-02 0.  1.
</event>
<event>
 5   0  0.6671375E-05  0.1404087E+04  0.7818609E-02  0.8950865E-01
        1   -1    0    0  501    0  0.00000000000E+00  0.00000000000E+00  0.17204799794E+04  0.17204799794E+04  0.50400001928E-02 0. -1.
       -1   -1    0    0    0  501  0.00000000000E+00  0.00000000000E+00 -0.28646961990E+03  0.28646961994E+03  0.50400001928E-02 0.  1.
    10030    2    1    2    0    0  0.00000000000E+00  0.00000000000E+00  0.14340103595E+04  0.20069495993E+04  0.14040872420E+04 0.  0.
        5    1    3    3  502    0 -0.97063227318E+02 -0.22424160039E+03  0.16577142056E+04  0.16756324307E+04  0.46999998093E+01 0. -1.
       -5    1    3    3    0  502  0.97063227318E+02  0.22424160039E+03 -0.22370384612E+03  0.33131716860E+03  0.46999998093E+01 0.  1.
</event>
<event>
 5   0  0.1712327E-04  0.1399351E+04  0.7818609E-02  0.8954288E-01
       -2   -1    0    0    0  501  0.00000000000E+00  0.00000000000E+00  0.79802195422E+03  0.79802195422E+03  0.25500000920E-02 0. -1.
        2   -1    0    0  501    0  0.00000000000E+00  0.00000000000E+00 -0.61344943143E+03  0.61344943144E+03  0.25500000920E-02 0.  1.
    10030    2    1    2    0    0  0.00000000000E+00  0.00000000000E+00  0.18457252278E+03  0.14114713857E+04  0.13993514413E+04 0.  0.
        1    1    3    3  502    0 -0.24635417100E+03  0.62881940641E+03 -0.92168848079E+02  0.68161522872E+03  0.50400001928E-02 0.  1.
       -1    1    3    3    0  502  0.24635417100E+03 -0.62881940641E+03  0.27674137086E+03  0.72985615694E+03  0.50400001928E-02 0. -1.
</event>
<event>
 5   0  0.9260916E-05  0.1400925E+04  0.7818609E-02  0.8953149E-01
        1   -1    0    0  501    0  0.00000000000E+00  0.00000000000E+00  0.62071596043E+03  0.62071596045E+03  0.50400001928E-02 0. -1.
       -1   -1    0    0    0  501  0.00000000000E+00  0.00000000000E+00 -0.79045479880E+03  0.79045479881E+03  0.50400001928E-02 0.  1.
    10030    2    1    2    0    0  0.00000000000E+00  0.00000000000E+00 -0.16973883837E+03  0.14111707593E+04  0.14009252794E+04 0.  0.
        1    1    3    3  502    0 -0.64308902407E+03  0.98890143007E+02  0.17646027816E+03  0.67415204744E+03  0.50400001928E-02 0.  1.
       -1    1    3    3    0  502  0.64308902407E+03 -0.98890143007E+02 -0.34619911653E+03  0.73701871183E+03  0.50400001928E-02 0. -1.
</event>
<event>
 5   0  0.1833681E-04  0.1398957E+04  0.7818609E-02  0.8954574E-01
       -2   -1    0    0    0  501  0.00000000000E+00  0.00000000000E+00  0.64211046066E+03  0.64211046067E+03  0.25500000920E-02 0. -1.
        2   -1    0    0  501    0  0.00000000000E+00  0.00000000000E+00 -0.76197191051E+03  0.76197191052E+03  0.25500000920E-02 0.  1.
    10030    2    1    2    0    0  0.00000000000E+00  0.00000000000E+00 -0.11986144985E+03  0.14040823712E+04  0.13989569464E+04 0.  0.
        4    1    3    3  502    0  0.27384607679E+03 -0.56608523139E+03  0.24749912967E+03  0.67579700729E+03  0.12699999809E+01 0. -1.
       -4    1    3    3    0  502 -0.27384607679E+03  0.56608523139E+03 -0.36736057952E+03  0.72828536389E+03  0.12699999809E+01 0.  1.
</event>
<event>
 5   0  0.1780171E-04  0.1399490E+04  0.7818609E-02  0.8954188E-01
        2   -1    0    0  501    0  0.00000000000E+00  0.00000000000E+00  0.12278287368E+04  0.12278287368E+04  0.25500000920E-02 0.  1.
       -2   -1    0    0    0  501  0.00000000000E+00  0.00000000000E+00 -0.39878771608E+03  0.39878771609E+03  0.25500000920E-02 0. -1.
    10030    2    1    2    0    0  0.00000000000E+00  0.00000000000E+00  0.82904102075E+03  0.16266164529E+04  0.13994899324E+04 0.  0.
        5    1    3    3  502    0 -0.55264724597E+03 -0.32054407800E+03  0.82801694675E+02  0.64424040160E+03  0.46999998093E+01 0. -1.
       -5    1    3    3    0  502  0.55264724597E+03  0.32054407800E+03  0.74623932608E+03  0.98237605132E+03  0.46999998093E+01 0.  1.
</event>
<event>
 5   0  0.9978422E-05  0.1399997E+04  0.7818609E-02  0.8953821E-01
       -1   -1    0    0    0  501  0.00000000000E+00  0.00000000000E+00  0.64568122215E+03  0.64568122217E+03  0.50400001928E-02 0.  1.
        1   -1    0    0  501    0  0.00000000000E+00  0.00000000000E+00 -0.75888494657E+03  0.75888494659E+03  0.50400001928E-02 0. -1.
    10030    2    1    2    0    0  0.00000000000E+00  0.00000000000E+00 -0.11320372442E+03  0.14045661688E+04  0.13999967997E+04 0.  0.
        2    1    3    3  502    0  0.59045860701E+03  0.21579541500E+03  0.25228078994E+03  0.67738809017E+03  0.25500000920E-02 0.  1.
       -2    1    3    3    0  502 -0.59045860701E+03 -0.21579541500E+03 -0.36548451436E+03  0.72717807858E+03  0.25500000920E-02 0. -1.
</event>
<event>
 5   0  0.9260916E-05  0.1400633E+04  0.7818609E-02  0.8953361E-01
       -1   -1    0    0    0  501  0.00000000000E+00  0.00000000000E+00  0.38735218910E+03  0.38735218913E+03  0.50400001928E-02 0. -1.
        1   -1    0    0  501    0  0.00000000000E+00  0.00000000000E+00 -0.12661423206E+04  0.12661423206E+04  0.50400001928E-02 0.  1.
    10030    2    1    2    0    0  0.00000000000E+00  0.00000000000E+00 -0.87879013146E+03  0.16534945097E+04  0.14006327136E+04 0.  0.
        1    1    3    3  502    0 -0.98377753610E+02  0.77142690334E+02  0.37407236264E+03  0.39441007796E+03  0.50400001928E-02 0. -1.
       -1    1    3    3    0  502  0.98377753610E+02 -0.77142690334E+02 -0.12528624941E+04  0.12590844317E+04  0.50400001928E-02 0.  1.
</event>
<event>
 5   0  0.1794185E-04  0.1400264E+04  0.7818609E-02  0.8953628E-01
        2   -1    0    0  501    0  0.00000000000E+00  0.00000000000E+00  0.23405885833E+04  0.23405885833E+04  0.25500000920E-02 0. -1.
       -2   -1    0    0    0  501  0.00000000000E+00  0.00000000000E+00 -0.20942790286E+03  0.20942790288E+03  0.25500000920E-02 0.  1.
    10030    2    1    2    0    0  0.00000000000E+00  0.00000000000E+00  0.21311606804E+04  0.25500164862E+04  0.14002636302E+04 0.  0.
        2    1    3    3  502    0  0.17205857289E+03 -0.57077653682E+03  0.39697575958E+03  0.71622605453E+03  0.25500000920E-02 0.  1.
       -2    1    3    3    0  502 -0.17205857289E+03  0.57077653682E+03  0.17341849209E+04  0.18337904317E+04  0.25500000920E-02 0. -1.
</event>
<event>
 5   0  0.9900839E-05  0.1397732E+04  0.7818609E-02  0.8955462E-01
       -1   -1    0    0    0  501  0.00000000000E+00  0.00000000000E+00  0.34504936302E+03  0.34504936306E+03  0.50400001928E-02 0.  1.
        1   -1    0    0  501    0  0.00000000000E+00  0.00000000000E+00 -0.14154902399E+04  0.14154902399E+04  0.50400001928E-02 0. -1.
    10030    2    1    2    0    0  0.00000000000E+00  0.00000000000E+00 -0.10704408769E+04  0.17605396030E+04  0.13977324575E+04 0.  0.
        3    1    3    3  502    0  0.85996057646E+02  0.35244985116E+03 -0.12875927733E+04  0.13377261975E+04  0.10100000352E+00 0. -1.
       -3    1    3    3    0  502 -0.85996057646E+02 -0.35244985116E+03  0.21715189640E+03  0.42281340545E+03  0.10100000352E+00 0.  1.
</event>
<event>
 5   0  0.9900839E-05  0.1399547E+04  0.7818609E-02  0.8954147E-01
       -1   -1    0    0    0  501  0.00000000000E+00  0.00000000000E+00  0.10030981317E+04  0.10030981317E+04  0.50400001928E-02 0. -1.
        1   -1    0    0  501    0  0.00000000000E+00  0.00000000000E+00 -0.48817044542E+03  0.48817044545E+03  0.50400001928E-02 0.  1.
    10030    2    1    2    0    0  0.00000000000E+00  0.00000000000E+00  0.51492768626E+03  0.14912685771E+04  0.13995468721E+04 0.  0.
        3    1    3    3  502    0  0.94327596842E+02  0.16666119114E+03  0.97463354139E+03  0.99326944902E+03  0.10100000352E+00 0. -1.
       -3    1    3    3    0  502 -0.94327596842E+02 -0.16666119114E+03 -0.45970585513E+03  0.49799912811E+03  0.10100000352E+00 0.  1.
</event>
<event>
 5   0  0.1794185E-04  0.1393665E+04  0.7818609E-02  0.8958417E-01
       -2   -1    0    0    0  501  0.00000000000E+00  0.00000000000E+00  0.25663909628E+03  0.25663909629E+03  0.25500000920E-02 0. -1.
        2   -1    0    0  501    0  0.00000000000E+00  0.00000000000E+00 -0.18920555239E+04  0.18920555239E+04  0.25500000920E-02 0.  1.
    10030    2    1    2    0    0  0.00000000000E+00  0.00000000000E+00 -0.16354164276E+04  0.21486946202E+04  0.13936648374E+04 0.  0.
        2    1    3    3  502    0 -0.48991621667E+03 -0.39361168072E+03 -0.12818450426E+04  0.14276115606E+04  0.25500000920E-02 0.  1.
       -2    1    3    3    0  502  0.48991621667E+03  0.39361168072E+03 -0.35357138498E+03  0.72108305960E+03  0.25500000920E-02 0. -1.
</event>
<event>
 5   0  0.6671375E-05  0.1402067E+04  0.7818609E-02  0.8952324E-01
        1   -1    0    0  501    0  0.00000000000E+00  0.00000000000E+00  0.38324790152E+03  0.38324790155E+03  0.50400001928E-02 0. -1.
       -1   -1    0    0    0  501  0.00000000000E+00  0.00000000000E+00 -0.12823232676E+04  0.12823232676E+04  0.50400001928E-02 0.  1.
    10030    2    1    2    0    0  0.00000000000E+00  0.00000000000E+00 -0.89907536607E+03  0.16655711691E+04  0.14020666195E+04 0.  0.
        5    1    3    3  502    0 -0.24028819540E+02  0.10193764980E+03  0.37388301908E+03  0.38830306536E+03  0.46999998093E+01 0. -1.
       -5    1    3    3    0  502  0.24028819540E+02 -0.10193764980E+03 -0.12729583852E+04  0.12772681038E+04  0.46999998093E+01 0.  1.
</event>
<event>
 5   0  0.1766237E-04  0.1399699E+04  0.7818609E-02  0.8954036E-01
       -2   -1    0    0    0  501  0.00000000000E+00  0.00000000000E+00  0.73630486596E+03  0.73630486596E+03  0.25500000920E-02 0. -1.
        2   -1    0    0  501    0  0.00000000000E+00  0.00000000000E+00 -0.66519905315E+03  0.66519905316E+03  0.25500000920E-02 0.  1.
    10030    2    1    2    0    0  0.00000000000E+00  0.00000000000E+00  0.71105812807E+02  0.14015039191E+04  0.13996989672E+04 0.  0.
        3    1    3    3  502    0 -0.39713707580E+03  0.57165124150E+03  0.10835354531E+03  0.70444552654E+03  0.10100000352E+00 0.  1.
       -3    1    3    3    0  502  0.39713707580E+03 -0.57165124150E+03 -0.37247732504E+02  0.69705839258E+03  0.10100000352E+00 0. -1.
</event>
<event>
 5   0  0.1766237E-04  0.1401831E+04  0.7818609E-02  0.8952494E-01
       -2   -1    0    0    0  501  0.00000000000E+00  0.00000000000E+00  0.18176504743E+03  0.18176504745E+03  0.25500000920E-02 0.  1.
        2   -1    0    0  501    0  0.00000000000E+00  0.00000000000E+00 -0.27028443990E+04  0.27028443990E+04  0.25500000920E-02 0. -1.
    10030    2    1    2    0    0  0.00000000000E+00  0.00000000000E+00 -0.25210793516E+04  0.28846094465E+04  0.14018311459E+04 0.  0.
        3    1    3    3  502    0  0.29020287073E+03 -0.37452172463E+03 -0.23234164777E+04  0.23712335118E+04  0.10100000352E+00 0. -1.
       -3    1    3    3    0  502 -0.29020287073E+03  0.37452172463E+03 -0.19766287389E+03  0.51337593469E+03  0.10100000352E+00 0.  1.
</event>
<event>
 5   0  0.1794185E-04  0.1397646E+04  0.7818609E-02  0.8955524E-01
        2   -1    0    0  501    0  0.00000000000E+00  0.00000000000E+00  0.60698975346E+03  0.60698975347E+03  0.25500000920E-02 0.  1.
       -2   -1    0    0    0  501  0.00000000000E+00  0.00000000000E+00 -0.80454970051E+03  0.80454970051E+03  0.25500000920E-02 0. -1.
    10030    2    1    2    0    0  0.00000000000E+00  0.00000000000E+00 -0.19755994705E+03  0.14115394540E+04  0.13976457697E+04 0.  0.
        2    1    3    3  502    0 -0.52303767478E+03  0.18179289509E+03 -0.52932325647E+03  0.76602883483E+03  0.25500000920E-02 0. -1.
       -2    1    3    3    0  502  0.52303767478E+03 -0.18179289509E+03  0.33176330943E+03  0.64551061915E+03  0.25500000920E-02 0.  1.
</event>
<event>
 5   0  0.9828111E-05  0.1404868E+04  0.7818609E-02  0.8950302E-01
        1   -1    0    0  501    0  0.00000000000E+00  0.00000000000E+00  0.76027425772E+03  0.76027425773E+03  0.50400001928E-02 0. -1.
       -1   -1    0    0    0  501  0.00000000000E+00  0.00000000000E+00 -0.64899445616E+03  0.64899445618E+03  0.50400001928E-02 0.  1.
    10030    2    1    2    0    0  0.00000000000E+00  0.00000000000E+00  0.11127980156E+03  0.14092687139E+04  0.14048683617E+04 0.  0.
        4    1    3    3  502    0  0.53518782082E+03 -0.20621023404E+03  0.46245114146E+03  0.73675731100E+03  0.12699999809E+01 0. -1.
       -4    1    3    3    0  502 -0.53518782082E+03  0.20621023404E+03 -0.35117133991E+03  0.67251140291E+03  0.12699999809E+01 0.  1.
</event>
<event>
 5   0  0.1712327E-04  0.1398632E+04  0.7818609E-02  0.8954810E-01
       -2   -1    0    0    0  501  0.00000000000E+00  0.00000000000E+00  0.75817381209E+03  0.75817381210E+03  0.25500000920E-02 0. -1.
        2   -1    0    0  501    0  0.00000000000E+00  0.00000000000E+00 -0.64502705183E+03  0.64502705184E+03  0.25500000920E-02 0.  1.
    10030    2    1    2    0    0  0.00000000000E+00  0.00000000000E+00  0.11314676026E+03  0.14032008639E+04  0.13986316439E+04 0.  0.
        1    1    3    3  502    0 -0.26326047113E+03  0.51306512837E+03 -0.34032073502E+03  0.66959697156E+03  0.50400001928E-02 0.  1.
       -1    1    3    3    0  502  0.26326047113E+03 -0.51306512837E+03  0.45346749528E+03  0.73360389238E+03  0.50400001928E-02 0. -1.
</event>
<event>
 5   0  0.1794185E-04  0.1400627E+04  0.7818609E-02  0.8953365E-01
       -2   -1    0    0    0  501  0.00000000000E+00  0.00000000000E+00  0.58659520559E+03  0.58659520559E+03  0.25500000920E-02 0.  1.
        2   -1    0    0  501    0  0.00000000000E+00  0.00000000000E+00 -0.83607778721E+03  0.83607778722E+03  0.25500000920E-02 0. -1.
    10030    2    1    2    0    0  0.00000000000E+00  0.00000000000E+00 -0.24948258163E+03  0.14226729928E+04  0.14006273187E+04 0.  0.
        2    1    3    3  502    0 -0.66654938495E+03  0.21300047804E+03 -0.15314453124E+03  0.71631734146E+03  0.25500000920E-02 0. -1.
       -2    1    3    3    0  502  0.66654938495E+03 -0.21300047804E+03 -0.96338050389E+02  0.70635565134E+03  0.25500000920E-02 0.  1.
</event>
<event>
 5   0  0.1712327E-04  0.1401714E+04  0.7818609E-02  0.8952579E-01
        2   -1    0    0  501    0  0.00000000000E+00  0.00000000000E+00  0.97053376950E+03  0.97053376951E+03  0.25500000920E-02 0.  1.
       -2   -1    0    0    0  501  0.00000000000E+00  0.00000000000E+00 -0.50611387043E+03  0.50611387043E+03  0.25500000920E-02 0. -1.
    10030    2    1    2    0    0  0.00000000000E+00  0.00000000000E+00  0.46441989908E+03  0.14766476399E+04  0.14017140971E+04 0.  0.
        1    1    3    3  502    0  0.79536451996E+02  0.22230991561E+02 -0.50097018222E+03  0.50773160989E+03  0.50400001928E-02 0. -1.
       -1    1    3    3    0  502 -0.79536451996E+02 -0.22230991561E+02  0.96539008130E+03  0.96891603005E+03  0.50400001928E-02 0.  1.
</event>
<event>
 5   0  0.1766237E-04  0.1396950E+04  0.7818609E-02  0.8956029E-01
       -2   -1    0    0    0  501  0.00000000000E+00  0.00000000000E+00  0.57184936567E+03  0.57184936567E+03  0.25500000920E-02 0.  1.
        2   -1    0    0  501    0  0.00000000000E+00  0.00000000000E+00 -0.85314016271E+03  0.85314016271E+03  0.25500000920E-02 0. -1.
    10030    2    1    2    0    0  0.00000000000E+00  0.00000000000E+00 -0.28129079704E+03  0.14249895284E+04  0.13969504800E+04 0.  0.
        3    1    3    3  502    0 -0.56379739341E+03  0.92994982608E+02 -0.55039444346E+03  0.79337861151E+03  0.10100000352E+00 0. -1.
       -3    1    3    3    0  502  0.56379739341E+03 -0.92994982608E+02  0.26910364642E+03  0.63161091688E+03  0.10100000352E+00 0.  1.
</event>
<event>
 5   0  0.9978422E-05  0.1400706E+04  0.7818609E-02  0.8953308E-01
        1   -1    0    0  501    0  0.00000000000E+00  0.00000000000E+00  0.20729890724E+04  0.20729890724E+04  0.50400001928E-02 0. -1.
       -1   -1    0    0    0  501  0.00000000000E+00  0.00000000000E+00 -0.23661196522E+03  0.23661196527E+03  0.50400001928E-02 0.  1.
    10030    2    1    2    0    0  0.00000000000E+00  0.00000000000E+00  0.18363771071E+04  0.23096010376E+04  0.14007055627E+04 0.  0.
        2    1    3    3  502    0 -0.10818922215E+03  0.27188092694E+03 -0.13098622727E+03  0.32059559879E+03  0.25500000920E-02 0.  1.
       -2    1    3    3    0  502  0.10818922215E+03 -0.27188092694E+03  0.19673633344E+04  0.19890054389E+04  0.25500000920E-02 0. -1.
</event>
<event>
 5   0  0.1712327E-04  0.1398574E+04  0.7818609E-02  0.8954852E-01
       -2   -1    0    0    0  501  0.00000000000E+00  0.00000000000E+00  0.68050232250E+03  0.68050232250E+03  0.25500000920E-02 0. -1.
        2   -1    0    0  501    0  0.00000000000E+00  0.00000000000E+00 -0.71858987984E+03  0.71858987984E+03  0.25500000920E-02 0.  1.
    10030    2    1    2    0    0  0.00000000000E+00  0.00000000000E+00 -0.38087557340E+02  0.13990922023E+04  0.13985736765E+04 0.  0.
        1    1    3    3  502    0 -0.55583213177E+03 -0.20623208204E+03  0.35193202033E+03  0.68944700835E+03  0.50400001928E-02 0. -1.
       -1    1    3    3    0  502  0.55583213177E+03  0.20623208204E+03 -0.39001957767E+03  0.70964519399E+03  0.50400001928E-02 0.  1.
</event>
<event>
 5   0  0.1833681E-04  0.1401007E+04  0.7818609E-02  0.8953090E-01
        2   -1    0    0  501    0  0.00000000000E+00  0.00000000000E+00  0.18278030031E+04  0.18278030032E+04  0.25500000920E-02 0.  1.
       -2   -1    0    0    0  501  0.00000000000E+00  0.00000000000E+00 -0.26846705349E+03  0.26846705350E+03  0.25500000920E-02 0. -1.
    10030    2    1    2    0    0  0.00000000000E+00  0.00000000000E+00  0.15593359497E+04  0.20962700567E+04  0.14010066190E+04 0.  0.
        4    1    3    3  502    0  0.36785061307E+03 -0.56256798370E+03  0.10748010780E+04  0.12676733727E+04  0.12699999809E+01 0.  1.
       -4    1    3    3    0  502 -0.36785061307E+03  0.56256798370E+03  0.48453487167E+03  0.82859668391E+03  0.12699999809E+01 0. -1.
</event>
<event>
 5   0  0.9260916E-05  0.1402738E+04  0.7818609E-02  0.8951839E-01
        1   -1    0    0  501    0  0.00000000000E+00  0.00000000000E+00  0.79795285719E+03  0.79795285721E+03  0.50400001928E-02 0. -1.
       -1   -1    0    0    0  501  0.00000000000E+00  0.00000000000E+00 -0.61647551548E+03  0.61647551550E+03  0.50400001928E-02 0.  1.
    10030    2    1    2    0    0  0.00000000000E+00  0.00000000000E+00  0.18147734171E+03  0.14144283727E+04  0.14027378928E+04 0.  0.
        1    1    3    3  502    0 -0.26129675972E+03  0.24520629861E+02 -0.56509805517E+03  0.62306746819E+03  0.50400001928E-02 0.  1.
       -1    1    3    3    0  502  0.26129675972E+03 -0.24520629861E+02  0.74657539689E+03  0.79136090451E+03  0.50400001928E-02 0. -1.
</event>
<event>
 5   0  0.9978422E-05  0.1415750E+04  0.7818609E-02  0.8942496E-01
        1   -1    0    0  501    0  0.00000000000E+00  0.00000000000E+00  0.63609396582E+03  0.63609396584E+03  0.50400001928E-02 0. -1.
       -1   -1    0    0    0  501  0.00000000000E+00  0.00000000000E+00 -0.78775658354E+03  0.78775658355E+03  0.50400001928E-02 0.  1.
    10030    2    1    2    0    0  0.00000000000E+00  0.00000000000E+00 -0.15166261772E+03  0.14238505494E+04  0.14157502737E+04 0.  0.
        2    1    3    3  502    0 -0.10454042687E+03 -0.27316397416E+03 -0.72414343589E+03  0.78098077657E+03  0.25500000920E-02 0.  1.
       -2    1    3    3    0  502  0.10454042687E+03  0.27316397416E+03  0.57248081817E+03  0.64286977282E+03  0.25500000920E-02 0. -1.
</event>
<event>
 5   0  0.6671375E-05  0.1401274E+04  0.7818609E-02  0.8952897E-01
        1   -1    0    0  501    0  0.00000000000E+00  0.00000000000E+00  0.94993123571E+03  0.94993123572E+03  0.50400001928E-02 0.  1.
       -1   -1    0    0    0  501  0.00000000000E+00  0.00000000000E+00 -0.51676632401E+03  0.51676632404E+03  0.50400001928E-02 0. -1.
    10030    2    1    2    0    0  0.00000000000E+00  0.00000000000E+00  0.43316491169E+03  0.14666975598E+04  0.14012743811E+04 0.  0.
        5    1    3    3  502    0  0.38192200444E+03  0.13864594646E+03 -0.38084031851E+03  0.55690982587E+03  0.46999998093E+01 0. -1.
       -5    1    3    3    0  502 -0.38192200444E+03 -0.13864594646E+03  0.81400523020E+03  0.90978773389E+03  0.46999998093E+01 0.  1.
</event>
<event>
 5   0  0.6671375E-05  0.1400205E+04  0.7818609E-02  0.8953670E-01
       -1   -1    0    0    0  501  0.00000000000E+00  0.00000000000E+00  0.53381308346E+03  0.53381308348E+03  0.50400001928E-02 0.  1.
        1   -1    0    0  501    0  0.00000000000E+00  0.00000000000E+00 -0.91819334383E+03  0.91819334384E+03  0.50400001928E-02 0. -1.
    10030    2    1    2    0    0  0.00000000000E+00  0.00000000000E+00 -0.38438026037E+03  0.14520064273E+04  0.14002051565E+04 0.  0.
        5    1    3    3  502    0  0.14993141304E+03 -0.51697710274E+03  0.27200497776E+03  0.60311984820E+03  0.46999998093E+01 0.  1.
       -5    1    3    3    0  502 -0.14993141304E+03  0.51697710274E+03 -0.65638523813E+03  0.84888657912E+03  0.46999998093E+01 0. -1.
</event>
<event>
 5   0  0.9900839E-05  0.1397711E+04  0.7818609E-02  0.8955477E-01
       -1   -1    0    0    0  501  0.00000000000E+00  0.00000000000E+00  0.72721023885E+03  0.72721023887E+03  0.50400001928E-02 0. -1.
        1   -1    0    0  501    0  0.00000000000E+00  0.00000000000E+00 -0.67160647715E+03  0.67160647717E+03  0.50400001928E-02 0.  1.
    10030    2    1    2    0    0  0.00000000000E+00  0.00000000000E+00  0.55603761700E+02  0.13988167160E+04  0.13977111385E+04 0.  0.
        3    1    3    3  502    0 -0.13178978315E+03  0.21108779432E+03  0.68136705100E+03  0.72538794603E+03  0.10100000352E+00 0. -1.
       -3    1    3    3    0  502  0.13178978315E+03 -0.21108779432E+03 -0.62576328930E+03  0.67342877002E+03  0.10100000352E+00 0.  1.
</event>
<event>
 5   0  0.1833681E-04  0.1399538E+04  0.7818609E-02  0.8954153E-01
       -2   -1    0    0    0  501  0.00000000000E+00  0.00000000000E+00  0.22929174578E+03  0.22929174579E+03  0.25500000920E-02 0.  1.
        2   -1    0    0  501    0  0.00000000000E+00  0.00000000000E+00 -0.21356049071E+04  0.21356049071E+04  0.25500000920E-02 0. -1.
    10030    2    1    2    0    0  0.00000000000E+00  0.00000000000E+00 -0.19063131613E+04  0.23648966528E+04  0.13995378915E+04 0.  0.
        4    1    3    3  502    0 -0.98474834440E+02 -0.12984985751E+03 -0.21030900641E+04  0.21093951051E+04  0.12699999809E+01 0. -1.
       -4    1    3    3    0  502  0.98474834440E+02  0.12984985751E+03  0.19677690287E+03  0.25550154777E+03  0.12699999809E+01 0.  1.
</event>
<event>
 5   0  0.9260916E-05  0.1419891E+04  0.7818609E-02  0.8939545E-01
       -1   -1    0    0    0  501  0.00000000000E+00  0.00000000000E+00  0.92539104401E+03  0.92539104402E+03  0.50400001928E-02 0.  1.
        1   -1    0    0  501    0  0.00000000000E+00  0.00000000000E+00 -0.54465935587E+03  0.54465935589E+03  0.50400001928E-02 0. -1.
    10030    2    1    2    0    0  0.00000000000E+00  0.00000000000E+00  0.38073168814E+03  0.14700503999E+04  0.14198913902E+04 0.  0.
        1    1    3    3  502    0  0.79405146338E+02  0.70448901295E+03  0.22928285447E+03  0.74510440477E+03  0.50400001928E-02 0. -1.
       -1    1    3    3    0  502 -0.79405146338E+02 -0.70448901295E+03  0.15144883367E+03  0.72494599514E+03  0.50400001928E-02 0.  1.
</event>
<event>
 5   0  0.1780171E-04  0.1393722E+04  0.7818609E-02  0.8958375E-01
        2   -1    0    0  501    0  0.00000000000E+00  0.00000000000E+00  0.35280518780E+03  0.35280518780E+03  0.25500000920E-02 0. -1.
       -2   -1    0    0    0  501  0.00000000000E+00  0.00000000000E+00 -0.13764402550E+04  0.13764402550E+04  0.25500000920E-02 0.  1.
    10030    2    1    2    0    0  0.00000000000E+00  0.00000000000E+00 -0.10236350672E+04  0.17292454428E+04  0.13937220134E+04 0.  0.
        5    1    3    3  502    0  0.36336751713E+03  0.14519799442E+03  0.20360039987E+03  0.44112767190E+03  0.46999998093E+01 0. -1.
       -5    1    3    3    0  502 -0.36336751713E+03 -0.14519799442E+03 -0.12272354670E+04  0.12881177709E+04  0.46999998093E+01 0.  1.
</event>
<event>
 5   0  0.1780171E-04  0.1401652E+04  0.7818609E-02  0.8952624E-01
       -2   -1    0    0    0  501  0.00000000000E+00  0.00000000000E+00  0.66980614639E+03  0.66980614640E+03  0.25500000920E-02 0.  1.
        2   -1    0    0  501    0  0.00000000000E+00  0.00000000000E+00 -0.73328229414E+03  0.73328229415E+03  0.25500000920E-02 0. -1.
    10030    2    1    2    0    0  0.00000000000E+00  0.00000000000E+00 -0.63476147752E+02  0.14030884405E+04  0.14016518650E+04 0.  0.
        5    1    3    3  502    0  0.17106107049E+02  0.35989027820E+03  0.56997805017E+03  0.67432239983E+03  0.46999998093E+01 0.  1.
       -5    1    3    3    0  502 -0.17106107049E+02 -0.35989027820E+03 -0.63345419792E+03  0.72876604072E+03  0.46999998093E+01 0. -1.
</event>
<event>
 5   0  0.1780171E-04  0.1402730E+04  0.7818609E-02  0.8951845E-01
        2   -1    0    0  501    0  0.00000000000E+00  0.00000000000E+00  0.81733641977E+03  0.81733641978E+03  0.25500000920E-02 0. -1.
       -2   -1    0    0    0  501  0.00000000000E+00  0.00000000000E+00 -0.60184902555E+03  0.60184902555E+03  0.25500000920E-02 0.  1.
    10030    2    1    2    0    0  0.00000000000E+00  0.00000000000E+00  0.21548739423E+03  0.14191854453E+04  0.14027303772E+04 0.  0.
        5    1    3    3  502    0  0.57155363217E+03  0.38177408260E+03 -0.33413711310E+02  0.68815955322E+03  0.46999998093E+01 0. -1.
       -5    1    3    3    0  502 -0.57155363217E+03 -0.38177408260E+03  0.24890110554E+03  0.73102589210E+03  0.46999998093E+01 0.  1.
</event>
<event>
 5   0  0.6671375E-05  0.1399903E+04  0.7818609E-02  0.8953889E-01
       -3   -1    0    0    0  501  0.00000000000E+00  0.00000000000E+00  0.76294216550E+03  0.76294217218E+03  0.10100000352E+00 0. -1.
        3   -1    0    0  501    0  0.00000000000E+00  0.00000000000E+00 -0.64216148697E+03  0.64216149491E+03  0.10100000352E+00 0.  1.
    10030    2    1    2    0    0  0.00000000000E+00  0.00000000000E+00  0.12078067853E+03  0.14051036671E+04  0.13999029763E+04 0.  0.
        5    1    3    3  502    0  0.50958804626E+03  0.74881996611E+02  0.53609483653E+03  0.74344270395E+03  0.46999998093E+01 0. -1.
       -5    1    3    3    0  502 -0.50958804626E+03 -0.74881996611E+02 -0.41531415800E+03  0.66166096314E+03  0.46999998093E+01 0.  1.
</event>
<event>
 5   0  0.1794185E-04  0.1401617E+04  0.7818609E-02  0.8952649E-01
        2   -1    0    0  501    0  0.00000000000E+00  0.00000000000E+00  0.13974723563E+04  0.13974723563E+04  0.25500000920E-02 0. -1.
       -2   -1    0    0    0  501  0.00000000000E+00  0.00000000000E+00 -0.35144353610E+03  0.35144353610E+03  0.25500000920E-02 0.  1.
    10030    2    1    2    0    0  0.00000000000E+00  0.00000000000E+00  0.10460288202E+04  0.17489158924E+04  0.14016171039E+04 0.  0.
        2    1    3    3  502    0 -0.59607852587E+03  0.10743973830E+03  0.83128887366E+02  0.61136185544E+03  0.25500000920E-02 0.  1.
       -2    1    3    3    0  502  0.59607852587E+03 -0.10743973830E+03  0.96289993286E+03  0.11375540370E+04  0.25500000920E-02 0. -1.
</event>
<event>
 5   0  0.9828111E-05  0.1391524E+04  0.7818609E-02  0.8959977E-01
       -1   -1    0    0    0  501  0.00000000000E+00  0.00000000000E+00  0.43955163564E+03  0.43955163567E+03  0.50400001928E-02 0. -1.
        1   -1    0    0  501    0  0.00000000000E+00  0.00000000000E+00 -0.11013150892E+04  0.11013150892E+04  0.50400001928E-02 0.  1.
    10030    2    1    2    0    0  0.00000000000E+00  0.00000000000E+00 -0.66176345353E+03  0.15408667248E+04  0.13915241267E+04 0.  0.
        4    1    3    3  502    0  0.56517245160E+03  0.25747896032E+03  0.16415313362E+02  0.62127802993E+03  0.12699999809E+01 0. -1.
       -4    1    3    3    0  502 -0.56517245160E+03 -0.25747896032E+03 -0.67817876690E+03  0.91958869492E+03  0.12699999809E+01 0.  1.
</event>
<event>
 5   0  0.1712327E-04  0.1399461E+04  0.7818609E-02  0.8954209E-01
        2   -1    0    0  501    0  0.00000000000E+00  0.00000000000E+00  0.11331102364E+04  0.11331102364E+04  0.25500000920E-02 0.  1.
       -2   -1    0    0    0  501  0.00000000000E+00  0.00000000000E+00 -0.43210506031E+03  0.43210506031E+03  0.25500000920E-02 0. -1.
    10030    2    1    2    0    0  0.00000000000E+00  0.00000000000E+00  0.70100517613E+03  0.15652152968E+04  0.13994608491E+04 0.  0.
        1    1    3    3  502    0 -0.32281530782E+03  0.83401104455E+02 -0.33755013215E+03  0.47445290486E+03  0.50400001928E-02 0. -1.
       -1    1    3    3    0  502  0.32281530782E+03 -0.83401104455E+02  0.10385553083E+04  0.10907623919E+04  0.50400001928E-02 0.  1.
</event>
<event>
 5   0  0.1780171E-04  0.1403478E+04  0.7818609E-02  0.8951305E-01
       -2   -1    0    0    0  501  0.00000000000E+00  0.00000000000E+00  0.10743494321E+04  0.10743494321E+04  0.25500000920E-02 0.  1.
        2   -1    0    0  501    0  0.00000000000E+00  0.00000000000E+00 -0.45835868624E+03  0.45835868624E+03  0.25500000920E-02 0. -1.
    10030    2    1    2    0    0  0.00000000000E+00  0.00000000000E+00  0.61599074582E+03  0.15327081183E+04  0.14034776724E+04 0.  0.
        5    1    3    3  502    0  0.69788098682E+02 -0.92150302101E+01  0.10704665757E+04  0.10727889239E+04  0.46999998093E+01 0.  1.
       -5    1    3    3    0  502 -0.69788098682E+02  0.92150302101E+01 -0.45447582986E+03  0.45991919445E+03  0.46999998093E+01 0. -1.
</event>
<event>
 5   0  0.1833681E-04  0.1401460E+04  0.7818609E-02  0.8952762E-01
       -2   -1    0    0    0  501  0.00000000000E+00  0.00000000000E+00  0.36134458895E+03  0.36134458895E+03  0.25500000920E-02 0.  1.
        2   -1    0    0  501    0  0.00000000000E+00  0.00000000000E+00 -0.13588761717E+04  0.13588761717E+04  0.25500000920E-02 0. -1.
    10030    2    1    2    0    0  0.00000000000E+00  0.00000000000E+00 -0.99753158276E+03  0.17202207607E+04  0.14014600268E+04 0.  0.
        4    1    3    3  502    0  0.52132754933E+03 -0.16655642013E+02 -0.10731294685E+04  0.11931757177E+04  0.12699999809E+01 0. -1.
       -4    1    3    3    0  502 -0.52132754933E+03  0.16655642013E+02  0.75597885786E+02  0.52704504298E+03  0.12699999809E+01 0.  1.
</event>
<event>
 5   0  0.1766237E-04  0.1400074E+04  0.7818609E-02  0.8953765E-01
       -2   -1    0    0    0  501  0.00000000000E+00  0.00000000000E+00  0.31655694863E+03  0.31655694864E+03  0.25500000920E-02 0.  1.
        2   -1    0    0  501    0  0.00000000000E+00  0.00000000000E+00 -0.15480679956E+04  0.15480679956E+04  0.25500000920E-02 0. -1.
    10030    2    1    2    0    0  0.00000000000E+00  0.00000000000E+00 -0.12315110470E+04  0.18646249442E+04  0.14000738280E+04 0.  0.
        3    1    3    3  502    0  0.60188362868E+03 -0.21539867325E+03 -0.23580309515E+03  0.68136891681E+03  0.10100000352E+00 0.  1.
       -3    1    3    3    0  502 -0.60188362868E+03  0.21539867325E+03 -0.99570795180E+03  0.11832560274E+04  0.10100000352E+00 0. -1.
</event>
<event>
 5   0  0.1780171E-04  0.1399146E+04  0.7818609E-02  0.8954437E-01
       -2   -1    0    0    0  501  0.00000000000E+00  0.00000000000E+00  0.45905297575E+03  0.45905297576E+03  0.25500000920E-02 0.  1.
        2   -1    0    0  501    0  0.00000000000E+00  0.00000000000E+00 -0.10661134314E+04  0.10661134314E+04  0.25500000920E-02 0. -1.
    10030    2    1    2    0    0  0.00000000000E+00  0.00000000000E+00 -0.60706045565E+03  0.15251664072E+04  0.13991462299E+04 0.  0.
        5    1    3    3  502    0  0.10941271303E+03  0.22977339164E+03  0.40678483339E+03  0.47985721205E+03  0.46999998093E+01 0.  1.
       -5    1    3    3    0  502 -0.10941271303E+03 -0.22977339164E+03 -0.10138452890E+04  0.10453091951E+04  0.46999998093E+01 0. -1.
</event>
<event>
 5   0  0.9828111E-05  0.1394400E+04  0.7818609E-02  0.8957882E-01
        1   -1    0    0  501    0  0.00000000000E+00  0.00000000000E+00  0.10838819574E+04  0.10838819574E+04  0.50400001928E-02 0. -1.
       -1   -1    0    0    0  501  0.00000000000E+00  0.00000000000E+00 -0.44846963783E+03  0.44846963785E+03  0.50400001928E-02 0.  1.
    10030    2    1    2    0    0  0.00000000000E+00  0.00000000000E+00  0.63541231955E+03  0.15323515952E+04  0.13944004431E+04 0.  0.
        4    1    3    3  502    0  0.17533357223E+03 -0.64211147504E+03  0.89727302650E+02  0.67164098272E+03  0.12699999809E+01 0.  1.
       -4    1    3    3    0  502 -0.17533357223E+03  0.64211147504E+03  0.54568501690E+03  0.86071061252E+03  0.12699999809E+01 0. -1.
</event>
<event>
 5   0  0.9900839E-05  0.1397445E+04  0.7818609E-02  0.8955670E-01
        1   -1    0    0  501    0  0.00000000000E+00  0.00000000000E+00  0.12815012599E+04  0.12815012599E+04  0.50400001928E-02 0.  1.
       -1   -1    0    0    0  501  0.00000000000E+00  0.00000000000E+00 -0.38096969303E+03  0.38096969306E+03  0.50400001928E-02 0. -1.
    10030    2    1    2    0    0  0.00000000000E+00  0.00000000000E+00  0.90053156687E+03  0.16624709530E+04  0.13974450138E+04 0.  0.
        3    1    3    3  502    0 -0.35906249111E+03  0.24544708895E+03  0.11008239716E+04  0.11836315189E+04  0.10100000352E+00 0.  1.
       -3    1    3    3    0  502  0.35906249111E+03 -0.24544708895E+03 -0.20029240471E+03  0.47883943404E+03  0.10100000352E+00 0. -1.
</event>
<event>
 5   0  0.6671375E-05  0.1402613E+04  0.7818609E-02  0.8951929E-01
        1   -1    0    0  501    0  0.00000000000E+00  0.00000000000E+00  0.20384859102E+04  0.20384859102E+04  0.50400001928E-02 0. -1.
       -1   -1    0    0    0  501  0.00000000000E+00  0.00000000000E+00 -0.24127272140E+03  0.24127272145E+03  0.50400001928E-02 0.  1.
    10030    2    1    2    0    0  0.00000000000E+00  0.00000000000E+00  0.17972131888E+04  0.22797586316E+04  0.14026133368E+04 0.  0.
        5    1    3    3  502    0  0.56984075228E+03  0.39367407984E+03  0.10774793906E+04  0.12808909756E+04  0.46999998093E+01 0. -1.
       -5    1    3    3    0  502 -0.56984075228E+03 -0.39367407984E+03  0.71973379814E+03  0.99886765604E+03  0.46999998093E+01 0.  1.
</event>
<event>
 5   0  0.1712327E-04  0.1393567E+04  0.7818609E-02  0.8958488E-01
       -2   -1    0    0    0  501  0.00000000000E+00  0.00000000000E+00  0.67200976144E+03  0.67200976145E+03  0.25500000920E-02 0.  1.
        2   -1    0    0  501    0  0.00000000000E+00  0.00000000000E+00 -0.72247027666E+03  0.72247027667E+03  0.25500000920E-02 0. -1.
    10030    2    1    2    0    0  0.00000000000E+00  0.00000000000E+00 -0.50460515219E+02  0.13944800381E+04  0.13935667595E+04 0.  0.
        1    1    3    3  502    0 -0.34931924533E+03 -0.12583370442E+03 -0.61523435686E+03  0.71858984840E+03  0.50400001928E-02 0. -1.
       -1    1    3    3    0  502  0.34931924533E+03  0.12583370442E+03  0.56477384164E+03  0.67589018972E+03  0.50400001928E-02 0.  1.
</event>
<event>
 5   0  0.1780171E-04  0.1400969E+04  0.7818609E-02  0.8953118E-01
        2   -1    0    0  501    0  0.00000000000E+00  0.00000000000E+00  0.79304142785E+03  0.79304142785E+03  0.25500000920E-02 0. -1.
       -2   -1    0    0    0  501  0.00000000000E+00  0.00000000000E+00 -0.61872965753E+03  0.61872965753E+03  0.25500000920E-02 0.  1.
    10030    2    1    2    0    0  0.00000000000E+00  0.00000000000E+00  0.17431177032E+03  0.14117710854E+04  0.14009685950E+04 0.  0.
        5    1    3    3  502    0  0.24687249537E+03 -0.33359187992E+03 -0.48148822562E+03  0.63567489547E+03  0.46999998093E+01 0.  1.
       -5    1    3    3    0  502 -0.24687249537E+03  0.33359187992E+03  0.65579999595E+03  0.77609618991E+03  0.46999998093E+01 0. -1.
</event>
<event>
 5   0  0.6671375E-05  0.1398939E+04  0.7818609E-02  0.8954587E-01
        1   -1    0    0  501    0  0.00000000000E+00  0.00000000000E+00  0.11528187957E+04  0.11528187957E+04  0.50400001928E-02 0.  1.
       -1   -1    0    0    0  501  0.00000000000E+00  0.00000000000E+00 -0.42440114439E+03  0.42440114442E+03  0.50400001928E-02 0. -1.
    10030    2    1    2    0    0  0.00000000000E+00  0.00000000000E+00  0.72841765130E+03  0.15772199401E+04  0.13989390497E+04 0.  0.
        5    1    3    3  502    0  0.40350822987E+03 -0.43821235502E+03 -0.49096874555E+02  0.59773033447E+03  0.46999998093E+01 0. -1.
       -5    1    3    3    0  502 -0.40350822987E+03  0.43821235502E+03  0.77751452585E+03  0.97948960564E+03  0.46999998093E+01 0.  1.
</event>
<event>
 5   0  0.9260916E-05  0.1399591E+04  0.7818609E-02  0.8954114E-01
        1   -1    0    0  501    0  0.00000000000E+00  0.00000000000E+00  0.70231189306E+03  0.70231189308E+03  0.50400001928E-02 0. -1.
       -1   -1    0    0    0  501  0.00000000000E+00  0.00000000000E+00 -0.69728838237E+03  0.69728838239E+03  0.50400001928E-02 0.  1.
    10030    2    1    2    0    0  0.00000000000E+00  0.00000000000E+00  0.50235106956E+01  0.13996002755E+04  0.13995912601E+04 0.  0.
        1    1    3    3  502    0 -0.20361237358E+03 -0.59410943675E+03 -0.30618085863E+03  0.69869216378E+03  0.50400001928E-02 0.  1.
       -1    1    3    3    0  502  0.20361237358E+03  0.59410943675E+03  0.31120436933E+03  0.70090811169E+03  0.50400001928E-02 0. -1.
</event>
<event>
 5   0  0.1833681E-04  0.1400465E+04  0.7818609E-02  0.8953482E-01
        2   -1    0    0  501    0  0.00000000000E+00  0.00000000000E+00  0.10575411852E+04  0.10575411852E+04  0.25500000920E-02 0. -1.
       -2   -1    0    0    0  501  0.00000000000E+00  0.00000000000E+00 -0.46364656177E+03  0.46364656177E+03  0.25500000920E-02 0.  1.
    10030    2    1    2    0    0  0.00000000000E+00  0.00000000000E+00  0.59389462344E+03  0.15211877470E+04  0.14004646864E+04 0.  0.
        4    1    3    3  502    0  0.45650913691E+03 -0.14094358372E+03  0.85299161656E+03  0.97768195068E+03  0.12699999809E+01 0. -1.
       -4    1    3    3    0  502 -0.45650913691E+03  0.14094358372E+03 -0.25909699311E+03  0.54350579631E+03  0.12699999809E+01 0.  1.
</event>
<event>
 5   0  0.9260916E-05  0.1400959E+04  0.7818609E-02  0.8953124E-01
        1   -1    0    0  501    0  0.00000000000E+00  0.00000000000E+00  0.62379452256E+03  0.62379452258E+03  0.50400001928E-02 0.  1.
       -1   -1    0    0    0  501  0.00000000000E+00  0.00000000000E+00 -0.78659201001E+03  0.78659201003E+03  0.50400001928E-02 0. -1.
    10030    2    1    2    0    0  0.00000000000E+00  0.00000000000E+00 -0.16279748745E+03  0.14103865326E+04  0.14009593675E+04 0.  0.
        1    1    3    3  502    0  0.21376298415E+03 -0.21793382991E+03  0.55330543388E+03  0.63193090666E+03  0.50400001928E-02 0.  1.
       -1    1    3    3    0  502 -0.21376298415E+03  0.21793382991E+03 -0.71610292133E+03  0.77845562595E+03  0.50400001928E-02 0. -1.
</event>
<event>
 5   0  0.1833681E-04  0.1402827E+04  0.7818609E-02  0.8951775E-01
       -2   -1    0    0    0  501  0.00000000000E+00  0.00000000000E+00  0.18261429117E+03  0.18261429119E+03  0.25500000920E-02 0.  1.
        2   -1    0    0  501    0  0.00000000000E+00  0.00000000000E+00 -0.26940977132E+04  0.26940977132E+04  0.25500000920E-02 0. -1.
    10030    2    1    2    0    0  0.00000000000E+00  0.00000000000E+00 -0.25114834220E+04  0.28767120043E+04  0.14028267808E+04 0.  0.
        4    1    3    3  502    0 -0.47018124326E+03 -0.51720649724E+03 -0.13754227737E+04  0.15428423061E+04  0.12699999809E+01 0. -1.
       -4    1    3    3    0  502  0.47018124326E+03  0.51720649724E+03 -0.11360606483E+04  0.13338696982E+04  0.12699999809E+01 0.  1.
</event>
<event>
 5   0  0.1712327E-04  0.1400673E+04  0.7818609E-02  0.8953332E-01
        2   -1    0    0  501    0  0.00000000000E+00  0.00000000000E+00  0.17966150804E+04  0.17966150804E+04  0.25500000920E-02 0.  1.
       -2   -1    0    0    0  501  0.00000000000E+00  0.00000000000E+00 -0.27299737904E+03  0.27299737905E+03  0.25500000920E-02 0. -1.
    10030    2    1    2    0    0  0.00000000000E+00  0.00000000000E+00  0.15236177013E+04  0.20696124594E+04  0.14006729927E+04 0.  0.
        1    1    3    3  502    0  0.18807198952E+03 -0.58421408033E+03  0.12602478778E+04  0.14017495776E+04  0.50400001928E-02 0.  1.
       -1    1    3    3    0  502 -0.18807198952E+03  0.58421408033E+03  0.26336982356E+03  0.66786288180E+03  0.50400001928E-02 0. -1.
</event>
<event>
 5   0  0.6671375E-05  0.1400032E+04  0.7818609E-02  0.8953795E-01
       -4   -1    0    0    0  501  0.00000000000E+00  0.00000000000E+00  0.45860898934E+03  0.45861074781E+03  0.12699999809E+01 0. -1.
        4   -1    0    0  501    0  0.00000000000E+00  0.00000000000E+00 -0.10684935620E+04  0.10684943168E+04  0.12699999809E+01 0.  1.
    10030    2    1    2    0    0  0.00000000000E+00  0.00000000000E+00 -0.60988457269E+03  0.15271050646E+04  0.14000323876E+04 0.  0.
        4    1    3    3  502    0 -0.35878645728E+03 -0.82881691160E+02 -0.95431251373E+03  0.10228934859E+04  0.12699999809E+01 0.  1.
       -4    1    3    3    0  502  0.35878645728E+03  0.82881691160E+02  0.34442794104E+03  0.50421157873E+03  0.12699999809E+01 0. -1.
</event>
<event>
 5   0  0.9260916E-05  0.1397155E+04  0.7818609E-02  0.8955881E-01
       -1   -1    0    0    0  501  0.00000000000E+00  0.00000000000E+00  0.56070092170E+03  0.56070092172E+03  0.50400001928E-02 0. -1.
        1   -1    0    0  501    0  0.00000000000E+00  0.00000000000E+00 -0.87035744011E+03  0.87035744012E+03  0.50400001928E-02 0.  1.
    10030    2    1    2    0    0  0.00000000000E+00  0.00000000000E+00 -0.30965651841E+03  0.14310583618E+04  0.13971545640E+04 0.  0.
        1    1    3    3  502    0 -0.35932249290E+03  0.59232113633E+03 -0.62910777631E+02  0.69563981227E+03  0.50400001928E-02 0.  1.
       -1    1    3    3    0  502  0.35932249290E+03 -0.59232113633E+03 -0.24674574078E+03  0.73541854957E+03  0.50400001928E-02 0. -1.
</event>
<event>
 5   0  0.6671375E-05  0.1401152E+04  0.7818609E-02  0.8952985E-01
        1   -1    0    0  501    0  0.00000000000E+00  0.00000000000E+00  0.17821924846E+04  0.17821924846E+04  0.50400001928E-02 0. -1.
       -1   -1    0    0    0  501  0.00000000000E+00  0.00000000000E+00 -0.27539480428E+03  0.27539480433E+03  0.50400001928E-02 0.  1.
    10030    2    1    2    0    0  0.00000000000E+00  0.00000000000E+00  0.15067976803E+04  0.20575872889E+04  0.14011517413E+04 0.  0.
        5    1    3    3  502    0 -0.52511133052E+03  0.29936427748E+03  0.23332777167E+03  0.64793890075E+03  0.46999998093E+01 0.  1.
       -5    1    3    3    0  502  0.52511133052E+03 -0.29936427748E+03  0.12734699086E+04  0.14096483882E+04  0.46999998093E+01 0. -1.
</event>
<event>
 5   0  0.1833681E-04  0.1404544E+04  0.7818609E-02  0.8950536E-01
        2   -1    0    0  501    0  0.00000000000E+00  0.00000000000E+00  0.21040294004E+04  0.21040294004E+04  0.25500000920E-02 0. -1.
       -2   -1    0    0    0  501  0.00000000000E+00  0.00000000000E+00 -0.23440080469E+03  0.23440080470E+03  0.25500000920E-02 0.  1.
    10030    2    1    2    0    0  0.00000000000E+00  0.00000000000E+00  0.18696285957E+04  0.23384302051E+04  0.14045443169E+04 0.  0.
        4    1    3    3  502    0  0.37535262824E+03  0.53557761126E+02 -0.49348423685E+02  0.38235442867E+03  0.12699999809E+01 0.  1.
       -4    1    3    3    0  502 -0.37535262824E+03 -0.53557761126E+02  0.19189770194E+04  0.19560757764E+04  0.12699999809E+01 0. -1.
</event>
<event>
 5   0  0.6671375E-05  0.1399270E+04  0.7818609E-02  0.8954347E-01
       -3   -1    0    0    0  501  0.00000000000E+00  0.00000000000E+00  0.64181963505E+03  0.64181964299E+03  0.10100000352E+00 0. -1.
        3   -1    0    0  501    0  0.00000000000E+00  0.00000000000E+00 -0.76265813198E+03  0.76265813867E+03  0.10100000352E+00 0.  1.
    10030    2    1    2    0    0  0.00000000000E+00  0.00000000000E+00 -0.12083849693E+03  0.14044777817E+04  0.13992697727E+04 0.  0.
        4    1    3    3  502    0  0.34454007438E+03  0.50625615860E+03  0.27919523104E+03  0.67301913116E+03  0.12699999809E+01 0. -1.
       -4    1    3    3    0  502 -0.34454007438E+03 -0.50625615860E+03 -0.40003372798E+03  0.73145865050E+03  0.12699999809E+01 0.  1.
</event>
<event>
 5   0  0.9828111E-05  0.1401566E+04  0.7818609E-02  0.8952686E-01
       -1   -1    0    0    0  501  0.00000000000E+00  0.00000000000E+00  0.19934108912E+04  0.19934108912E+04  0.50400001928E-02 0.  1.
        1   -1    0    0  501    0  0.00000000000E+00  0.00000000000E+00 -0.24635995813E+03  0.24635995818E+03  0.50400001928E-02 0. -1.
    10030    2    1    2    0    0  0.00000000000E+00  0.00000000000E+00  0.17470509331E+04  0.22397708494E+04  0.14015657298E+04 0.  0.
        4    1    3    3  502    0  0.13701382215E+02  0.22436877106E+03  0.19342328121E+04  0.19472512055E+04  0.12699999809E+01 0.  1.
       -4    1    3    3    0  502 -0.13701382215E+02 -0.22436877106E+03 -0.18718187901E+03  0.29251964383E+03  0.12699999809E+01 0. -1.
</event>
<event>
 5   0  0.1833681E-04  0.1397041E+04  0.7818609E-02  0.8955963E-01
       -2   -1    0    0    0  501  0.00000000000E+00  0.00000000000E+00  0.70671992778E+03  0.70671992779E+03  0.25500000920E-02 0.  1.
        2   -1    0    0  501    0  0.00000000000E+00  0.00000000000E+00 -0.69041616266E+03  0.69041616266E+03  0.25500000920E-02 0. -1.
    10030    2    1    2    0    0  0.00000000000E+00  0.00000000000E+00  0.16303765125E+02  0.13971360905E+04  0.13970409595E+04 0.  0.
        4    1    3    3  502    0  0.70235659022E+02  0.38647962911E+03 -0.56949431930E+03  0.69182725021E+03  0.12699999809E+01 0. -1.
       -4    1    3    3    0  502 -0.70235659022E+02 -0.38647962911E+03  0.58579808442E+03  0.70530884025E+03  0.12699999809E+01 0.  1.
</event>
<event>
 5   0  0.9978422E-05  0.1403669E+04  0.7818609E-02  0.8951167E-01
       -1   -1    0    0    0  501  0.00000000000E+00  0.00000000000E+00  0.10188932795E+04  0.10188932795E+04  0.50400001928E-02 0.  1.
        1   -1    0    0  501    0  0.00000000000E+00  0.00000000000E+00 -0.48343786590E+03  0.48343786593E+03  0.50400001928E-02 0. -1.
    10030    2    1    2    0    0  0.00000000000E+00  0.00000000000E+00  0.53545541358E+03  0.15023311454E+04  0.14036688963E+04 0.  0.
        2    1    3    3  502    0 -0.32471910373E+02 -0.22412388391E+03 -0.44325804572E+03  0.49775861158E+03  0.25500000920E-02 0. -1.
       -2    1    3    3    0  502  0.32471910373E+02  0.22412388391E+03  0.97871345931E+03  0.10045725338E+04  0.25500000920E-02 0.  1.
</event>
<event>
 5   0  0.1712327E-04  0.1397826E+04  0.7818609E-02  0.8955394E-01
       -2   -1    0    0    0  501  0.00000000000E+00  0.00000000000E+00  0.60465020398E+03  0.60465020399E+03  0.25500000920E-02 0. -1.
        2   -1    0    0  501    0  0.00000000000E+00  0.00000000000E+00 -0.80787062107E+03  0.80787062108E+03  0.25500000920E-02 0.  1.
    10030    2    1    2    0    0  0.00000000000E+00  0.00000000000E+00 -0.20322041709E+03  0.14125208251E+04  0.13978256484E+04 0.  0.
        1    1    3    3  502    0 -0.55830179082E+03 -0.41142083968E+03 -0.18918815335E+03  0.71886031630E+03  0.50400001928E-02 0.  1.
       -1    1    3    3    0  502  0.55830179082E+03  0.41142083968E+03 -0.14032263737E+02  0.69366050876E+03  0.50400001928E-02 0. -1.
</event>
<event>
 5   0  0.9900839E-05  0.1387806E+04  0.7818609E-02  0.8962693E-01
       -1   -1    0    0    0  501  0.00000000000E+00  0.00000000000E+00  0.29527852105E+03  0.29527852109E+03  0.50400001928E-02 0. -1.
        1   -1    0    0  501    0  0.00000000000E+00  0.00000000000E+00 -0.16306687114E+04  0.16306687114E+04  0.50400001928E-02 0.  1.
    10030    2    1    2    0    0  0.00000000000E+00  0.00000000000E+00 -0.13353901904E+04  0.19259472325E+04  0.13878061039E+04 0.  0.
        3    1    3    3  502    0 -0.35673130756E+03  0.15869410069E+02  0.15798638241E+03  0.39047249736E+03  0.10100000352E+00 0. -1.
       -3    1    3    3    0  502  0.35673130756E+03 -0.15869410069E+02 -0.14933765728E+04  0.15354747352E+04  0.10100000352E+00 0.  1.
</event>
<event>
 5   0  0.9260916E-05  0.1396439E+04  0.7818609E-02  0.8956400E-01
       -1   -1    0    0    0  501  0.00000000000E+00  0.00000000000E+00  0.61964665404E+03  0.61964665406E+03  0.50400001928E-02 0. -1.
        1   -1    0    0  501    0  0.00000000000E+00  0.00000000000E+00 -0.78675611468E+03  0.78675611469E+03  0.50400001928E-02 0.  1.
    10030    2    1    2    0    0  0.00000000000E+00  0.00000000000E+00 -0.16710946064E+03  0.14064027688E+04  0.13964394638E+04 0.  0.
        1    1    3    3  502    0 -0.47822143773E+03  0.50412704871E+03 -0.14722617054E+02  0.69502271922E+03  0.50400001928E-02 0.  1.
       -1    1    3    3    0  502  0.47822143773E+03 -0.50412704871E+03 -0.15238684358E+03  0.71138004953E+03  0.50400001928E-02 0. -1.
</event>
<event>
 5   0  0.9900839E-05  0.1396790E+04  0.7818609E-02  0.8956145E-01
       -1   -1    0    0    0  501  0.00000000000E+00  0.00000000000E+00  0.25794398688E+03  0.25794398693E+03  0.50400001928E-02 0. -1.
        1   -1    0    0  501    0  0.00000000000E+00  0.00000000000E+00 -0.18909358506E+04  0.18909358506E+04  0.50400001928E-02 0.  1.
    10030    2    1    2    0    0  0.00000000000E+00  0.00000000000E+00 -0.16329918637E+04  0.21488798375E+04  0.13967899374E+04 0.  0.
        3    1    3    3  502    0  0.25521427290E+03  0.64896686245E+03 -0.75764760333E+03  0.10297194835E+04  0.10100000352E+00 0. -1.
       -3    1    3    3    0  502 -0.25521427290E+03 -0.64896686245E+03 -0.87534426036E+03  0.11191603540E+04  0.10100000352E+00 0.  1.
</event>
<event>
 5   0  0.1766237E-04  0.1399580E+04  0.7818609E-02  0.8954123E-01
        2   -1    0    0  501    0  0.00000000000E+00  0.00000000000E+00  0.11776312820E+04  0.11776312820E+04  0.25500000920E-02 0. -1.
       -2   -1    0    0    0  501  0.00000000000E+00  0.00000000000E+00 -0.41583965967E+03  0.41583965968E+03  0.25500000920E-02 0.  1.
    10030    2    1    2    0    0  0.00000000000E+00  0.00000000000E+00  0.76179162232E+03  0.15934709417E+04  0.13995796391E+04 0.  0.
        3    1    3    3  502    0  0.33455319411E+03  0.34968020759E+03  0.95639554104E+03  0.10718649768E+04  0.10100000352E+00 0. -1.
       -3    1    3    3    0  502 -0.33455319411E+03 -0.34968020759E+03 -0.19460391872E+03  0.52160596493E+03  0.10100000352E+00 0.  1.
</event>
<event>
 5   0  0.1794185E-04  0.1399032E+04  0.7818609E-02  0.8954519E-01
        2   -1    0    0  501    0  0.00000000000E+00  0.00000000000E+00  0.61168640377E+03  0.61168640377E+03  0.25500000920E-02 0.  1.
       -2   -1    0    0    0  501  0.00000000000E+00  0.00000000000E+00 -0.79995715297E+03  0.79995715297E+03  0.25500000920E-02 0. -1.
    10030    2    1    2    0    0  0.00000000000E+00  0.00000000000E+00 -0.18827074920E+03  0.14116435567E+04  0.13990324000E+04 0.  0.
        2    1    3    3  502    0  0.62851209634E+03 -0.18390017971E+03 -0.34227119522E+03  0.73891562606E+03  0.25500000920E-02 0. -1.
       -2    1    3    3    0  502 -0.62851209634E+03  0.18390017971E+03  0.15400044603E+03  0.67272793069E+03  0.25500000920E-02 0.  1.
</event>
<event>
 5   0  0.9828111E-05  0.1402546E+04  0.7818609E-02  0.8951978E-01
       -1   -1    0    0    0  501  0.00000000000E+00  0.00000000000E+00  0.43054870198E+03  0.43054870201E+03  0.50400001928E-02 0. -1.
        1   -1    0    0  501    0  0.00000000000E+00  0.00000000000E+00 -0.11422249669E+04  0.11422249669E+04  0.50400001928E-02 0.  1.
    10030    2    1    2    0    0  0.00000000000E+00  0.00000000000E+00 -0.71167626492E+03  0.15727736689E+04  0.14025455100E+04 0.  0.
        4    1    3    3  502    0  0.47092680234E+02 -0.30562384438E+03 -0.10616412907E+04  0.11057610492E+04  0.12699999809E+01 0.  1.
       -4    1    3    3    0  502 -0.47092680234E+02  0.30562384438E+03  0.34996502583E+03  0.46701261973E+03  0.12699999809E+01 0. -1.
</event>
<event>
 5   0  0.1712327E-04  0.1397810E+04  0.7818609E-02  0.8955405E-01
       -2   -1    0    0    0  501  0.00000000000E+00  0.00000000000E+00  0.24850121310E+03  0.24850121312E+03  0.25500000920E-02 0. -1.
        2   -1    0    0  501    0  0.00000000000E+00  0.00000000000E+00 -0.19656580011E+04  0.19656580011E+04  0.25500000920E-02 0.  1.
    10030    2    1    2    0    0  0.00000000000E+00  0.00000000000E+00 -0.17171567880E+04  0.22141592142E+04  0.13978102844E+04 0.  0.
        1    1    3    3  502    0  0.20666852014E+03 -0.10206152895E+03 -0.19037193916E+04  0.19176224745E+04  0.50400001928E-02 0.  1.
       -1    1    3    3    0  502 -0.20666852014E+03  0.10206152895E+03  0.18656260358E+03  0.29653673969E+03  0.50400001928E-02 0. -1.
</event>
<event>
 5   0  0.1780171E-04  0.1401942E+04  0.7818609E-02  0.8952414E-01
        2   -1    0    0  501    0  0.00000000000E+00  0.00000000000E+00  0.11459751221E+04  0.11459751221E+04  0.25500000920E-02 0.  1.
       -2   -1    0    0    0  501  0.00000000000E+00  0.00000000000E+00 -0.42877025256E+03  0.42877025257E+03  0.25500000920E-02 0. -1.
    10030    2    1    2    0    0  0.00000000000E+00  0.00000000000E+00  0.71720486953E+03  0.15747453747E+04  0.14019415716E+04 0.  0.
        5    1    3    3  502    0  0.11558373880E+03 -0.67240389941E+03  0.53920421369E+03  0.86962628678E+03  0.46999998093E+01 0.  1.
       -5    1    3    3    0  502 -0.11558373880E+03  0.67240389941E+03  0.17800065584E+03  0.70511908788E+03  0.46999998093E+01 0. -1.
</event>
<event>
 5   0  0.9828111E-05  0.1387651E+04  0.7818609E-02  0.8962806E-01
        1   -1    0    0  501    0  0.00000000000E+00  0.00000000000E+00  0.12626757134E+04  0.12626757134E+04  0.50400001928E-02 0. -1.
       -1   -1    0    0    0  501  0.00000000000E+00  0.00000000000E+00 -0.38124875183E+03  0.38124875186E+03  0.50400001928E-02 0.  1.
    10030    2    1    2    0    0  0.00000000000E+00  0.00000000000E+00  0.88142696161E+03  0.16439244653E+04  0.13876505897E+04 0.  0.
        4    1    3    3  502    0 -0.21739359977E+03  0.64069277133E+03  0.62288011912E+03  0.91963496027E+03  0.12699999809E+01 0. -1.
       -4    1    3    3    0  502  0.21739359977E+03 -0.64069277133E+03  0.25854684249E+03  0.72428950504E+03  0.12699999809E+01 0.  1.
</event>
<event>
 5   0  0.1712327E-04  0.1399056E+04  0.7818609E-02  0.8954502E-01
        2   -1    0    0  501    0  0.00000000000E+00  0.00000000000E+00  0.10643443321E+04  0.10643443321E+04  0.25500000920E-02 0. -1.
       -2   -1    0    0    0  501  0.00000000000E+00  0.00000000000E+00 -0.45975688263E+03  0.45975688263E+03  0.25500000920E-02 0.  1.
    10030    2    1    2    0    0  0.00000000000E+00  0.00000000000E+00  0.60458744944E+03  0.15241012147E+04  0.13990562993E+04 0.  0.
        1    1    3    3  502    0  0.24825069918E+03  0.31982563988E+03 -0.31915112781E+03  0.51553301735E+03  0.50400001928E-02 0.  1.
       -1    1    3    3    0  502 -0.24825069918E+03 -0.31982563988E+03  0.92373857726E+03  0.10085681974E+04  0.50400001928E-02 0. -1.
</event>
<event>
 5   0  0.9260916E-05  0.1399682E+04  0.7818609E-02  0.8954049E-01
        1   -1    0    0  501    0  0.00000000000E+00  0.00000000000E+00  0.78049170374E+03  0.78049170376E+03  0.50400001928E-02 0.  1.
       -1   -1    0    0    0  501  0.00000000000E+00  0.00000000000E+00 -0.62752391167E+03  0.62752391169E+03  0.50400001928E-02 0. -1.
    10030    2    1    2    0    0  0.00000000000E+00  0.00000000000E+00  0.15296779208E+03  0.14080156154E+04  0.13996816881E+04 0.  0.
        1    1    3    3  502    0 -0.26751173457E+03 -0.34650682622E+03  0.62576406659E+03  0.76368198605E+03  0.50400001928E-02 0.  1.
       -1    1    3    3    0  502  0.26751173457E+03  0.34650682622E+03 -0.47279627452E+03  0.64433362940E+03  0.50400001928E-02 0. -1.
</event>
<event>
 5   0  0.1712327E-04  0.1398914E+04  0.7818609E-02  0.8954605E-01
        2   -1    0    0  501    0  0.00000000000E+00  0.00000000000E+00  0.80822084141E+03  0.80822084142E+03  0.25500000920E-02 0. -1.
       -2   -1    0    0    0  501  0.00000000000E+00  0.00000000000E+00 -0.60533006601E+03  0.60533006601E+03  0.25500000920E-02 0.  1.
    10030    2    1    2    0    0  0.00000000000E+00  0.00000000000E+00  0.20289077540E+03  0.14135509074E+04  0.13989144009E+04 0.  0.
        1    1    3    3  502    0 -0.41052005237E+03 -0.49867416082E+03 -0.16976127971E+03  0.66784842905E+03  0.50400001928E-02 0.  1.
       -1    1    3    3    0  502  0.41052005237E+03  0.49867416082E+03  0.37265205511E+03  0.74570247838E+03  0.50400001928E-02 0. -1.
</event>
<event>
 5   0  0.9828111E-05  0.1394748E+04  0.7818609E-02  0.8957629E-01
        1   -1    0    0  501    0  0.00000000000E+00  0.00000000000E+00  0.68114741337E+03  0.68114741339E+03  0.50400001928E-02 0.  1.
       -1   -1    0    0    0  501  0.00000000000E+00  0.00000000000E+00 -0.71398695282E+03  0.71398695284E+03  0.50400001928E-02 0. -1.
    10030    2    1    2    0    0  0.00000000000E+00  0.00000000000E+00 -0.32839539449E+02  0.13951343662E+04  0.13947478139E+04 0.  0.
        4    1    3    3  502    0  0.69332762815E+03 -0.67711326541E+02 -0.48689050419E+02  0.69832675749E+03  0.12699999809E+01 0. -1.
       -4    1    3    3    0  502 -0.69332762815E+03  0.67711326541E+02  0.15849510969E+02  0.69680760874E+03  0.12699999809E+01 0.  1.
</event>
<event>
 5   0  0.1794185E-04  0.1399536E+04  0.7818609E-02  0.8954154E-01
        2   -1    0    0  501    0  0.00000000000E+00  0.00000000000E+00  0.34339673523E+03  0.34339673524E+03  0.25500000920E-02 0.  1.
       -2   -1    0    0    0  501  0.00000000000E+00  0.00000000000E+00 -0.14259762560E+04  0.14259762560E+04  0.25500000920E-02 0. -1.
    10030    2    1    2    0    0  0.00000000000E+00  0.00000000000E+00 -0.10825795208E+04  0.17693729912E+04  0.13995364816E+04 0.  0.
        2    1    3    3  502    0  0.10253372829E+03  0.40749151477E+03  0.16614400174E+03  0.45184768381E+03  0.25500000920E-02 0.  1.
       -2    1    3    3    0  502 -0.10253372829E+03 -0.40749151477E+03 -0.12487235225E+04  0.13175253074E+04  0.25500000920E-02 0. -1.
</event>
<event>
 5   0  0.1794185E-04  0.1405853E+04  0.7818609E-02  0.8949593E-01
       -2   -1    0    0    0  501  0.00000000000E+00  0.00000000000E+00  0.23995081249E+03  0.23995081251E+03  0.25500000920E-02 0. -1.
        2   -1    0    0  501    0  0.00000000000E+00  0.00000000000E+00 -0.20591949469E+04  0.20591949469E+04  0.25500000920E-02 0.  1.
    10030    2    1    2    0    0  0.00000000000E+00  0.00000000000E+00 -0.18192441344E+04  0.22991457594E+04  0.14058527670E+04 0.  0.
        2    1    3    3  502    0 -0.45909851326E+03 -0.17439847051E+03 -0.17320873785E+04  0.18003646736E+04  0.25500000920E-02 0.  1.
       -2    1    3    3    0  502  0.45909851326E+03  0.17439847051E+03 -0.87156755902E+02  0.49878108575E+03  0.25500000920E-02 0. -1.
</event>
<event>
 5   0  0.9828111E-05  0.1393371E+04  0.7818609E-02  0.8958631E-01
        1   -1    0    0  501    0  0.00000000000E+00  0.00000000000E+00  0.12712961930E+04  0.12712961930E+04  0.50400001928E-02 0.  1.
       -1   -1    0    0    0  501  0.00000000000E+00  0.00000000000E+00 -0.38179179703E+03  0.38179179707E+03  0.50400001928E-02 0. -1.
    10030    2    1    2    0    0  0.00000000000E+00  0.00000000000E+00  0.88950439598E+03  0.16530879901E+04  0.13933706731E+04 0.  0.
        4    1    3    3  502    0 -0.14950164306E+03 -0.49926467961E+02  0.12498638719E+04  0.12597637495E+04  0.12699999809E+01 0.  1.
       -4    1    3    3    0  502  0.14950164306E+03  0.49926467961E+02 -0.36035947588E+03  0.39332424059E+03  0.12699999809E+01 0. -1.
</event>
<event>
 5   0  0.6671375E-05  0.1401811E+04  0.7818609E-02  0.8952508E-01
       -1   -1    0    0    0  501  0.00000000000E+00  0.00000000000E+00  0.59245378488E+03  0.59245378490E+03  0.50400001928E-02 0.  1.
        1   -1    0    0  501    0  0.00000000000E+00  0.00000000000E+00 -0.82921028100E+03  0.82921028101E+03  0.50400001928E-02 0. -1.
    10030    2    1    2    0    0  0.00000000000E+00  0.00000000000E+00 -0.23675649612E+03  0.14216640659E+04  0.14018113560E+04 0.  0.
        5    1    3    3  502    0  0.36653872972E+03  0.59739052114E+03 -0.11377476372E+03  0.71006539276E+03  0.46999998093E+01 0. -1.
       -5    1    3    3    0  502 -0.36653872972E+03 -0.59739052114E+03 -0.12298173239E+03  0.71159867315E+03  0.46999998093E+01 0.  1.
</event>
<event>
 5   0  0.9978422E-05  0.1399930E+04  0.7818609E-02  0.8953870E-01
       -1   -1    0    0    0  501  0.00000000000E+00  0.00000000000E+00  0.26378423733E+03  0.26378423738E+03  0.50400001928E-02 0. -1.
        1   -1    0    0  501    0  0.00000000000E+00  0.00000000000E+00 -0.18573919801E+04  0.18573919801E+04  0.50400001928E-02 0.  1.
    10030    2    1    2    0    0  0.00000000000E+00  0.00000000000E+00 -0.15936077428E+04  0.21211762175E+04  0.13999296082E+04 0.  0.
        2    1    3    3  502    0  0.57080290466E+03  0.52454004761E+02 -0.18810862337E+03  0.60328453716E+03  0.25500000920E-02 0. -1.
       -2    1    3    3    0  502 -0.57080290466E+03 -0.52454004761E+02 -0.14054991194E+04  0.15178916804E+04  0.25500000920E-02 0.  1.
</event>
<event>
 5   0  0.1766237E-04  0.1399689E+04  0.7818609E-02  0.8954044E-01
       -2   -1    0    0    0  501  0.00000000000E+00  0.00000000000E+00  0.64265356506E+03  0.64265356507E+03  0.25500000920E-02 0. -1.
        2   -1    0    0  501    0  0.00000000000E+00  0.00000000000E+00 -0.76212511787E+03  0.76212511787E+03  0.25500000920E-02 0.  1.
    10030    2    1    2    0    0  0.00000000000E+00  0.00000000000E+00 -0.11947155281E+03  0.14047786829E+04  0.13996891427E+04 0.  0.
        3    1    3    3  502    0 -0.49218355487E+03 -0.86977861043E+02 -0.55138703527E+03  0.74420257515E+03  0.10100000352E+00 0.  1.
       -3    1    3    3    0  502  0.49218355487E+03  0.86977861043E+02  0.43191548246E+03  0.66057610779E+03  0.10100000352E+00 0. -1.
</event>
<event>
 5   0  0.9978422E-05  0.1401949E+04  0.7818609E-02  0.8952409E-01
        1   -1    0    0  501    0  0.00000000000E+00  0.00000000000E+00  0.20017077462E+04  0.20017077462E+04  0.50400001928E-02 0.  1.
       -1   -1    0    0    0  501  0.00000000000E+00  0.00000000000E+00 -0.24547315276E+03  0.24547315282E+03  0.50400001928E-02 0. -1.
    10030    2    1    2    0    0  0.00000000000E+00  0.00000000000E+00  0.17562345934E+04  0.22471808990E+04  0.14019493734E+04 0.  0.
        2    1    3    3  502    0  0.38212913086E+03  0.30060985678E+03  0.68731038818E+02  0.49103249826E+03  0.25500000920E-02 0. -1.
       -2    1    3    3    0  502 -0.38212913086E+03 -0.30060985678E+03  0.16875035546E+04  0.17561484007E+04  0.25500000920E-02 0.  1.
</event>
<event>
 5   0  0.9260916E-05  0.1397388E+04  0.7818609E-02  0.8955712E-01
        1   -1    0    0  501    0  0.00000000000E+00  0.00000000000E+00  0.94208959982E+03  0.94208959984E+03  0.50400001928E-02 0. -1.
       -1   -1    0    0    0  501  0.00000000000E+00  0.00000000000E+00 -0.51818111213E+03  0.51818111216E+03  0.50400001928E-02 0.  1.
    10030    2    1    2    0    0  0.00000000000E+00  0.00000000000E+00  0.42390848769E+03  0.14602707120E+04  0.13973876149E+04 0.  0.
        1    1    3    3  502    0  0.16360569828E+02 -0.69004744860E+03  0.32518083788E+03  0.76300440818E+03  0.50400001928E-02 0. -1.
       -1    1    3    3    0  502 -0.16360569828E+02  0.69004744860E+03  0.98727649814E+02  0.69726630381E+03  0.50400001928E-02 0.  1.
</event>
<event>
 5   0  0.1712327E-04  0.1402414E+04  0.7818609E-02  0.8952073E-01
       -2   -1    0    0    0  501  0.00000000000E+00  0.00000000000E+00  0.53850748487E+03  0.53850748488E+03  0.25500000920E-02 0. -1.
        2   -1    0    0  501    0  0.00000000000E+00  0.00000000000E+00 -0.91306332973E+03  0.91306332974E+03  0.25500000920E-02 0.  1.
    10030    2    1    2    0    0  0.00000000000E+00  0.00000000000E+00 -0.37455584486E+03  0.14515708146E+04  0.14024142572E+04 0.  0.
        1    1    3    3  502    0  0.42019320360E+02  0.28951930524E+03  0.47232223300E+03  0.55558558585E+03  0.50400001928E-02 0. -1.
       -1    1    3    3    0  502 -0.42019320360E+02 -0.28951930524E+03 -0.84687807786E+03  0.89598522877E+03  0.50400001928E-02 0.  1.
</event>
<event>
 5   0  0.6671375E-05  0.1403616E+04  0.7818609E-02  0.8951206E-01
        1   -1    0    0  501    0  0.00000000000E+00  0.00000000000E+00  0.10020764816E+04  0.10020764817E+04  0.50400001928E-02 0.  1.
       -1   -1    0    0    0  501  0.00000000000E+00  0.00000000000E+00 -0.49151353389E+03  0.49151353392E+03  0.50400001928E-02 0. -1.
    10030    2    1    2    0    0  0.00000000000E+00  0.00000000000E+00  0.51056294775E+03  0.14935900156E+04  0.14036155496E+04 0.  0.
        5    1    3    3  502    0 -0.13436318970E+02 -0.53539627087E+03  0.73787529336E+03  0.91176298459E+03  0.46999998093E+01 0.  1.
       -5    1    3    3    0  502  0.13436318970E+02  0.53539627087E+03 -0.22731234560E+03  0.58182703099E+03  0.46999998093E+01 0. -1.
</event>
<event>
 5   0  0.6671375E-05  0.1400173E+04  0.7818609E-02  0.8953694E-01
        1   -1    0    0  501    0  0.00000000000E+00  0.00000000000E+00  0.20389643996E+04  0.20389643996E+04  0.50400001928E-02 0. -1.
       -1   -1    0    0    0  501  0.00000000000E+00  0.00000000000E+00 -0.24037731678E+03  0.24037731683E+03  0.50400001928E-02 0.  1.
    10030    2    1    2    0    0  0.00000000000E+00  0.00000000000E+00  0.17985870828E+04  0.22793417164E+04  0.14001725486E+04 0.  0.
        5    1    3    3  502    0  0.11525636604E+03 -0.52012776440E+03  0.15992951600E+03  0.55625215622E+03  0.46999998093E+01 0.  1.
       -5    1    3    3    0  502 -0.11525636604E+03  0.52012776440E+03  0.16386575668E+04  0.17230895602E+04  0.46999998093E+01 0. -1.
</event>
<event>
 5   0  0.1794185E-04  0.1394795E+04  0.7818609E-02  0.8957595E-01
        2   -1    0    0  501    0  0.00000000000E+00  0.00000000000E+00  0.10487874226E+04  0.10487874226E+04  0.25500000920E-02 0.  1.
       -2   -1    0    0    0  501  0.00000000000E+00  0.00000000000E+00 -0.46373892823E+03  0.46373892824E+03  0.25500000920E-02 0. -1.
    10030    2    1    2    0    0  0.00000000000E+00  0.00000000000E+00  0.58504849437E+03  0.15125263508E+04  0.13947954048E+04 0.  0.
        2    1    3    3  502    0  0.42253939592E+03 -0.39140182708E+03  0.71894407180E+03  0.92120329446E+03  0.25500000920E-02 0.  1.
       -2    1    3    3    0  502 -0.42253939592E+03  0.39140182708E+03 -0.13389557743E+03  0.59132305638E+03  0.25500000920E-02 0. -1.
</event>
<event>
 5   0  0.1794185E-04  0.1399796E+04  0.7818609E-02  0.8953966E-01
        2   -1    0    0  501    0  0.00000000000E+00  0.00000000000E+00  0.69421479853E+03  0.69421479854E+03  0.25500000920E-02 0. -1.
       -2   -1    0    0    0  501  0.00000000000E+00  0.00000000000E+00 -0.70562819909E+03  0.70562819910E+03  0.25500000920E-02 0.  1.
    10030    2    1    2    0    0  0.00000000000E+00  0.00000000000E+00 -0.11413400558E+02  0.13998429976E+04  0.13997964682E+04 0.  0.
        2    1    3    3  502    0  0.65848046093E+03  0.35696074204E+02 -0.24020716197E+03  0.70183346159E+03  0.25500000920E-02 0. -1.
       -2    1    3    3    0  502 -0.65848046093E+03 -0.35696074204E+02  0.22879376142E+03  0.69800953604E+03  0.25500000920E-02 0.  1.
</event>
<event>
 5   0  0.9900839E-05  0.1401539E+04  0.7818609E-02  0.8952705E-01
       -1   -1    0    0    0  501  0.00000000000E+00  0.00000000000E+00  0.35581334159E+03  0.35581334162E+03  0.50400001928E-02 0. -1.
        1   -1    0    0  501    0  0.00000000000E+00  0.00000000000E+00 -0.13801560921E+04  0.13801560921E+04  0.50400001928E-02 0.  1.
    10030    2    1    2    0    0  0.00000000000E+00  0.00000000000E+00 -0.10243427505E+04  0.17359694337E+04  0.14015390841E+04 0.  0.
        3    1    3    3  502    0 -0.97045761924E+02 -0.65229521672E+03 -0.21861400948E+03  0.69476544604E+03  0.10100000352E+00 0. -1.
       -3    1    3    3    0  502  0.97045761924E+02  0.65229521672E+03 -0.80572874104E+03  0.10412039877E+04  0.10100000352E+00 0.  1.
</event>
<event>
 5   0  0.1780171E-04  0.1401451E+04  0.7818609E-02  0.8952769E-01
        2   -1    0    0  501    0  0.00000000000E+00  0.00000000000E+00  0.12960658608E+04  0.12960658608E+04  0.25500000920E-02 0.  1.
       -2   -1    0    0    0  501  0.00000000000E+00  0.00000000000E+00 -0.37885123129E+03  0.37885123130E+03  0.25500000920E-02 0. -1.
    10030    2    1    2    0    0  0.00000000000E+00  0.00000000000E+00  0.91721462949E+03  0.16749170921E+04  0.14014508870E+04 0.  0.
        5    1    3    3  502    0 -0.20007648262E+03  0.36071992879E+03  0.11355669795E+04  0.12081737958E+04  0.46999998093E+01 0.  1.
       -5    1    3    3    0  502  0.20007648262E+03 -0.36071992879E+03 -0.21835234996E+03  0.46674329632E+03  0.46999998093E+01 0. -1.
</event>
<event>
 5   0  0.9828111E-05  0.1403537E+04  0.7818609E-02  0.8951262E-01
        1   -1    0    0  501    0  0.00000000000E+00  0.00000000000E+00  0.10768303432E+04  0.10768303432E+04  0.50400001928E-02 0. -1.
       -1   -1    0    0    0  501  0.00000000000E+00  0.00000000000E+00 -0.45734144755E+03  0.45734144758E+03  0.50400001928E-02 0.  1.
    10030    2    1    2    0    0  0.00000000000E+00  0.00000000000E+00  0.61948889569E+03  0.15341717908E+04  0.14035371715E+04 0.  0.
        4    1    3    3  502    0  0.28017378357E+03 -0.63890079136E+03  0.22659909699E+03  0.73351232699E+03  0.12699999809E+01 0. -1.
       -4    1    3    3    0  502 -0.28017378357E+03  0.63890079136E+03  0.39288979870E+03  0.80065946383E+03  0.12699999809E+01 0.  1.
</event>
<event>
 5   0  0.1794185E-04  0.1394332E+04  0.7818609E-02  0.8957931E-01
       -2   -1    0    0    0  501  0.00000000000E+00  0.00000000000E+00  0.66675578010E+03  0.66675578011E+03  0.25500000920E-02 0.  1.
        2   -1    0    0  501    0  0.00000000000E+00  0.00000000000E+00 -0.72896338758E+03  0.72896338759E+03  0.25500000920E-02 0. -1.
    10030    2    1    2    0    0  0.00000000000E+00  0.00000000000E+00 -0.62207607481E+02  0.13957191677E+04  0.13943321730E+04 0.  0.
        2    1    3    3  502    0 -0.49140001282E+03  0.75361356256E+01  0.46386738162E+03  0.67579857478E+03  0.25500000920E-02 0.  1.
       -2    1    3    3    0  502  0.49140001282E+03 -0.75361356256E+01 -0.52607498910E+03  0.71992059291E+03  0.25500000920E-02 0. -1.
</event>
<event>
 5   0  0.9900839E-05  0.1400002E+04  0.7818609E-02  0.8953817E-01
        1   -1    0    0  501    0  0.00000000000E+00  0.00000000000E+00  0.64912969792E+03  0.64912969794E+03  0.50400001928E-02 0.  1.
       -1   -1    0    0    0  501  0.00000000000E+00  0.00000000000E+00 -0.75485927697E+03  0.75485927699E+03  0.50400001928E-02 0. -1.
    10030    2    1    2    0    0  0.00000000000E+00  0.00000000000E+00 -0.10572957905E+03  0.14039889749E+04  0.14000022492E+04 0.  0.
        3    1    3    3  502    0  0.47336064075E+03 -0.15971907609E+03  0.43885902298E+03  0.66496445900E+03  0.10100000352E+00 0.  1.
       -3    1    3    3    0  502 -0.47336064075E+03  0.15971907609E+03 -0.54458860203E+03  0.73902451593E+03  0.10100000352E+00 0. -1.
</event>
<event>
 5   0  0.6671375E-05  0.1396220E+04  0.7818609E-02  0.8956560E-01
        1   -1    0    0  501    0  0.00000000000E+00  0.00000000000E+00  0.14650113534E+04  0.14650113534E+04  0.50400001928E-02 0. -1.
       -1   -1    0    0    0  501  0.00000000000E+00  0.00000000000E+00 -0.33266447045E+03  0.33266447049E+03  0.50400001928E-02 0.  1.
    10030    2    1    2    0    0  0.00000000000E+00  0.00000000000E+00  0.11323468830E+04  0.17976758239E+04  0.13962195044E+04 0.  0.
        5    1    3    3  502    0  0.53048819043E+03 -0.37723982769E+03  0.89089560911E+03  0.11033787582E+04  0.46999998093E+01 0. -1.
       -5    1    3    3    0  502 -0.53048819043E+03  0.37723982769E+03  0.24145127387E+03  0.69429706570E+03  0.46999998093E+01 0.  1.
</event>
<event>
 5   0  0.9978422E-05  0.1398606E+04  0.7818609E-02  0.8954829E-01
        1   -1    0    0  501    0  0.00000000000E+00  0.00000000000E+00  0.20647417599E+04  0.20647417599E+04  0.50400001928E-02 0. -1.
       -1   -1    0    0    0  501  0.00000000000E+00  0.00000000000E+00 -0.23684529647E+03  0.23684529652E+03  0.50400001928E-02 0.  1.
    10030    2    1    2    0    0  0.00000000000E+00  0.00000000000E+00  0.18278964634E+04  0.23015870564E+04  0.13986055546E+04 0.  0.
        2    1    3    3  502    0 -0.64131030746E+03 -0.19116507912E+03  0.12479801903E+04  0.14160782300E+04  0.25500000920E-02 0. -1.
       -2    1    3    3    0  502  0.64131030746E+03  0.19116507912E+03  0.57991627310E+03  0.88550882646E+03  0.25500000920E-02 0.  1.
</event>
<event>
 5   0  0.6671375E-05  0.1414305E+04  0.7818609E-02  0.8943528E-01
       -1   -1    0    0    0  501  0.00000000000E+00  0.00000000000E+00  0.27044957903E+03  0.27044957908E+03  0.50400001928E-02 0.  1.
        1   -1    0    0  501    0  0.00000000000E+00  0.00000000000E+00 -0.18490134849E+04  0.18490134849E+04  0.50400001928E-02 0. -1.
    10030    2    1    2    0    0  0.00000000000E+00  0.00000000000E+00 -0.15785639058E+04  0.21194630639E+04  0.14143053682E+04 0.  0.
        5    1    3    3  502    0 -0.31906094613E+03  0.63004177999E+03 -0.84311233592E+03  0.10998240918E+04  0.46999998093E+01 0. -1.
       -5    1    3    3    0  502  0.31906094613E+03 -0.63004177999E+03 -0.73545156991E+03  0.10196389722E+04  0.46999998093E+01 0.  1.
</event>
<event>
 5   0  0.1794185E-04  0.1399278E+04  0.7818609E-02  0.8954341E-01
        2   -1    0    0  501    0  0.00000000000E+00  0.00000000000E+00  0.50233123925E+03  0.50233123926E+03  0.25500000920E-02 0. -1.
       -2   -1    0    0    0  501  0.00000000000E+00  0.00000000000E+00 -0.97444602416E+03  0.97444602416E+03  0.25500000920E-02 0.  1.
    10030    2    1    2    0    0  0.00000000000E+00  0.00000000000E+00 -0.47211478491E+03  0.14767772634E+04  0.13992779265E+04 0.  0.
        2    1    3    3  502    0 -0.66778848965E+03 -0.11774441869E+03 -0.54207858828E+02  0.68025267879E+03  0.25500000920E-02 0. -1.
       -2    1    3    3    0  502  0.66778848965E+03  0.11774441869E+03 -0.41790692608E+03  0.79652458462E+03  0.25500000920E-02 0.  1.
</event>
<event>
 5   0  0.1794185E-04  0.1400033E+04  0.7818609E-02  0.8953794E-01
        2   -1    0    0  501    0  0.00000000000E+00  0.00000000000E+00  0.18894165929E+04  0.18894165929E+04  0.25500000920E-02 0.  1.
       -2   -1    0    0    0  501  0.00000000000E+00  0.00000000000E+00 -0.25935169179E+03  0.25935169180E+03  0.25500000920E-02 0. -1.
    10030    2    1    2    0    0  0.00000000000E+00  0.00000000000E+00  0.16300649011E+04  0.21487682847E+04  0.14000334137E+04 0.  0.
        2    1    3    3  502    0  0.39032753543E+03  0.40382934888E+03  0.14563312789E+04  0.15608762033E+04  0.25500000920E-02 0.  1.
       -2    1    3    3    0  502 -0.39032753543E+03 -0.40382934888E+03  0.17373362219E+03  0.58789208144E+03  0.25500000920E-02 0. -1.
</event>
<event>
 5   0  0.9828111E-05  0.1402350E+04  0.7818609E-02  0.8952119E-01
       -1   -1    0    0    0  501  0.00000000000E+00  0.00000000000E+00  0.95930656272E+03  0.95930656273E+03  0.50400001928E-02 0. -1.
        1   -1    0    0  501    0  0.00000000000E+00  0.00000000000E+00 -0.51250218383E+03  0.51250218385E+03  0.50400001928E-02 0.  1.
    10030    2    1    2    0    0  0.00000000000E+00  0.00000000000E+00  0.44680437889E+03  0.14718087466E+04  0.14023504674E+04 0.  0.
        4    1    3    3  502    0  0.34975107635E+03  0.23726498643E+03  0.81059949608E+03  0.91416281107E+03  0.12699999809E+01 0. -1.
       -4    1    3    3    0  502 -0.34975107635E+03 -0.23726498643E+03 -0.36379511719E+03  0.55764593551E+03  0.12699999809E+01 0.  1.
</event>
<event>
 5   0  0.1833681E-04  0.1400268E+04  0.7818609E-02  0.8953625E-01
       -2   -1    0    0    0  501  0.00000000000E+00  0.00000000000E+00  0.72294997994E+03  0.72294997995E+03  0.25500000920E-02 0.  1.
        2   -1    0    0  501    0  0.00000000000E+00  0.00000000000E+00 -0.67803789843E+03  0.67803789843E+03  0.25500000920E-02 0. -1.
    10030    2    1    2    0    0  0.00000000000E+00  0.00000000000E+00  0.44912081517E+02  0.14009878784E+04  0.14002678102E+04 0.  0.
        4    1    3    3  502    0 -0.38202949660E+03  0.31399596978E+03 -0.47342556985E+03  0.68459724539E+03  0.12699999809E+01 0. -1.
       -4    1    3    3    0  502  0.38202949660E+03 -0.31399596978E+03  0.51833765137E+03  0.71639063299E+03  0.12699999809E+01 0.  1.
</event>
<event>
 5   0  0.6671375E-05  0.1402483E+04  0.7818609E-02  0.8952023E-01
       -1   -1    0    0    0  501  0.00000000000E+00  0.00000000000E+00  0.72128412666E+03  0.72128412667E+03  0.50400001928E-02 0.  1.
        1   -1    0    0  501    0  0.00000000000E+00  0.00000000000E+00 -0.68175627591E+03  0.68175627593E+03  0.50400001928E-02 0. -1.
    10030    2    1    2    0    0  0.00000000000E+00  0.00000000000E+00  0.39527850748E+02  0.14030404026E+04  0.14024834831E+04 0.  0.
        5    1    3    3  502    0 -0.97514555732E+02 -0.33139816759E+03  0.63023903430E+03  0.71871911371E+03  0.46999998093E+01 0.  1.
       -5    1    3    3    0  502  0.97514555732E+02  0.33139816759E+03 -0.59071118355E+03  0.68432128889E+03  0.46999998093E+01 0. -1.
</event>
<event>
 5   0  0.6671375E-05  0.1398369E+04  0.7818609E-02  0.8955000E-01
       -1   -1    0    0    0  501  0.00000000000E+00  0.00000000000E+00  0.37074842267E+03  0.37074842270E+03  0.50400001928E-02 0. -1.
        1   -1    0    0  501    0  0.00000000000E+00  0.00000000000E+00 -0.13185729471E+04  0.13185729472E+04  0.50400001928E-02 0.  1.
    10030    2    1    2    0    0  0.00000000000E+00  0.00000000000E+00 -0.94782452447E+03  0.16893213699E+04  0.13983688217E+04 0.  0.
        5    1    3    3  502    0 -0.58483591294E+03  0.23646640395E+03 -0.83811420019E+03  0.10490028159E+04  0.46999998093E+01 0. -1.
       -5    1    3    3    0  502  0.58483591294E+03 -0.23646640395E+03 -0.10971032428E+03  0.64031855393E+03  0.46999998093E+01 0.  1.
</event>
<event>
 5   0  0.9900839E-05  0.1400316E+04  0.7818609E-02  0.8953590E-01
       -1   -1    0    0    0  501  0.00000000000E+00  0.00000000000E+00  0.54770536833E+03  0.54770536836E+03  0.50400001928E-02 0.  1.
        1   -1    0    0  501    0  0.00000000000E+00  0.00000000000E+00 -0.89504519533E+03  0.89504519534E+03  0.50400001928E-02 0. -1.
    10030    2    1    2    0    0  0.00000000000E+00  0.00000000000E+00 -0.34733982699E+03  0.14427505637E+04  0.14003157621E+04 0.  0.
        3    1    3    3  502    0  0.12125893700E+03  0.24114798819E+03 -0.83928517495E+03  0.88162106208E+03  0.10100000352E+00 0. -1.
       -3    1    3    3    0  502 -0.12125893700E+03 -0.24114798819E+03  0.49194534795E+03  0.56112950162E+03  0.10100000352E+00 0.  1.
</event>
<event>
 5   0  0.1794185E-04  0.1399456E+04  0.7818609E-02  0.8954212E-01
       -2   -1    0    0    0  501  0.00000000000E+00  0.00000000000E+00  0.36322930939E+03  0.36322930940E+03  0.25500000920E-02 0.  1.
        2   -1    0    0  501    0  0.00000000000E+00  0.00000000000E+00 -0.13479620543E+04  0.13479620543E+04  0.25500000920E-02 0. -1.
    10030    2    1    2    0    0  0.00000000000E+00  0.00000000000E+00 -0.98473274487E+03  0.17111913637E+04  0.13994560744E+04 0.  0.
        2    1    3    3  502    0  0.33600971396E+03  0.18527486441E+03 -0.12078502609E+04  0.12673324568E+04  0.25500000920E-02 0. -1.
       -2    1    3    3    0  502 -0.33600971396E+03 -0.18527486441E+03  0.22311751602E+03  0.44385890688E+03  0.25500000920E-02 0.  1.
</event>
<event>
 5   0  0.9260916E-05  0.1406790E+04  0.7818609E-02  0.8948918E-01
       -1   -1    0    0    0  501  0.00000000000E+00  0.00000000000E+00  0.54728588062E+03  0.54728588065E+03  0.50400001928E-02 0. -1.
        1   -1    0    0  501    0  0.00000000000E+00  0.00000000000E+00 -0.90403351008E+03  0.90403351009E+03  0.50400001928E-02 0.  1.
    10030    2    1    2    0    0  0.00000000000E+00  0.00000000000E+00 -0.35674762945E+03  0.14513193907E+04  0.14067903550E+04 0.  0.
        1    1    3    3  502    0 -0.96112754671E+02  0.62338233016E+03 -0.49955039413E+03  0.80460784701E+03  0.50400001928E-02 0.  1.
       -1    1    3    3    0  502  0.96112754671E+02 -0.62338233016E+03  0.14280276467E+03  0.64671154373E+03  0.50400001928E-02 0. -1.
</event>
<event>
 5   0  0.1794185E-04  0.1391845E+04  0.7818609E-02  0.8959743E-01
        2   -1    0    0  501    0  0.00000000000E+00  0.00000000000E+00  0.57933640388E+03  0.57933640388E+03  0.25500000920E-02 0. -1.
       -2   -1    0    0    0  501  0.00000000000E+00  0.00000000000E+00 -0.83597012607E+03  0.83597012608E+03  0.25500000920E-02 0.  1.
    10030    2    1    2    0    0  0.00000000000E+00  0.00000000000E+00 -0.25663372220E+03  0.14153065300E+04  0.13918447135E+04 0.  0.
        2    1    3    3  502    0  0.18804127478E+03 -0.66084225989E+03 -0.24079753723E+03  0.72804908312E+03  0.25500000920E-02 0.  1.
       -2    1    3    3    0  502 -0.18804127478E+03  0.66084225989E+03 -0.15836184963E+02  0.68725744684E+03  0.25500000920E-02 0. -1.
</event>
<event>
 5   0  0.1794185E-04  0.1402116E+04  0.7818609E-02  0.8952289E-01
       -2   -1    0    0    0  501  0.00000000000E+00  0.00000000000E+00  0.45998702905E+03  0.45998702905E+03  0.25500000920E-02 0.  1.
        2   -1    0    0  501    0  0.00000000000E+00  0.00000000000E+00 -0.10684694998E+04  0.10684694999E+04  0.25500000920E-02 0. -1.
    10030    2    1    2    0    0  0.00000000000E+00  0.00000000000E+00 -0.60848247080E+03  0.15284565289E+04  0.14021157026E+04 0.  0.
        2    1    3    3  502    0  0.45246348684E+03  0.13975655627E+03  0.25927886754E+03  0.53988946378E+03  0.25500000920E-02 0.  1.
       -2    1    3    3    0  502 -0.45246348684E+03 -0.13975655627E+03 -0.86776133834E+03  0.98856706513E+03  0.25500000920E-02 0. -1.
</event>
<event>
 5   0  0.9900839E-05  0.1398846E+04  0.7818609E-02  0.8954654E-01
       -1   -1    0    0    0  501  0.00000000000E+00  0.00000000000E+00  0.75762862544E+03  0.75762862546E+03  0.50400001928E-02 0. -1.
        1   -1    0    0  501    0  0.00000000000E+00  0.00000000000E+00 -0.64568899598E+03  0.64568899600E+03  0.50400001928E-02 0.  1.
    10030    2    1    2    0    0  0.00000000000E+00  0.00000000000E+00  0.11193962946E+03  0.14033176215E+04  0.13988459050E+04 0.  0.
        3    1    3    3  502    0  0.32993237823E+03 -0.26360468125E+03  0.61529103577E+03  0.74627466196E+03  0.10100000352E+00 0. -1.
       -3    1    3    3    0  502 -0.32993237823E+03  0.26360468125E+03 -0.50335140632E+03  0.65704295950E+03  0.10100000352E+00 0.  1.
</event>
<event>
 5   0  0.9260916E-05  0.1400598E+04  0.7818609E-02  0.8953386E-01
        1   -1    0    0  501    0  0.00000000000E+00  0.00000000000E+00  0.10567119334E+04  0.10567119334E+04  0.50400001928E-02 0.  1.
       -1   -1    0    0    0  501  0.00000000000E+00  0.00000000000E+00 -0.46409889853E+03  0.46409889856E+03  0.50400001928E-02 0. -1.
    10030    2    1    2    0    0  0.00000000000E+00  0.00000000000E+00  0.59261303490E+03  0.15208108320E+04  0.14005982213E+04 0.  0.
        1    1    3    3  502    0  0.59862315521E+03 -0.19702454505E+03 -0.35272614607E+02  0.63119926384E+03  0.50400001928E-02 0. -1.
       -1    1    3    3    0  502 -0.59862315521E+03  0.19702454505E+03  0.62788564951E+03  0.88961156816E+03  0.50400001928E-02 0.  1.
</event>
<event>
 5   0  0.9900839E-05  0.1397843E+04  0.7818609E-02  0.8955382E-01
        1   -1    0    0  501    0  0.00000000000E+00  0.00000000000E+00  0.95570458724E+03  0.95570458726E+03  0.50400001928E-02 0. -1.
       -1   -1    0    0    0  501  0.00000000000E+00  0.00000000000E+00 -0.51113179099E+03  0.51113179101E+03  0.50400001928E-02 0.  1.
    10030    2    1    2    0    0  0.00000000000E+00  0.00000000000E+00  0.44457279625E+03  0.14668363783E+04  0.13978426197E+04 0.  0.
        3    1    3    3  502    0  0.31059726637E+03  0.81372506954E+02  0.87373265965E+03  0.93086031041E+03  0.10100000352E+00 0. -1.
       -3    1    3    3    0  502 -0.31059726637E+03 -0.81372506954E+02 -0.42915986339E+03  0.53597606786E+03  0.10100000352E+00 0.  1.
</event>
<event>
 5   0  0.6671375E-05  0.1372862E+04  0.7818609E-02  0.8973700E-01
        1   -1    0    0  501    0  0.00000000000E+00  0.00000000000E+00  0.83523615290E+03  0.83523615292E+03  0.50400001928E-02 0. -1.
       -1   -1    0    0    0  501  0.00000000000E+00  0.00000000000E+00 -0.56413692928E+03  0.56413692930E+03  0.50400001928E-02 0.  1.
    10030    2    1    2    0    0  0.00000000000E+00  0.00000000000E+00  0.27109922363E+03  0.13993730822E+04  0.13728620594E+04 0.  0.
        5    1    3    3  502    0 -0.51150545554E+03  0.45056152307E+03  0.21786772225E+03  0.71563395078E+03  0.46999998093E+01 0.  1.
       -5    1    3    3    0  502  0.51150545554E+03 -0.45056152307E+03  0.53231501377E+02  0.68373913143E+03  0.46999998093E+01 0. -1.
</event>
<event>
 5   0  0.9828111E-05  0.1399045E+04  0.7818609E-02  0.8954510E-01
       -1   -1    0    0    0  501  0.00000000000E+00  0.00000000000E+00  0.46117863966E+03  0.46117863969E+03  0.50400001928E-02 0.  1.
        1   -1    0    0  501    0  0.00000000000E+00  0.00000000000E+00 -0.10610452809E+04  0.10610452809E+04  0.50400001928E-02 0. -1.
    10030    2    1    2    0    0  0.00000000000E+00  0.00000000000E+00 -0.59986664123E+03  0.15222239206E+04  0.13990445587E+04 0.  0.
        4    1    3    3  502    0 -0.14780241767E+03  0.36331121936E+03  0.33027810673E+03  0.51276294471E+03  0.12699999809E+01 0.  1.
       -4    1    3    3    0  502  0.14780241767E+03 -0.36331121936E+03 -0.93014474796E+03  0.10094609759E+04  0.12699999809E+01 0. -1.
</event>
<event>
 5   0  0.9828111E-05  0.1400419E+04  0.7818609E-02  0.8953515E-01
        1   -1    0    0  501    0  0.00000000000E+00  0.00000000000E+00  0.31383629024E+03  0.31383629028E+03  0.50400001928E-02 0. -1.
       -1   -1    0    0    0  501  0.00000000000E+00  0.00000000000E+00 -0.15622580358E+04  0.15622580358E+04  0.50400001928E-02 0.  1.
    10030    2    1    2    0    0  0.00000000000E+00  0.00000000000E+00 -0.12484217456E+04  0.18760943261E+04  0.14004188893E+04 0.  0.
        4    1    3    3  502    0  0.15113064043E+03 -0.58630276946E+03 -0.10953856033E+04  0.12515840526E+04  0.12699999809E+01 0.  1.
       -4    1    3    3    0  502 -0.15113064043E+03  0.58630276946E+03 -0.15303614229E+03  0.62451027349E+03  0.12699999809E+01 0. -1.
</event>
<event>
 5   0  0.1712327E-04  0.1403681E+04  0.7818609E-02  0.8951159E-01
        2   -1    0    0  501    0  0.00000000000E+00  0.00000000000E+00  0.11546833324E+04  0.11546833324E+04  0.25500000920E-02 0.  1.
       -2   -1    0    0    0  501  0.00000000000E+00  0.00000000000E+00 -0.42659294443E+03  0.42659294444E+03  0.25500000920E-02 0. -1.
    10030    2    1    2    0    0  0.00000000000E+00  0.00000000000E+00  0.72809038792E+03  0.15812762768E+04  0.14036805372E+04 0.  0.
        1    1    3    3  502    0 -0.36301346733E+03  0.12054424861E+03  0.10269435686E+04  0.10958662265E+04  0.50400001928E-02 0.  1.
       -1    1    3    3    0  502  0.36301346733E+03 -0.12054424861E+03 -0.29885318064E+03  0.48541005030E+03  0.50400001928E-02 0. -1.
</event>
<event>
 5   0  0.1766237E-04  0.1400165E+04  0.7818609E-02  0.8953699E-01
       -2   -1    0    0    0  501  0.00000000000E+00  0.00000000000E+00  0.24721046513E+03  0.24721046514E+03  0.25500000920E-02 0. -1.
        2   -1    0    0  501    0  0.00000000000E+00  0.00000000000E+00 -0.19825853244E+04  0.19825853244E+04  0.25500000920E-02 0.  1.
    10030    2    1    2    0    0  0.00000000000E+00  0.00000000000E+00 -0.17353748593E+04  0.22297957896E+04  0.14001654763E+04 0.  0.
        3    1    3    3  502    0  0.41019368340E+03  0.50654141678E+03 -0.46082111819E+03  0.79824756685E+03  0.10100000352E+00 0. -1.
       -3    1    3    3    0  502 -0.41019368340E+03 -0.50654141678E+03 -0.12745537411E+04  0.14315482227E+04  0.10100000352E+00 0.  1.
</event>
<event>
 5   0  0.6671375E-05  0.1395497E+04  0.7818609E-02  0.8957084E-01
       -1   -1    0    0    0  501  0.00000000000E+00  0.00000000000E+00  0.82972476690E+03  0.82972476692E+03  0.50400001928E-02 0.  1.
        1   -1    0    0  501    0  0.00000000000E+00  0.00000000000E+00 -0.58676465571E+03  0.58676465573E+03  0.50400001928E-02 0. -1.
    10030    2    1    2    0    0  0.00000000000E+00  0.00000000000E+00  0.24296011119E+03  0.14164894226E+04  0.13954972837E+04 0.  0.
        5    1    3    3  502    0  0.38129369463E+03 -0.30775345005E+03 -0.38271530899E+03  0.62176375362E+03  0.46999998093E+01 0. -1.
       -5    1    3    3    0  502 -0.38129369463E+03  0.30775345005E+03  0.62567542018E+03  0.79472566902E+03  0.46999998093E+01 0.  1.
</event>
<event>
 5   0  0.1794185E-04  0.1398411E+04  0.7818609E-02  0.8954970E-01
       -2   -1    0    0    0  501  0.00000000000E+00  0.00000000000E+00  0.45644857296E+03  0.45644857297E+03  0.25500000920E-02 0. -1.
        2   -1    0    0  501    0  0.00000000000E+00  0.00000000000E+00 -0.10710692806E+04  0.10710692807E+04  0.25500000920E-02 0.  1.
    10030    2    1    2    0    0  0.00000000000E+00  0.00000000000E+00 -0.61462070769E+03  0.15275178536E+04  0.13984105902E+04 0.  0.
        2    1    3    3  502    0  0.19900380124E+03  0.30214783129E+03 -0.96087474931E+03  0.10267307869E+04  0.25500000920E-02 0.  1.
       -2    1    3    3    0  502 -0.19900380124E+03 -0.30214783129E+03  0.34625404162E+03  0.50078706674E+03  0.25500000920E-02 0. -1.
</event>
<event>
 5   0  0.1833681E-04  0.1401621E+04  0.7818609E-02  0.8952646E-01
       -2   -1    0    0    0  501  0.00000000000E+00  0.00000000000E+00  0.33850473118E+03  0.33850473119E+03  0.25500000920E-02 0. -1.
        2   -1    0    0  501    0  0.00000000000E+00  0.00000000000E+00 -0.14508960159E+04  0.14508960160E+04  0.25500000920E-02 0.  1.
    10030    2    1    2    0    0  0.00000000000E+00  0.00000000000E+00 -0.11123912848E+04  0.17894007471E+04  0.14016207274E+04 0.  0.
        4    1    3    3  502    0 -0.18223958180E+02  0.15751452088E+03 -0.14276922253E+04  0.14364712458E+04  0.12699999809E+01 0.  1.
       -4    1    3    3    0  502  0.18223958180E+02 -0.15751452088E+03  0.31530094051E+03  0.35292950136E+03  0.12699999809E+01 0. -1.
</event>
<event>
 5   0  0.9828111E-05  0.1400909E+04  0.7818609E-02  0.8953161E-01
       -1   -1    0    0    0  501  0.00000000000E+00  0.00000000000E+00  0.84862847360E+03  0.84862847362E+03  0.50400001928E-02 0. -1.
        1   -1    0    0  501    0  0.00000000000E+00  0.00000000000E+00 -0.57815203667E+03  0.57815203669E+03  0.50400001928E-02 0.  1.
    10030    2    1    2    0    0  0.00000000000E+00  0.00000000000E+00  0.27047643693E+03  0.14267805103E+04  0.14009086771E+04 0.  0.
        4    1    3    3  502    0  0.12515269124E+03 -0.33939449604E+03 -0.47565818781E+03  0.59758191455E+03  0.12699999809E+01 0.  1.
       -4    1    3    3    0  502 -0.12515269124E+03  0.33939449604E+03  0.74613462474E+03  0.82919859576E+03  0.12699999809E+01 0. -1.
</event>
<event>
 5   0  0.1780171E-04  0.1400805E+04  0.7818609E-02  0.8953236E-01
        2   -1    0    0  501    0  0.00000000000E+00  0.00000000000E+00  0.12227870487E+04  0.12227870487E+04  0.25500000920E-02 0.  1.
       -2   -1    0    0    0  501  0.00000000000E+00  0.00000000000E+00 -0.40118483879E+03  0.40118483880E+03  0.25500000920E-02 0. -1.
    10030    2    1    2    0    0  0.00000000000E+00  0.00000000000E+00  0.82160220987E+03  0.16239718875E+04  0.14008049472E+04 0.  0.
        5    1    3    3  502    0 -0.39837567605E+03  0.17197422342E+03  0.10481738580E+04  0.11344464903E+04  0.46999998093E+01 0.  1.
       -5    1    3    3    0  502  0.39837567605E+03 -0.17197422342E+03 -0.22657164808E+03  0.48952539720E+03  0.46999998093E+01 0. -1.
</event>
<event>
 5   0  0.1766237E-04  0.1395598E+04  0.7818609E-02  0.8957011E-01
       -2   -1    0    0    0  501  0.00000000000E+00  0.00000000000E+00  0.80565814884E+03  0.80565814884E+03  0.25500000920E-02 0.  1.
        2   -1    0    0  501    0  0.00000000000E+00  0.00000000000E+00 -0.60438010072E+03  0.60438010072E+03  0.25500000920E-02 0. -1.
    10030    2    1    2    0    0  0.00000000000E+00  0.00000000000E+00  0.20127804812E+03  0.14100382496E+04  0.13955984425E+04 0.  0.
        3    1    3    3  502    0 -0.54599825368E+03  0.63579659072E+02  0.53493214141E+03  0.76701295438E+03  0.10100000352E+00 0.  1.
       -3    1    3    3    0  502  0.54599825368E+03 -0.63579659072E+02 -0.33365409330E+03  0.64302529518E+03  0.10100000352E+00 0. -1.
</event>
<event>
 5   0  0.9828111E-05  0.1399427E+04  0.7818609E-02  0.8954233E-01
        1   -1    0    0  501    0  0.00000000000E+00  0.00000000000E+00  0.11110915074E+04  0.11110915074E+04  0.50400001928E-02 0. -1.
       -1   -1    0    0    0  501  0.00000000000E+00  0.00000000000E+00 -0.44064704681E+03  0.44064704684E+03  0.50400001928E-02 0.  1.
    10030    2    1    2    0    0  0.00000000000E+00  0.00000000000E+00  0.67044446058E+03  0.15517385542E+04  0.13994272993E+04 0.  0.
        4    1    3    3  502    0  0.68056721193E+03 -0.14910214789E+03  0.26340923612E+03  0.74484174094E+03  0.12699999809E+01 0.  1.
       -4    1    3    3    0  502 -0.68056721193E+03  0.14910214789E+03  0.40703522445E+03  0.80689681330E+03  0.12699999809E+01 0. -1.
</event>
<event>
 5   0  0.6671375E-05  0.1399604E+04  0.7818609E-02  0.8954105E-01
        1   -1    0    0  501    0  0.00000000000E+00  0.00000000000E+00  0.55892562071E+03  0.55892562073E+03  0.50400001928E-02 0.  1.
       -1   -1    0    0    0  501  0.00000000000E+00  0.00000000000E+00 -0.87618621827E+03  0.87618621828E+03  0.50400001928E-02 0. -1.
    10030    2    1    2    0    0  0.00000000000E+00  0.00000000000E+00 -0.31726059756E+03  0.14351118390E+04  0.13996041239E+04 0.  0.
        5    1    3    3  502    0  0.17144655166E+02 -0.52326700884E+03  0.31747546120E+03  0.61230307871E+03  0.46999998093E+01 0.  1.
       -5    1    3    3    0  502 -0.17144655166E+02  0.52326700884E+03 -0.63473605875E+03  0.82280876030E+03  0.46999998093E+01 0. -1.
</event>
<event>
 5   0  0.9900839E-05  0.1402308E+04  0.7818609E-02  0.8952149E-01
       -1   -1    0    0    0  501  0.00000000000E+00  0.00000000000E+00  0.27131538171E+03  0.27131538176E+03  0.50400001928E-02 0.  1.
        1   -1    0    0  501    0  0.00000000000E+00  0.00000000000E+00 -0.18119763843E+04  0.18119763843E+04  0.50400001928E-02 0. -1.
    10030    2    1    2    0    0  0.00000000000E+00  0.00000000000E+00 -0.15406610026E+04  0.20832917661E+04  0.14023081893E+04 0.  0.
        3    1    3    3  502    0 -0.47519646707E+02  0.64457434466E+03 -0.36651921624E+03  0.74301450099E+03  0.10100000352E+00 0. -1.
       -3    1    3    3    0  502  0.47519646707E+02 -0.64457434466E+03 -0.11741417864E+04  0.13402772651E+04  0.10100000352E+00 0.  1.
</event>
<event>
 5   0  0.1833681E-04  0.1399030E+04  0.7818609E-02  0.8954521E-01
        2   -1    0    0  501    0  0.00000000000E+00  0.00000000000E+00  0.14070880032E+04  0.14070880032E+04  0.25500000920E-02 0.  1.
       -2   -1    0    0    0  501  0.00000000000E+00  0.00000000000E+00 -0.34775450810E+03  0.34775450811E+03  0.25500000920E-02 0. -1.
    10030    2    1    2    0    0  0.00000000000E+00  0.00000000000E+00  0.10593334951E+04  0.17548425113E+04  0.13990299445E+04 0.  0.
        4    1    3    3  502    0 -0.43527539932E+03 -0.48207527744E+03  0.20388334688E+03  0.68075787062E+03  0.12699999809E+01 0. -1.
       -4    1    3    3    0  502  0.43527539932E+03  0.48207527744E+03  0.85545014819E+03  0.10740846407E+04  0.12699999809E+01 0.  1.
</event>
<event>
 5   0  0.1766237E-04  0.1403644E+04  0.7818609E-02  0.8951185E-01
        2   -1    0    0  501    0  0.00000000000E+00  0.00000000000E+00  0.20433588695E+04  0.20433588695E+04  0.25500000920E-02 0.  1.
       -2   -1    0    0    0  501  0.00000000000E+00  0.00000000000E+00 -0.24105114878E+03  0.24105114879E+03  0.25500000920E-02 0. -1.
    10030    2    1    2    0    0  0.00000000000E+00  0.00000000000E+00  0.18023077208E+04  0.22844100183E+04  0.14036438336E+04 0.  0.
        3    1    3    3  502    0 -0.17481275268E+01  0.51258482075E+03  0.12096551530E+03  0.52666775154E+03  0.10100000352E+00 0. -1.
       -3    1    3    3    0  502  0.17481275268E+01 -0.51258482075E+03  0.16813422055E+04  0.17577422668E+04  0.10100000352E+00 0.  1.
</event>
<event>
 5   0  0.1794185E-04  0.1399877E+04  0.7818609E-02  0.8953908E-01
        2   -1    0    0  501    0  0.00000000000E+00  0.00000000000E+00  0.11655357868E+04  0.11655357868E+04  0.25500000920E-02 0. -1.
       -2   -1    0    0    0  501  0.00000000000E+00  0.00000000000E+00 -0.42033345925E+03  0.42033345926E+03  0.25500000920E-02 0.  1.
    10030    2    1    2    0    0  0.00000000000E+00  0.00000000000E+00  0.74520232753E+03  0.15858692460E+04  0.13998766934E+04 0.  0.
        2    1    3    3  502    0 -0.60980163781E+03 -0.14713554966E+03  0.20853366253E+02  0.62764780756E+03  0.25500000920E-02 0.  1.
       -2    1    3    3    0  502  0.60980163781E+03  0.14713554966E+03  0.72434896128E+03  0.95822143848E+03  0.25500000920E-02 0. -1.
</event>
<event>
 5   0  0.1794185E-04  0.1430699E+04  0.7818609E-02  0.8931892E-01
        2   -1    0    0  501    0  0.00000000000E+00  0.00000000000E+00  0.22411077655E+04  0.22411077655E+04  0.25500000920E-02 0.  1.
       -2   -1    0    0    0  501  0.00000000000E+00  0.00000000000E+00 -0.22833559064E+03  0.22833559065E+03  0.25500000920E-02 0. -1.
    10030    2    1    2    0    0  0.00000000000E+00  0.00000000000E+00  0.20127721749E+04  0.24694433562E+04  0.14306986620E+04 0.  0.
        2    1    3    3  502    0 -0.40036563939E+02 -0.65641744091E+03  0.52051917177E+03  0.83870554509E+03  0.25500000920E-02 0.  1.
       -2    1    3    3    0  502  0.40036563939E+02  0.65641744091E+03  0.14922530031E+04  0.16307378111E+04  0.25500000920E-02 0. -1.
</event>
<event>
 5   0  0.1833681E-04  0.1400513E+04  0.7818609E-02  0.8953447E-01
       -2   -1    0    0    0  501  0.00000000000E+00  0.00000000000E+00  0.17692986446E+04  0.17692986446E+04  0.25500000920E-02 0. -1.
        2   -1    0    0  501    0  0.00000000000E+00  0.00000000000E+00 -0.27714892292E+03  0.27714892293E+03  0.25500000920E-02 0.  1.
    10030    2    1    2    0    0  0.00000000000E+00  0.00000000000E+00  0.14921497217E+04  0.20464475675E+04  0.14005130684E+04 0.  0.
        4    1    3    3  502    0 -0.22234002744E+03 -0.53686073009E+03  0.17507324167E+03  0.60688284220E+03  0.12699999809E+01 0.  1.
       -4    1    3    3    0  502  0.22234002744E+03  0.53686073009E+03  0.13170764800E+04  0.14395647253E+04  0.12699999809E+01 0. -1.
</event>
<event>
 5   0  0.1780171E-04  0.1401461E+04  0.7818609E-02  0.8952762E-01
       -2   -1    0    0    0  501  0.00000000000E+00  0.00000000000E+00  0.25799748218E+03  0.25799748219E+03  0.25500000920E-02 0. -1.
        2   -1    0    0  501    0  0.00000000000E+00  0.00000000000E+00 -0.19032093914E+04  0.19032093914E+04  0.25500000920E-02 0.  1.
    10030    2    1    2    0    0  0.00000000000E+00  0.00000000000E+00 -0.16452119093E+04  0.21612068736E+04  0.14014609964E+04 0.  0.
        5    1    3    3  502    0 -0.45178059476E+03 -0.21568625686E+03 -0.66539692054E+02  0.50505038146E+03  0.46999998093E+01 0. -1.
       -5    1    3    3    0  502  0.45178059476E+03  0.21568625686E+03 -0.15786722172E+04  0.16561564922E+04  0.46999998093E+01 0.  1.
</event>
<event>
 5   0  0.1780171E-04  0.1401681E+04  0.7818609E-02  0.8952603E-01
        2   -1    0    0  501    0  0.00000000000E+00  0.00000000000E+00  0.13418413726E+04  0.13418413726E+04  0.25500000920E-02 0. -1.
       -2   -1    0    0    0  501  0.00000000000E+00  0.00000000000E+00 -0.36604729785E+03  0.36604729786E+03  0.25500000920E-02 0.  1.
    10030    2    1    2    0    0  0.00000000000E+00  0.00000000000E+00  0.97579407477E+03  0.17078886705E+04  0.14016810031E+04 0.  0.
        5    1    3    3  502    0  0.35069657183E+03  0.58198580693E+03  0.69703117294E+03  0.97343212964E+03  0.46999998093E+01 0. -1.
       -5    1    3    3    0  502 -0.35069657183E+03 -0.58198580693E+03  0.27876290183E+03  0.73445654085E+03  0.46999998093E+01 0.  1.
</event>
<event>
 5   0  0.1766237E-04  0.1406214E+04  0.7818609E-02  0.8949332E-01
        2   -1    0    0  501    0  0.00000000000E+00  0.00000000000E+00  0.30891126932E+04  0.30891126932E+04  0.25500000920E-02 0.  1.
       -2   -1    0    0    0  501  0.00000000000E+00  0.00000000000E+00 -0.16003292670E+03  0.16003292672E+03  0.25500000920E-02 0. -1.
    10030    2    1    2    0    0  0.00000000000E+00  0.00000000000E+00  0.29290797665E+04  0.32491456199E+04  0.14062144150E+04 0.  0.
        3    1    3    3  502    0  0.22457743403E+03  0.55809013493E+03  0.23054705493E+04  0.23826653325E+04  0.10100000352E+00 0. -1.
       -3    1    3    3    0  502 -0.22457743403E+03 -0.55809013493E+03  0.62360921716E+03  0.86648028744E+03  0.10100000352E+00 0.  1.
</event>
<event>
 5   0  0.9260916E-05  0.1405991E+04  0.7818609E-02  0.8949494E-01
       -1   -1    0    0    0  501  0.00000000000E+00  0.00000000000E+00  0.41308258132E+03  0.41308258135E+03  0.50400001928E-02 0.  1.
        1   -1    0    0  501    0  0.00000000000E+00  0.00000000000E+00 -0.11963767044E+04  0.11963767044E+04  0.50400001928E-02 0. -1.
    10030    2    1    2    0    0  0.00000000000E+00  0.00000000000E+00 -0.78329412310E+03  0.16094592858E+04  0.14059905794E+04 0.  0.
        1    1    3    3  502    0  0.31427796972E+03 -0.15528877711E+03 -0.10891886036E+04  0.11442102345E+04  0.50400001928E-02 0. -1.
       -1    1    3    3    0  502 -0.31427796972E+03  0.15528877711E+03  0.30589448045E+03  0.46524905131E+03  0.50400001928E-02 0.  1.
</event>
<event>
 5   0  0.9260916E-05  0.1401228E+04  0.7818609E-02  0.8952930E-01
       -1   -1    0    0    0  501  0.00000000000E+00  0.00000000000E+00  0.20622827478E+03  0.20622827484E+03  0.50400001928E-02 0.  1.
        1   -1    0    0  501    0  0.00000000000E+00  0.00000000000E+00 -0.23801792750E+04  0.23801792750E+04  0.50400001928E-02 0. -1.
    10030    2    1    2    0    0  0.00000000000E+00  0.00000000000E+00 -0.21739510002E+04  0.25864075498E+04  0.14012284120E+04 0.  0.
        1    1    3    3  502    0  0.34140853507E+03 -0.13002394427E+03  0.16497741140E+02  0.36570232347E+03  0.50400001928E-02 0.  1.
       -1    1    3    3    0  502 -0.34140853507E+03  0.13002394427E+03 -0.21904487414E+04  0.22207052264E+04  0.50400001928E-02 0. -1.
</event>
<event>
 5   0  0.1794185E-04  0.1397479E+04  0.7818609E-02  0.8955645E-01
       -2   -1    0    0    0  501  0.00000000000E+00  0.00000000000E+00  0.32286503377E+03  0.32286503378E+03  0.25500000920E-02 0.  1.
        2   -1    0    0  501    0  0.00000000000E+00  0.00000000000E+00 -0.15122011710E+04  0.15122011710E+04  0.25500000920E-02 0. -1.
    10030    2    1    2    0    0  0.00000000000E+00  0.00000000000E+00 -0.11893361372E+04  0.18350662048E+04  0.13974789904E+04 0.  0.
        2    1    3    3  502    0 -0.39906349020E+03 -0.41097593298E+03 -0.11200563808E+04  0.12580457793E+04  0.25500000920E-02 0. -1.
       -2    1    3    3    0  502  0.39906349020E+03  0.41097593298E+03 -0.69279756403E+02  0.57702042542E+03  0.25500000920E-02 0.  1.
</event>
<event>
 5   0  0.1833681E-04  0.1395088E+04  0.7818609E-02  0.8957382E-01
        2   -1    0    0  501    0  0.00000000000E+00  0.00000000000E+00  0.65222782657E+03  0.65222782657E+03  0.25500000920E-02 0. -1.
       -2   -1    0    0    0  501  0.00000000000E+00  0.00000000000E+00 -0.74600856879E+03  0.74600856879E+03  0.25500000920E-02 0.  1.
    10030    2    1    2    0    0  0.00000000000E+00  0.00000000000E+00 -0.93780742222E+02  0.13982363954E+04  0.13950878788E+04 0.  0.
        4    1    3    3  502    0 -0.64225562398E+03  0.27144860275E+03 -0.66665690220E+02  0.70044454286E+03  0.12699999809E+01 0. -1.
       -4    1    3    3    0  502  0.64225562398E+03 -0.27144860275E+03 -0.27115052003E+02  0.69779185250E+03  0.12699999809E+01 0.  1.
</event>
<event>
 5   0  0.6671375E-05  0.1403574E+04  0.7818609E-02  0.8951235E-01
       -1   -1    0    0    0  501  0.00000000000E+00  0.00000000000E+00  0.76875458377E+03  0.76875458379E+03  0.50400001928E-02 0. -1.
        1   -1    0    0  501    0  0.00000000000E+00  0.00000000000E+00 -0.64065318641E+03  0.64065318643E+03  0.50400001928E-02 0.  1.
    10030    2    1    2    0    0  0.00000000000E+00  0.00000000000E+00  0.12810139736E+03  0.14094077702E+04  0.14035741144E+04 0.  0.
        5    1    3    3  502    0 -0.16277835263E+03  0.50759941003E+03  0.52237850662E+03  0.74636140530E+03  0.46999998093E+01 0.  1.
       -5    1    3    3    0  502  0.16277835263E+03 -0.50759941003E+03 -0.39427710927E+03  0.66304636492E+03  0.46999998093E+01 0. -1.
</event>
<event>
 5   0  0.6671375E-05  0.1395395E+04  0.7818609E-02  0.8957159E-01
        1   -1    0    0  501    0  0.00000000000E+00  0.00000000000E+00  0.27510500399E+04  0.27510500399E+04  0.50400001928E-02 0.  1.
       -1   -1    0    0    0  501  0.00000000000E+00  0.00000000000E+00 -0.17694395701E+03  0.17694395709E+03  0.50400001928E-02 0. -1.
    10030    2    1    2    0    0  0.00000000000E+00  0.00000000000E+00  0.25741060829E+04  0.29279939970E+04  0.13953948260E+04 0.  0.
        5    1    3    3  502    0 -0.55200512680E+03 -0.27442276837E+03  0.19726058159E+04  0.20666913922E+04  0.46999998093E+01 0.  1.
       -5    1    3    3    0  502  0.55200512680E+03  0.27442276837E+03  0.60150026705E+03  0.86130260482E+03  0.46999998093E+01 0. -1.
</event>
<event>
 5   0  0.1712327E-04  0.1406581E+04  0.7818609E-02  0.8949068E-01
       -2   -1    0    0    0  501  0.00000000000E+00  0.00000000000E+00  0.43492422603E+03  0.43492422604E+03  0.25500000920E-02 0. -1.
        2   -1    0    0  501    0  0.00000000000E+00  0.00000000000E+00 -0.11372505718E+04  0.11372505718E+04  0.25500000920E-02 0.  1.
    10030    2    1    2    0    0  0.00000000000E+00  0.00000000000E+00 -0.70232634579E+03  0.15721747979E+04  0.14065814228E+04 0.  0.
        1    1    3    3  502    0 -0.38438778974E+03 -0.40678291441E+03 -0.82720425515E+03  0.99874580956E+03  0.50400001928E-02 0.  1.
       -1    1    3    3    0  502  0.38438778974E+03  0.40678291441E+03  0.12487790937E+03  0.57342898830E+03  0.50400001928E-02 0. -1.
</event>
<event>
 5   0  0.6671375E-05  0.1397831E+04  0.7818609E-02  0.8955390E-01
       -1   -1    0    0    0  501  0.00000000000E+00  0.00000000000E+00  0.15965706360E+04  0.15965706360E+04  0.50400001928E-02 0.  1.
        1   -1    0    0  501    0  0.00000000000E+00  0.00000000000E+00 -0.30595757683E+03  0.30595757688E+03  0.50400001928E-02 0. -1.
    10030    2    1    2    0    0  0.00000000000E+00  0.00000000000E+00  0.12906130592E+04  0.19025282129E+04  0.13978310099E+04 0.  0.
        5    1    3    3  502    0 -0.50041944291E+03 -0.48755624011E+00  0.13093587911E+04  0.14017354923E+04  0.46999998093E+01 0.  1.
       -5    1    3    3    0  502  0.50041944291E+03  0.48755624011E+00 -0.18745731906E+02  0.50079272061E+03  0.46999998093E+01 0. -1.
</event>
<event>
 5   0  0.9828111E-05  0.1396993E+04  0.7818609E-02  0.8955998E-01
        1   -1    0    0  501    0  0.00000000000E+00  0.00000000000E+00  0.15147256344E+04  0.15147256344E+04  0.50400001928E-02 0. -1.
       -1   -1    0    0    0  501  0.00000000000E+00  0.00000000000E+00 -0.32210290658E+03  0.32210290662E+03  0.50400001928E-02 0.  1.
    10030    2    1    2    0    0  0.00000000000E+00  0.00000000000E+00  0.11926227278E+04  0.18368285410E+04  0.13969932420E+04 0.  0.
        4    1    3    3  502    0  0.45733768255E+03  0.52479155977E+03  0.52041421209E+03  0.86913549123E+03  0.12699999809E+01 0.  1.
       -4    1    3    3    0  502 -0.45733768255E+03 -0.52479155977E+03  0.67220851568E+03  0.96769304975E+03  0.12699999809E+01 0. -1.
</event>
<event>
 5   0  0.9260916E-05  0.1400063E+04  0.7818609E-02  0.8953773E-01
       -1   -1    0    0    0  501  0.00000000000E+00  0.00000000000E+00  0.81536416900E+03  0.81536416901E+03  0.50400001928E-02 0.  1.
        1   -1    0    0  501    0  0.00000000000E+00  0.00000000000E+00 -0.60101229932E+03  0.60101229935E+03  0.50400001928E-02 0. -1.
    10030    2    1    2    0    0  0.00000000000E+00  0.00000000000E+00  0.21435186967E+03  0.14163764684E+04  0.14000627043E+04 0.  0.
        1    1    3    3  502    0 -0.40801451411E+03 -0.26768696810E+03  0.61493234819E+03  0.78503117740E+03  0.50400001928E-02 0.  1.
       -1    1    3    3    0  502  0.40801451411E+03  0.26768696810E+03 -0.40058047852E+03  0.63134529096E+03  0.50400001928E-02 0. -1.
</event>
<event>
 5   0  0.9260916E-05  0.1402832E+04  0.7818609E-02  0.8951771E-01
        1   -1    0    0  501    0  0.00000000000E+00  0.00000000000E+00  0.10058044072E+04  0.10058044072E+04  0.50400001928E-02 0.  1.
       -1   -1    0    0    0  501  0.00000000000E+00  0.00000000000E+00 -0.48914532967E+03  0.48914532970E+03  0.50400001928E-02 0. -1.
    10030    2    1    2    0    0  0.00000000000E+00  0.00000000000E+00  0.51665907749E+03  0.14949497369E+04  0.14028321758E+04 0.  0.
        1    1    3    3  502    0  0.49515394627E+03 -0.39161133283E+03  0.58409504142E+03  0.86006039552E+03  0.50400001928E-02 0.  1.
       -1    1    3    3    0  502 -0.49515394627E+03  0.39161133283E+03 -0.67435963928E+02  0.63488934135E+03  0.50400001928E-02 0. -1.
</event>
<event>
 5   0  0.9260916E-05  0.1396557E+04  0.7818609E-02  0.8956314E-01
       -1   -1    0    0    0  501  0.00000000000E+00  0.00000000000E+00  0.84780197306E+03  0.84780197307E+03  0.50400001928E-02 0.  1.
        1   -1    0    0  501    0  0.00000000000E+00  0.00000000000E+00 -0.57512625561E+03  0.57512625563E+03  0.50400001928E-02 0. -1.
    10030    2    1    2    0    0  0.00000000000E+00  0.00000000000E+00  0.27267571745E+03  0.14229282287E+04  0.13965574450E+04 0.  0.
        1    1    3    3  502    0  0.11442098729E+03  0.63262215285E+03 -0.14137118548E+03  0.65824673392E+03  0.50400001928E-02 0.  1.
       -1    1    3    3    0  502 -0.11442098729E+03 -0.63262215285E+03  0.41404690292E+03  0.76468149478E+03  0.50400001928E-02 0. -1.
</event>
<event>
 5   0  0.9978422E-05  0.1399976E+04  0.7818609E-02  0.8953836E-01
        1   -1    0    0  501    0  0.00000000000E+00  0.00000000000E+00  0.62336532036E+03  0.62336532038E+03  0.50400001928E-02 0.  1.
       -1   -1    0    0    0  501  0.00000000000E+00  0.00000000000E+00 -0.78602941024E+03  0.78602941026E+03  0.50400001928E-02 0. -1.
    10030    2    1    2    0    0  0.00000000000E+00  0.00000000000E+00 -0.16266408989E+03  0.14093947306E+04  0.13999763929E+04 0.  0.
        2    1    3    3  502    0  0.16578263945E+03 -0.12544851582E+03  0.59156740196E+03  0.62703524999E+03  0.25500000920E-02 0.  1.
       -2    1    3    3    0  502 -0.16578263945E+03  0.12544851582E+03 -0.75423149184E+03  0.78235948065E+03  0.25500000920E-02 0. -1.
</event>
<event>
 5   0  0.6671375E-05  0.1405803E+04  0.7818609E-02  0.8949629E-01
       -1   -1    0    0    0  501  0.00000000000E+00  0.00000000000E+00  0.23244292929E+03  0.23244292934E+03  0.50400001928E-02 0. -1.
        1   -1    0    0  501    0  0.00000000000E+00  0.00000000000E+00 -0.21255555412E+04  0.21255555412E+04  0.50400001928E-02 0.  1.
    10030    2    1    2    0    0  0.00000000000E+00  0.00000000000E+00 -0.18931126119E+04  0.23579984705E+04  0.14058027691E+04 0.  0.
        5    1    3    3  502    0 -0.33159511521E+03 -0.26945791962E+03 -0.18826901685E+04  0.19305717421E+04  0.46999998093E+01 0.  1.
       -5    1    3    3    0  502  0.33159511521E+03  0.26945791962E+03 -0.10422443429E+02  0.42742672846E+03  0.46999998093E+01 0. -1.
</event>
<event>
 5   0  0.1766237E-04  0.1400169E+04  0.7818609E-02  0.8953696E-01
        2   -1    0    0  501    0  0.00000000000E+00  0.00000000000E+00  0.14956108474E+04  0.14956108474E+04  0.25500000920E-02 0.  1.
       -2   -1    0    0    0  501  0.00000000000E+00  0.00000000000E+00 -0.32770451161E+03  0.32770451162E+03  0.25500000920E-02 0. -1.
    10030    2    1    2    0    0  0.00000000000E+00  0.00000000000E+00  0.11679063357E+04  0.18233153590E+04  0.14001691645E+04 0.  0.
        3    1    3    3  502    0  0.64461901795E+02 -0.51004132434E+02  0.14893049862E+04  0.14915716913E+04  0.10100000352E+00 0.  1.
       -3    1    3    3    0  502 -0.64461901795E+02  0.51004132434E+02 -0.32139865045E+03  0.33174366764E+03  0.10100000352E+00 0. -1.
</event>
<event>
 5   0  0.9900839E-05  0.1398224E+04  0.7818609E-02  0.8955105E-01
        1   -1    0    0  501    0  0.00000000000E+00  0.00000000000E+00  0.76157725746E+03  0.76157725748E+03  0.50400001928E-02 0. -1.
       -1   -1    0    0    0  501  0.00000000000E+00  0.00000000000E+00 -0.64177047024E+03  0.64177047026E+03  0.50400001928E-02 0.  1.
    10030    2    1    2    0    0  0.00000000000E+00  0.00000000000E+00  0.11980678722E+03  0.14033477277E+04  0.13982242948E+04 0.  0.
        3    1    3    3  502    0 -0.30689041919E+03  0.14834838121E+03 -0.55271735383E+03  0.64937312465E+03  0.10100000352E+00 0.  1.
       -3    1    3    3    0  502  0.30689041919E+03 -0.14834838121E+03  0.67252414105E+03  0.75397460308E+03  0.10100000352E+00 0. -1.
</event>
<event>
 5   0  0.6671375E-05  0.1395627E+04  0.7818609E-02  0.8956990E-01
       -3   -1    0    0    0  501  0.00000000000E+00  0.00000000000E+00  0.56478279831E+03  0.56478280734E+03  0.10100000352E+00 0.  1.
        3   -1    0    0  501    0  0.00000000000E+00  0.00000000000E+00 -0.86217832483E+03  0.86217833075E+03  0.10100000352E+00 0. -1.
    10030    2    1    2    0    0  0.00000000000E+00  0.00000000000E+00 -0.29739552652E+03  0.14269611381E+04  0.13956267375E+04 0.  0.
        1    1    3    3  502    0 -0.57308454681E+03  0.94921214230E+02  0.24664559370E+03  0.63108635195E+03  0.50400001928E-02 0.  1.
       -1    1    3    3    0  502  0.57308454681E+03 -0.94921214230E+02 -0.54404112022E+03  0.79587478614E+03  0.50400001928E-02 0. -1.
</event>
<event>
 5   0  0.9978422E-05  0.1399764E+04  0.7818609E-02  0.8953989E-01
        1   -1    0    0  501    0  0.00000000000E+00  0.00000000000E+00  0.66925517763E+03  0.66925517764E+03  0.50400001928E-02 0. -1.
       -1   -1    0    0    0  501  0.00000000000E+00  0.00000000000E+00 -0.73191039079E+03  0.73191039081E+03  0.50400001928E-02 0.  1.
    10030    2    1    2    0    0  0.00000000000E+00  0.00000000000E+00 -0.62655213162E+02  0.14011655684E+04  0.13997640067E+04 0.  0.
        2    1    3    3  502    0  0.28061562295E+03 -0.11456275081E+03 -0.66280398638E+03  0.72882019462E+03  0.25500000920E-02 0.  1.
       -2    1    3    3    0  502 -0.28061562295E+03  0.11456275081E+03  0.60014877321E+03  0.67234537383E+03  0.25500000920E-02 0. -1.
</event>
<event>
 5   0  0.1780171E-04  0.1400831E+04  0.7818609E-02  0.8953217E-01
       -2   -1    0    0    0  501  0.00000000000E+00  0.00000000000E+00  0.13840412429E+04  0.13840412429E+04  0.25500000920E-02 0. -1.
        2   -1    0    0  501    0  0.00000000000E+00  0.00000000000E+00 -0.35445594148E+03  0.35445594149E+03  0.25500000920E-02 0.  1.
    10030    2    1    2    0    0  0.00000000000E+00  0.00000000000E+00  0.10295853014E+04  0.17384971844E+04  0.14008306704E+04 0.  0.
        5    1    3    3  502    0  0.23167287057E+03  0.39370678808E+03  0.11736966968E+04  0.12594694835E+04  0.46999998093E+01 0. -1.
       -5    1    3    3    0  502 -0.23167287057E+03 -0.39370678808E+03 -0.14411139534E+03  0.47902770087E+03  0.46999998093E+01 0.  1.
</event>
<event>
 5   0  0.1766237E-04  0.1402777E+04  0.7818609E-02  0.8951811E-01
       -2   -1    0    0    0  501  0.00000000000E+00  0.00000000000E+00  0.30410913452E+03  0.30410913453E+03  0.25500000920E-02 0. -1.
        2   -1    0    0  501    0  0.00000000000E+00  0.00000000000E+00 -0.16176611162E+04  0.16176611163E+04  0.25500000920E-02 0.  1.
    10030    2    1    2    0    0  0.00000000000E+00  0.00000000000E+00 -0.13135519817E+04  0.19217702508E+04  0.14027765638E+04 0.  0.
        3    1    3    3  502    0 -0.18385959722E+02 -0.31100996578E+03  0.20411008171E+03  0.37245963269E+03  0.10100000352E+00 0. -1.
       -3    1    3    3    0  502  0.18385959722E+02  0.31100996578E+03 -0.15176620634E+04  0.15493106181E+04  0.10100000352E+00 0.  1.
</event>
<event>
 5   0  0.9260916E-05  0.1399525E+04  0.7818609E-02  0.8954163E-01
       -1   -1    0    0    0  501  0.00000000000E+00  0.00000000000E+00  0.49368652689E+03  0.49368652691E+03  0.50400001928E-02 0.  1.
        1   -1    0    0  501    0  0.00000000000E+00  0.00000000000E+00 -0.99185909434E+03  0.99185909435E+03  0.50400001928E-02 0. -1.
    10030    2    1    2    0    0  0.00000000000E+00  0.00000000000E+00 -0.49817256745E+03  0.14855456213E+04  0.13995248786E+04 0.  0.
        1    1    3    3  502    0  0.61766358800E+03 -0.30732928422E+03 -0.12480937805E+03  0.70109698171E+03  0.50400001928E-02 0.  1.
       -1    1    3    3    0  502 -0.61766358800E+03  0.30732928422E+03 -0.37336318940E+03  0.78444863956E+03  0.50400001928E-02 0. -1.
</event>
<event>
 5   0  0.1833681E-04  0.1400078E+04  0.7818609E-02  0.8953762E-01
       -2   -1    0    0    0  501  0.00000000000E+00  0.00000000000E+00  0.26042668905E+03  0.26042668906E+03  0.25500000920E-02 0.  1.
        2   -1    0    0  501    0  0.00000000000E+00  0.00000000000E+00 -0.18817371426E+04  0.18817371426E+04  0.25500000920E-02 0. -1.
    10030    2    1    2    0    0  0.00000000000E+00  0.00000000000E+00 -0.16213104535E+04  0.21421638316E+04  0.14000779603E+04 0.  0.
        4    1    3    3  502    0 -0.10283764397E+03 -0.13195447975E+03 -0.18507003588E+04  0.18582467534E+04  0.12699999809E+01 0. -1.
       -4    1    3    3    0  502  0.10283764397E+03  0.13195447975E+03  0.22938990528E+03  0.28391707819E+03  0.12699999809E+01 0.  1.
</event>
<event>
 5   0  0.1712327E-04  0.1399158E+04  0.7818609E-02  0.8954428E-01
       -2   -1    0    0    0  501  0.00000000000E+00  0.00000000000E+00  0.25948206688E+03  0.25948206689E+03  0.25500000920E-02 0. -1.
        2   -1    0    0  501    0  0.00000000000E+00  0.00000000000E+00 -0.18861074761E+04  0.18861074761E+04  0.25500000920E-02 0.  1.
    10030    2    1    2    0    0  0.00000000000E+00  0.00000000000E+00 -0.16266254092E+04  0.21455895430E+04  0.13991584131E+04 0.  0.
        1    1    3    3  502    0 -0.18975238291E+03  0.53974335352E+03 -0.14306854211E+04  0.15408405592E+04  0.50400001928E-02 0.  1.
       -1    1    3    3    0  502  0.18975238291E+03 -0.53974335352E+03 -0.19593998808E+03  0.60474898383E+03  0.50400001928E-02 0. -1.
</event>
<event>
 5   0  0.1766237E-04  0.1400557E+04  0.7818609E-02  0.8953416E-01
       -2   -1    0    0    0  501  0.00000000000E+00  0.00000000000E+00  0.21204674306E+03  0.21204674308E+03  0.25500000920E-02 0.  1.
        2   -1    0    0  501    0  0.00000000000E+00  0.00000000000E+00 -0.23126501277E+04  0.23126501277E+04  0.25500000920E-02 0. -1.
    10030    2    1    2    0    0  0.00000000000E+00  0.00000000000E+00 -0.21006033846E+04  0.25246968707E+04  0.14005569284E+04 0.  0.
        3    1    3    3  502    0  0.49016776417E+03  0.27685927283E+03 -0.18011050421E+04  0.18870333534E+04  0.10100000352E+00 0. -1.
       -3    1    3    3    0  502 -0.49016776417E+03 -0.27685927283E+03 -0.29949834250E+03  0.63766351734E+03  0.10100000352E+00 0.  1.
</event>
<event>
 5   0  0.6671375E-05  0.1403491E+04  0.7818609E-02  0.8951296E-01
       -1   -1    0    0    0  501  0.00000000000E+00  0.00000000000E+00  0.68074951463E+03  0.68074951465E+03  0.50400001928E-02 0.  1.
        1   -1    0    0  501    0  0.00000000000E+00  0.00000000000E+00 -0.72338860860E+03  0.72338860862E+03  0.50400001928E-02 0. -1.
    10030    2    1    2    0    0  0.00000000000E+00  0.00000000000E+00 -0.42639093969E+02  0.14041381233E+04  0.14034905689E+04 0.  0.
        5    1    3    3  502    0  0.31848617428E+03  0.13789662993E+03  0.58885973817E+03  0.68353990738E+03  0.46999998093E+01 0.  1.
       -5    1    3    3    0  502 -0.31848617428E+03 -0.13789662993E+03 -0.63149883214E+03  0.72059821589E+03  0.46999998093E+01 0. -1.
</event>
<event>
 5   0  0.9978422E-05  0.1399786E+04  0.7818609E-02  0.8953973E-01
        1   -1    0    0  501    0  0.00000000000E+00  0.00000000000E+00  0.84131503622E+03  0.84131503623E+03  0.50400001928E-02 0.  1.
       -1   -1    0    0    0  501  0.00000000000E+00  0.00000000000E+00 -0.58224361058E+03  0.58224361060E+03  0.50400001928E-02 0. -1.
    10030    2    1    2    0    0  0.00000000000E+00  0.00000000000E+00  0.25907142564E+03  0.14235586468E+04  0.13997861327E+04 0.  0.
        2    1    3    3  502    0  0.53713494433E+03 -0.31170223492E+03 -0.19871209635E+03  0.65204196867E+03  0.25500000920E-02 0. -1.
       -2    1    3    3    0  502 -0.53713494433E+03  0.31170223492E+03  0.45778352199E+03  0.77151667816E+03  0.25500000920E-02 0.  1.
</event>
<event>
 5   0  0.9260916E-05  0.1398708E+04  0.7818609E-02  0.8954754E-01
        1   -1    0    0  501    0  0.00000000000E+00  0.00000000000E+00  0.74515303435E+03  0.74515303436E+03  0.50400001928E-02 0. -1.
       -1   -1    0    0    0  501  0.00000000000E+00  0.00000000000E+00 -0.65637007794E+03  0.65637007796E+03  0.50400001928E-02 0.  1.
    10030    2    1    2    0    0  0.00000000000E+00  0.00000000000E+00  0.88782956401E+02  0.14015231123E+04  0.13987081972E+04 0.  0.
        1    1    3    3  502    0 -0.56163497623E+03 -0.40912510204E+02  0.45994102888E+03  0.72708557274E+03  0.50400001928E-02 0. -1.
       -1    1    3    3    0  502  0.56163497623E+03  0.40912510204E+02 -0.37115807248E+03  0.67443753959E+03  0.50400001928E-02 0.  1.
</event>
<event>
 5   0  0.1794185E-04  0.1397272E+04  0.7818609E-02  0.8955796E-01
       -2   -1    0    0    0  501  0.00000000000E+00  0.00000000000E+00  0.19696753624E+03  0.19696753626E+03  0.25500000920E-02 0.  1.
        2   -1    0    0  501    0  0.00000000000E+00  0.00000000000E+00 -0.24780335892E+04  0.24780335892E+04  0.25500000920E-02 0. -1.
    10030    2    1    2    0    0  0.00000000000E+00  0.00000000000E+00 -0.22810660530E+04  0.26750011255E+04  0.13972718716E+04 0.  0.
        2    1    3    3  502    0  0.15297438710E+03  0.67395232551E+03 -0.13365115949E+04  0.15046182717E+04  0.25500000920E-02 0. -1.
       -2    1    3    3    0  502 -0.15297438710E+03 -0.67395232551E+03 -0.94455445804E+03  0.11703828538E+04  0.25500000920E-02 0.  1.
</event>
<event>
 5   0  0.1833681E-04  0.1392561E+04  0.7818609E-02  0.8959221E-01
       -2   -1    0    0    0  501  0.00000000000E+00  0.00000000000E+00  0.54345809656E+03  0.54345809657E+03  0.25500000920E-02 0. -1.
        2   -1    0    0  501    0  0.00000000000E+00  0.00000000000E+00 -0.89207693139E+03  0.89207693139E+03  0.25500000920E-02 0.  1.
    10030    2    1    2    0    0  0.00000000000E+00  0.00000000000E+00 -0.34861883482E+03  0.14355350280E+04  0.13925608513E+04 0.  0.
        4    1    3    3  502    0  0.40345867253E+03 -0.46617493785E+03 -0.50787954365E+03  0.79877482239E+03  0.12699999809E+01 0. -1.
       -4    1    3    3    0  502 -0.40345867253E+03  0.46617493785E+03  0.15926070883E+03  0.63676020557E+03  0.12699999809E+01 0.  1.
</event>
<event>
 5   0  0.9978422E-05  0.1399286E+04  0.7818609E-02  0.8954335E-01
        1   -1    0    0  501    0  0.00000000000E+00  0.00000000000E+00  0.14601527876E+04  0.14601527876E+04  0.50400001928E-02 0. -1.
       -1   -1    0    0    0  501  0.00000000000E+00  0.00000000000E+00 -0.33523920743E+03  0.33523920747E+03  0.50400001928E-02 0.  1.
    10030    2    1    2    0    0  0.00000000000E+00  0.00000000000E+00  0.11249135802E+04  0.17953919951E+04  0.13992861942E+04 0.  0.
        2    1    3    3  502    0 -0.19125952152E+03 -0.61318891696E+03  0.20660326328E+03  0.67473384446E+03  0.25500000920E-02 0.  1.
       -2    1    3    3    0  502  0.19125952152E+03  0.61318891696E+03  0.91831031689E+03  0.11206581506E+04  0.25500000920E-02 0. -1.
</event>
<event>
 5   0  0.6671375E-05  0.1373889E+04  0.7818609E-02  0.8972939E-01
        3   -1    0    0  501    0  0.00000000000E+00  0.00000000000E+00  0.59958222110E+03  0.59958222961E+03  0.10100000352E+00 0.  1.
       -3   -1    0    0    0  501  0.00000000000E+00  0.00000000000E+00 -0.78703617831E+03  0.78703618479E+03  0.10100000352E+00 0. -1.
    10030    2    1    2    0    0  0.00000000000E+00  0.00000000000E+00 -0.18745395721E+03  0.13866184144E+04  0.13738892390E+04 0.  0.
        2    1    3    3  502    0  0.36249825607E+03  0.33246781304E+03 -0.57770412538E+03  0.75873703537E+03  0.25500000920E-02 0. -1.
       -2    1    3    3    0  502 -0.36249825607E+03 -0.33246781304E+03  0.39025016817E+03  0.62788137902E+03  0.25500000920E-02 0.  1.
</event>
<event>
 5   0  0.6671375E-05  0.1377076E+04  0.7818609E-02  0.8970581E-01
        1   -1    0    0  501    0  0.00000000000E+00  0.00000000000E+00  0.81182588162E+03  0.81182588164E+03  0.50400001928E-02 0.  1.
       -1   -1    0    0    0  501  0.00000000000E+00  0.00000000000E+00 -0.58397338619E+03  0.58397338621E+03  0.50400001928E-02 0. -1.
    10030    2    1    2    0    0  0.00000000000E+00  0.00000000000E+00  0.22785249544E+03  0.13957992678E+04  0.13770761912E+04 0.  0.
        5    1    3    3  502    0  0.10901389356E+03  0.64879708155E+03  0.31976600402E+03  0.73150124356E+03  0.46999998093E+01 0.  1.
       -5    1    3    3    0  502 -0.10901389356E+03 -0.64879708155E+03 -0.91913508578E+02  0.66429802429E+03  0.46999998093E+01 0. -1.
</event>
<event>
 5   0  0.9978422E-05  0.1398641E+04  0.7818609E-02  0.8954803E-01
       -1   -1    0    0    0  501  0.00000000000E+00  0.00000000000E+00  0.48538318351E+03  0.48538318354E+03  0.50400001928E-02 0. -1.
        1   -1    0    0  501    0  0.00000000000E+00  0.00000000000E+00 -0.10075523143E+04  0.10075523143E+04  0.50400001928E-02 0.  1.
    10030    2    1    2    0    0  0.00000000000E+00  0.00000000000E+00 -0.52216913075E+03  0.14929354978E+04  0.13986406971E+04 0.  0.
        2    1    3    3  502    0 -0.55500537907E+03  0.10582587802E+02 -0.71509031667E+03  0.90526080383E+03  0.25500000920E-02 0.  1.
       -2    1    3    3    0  502  0.55500537907E+03 -0.10582587802E+02  0.19292118592E+03  0.58767469398E+03  0.25500000920E-02 0. -1.
</event>
<event>
 5   0  0.6671375E-05  0.1403029E+04  0.7818609E-02  0.8951629E-01
        1   -1    0    0  501    0  0.00000000000E+00  0.00000000000E+00  0.32797180307E+03  0.32797180311E+03  0.50400001928E-02 0. -1.
       -1   -1    0    0    0  501  0.00000000000E+00  0.00000000000E+00 -0.15005016871E+04  0.15005016872E+04  0.50400001928E-02 0.  1.
    10030    2    1    2    0    0  0.00000000000E+00  0.00000000000E+00 -0.11725298841E+04  0.18284734903E+04  0.14030285013E+04 0.  0.
        5    1    3    3  502    0  0.76178548148E+02 -0.53117676209E+03 -0.11751017968E+04  0.12918352243E+04  0.46999998093E+01 0.  1.
       -5    1    3    3    0  502 -0.76178548148E+02  0.53117676209E+03  0.25719127424E+01  0.53663826599E+03  0.46999998093E+01 0. -1.
</event>
<event>
 5   0  0.1794185E-04  0.1400697E+04  0.7818609E-02  0.8953314E-01
       -2   -1    0    0    0  501  0.00000000000E+00  0.00000000000E+00  0.65915275559E+03  0.65915275560E+03  0.25500000920E-02 0.  1.
        2   -1    0    0  501    0  0.00000000000E+00  0.00000000000E+00 -0.74411849968E+03  0.74411849969E+03  0.25500000920E-02 0. -1.
    10030    2    1    2    0    0  0.00000000000E+00  0.00000000000E+00 -0.84965744091E+02  0.14032712553E+04  0.14006966261E+04 0.  0.
        2    1    3    3  502    0 -0.90737551402E+02  0.69266562023E+03 -0.92261170763E+02  0.70464962096E+03  0.25500000920E-02 0. -1.
       -2    1    3    3    0  502  0.90737551402E+02 -0.69266562023E+03  0.72954266727E+01  0.69862163432E+03  0.25500000920E-02 0.  1.
</event>
<event>
 5   0  0.1766237E-04  0.1393033E+04  0.7818609E-02  0.8958877E-01
        2   -1    0    0  501    0  0.00000000000E+00  0.00000000000E+00  0.10248167926E+04  0.10248167926E+04  0.25500000920E-02 0. -1.
       -2   -1    0    0    0  501  0.00000000000E+00  0.00000000000E+00 -0.47338750515E+03  0.47338750516E+03  0.25500000920E-02 0.  1.
    10030    2    1    2    0    0  0.00000000000E+00  0.00000000000E+00  0.55142928746E+03  0.14982042978E+04  0.13930333301E+04 0.  0.
        3    1    3    3  502    0  0.13618485966E+03 -0.36272237173E+03  0.89822409260E+03  0.97822306540E+03  0.10100000352E+00 0. -1.
       -3    1    3    3    0  502 -0.13618485966E+03  0.36272237173E+03 -0.34679480514E+03  0.51998123238E+03  0.10100000352E+00 0.  1.
</event>
<event>
 5   0  0.1794185E-04  0.1398897E+04  0.7818609E-02  0.8954617E-01
        2   -1    0    0  501    0  0.00000000000E+00  0.00000000000E+00  0.12366300528E+04  0.12366300528E+04  0.25500000920E-02 0.  1.
       -2   -1    0    0    0  501  0.00000000000E+00  0.00000000000E+00 -0.39561411346E+03  0.39561411347E+03  0.25500000920E-02 0. -1.
    10030    2    1    2    0    0  0.00000000000E+00  0.00000000000E+00  0.84101593939E+03  0.16322441663E+04  0.13988971400E+04 0.  0.
        2    1    3    3  502    0  0.11750778763E+03  0.67422836044E+03  0.58893432823E+03  0.90290398446E+03  0.25500000920E-02 0.  1.
       -2    1    3    3    0  502 -0.11750778763E+03 -0.67422836044E+03  0.25208161116E+03  0.72934018185E+03  0.25500000920E-02 0. -1.
</event>
<event>
 5   0  0.9900839E-05  0.1400154E+04  0.7818609E-02  0.8953707E-01
       -1   -1    0    0    0  501  0.00000000000E+00  0.00000000000E+00  0.93973456357E+03  0.93973456358E+03  0.50400001928E-02 0.  1.
        1   -1    0    0  501    0  0.00000000000E+00  0.00000000000E+00 -0.52153842431E+03  0.52153842433E+03  0.50400001928E-02 0. -1.
    10030    2    1    2    0    0  0.00000000000E+00  0.00000000000E+00  0.41819613926E+03  0.14612729879E+04  0.14001538252E+04 0.  0.
        3    1    3    3  502    0  0.27469498429E+03 -0.39871111618E+03  0.73681837021E+03  0.88166275266E+03  0.10100000352E+00 0.  1.
       -3    1    3    3    0  502 -0.27469498429E+03  0.39871111618E+03 -0.31862223095E+03  0.57961023525E+03  0.10100000352E+00 0. -1.
</event>
<event>
 5   0  0.6671375E-05  0.1400715E+04  0.7818609E-02  0.8953301E-01
        1   -1    0    0  501    0  0.00000000000E+00  0.00000000000E+00  0.11231910378E+04  0.11231910378E+04  0.50400001928E-02 0.  1.
       -1   -1    0    0    0  501  0.00000000000E+00  0.00000000000E+00 -0.43670304774E+03  0.43670304777E+03  0.50400001928E-02 0. -1.
    10030    2    1    2    0    0  0.00000000000E+00  0.00000000000E+00  0.68648799002E+03  0.15598940855E+04  0.14007154592E+04 0.  0.
        5    1    3    3  502    0 -0.12527876051E+03  0.42991692005E+03 -0.25642402693E+03  0.51604137195E+03  0.46999998093E+01 0. -1.
       -5    1    3    3    0  502  0.12527876051E+03 -0.42991692005E+03  0.94291201695E+03  0.10438527136E+04  0.46999998093E+01 0.  1.
</event>
<event>
 5   0  0.1780171E-04  0.1397911E+04  0.7818609E-02  0.8955332E-01
       -2   -1    0    0    0  501  0.00000000000E+00  0.00000000000E+00  0.33355148492E+03  0.33355148493E+03  0.25500000920E-02 0. -1.
        2   -1    0    0  501    0  0.00000000000E+00  0.00000000000E+00 -0.14646580782E+04  0.14646580782E+04  0.25500000920E-02 0.  1.
    10030    2    1    2    0    0  0.00000000000E+00  0.00000000000E+00 -0.11311065932E+04  0.17982095631E+04  0.13979111229E+04 0.  0.
        5    1    3    3  502    0  0.69404800649E+03  0.21024727000E+02 -0.66823722070E+03  0.96369484153E+03  0.46999998093E+01 0.  1.
       -5    1    3    3    0  502 -0.69404800649E+03 -0.21024727000E+02 -0.46286937254E+03  0.83451472156E+03  0.46999998093E+01 0. -1.
</event>
<event>
 5   0  0.6671375E-05  0.1391646E+04  0.7818609E-02  0.8959888E-01
        1   -1    0    0  501    0  0.00000000000E+00  0.00000000000E+00  0.46544946232E+03  0.46544946235E+03  0.50400001928E-02 0. -1.
       -1   -1    0    0    0  501  0.00000000000E+00  0.00000000000E+00 -0.10402191581E+04  0.10402191581E+04  0.50400001928E-02 0.  1.
    10030    2    1    2    0    0  0.00000000000E+00  0.00000000000E+00 -0.57476969577E+03  0.15056686204E+04  0.13916457133E+04 0.  0.
        5    1    3    3  502    0  0.49840450088E+03  0.15188788251E+03 -0.78633162224E+03  0.94330084569E+03  0.46999998093E+01 0.  1.
       -5    1    3    3    0  502 -0.49840450088E+03 -0.15188788251E+03  0.21156192648E+03  0.56236777475E+03  0.46999998093E+01 0. -1.
</event>
<event>
 5   0  0.9978422E-05  0.1400202E+04  0.7818609E-02  0.8953672E-01
       -1   -1    0    0    0  501  0.00000000000E+00  0.00000000000E+00  0.40039035267E+03  0.40039035270E+03  0.50400001928E-02 0. -1.
        1   -1    0    0  501    0  0.00000000000E+00  0.00000000000E+00 -0.12241597203E+04  0.12241597203E+04  0.50400001928E-02 0.  1.
    10030    2    1    2    0    0  0.00000000000E+00  0.00000000000E+00 -0.82376936765E+03  0.16245500730E+04  0.14002024742E+04 0.  0.
        2    1    3    3  502    0  0.50135394261E+03  0.48751115576E+02 -0.97600863016E+03  0.10983284086E+04  0.25500000920E-02 0.  1.
       -2    1    3    3    0  502 -0.50135394261E+03 -0.48751115576E+02  0.15223926251E+03  0.52622166441E+03  0.25500000920E-02 0. -1.
</event>
<event>
 5   0  0.1780171E-04  0.1398410E+04  0.7818609E-02  0.8954971E-01
        2   -1    0    0  501    0  0.00000000000E+00  0.00000000000E+00  0.45076286255E+03  0.45076286256E+03  0.25500000920E-02 0.  1.
       -2   -1    0    0    0  501  0.00000000000E+00  0.00000000000E+00 -0.10845778161E+04  0.10845778161E+04  0.25500000920E-02 0. -1.
    10030    2    1    2    0    0  0.00000000000E+00  0.00000000000E+00 -0.63381495354E+03  0.15353406787E+04  0.13984096697E+04 0.  0.
        5    1    3    3  502    0  0.28911981951E+02 -0.64732601064E+03 -0.28510975258E+02  0.64861531932E+03  0.46999998093E+01 0.  1.
       -5    1    3    3    0  502 -0.28911981951E+02  0.64732601064E+03 -0.60530397829E+03  0.88672535933E+03  0.46999998093E+01 0. -1.
</event>
<event>
 5   0  0.9260916E-05  0.1400988E+04  0.7818609E-02  0.8953104E-01
       -1   -1    0    0    0  501  0.00000000000E+00  0.00000000000E+00  0.30640273040E+03  0.30640273045E+03  0.50400001928E-02 0.  1.
        1   -1    0    0  501    0  0.00000000000E+00  0.00000000000E+00 -0.16014606840E+04  0.16014606840E+04  0.50400001928E-02 0. -1.
    10030    2    1    2    0    0  0.00000000000E+00  0.00000000000E+00 -0.12950579536E+04  0.19078634145E+04  0.14009881174E+04 0.  0.
        1    1    3    3  502    0  0.39645690904E+03  0.47682860410E+03 -0.10912085217E+04  0.12551014446E+04  0.50400001928E-02 0. -1.
       -1    1    3    3    0  502 -0.39645690904E+03 -0.47682860410E+03 -0.20384943195E+03  0.65276196989E+03  0.50400001928E-02 0.  1.
</event>
<event>
 5   0  0.1766237E-04  0.1389450E+04  0.7818609E-02  0.8961491E-01
        2   -1    0    0  501    0  0.00000000000E+00  0.00000000000E+00  0.66943833483E+03  0.66943833484E+03  0.25500000920E-02 0. -1.
       -2   -1    0    0    0  501  0.00000000000E+00  0.00000000000E+00 -0.72096716153E+03  0.72096716153E+03  0.25500000920E-02 0.  1.
    10030    2    1    2    0    0  0.00000000000E+00  0.00000000000E+00 -0.51528826696E+02  0.13904054964E+04  0.13894503317E+04 0.  0.
        3    1    3    3  502    0  0.58027230087E+02 -0.81814449801E+02 -0.71368319498E+03  0.72069721564E+03  0.10100000352E+00 0.  1.
       -3    1    3    3    0  502 -0.58027230087E+02  0.81814449801E+02  0.66215436829E+03  0.66970828073E+03  0.10100000352E+00 0. -1.
</event>
<event>
 5   0  0.1712327E-04  0.1396902E+04  0.7818609E-02  0.8956064E-01
       -2   -1    0    0    0  501  0.00000000000E+00  0.00000000000E+00  0.44107842874E+03  0.44107842875E+03  0.25500000920E-02 0.  1.
        2   -1    0    0  501    0  0.00000000000E+00  0.00000000000E+00 -0.11060023628E+04  0.11060023628E+04  0.25500000920E-02 0. -1.
    10030    2    1    2    0    0  0.00000000000E+00  0.00000000000E+00 -0.66492393407E+03  0.15470807916E+04  0.13969019785E+04 0.  0.
        1    1    3    3  502    0  0.26880983964E+03  0.57315222716E+03 -0.65926439284E+03  0.91399767236E+03  0.50400001928E-02 0.  1.
       -1    1    3    3    0  502 -0.26880983964E+03 -0.57315222716E+03 -0.56595412275E+01  0.63308311921E+03  0.50400001928E-02 0. -1.
</event>
<event>
 5   0  0.1766237E-04  0.1394954E+04  0.7818609E-02  0.8957479E-01
        2   -1    0    0  501    0  0.00000000000E+00  0.00000000000E+00  0.46849815785E+03  0.46849815786E+03  0.25500000920E-02 0. -1.
       -2   -1    0    0    0  501  0.00000000000E+00  0.00000000000E+00 -0.10383692131E+04  0.10383692131E+04  0.25500000920E-02 0.  1.
    10030    2    1    2    0    0  0.00000000000E+00  0.00000000000E+00 -0.56987105525E+03  0.15068673710E+04  0.13949538537E+04 0.  0.
        3    1    3    3  502    0  0.20132854804E+03  0.86144255331E+02 -0.10002712423E+04  0.10239612225E+04  0.10100000352E+00 0.  1.
       -3    1    3    3    0  502 -0.20132854804E+03 -0.86144255331E+02  0.43040018702E+03  0.48290614841E+03  0.10100000352E+00 0. -1.
</event>
<event>
 5   0  0.9978422E-05  0.1399037E+04  0.7818609E-02  0.8954516E-01
       -1   -1    0    0    0  501  0.00000000000E+00  0.00000000000E+00  0.48950697292E+03  0.48950697295E+03  0.50400001928E-02 0.  1.
        1   -1    0    0  501    0  0.00000000000E+00  0.00000000000E+00 -0.99962996385E+03  0.99962996387E+03  0.50400001928E-02 0. -1.
    10030    2    1    2    0    0  0.00000000000E+00  0.00000000000E+00 -0.51012299093E+03  0.14891369368E+04  0.13990365795E+04 0.  0.
        2    1    3    3  502    0  0.53500812214E+02  0.61746180922E+03 -0.60030264104E+03  0.86283525866E+03  0.25500000920E-02 0. -1.
       -2    1    3    3    0  502 -0.53500812214E+02 -0.61746180922E+03  0.90179650106E+02  0.62630167815E+03  0.25500000920E-02 0.  1.
</event>
<event>
 5   0  0.1833681E-04  0.1397481E+04  0.7818609E-02  0.8955644E-01
       -2   -1    0    0    0  501  0.00000000000E+00  0.00000000000E+00  0.41810368201E+03  0.41810368202E+03  0.25500000920E-02 0.  1.
        2   -1    0    0  501    0  0.00000000000E+00  0.00000000000E+00 -0.11677453581E+04  0.11677453581E+04  0.25500000920E-02 0. -1.
    10030    2    1    2    0    0  0.00000000000E+00  0.00000000000E+00 -0.74964167611E+03  0.15858490401E+04  0.13974814974E+04 0.  0.
        4    1    3    3  502    0 -0.41619609891E+03 -0.28653989759E+03 -0.92248254585E+03  0.10518079511E+04  0.12699999809E+01 0. -1.
       -4    1    3    3    0  502  0.41619609891E+03  0.28653989759E+03  0.17284086973E+03  0.53404108906E+03  0.12699999809E+01 0.  1.
</event>
<event>
 5   0  0.6671375E-05  0.1399964E+04  0.7818609E-02  0.8953845E-01
        1   -1    0    0  501    0  0.00000000000E+00  0.00000000000E+00  0.14331140572E+04  0.14331140572E+04  0.50400001928E-02 0.  1.
       -1   -1    0    0    0  501  0.00000000000E+00  0.00000000000E+00 -0.34189495060E+03  0.34189495064E+03  0.50400001928E-02 0. -1.
    10030    2    1    2    0    0  0.00000000000E+00  0.00000000000E+00  0.10912191066E+04  0.17750090078E+04  0.13999635136E+04 0.  0.
        5    1    3    3  502    0 -0.65661225624E+03  0.11672520636E+03  0.81513211189E+03  0.10531984042E+04  0.46999998093E+01 0.  1.
       -5    1    3    3    0  502  0.65661225624E+03 -0.11672520636E+03  0.27608699469E+03  0.72181060361E+03  0.46999998093E+01 0. -1.
</event>
<event>
 5   0  0.6671375E-05  0.1400195E+04  0.7818609E-02  0.8953677E-01
       -4   -1    0    0    0  501  0.00000000000E+00  0.00000000000E+00  0.91748358277E+03  0.91748446175E+03  0.12699999809E+01 0.  1.
        4   -1    0    0  501    0  0.00000000000E+00  0.00000000000E+00 -0.53421641090E+03  0.53421792049E+03  0.12699999809E+01 0. -1.
    10030    2    1    2    0    0  0.00000000000E+00  0.00000000000E+00  0.38326717187E+03  0.14517023822E+04  0.14001950155E+04 0.  0.
        3    1    3    3  502    0 -0.11961136048E+03 -0.49462197459E+03  0.69013110767E+03  0.85746062958E+03  0.10100000352E+00 0.  1.
       -3    1    3    3    0  502  0.11961136048E+03  0.49462197459E+03 -0.30686393580E+03  0.59424175266E+03  0.10100000352E+00 0. -1.
</event>
<event>
 5   0  0.6671375E-05  0.1399408E+04  0.7818609E-02  0.8954247E-01
       -1   -1    0    0    0  501  0.00000000000E+00  0.00000000000E+00  0.43103083535E+03  0.43103083538E+03  0.50400001928E-02 0. -1.
        1   -1    0    0  501    0  0.00000000000E+00  0.00000000000E+00 -0.11358484905E+04  0.11358484905E+04  0.50400001928E-02 0.  1.
    10030    2    1    2    0    0  0.00000000000E+00  0.00000000000E+00 -0.70481765513E+03  0.15668793259E+04  0.13994080516E+04 0.  0.
        5    1    3    3  502    0 -0.50051981829E+03 -0.47582163649E+03 -0.22653988158E+03  0.72682097259E+03  0.46999998093E+01 0. -1.
       -5    1    3    3    0  502  0.50051981829E+03  0.47582163649E+03 -0.47827777354E+03  0.84005835328E+03  0.46999998093E+01 0.  1.
</event>
<event>
 5   0  0.6671375E-05  0.1398643E+04  0.7818609E-02  0.8954801E-01
       -1   -1    0    0    0  501  0.00000000000E+00  0.00000000000E+00  0.30373366582E+03  0.30373366586E+03  0.50400001928E-02 0.  1.
        1   -1    0    0  501    0  0.00000000000E+00  0.00000000000E+00 -0.16101304838E+04  0.16101304838E+04  0.50400001928E-02 0. -1.
    10030    2    1    2    0    0  0.00000000000E+00  0.00000000000E+00 -0.13063968180E+04  0.19138641497E+04  0.13986433918E+04 0.  0.
        5    1    3    3  502    0 -0.28050054606E+03  0.25970956280E+03 -0.14544839422E+04  0.15038867117E+04  0.46999998093E+01 0. -1.
       -5    1    3    3    0  502  0.28050054606E+03 -0.25970956280E+03  0.14808712421E+03  0.40997743804E+03  0.46999998093E+01 0.  1.
</event>
<event>
 5   0  0.6671375E-05  0.1396622E+04  0.7818609E-02  0.8956267E-01
       -1   -1    0    0    0  501  0.00000000000E+00  0.00000000000E+00  0.61165872198E+03  0.61165872201E+03  0.50400001928E-02 0.  1.
        1   -1    0    0  501    0  0.00000000000E+00  0.00000000000E+00 -0.79723958556E+03  0.79723958557E+03  0.50400001928E-02 0. -1.
    10030    2    1    2    0    0  0.00000000000E+00  0.00000000000E+00 -0.18558086357E+03  0.14088983076E+04  0.13966224200E+04 0.  0.
        5    1    3    3  502    0 -0.97275098199E+01 -0.42906794265E+03  0.46288929460E+03  0.63125471318E+03  0.46999998093E+01 0.  1.
       -5    1    3    3    0  502  0.97275098199E+01  0.42906794265E+03 -0.64847015818E+03  0.77764359440E+03  0.46999998093E+01 0. -1.
</event>
<event>
 5   0  0.9978422E-05  0.1399085E+04  0.7818609E-02  0.8954481E-01
       -1   -1    0    0    0  501  0.00000000000E+00  0.00000000000E+00  0.10782181360E+04  0.10782181360E+04  0.50400001928E-02 0.  1.
        1   -1    0    0  501    0  0.00000000000E+00  0.00000000000E+00 -0.45385936548E+03  0.45385936551E+03  0.50400001928E-02 0. -1.
    10030    2    1    2    0    0  0.00000000000E+00  0.00000000000E+00  0.62435877049E+03  0.15320775015E+04  0.13990845565E+04 0.  0.
        2    1    3    3  502    0  0.51493627889E+03  0.40799118279E+03  0.49039136516E+02  0.65880271209E+03  0.25500000920E-02 0. -1.
       -2    1    3    3    0  502 -0.51493627889E+03 -0.40799118279E+03  0.57531963397E+03  0.87327478939E+03  0.25500000920E-02 0.  1.
</event>
<event>
 5   0  0.9900839E-05  0.1383872E+04  0.7818609E-02  0.8965577E-01
       -1   -1    0    0    0  501  0.00000000000E+00  0.00000000000E+00  0.83393300065E+03  0.83393300066E+03  0.50400001928E-02 0.  1.
        1   -1    0    0  501    0  0.00000000000E+00  0.00000000000E+00 -0.57411708368E+03  0.57411708371E+03  0.50400001928E-02 0. -1.
    10030    2    1    2    0    0  0.00000000000E+00  0.00000000000E+00  0.25981591696E+03  0.14080500844E+04  0.13838716448E+04 0.  0.
        3    1    3    3  502    0 -0.27929702397E+03 -0.31357999544E+03  0.68945806829E+03  0.80727422805E+03  0.10100000352E+00 0.  1.
       -3    1    3    3    0  502  0.27929702397E+03  0.31357999544E+03 -0.42964215133E+03  0.60077585632E+03  0.10100000352E+00 0. -1.
</event>
<event>
 5   0  0.6671375E-05  0.1401940E+04  0.7818609E-02  0.8952416E-01
        1   -1    0    0  501    0  0.00000000000E+00  0.00000000000E+00  0.67133862804E+03  0.67133862806E+03  0.50400001928E-02 0. -1.
       -1   -1    0    0    0  501  0.00000000000E+00  0.00000000000E+00 -0.73190880063E+03  0.73190880064E+03  0.50400001928E-02 0.  1.
    10030    2    1    2    0    0  0.00000000000E+00  0.00000000000E+00 -0.60570172589E+02  0.14032474287E+04  0.14019395851E+04 0.  0.
        5    1    3    3  502    0  0.26592752579E+03  0.25156810913E+03 -0.62861576956E+03  0.72745023077E+03  0.46999998093E+01 0.  1.
       -5    1    3    3    0  502 -0.26592752579E+03 -0.25156810913E+03  0.56804559697E+03  0.67579719794E+03  0.46999998093E+01 0. -1.
</event>
<event>
 5   0  0.1780171E-04  0.1400873E+04  0.7818609E-02  0.8953187E-01
        2   -1    0    0  501    0  0.00000000000E+00  0.00000000000E+00  0.15790136472E+04  0.15790136472E+04  0.25500000920E-02 0.  1.
       -2   -1    0    0    0  501  0.00000000000E+00  0.00000000000E+00 -0.31070727911E+03  0.31070727912E+03  0.25500000920E-02 0. -1.
    10030    2    1    2    0    0  0.00000000000E+00  0.00000000000E+00  0.12683063681E+04  0.18897209263E+04  0.14008726338E+04 0.  0.
        5    1    3    3  502    0  0.42238678506E+03  0.54685911503E+02 -0.11593132222E+03  0.44143324137E+03  0.46999998093E+01 0. -1.
       -5    1    3    3    0  502 -0.42238678506E+03 -0.54685911503E+02  0.13842376903E+04  0.14482876850E+04  0.46999998093E+01 0.  1.
</event>
<event>
 5   0  0.9260916E-05  0.1399683E+04  0.7818609E-02  0.8954048E-01
       -1   -1    0    0    0  501  0.00000000000E+00  0.00000000000E+00  0.75619391292E+03  0.75619391293E+03  0.50400001928E-02 0. -1.
        1   -1    0    0  501    0  0.00000000000E+00  0.00000000000E+00 -0.64768863822E+03  0.64768863824E+03  0.50400001928E-02 0.  1.
    10030    2    1    2    0    0  0.00000000000E+00  0.00000000000E+00  0.10850527469E+03  0.14038825512E+04  0.13996831152E+04 0.  0.
        1    1    3    3  502    0  0.57753814571E+03  0.21500028685E+03  0.38691438779E+03  0.72765251089E+03  0.50400001928E-02 0. -1.
       -1    1    3    3    0  502 -0.57753814571E+03 -0.21500028685E+03 -0.27840911310E+03  0.67623004028E+03  0.50400001928E-02 0.  1.
</event>
<event>
 5   0  0.6671375E-05  0.1399772E+04  0.7818609E-02  0.8953983E-01
       -1   -1    0    0    0  501  0.00000000000E+00  0.00000000000E+00  0.79789760013E+03  0.79789760014E+03  0.50400001928E-02 0.  1.
        1   -1    0    0  501    0  0.00000000000E+00  0.00000000000E+00 -0.61391413407E+03  0.61391413409E+03  0.50400001928E-02 0. -1.
    10030    2    1    2    0    0  0.00000000000E+00  0.00000000000E+00  0.18398346605E+03  0.14118117342E+04  0.13997722876E+04 0.  0.
        5    1    3    3  502    0 -0.50955897718E+03 -0.46191374334E+03  0.22273640834E+03  0.72294415767E+03  0.46999998093E+01 0.  1.
       -5    1    3    3    0  502  0.50955897718E+03  0.46191374334E+03 -0.38752942285E+02  0.68886757657E+03  0.46999998093E+01 0. -1.
</event>
<event>
 5   0  0.9828111E-05  0.1399376E+04  0.7818609E-02  0.8954270E-01
        1   -1    0    0  501    0  0.00000000000E+00  0.00000000000E+00  0.88431634127E+03  0.88431634129E+03  0.50400001928E-02 0. -1.
       -1   -1    0    0    0  501  0.00000000000E+00  0.00000000000E+00 -0.55360652942E+03  0.55360652944E+03  0.50400001928E-02 0.  1.
    10030    2    1    2    0    0  0.00000000000E+00  0.00000000000E+00  0.33070981186E+03  0.14379228707E+04  0.13993760047E+04 0.  0.
        4    1    3    3  502    0 -0.66914199828E+03  0.13002043654E+03  0.31934704834E+01  0.68166570908E+03  0.12699999809E+01 0. -1.
       -4    1    3    3    0  502  0.66914199828E+03 -0.13002043654E+03  0.32751634137E+03  0.75625716165E+03  0.12699999809E+01 0.  1.
</event>
<event>
 5   0  0.9978422E-05  0.1399889E+04  0.7818609E-02  0.8953899E-01
        1   -1    0    0  501    0  0.00000000000E+00  0.00000000000E+00  0.69586081274E+03  0.69586081275E+03  0.50400001928E-02 0. -1.
       -1   -1    0    0    0  501  0.00000000000E+00  0.00000000000E+00 -0.70405229091E+03  0.70405229093E+03  0.50400001928E-02 0.  1.
    10030    2    1    2    0    0  0.00000000000E+00  0.00000000000E+00 -0.81914781777E+01  0.13999131037E+04  0.13998891376E+04 0.  0.
        2    1    3    3  502    0  0.16222652313E+02  0.55857287921E+03 -0.42559502321E+03  0.70242292078E+03  0.25500000920E-02 0.  1.
       -2    1    3    3    0  502 -0.16222652313E+02 -0.55857287921E+03  0.41740354503E+03  0.69749018291E+03  0.25500000920E-02 0. -1.
</event>
<event>
 5   0  0.1794185E-04  0.1397111E+04  0.7818609E-02  0.8955912E-01
       -2   -1    0    0    0  501  0.00000000000E+00  0.00000000000E+00  0.63201547313E+03  0.63201547313E+03  0.25500000920E-02 0.  1.
        2   -1    0    0  501    0  0.00000000000E+00  0.00000000000E+00 -0.77210115117E+03  0.77210115117E+03  0.25500000920E-02 0. -1.
    10030    2    1    2    0    0  0.00000000000E+00  0.00000000000E+00 -0.14008567804E+03  0.14041166243E+04  0.13971111257E+04 0.  0.
        2    1    3    3  502    0  0.17563631108E+03 -0.17885414825E+02  0.60922479478E+03  0.63428924981E+03  0.25500000920E-02 0.  1.
       -2    1    3    3    0  502 -0.17563631108E+03  0.17885414825E+02 -0.74931047282E+03  0.76982737450E+03  0.25500000920E-02 0. -1.
</event>
<event>
 5   0  0.1766237E-04  0.1401461E+04  0.7818609E-02  0.8952762E-01
        2   -1    0    0  501    0  0.00000000000E+00  0.00000000000E+00  0.11092043021E+04  0.11092043021E+04  0.25500000920E-02 0.  1.
       -2   -1    0    0    0  501  0.00000000000E+00  0.00000000000E+00 -0.44268050124E+03  0.44268050125E+03  0.25500000920E-02 0. -1.
    10030    2    1    2    0    0  0.00000000000E+00  0.00000000000E+00  0.66652380090E+03  0.15518848034E+04  0.14014608328E+04 0.  0.
        3    1    3    3  502    0  0.43122180298E+03 -0.55232542183E+03  0.33629269847E+03  0.77724410850E+03  0.10100000352E+00 0.  1.
       -3    1    3    3    0  502 -0.43122180298E+03  0.55232542183E+03  0.33023110244E+03  0.77464069489E+03  0.10100000352E+00 0. -1.
</event>
<event>
 5   0  0.1833681E-04  0.1400450E+04  0.7818609E-02  0.8953493E-01
        2   -1    0    0  501    0  0.00000000000E+00  0.00000000000E+00  0.82642403023E+03  0.82642403023E+03  0.25500000920E-02 0. -1.
       -2   -1    0    0    0  501  0.00000000000E+00  0.00000000000E+00 -0.59329680282E+03  0.59329680283E+03  0.25500000920E-02 0.  1.
    10030    2    1    2    0    0  0.00000000000E+00  0.00000000000E+00  0.23312722741E+03  0.14197208331E+04  0.14004495491E+04 0.  0.
        4    1    3    3  502    0  0.29948025821E+03 -0.62591163452E+03  0.21144418673E+02  0.69419197534E+03  0.12699999809E+01 0.  1.
       -4    1    3    3    0  502 -0.29948025821E+03  0.62591163452E+03  0.21198280873E+03  0.72552885772E+03  0.12699999809E+01 0. -1.
</event>
<event>
 5   0  0.6671375E-05  0.1407423E+04  0.7818609E-02  0.8948463E-01
       -1   -1    0    0    0  501  0.00000000000E+00  0.00000000000E+00  0.37440405985E+03  0.37440405988E+03  0.50400001928E-02 0.  1.
        1   -1    0    0  501    0  0.00000000000E+00  0.00000000000E+00 -0.13226607256E+04  0.13226607256E+04  0.50400001928E-02 0. -1.
    10030    2    1    2    0    0  0.00000000000E+00  0.00000000000E+00 -0.94825666573E+03  0.16970647855E+04  0.14074225314E+04 0.  0.
        5    1    3    3  502    0  0.63769461482E+03 -0.12504593947E+03 -0.79968560449E+03  0.10304416843E+04  0.46999998093E+01 0. -1.
       -5    1    3    3    0  502 -0.63769461482E+03  0.12504593947E+03 -0.14857106124E+03  0.66662310115E+03  0.46999998093E+01 0.  1.
</event>
<event>
 5   0  0.1712327E-04  0.1399907E+04  0.7818609E-02  0.8953886E-01
       -2   -1    0    0    0  501  0.00000000000E+00  0.00000000000E+00  0.99092006095E+03  0.99092006095E+03  0.25500000920E-02 0. -1.
        2   -1    0    0  501    0  0.00000000000E+00  0.00000000000E+00 -0.49442396162E+03  0.49442396163E+03  0.25500000920E-02 0.  1.
    10030    2    1    2    0    0  0.00000000000E+00  0.00000000000E+00  0.49649609933E+03  0.14853440226E+04  0.13999066000E+04 0.  0.
        1    1    3    3  502    0  0.43404809836E+03  0.54736087194E+03  0.29489657207E+03  0.75826490361E+03  0.50400001928E-02 0. -1.
       -1    1    3    3    0  502 -0.43404809836E+03 -0.54736087194E+03  0.20159952726E+03  0.72707911896E+03  0.50400001928E-02 0.  1.
</event>
<event>
 5   0  0.1780171E-04  0.1391530E+04  0.7818609E-02  0.8959972E-01
       -2   -1    0    0    0  501  0.00000000000E+00  0.00000000000E+00  0.41233591047E+03  0.41233591048E+03  0.25500000920E-02 0. -1.
        2   -1    0    0  501    0  0.00000000000E+00  0.00000000000E+00 -0.11740166566E+04  0.11740166566E+04  0.25500000920E-02 0.  1.
    10030    2    1    2    0    0  0.00000000000E+00  0.00000000000E+00 -0.76168074612E+03  0.15863525671E+04  0.13915304194E+04 0.  0.
        5    1    3    3  502    0  0.63675682037E+03 -0.19686386907E+03 -0.15325998806E+03  0.68390448542E+03  0.46999998093E+01 0. -1.
       -5    1    3    3    0  502 -0.63675682037E+03  0.19686386907E+03 -0.60842075806E+03  0.90244808165E+03  0.46999998093E+01 0.  1.
</event>
<event>
 5   0  0.9828111E-05  0.1395038E+04  0.7818609E-02  0.8957418E-01
       -1   -1    0    0    0  501  0.00000000000E+00  0.00000000000E+00  0.71631558911E+03  0.71631558913E+03  0.50400001928E-02 0. -1.
        1   -1    0    0  501    0  0.00000000000E+00  0.00000000000E+00 -0.67921553449E+03  0.67921553451E+03  0.50400001928E-02 0.  1.
    10030    2    1    2    0    0  0.00000000000E+00  0.00000000000E+00  0.37100054613E+02  0.13955311236E+04  0.13950378859E+04 0.  0.
        4    1    3    3  502    0  0.86879906164E+02 -0.43720399755E+03  0.55524284723E+03  0.71203348648E+03  0.12699999809E+01 0. -1.
       -4    1    3    3    0  502 -0.86879906164E+02  0.43720399755E+03 -0.51814279262E+03  0.68349763716E+03  0.12699999809E+01 0.  1.
</event>
<event>
 5   0  0.9978422E-05  0.1400438E+04  0.7818609E-02  0.8953501E-01
       -1   -1    0    0    0  501  0.00000000000E+00  0.00000000000E+00  0.46422055831E+03  0.46422055833E+03  0.50400001928E-02 0.  1.
        1   -1    0    0  501    0  0.00000000000E+00  0.00000000000E+00 -0.10561936510E+04  0.10561936510E+04  0.50400001928E-02 0. -1.
    10030    2    1    2    0    0  0.00000000000E+00  0.00000000000E+00 -0.59197309271E+03  0.15204142094E+04  0.14004382262E+04 0.  0.
        2    1    3    3  502    0 -0.83492916433E+02  0.65822767223E+03 -0.53892470718E+03  0.85479504889E+03  0.25500000920E-02 0. -1.
       -2    1    3    3    0  502  0.83492916433E+02 -0.65822767223E+03 -0.53048385527E+02  0.66561916048E+03  0.25500000920E-02 0.  1.
</event>
<event>
 5   0  0.9978422E-05  0.1399159E+04  0.7818609E-02  0.8954428E-01
        1   -1    0    0  501    0  0.00000000000E+00  0.00000000000E+00  0.14534521121E+04  0.14534521122E+04  0.50400001928E-02 0.  1.
       -1   -1    0    0    0  501  0.00000000000E+00  0.00000000000E+00 -0.33672350180E+03  0.33672350184E+03  0.50400001928E-02 0. -1.
    10030    2    1    2    0    0  0.00000000000E+00  0.00000000000E+00  0.11167286103E+04  0.17901756140E+04  0.13991590116E+04 0.  0.
        2    1    3    3  502    0 -0.42465507261E+02 -0.40228554075E+02 -0.33358906952E+03  0.33867879057E+03  0.25500000920E-02 0. -1.
       -2    1    3    3    0  502  0.42465507261E+02  0.40228554075E+02  0.14503176799E+04  0.14514968234E+04  0.25500000920E-02 0.  1.
</event>
<event>
 5   0  0.9900839E-05  0.1404942E+04  0.7818609E-02  0.8950249E-01
        1   -1    0    0  501    0  0.00000000000E+00  0.00000000000E+00  0.48135428289E+03  0.48135428291E+03  0.50400001928E-02 0.  1.
       -1   -1    0    0    0  501  0.00000000000E+00  0.00000000000E+00 -0.10251609134E+04  0.10251609135E+04  0.50400001928E-02 0. -1.
    10030    2    1    2    0    0  0.00000000000E+00  0.00000000000E+00 -0.54380663056E+03  0.15065151964E+04  0.14049421289E+04 0.  0.
        3    1    3    3  502    0 -0.27641380775E+03 -0.40300014512E+02  0.41923921193E+03  0.50377595348E+03  0.10100000352E+00 0.  1.
       -3    1    3    3    0  502  0.27641380775E+03  0.40300014512E+02 -0.96304584249E+03  0.10027392429E+04  0.10100000352E+00 0. -1.
</event>
<event>
 5   0  0.9978422E-05  0.1401456E+04  0.7818609E-02  0.8952765E-01
       -1   -1    0    0    0  501  0.00000000000E+00  0.00000000000E+00  0.20099105230E+03  0.20099105236E+03  0.50400001928E-02 0. -1.
        1   -1    0    0  501    0  0.00000000000E+00  0.00000000000E+00 -0.24429939996E+04  0.24429939996E+04  0.50400001928E-02 0.  1.
    10030    2    1    2    0    0  0.00000000000E+00  0.00000000000E+00 -0.22420029473E+04  0.26439850519E+04  0.14014562923E+04 0.  0.
        2    1    3    3  502    0  0.15714991479E+03 -0.22249632743E+02 -0.24086359669E+04  0.24138596403E+04  0.25500000920E-02 0.  1.
       -2    1    3    3    0  502 -0.15714991479E+03  0.22249632743E+02  0.16663301961E+03  0.23012541169E+03  0.25500000920E-02 0. -1.
</event>
<event>
 5   0  0.1794185E-04  0.1400371E+04  0.7818609E-02  0.8953550E-01
        2   -1    0    0  501    0  0.00000000000E+00  0.00000000000E+00  0.45503514294E+03  0.45503514295E+03  0.25500000920E-02 0.  1.
       -2   -1    0    0    0  501  0.00000000000E+00  0.00000000000E+00 -0.10774110362E+04  0.10774110362E+04  0.25500000920E-02 0. -1.
    10030    2    1    2    0    0  0.00000000000E+00  0.00000000000E+00 -0.62237589321E+03  0.15324461791E+04  0.14003712149E+04 0.  0.
        2    1    3    3  502    0  0.22245167906E+03 -0.66113211237E+03 -0.24480838004E+03  0.73926420343E+03  0.25500000920E-02 0. -1.
       -2    1    3    3    0  502 -0.22245167906E+03  0.66113211237E+03 -0.37756751317E+03  0.79318197568E+03  0.25500000920E-02 0.  1.
</event>
<event>
 5   0  0.1794185E-04  0.1399291E+04  0.7818609E-02  0.8954332E-01
       -2   -1    0    0    0  501  0.00000000000E+00  0.00000000000E+00  0.68387889640E+03  0.68387889640E+03  0.25500000920E-02 0. -1.
        2   -1    0    0  501    0  0.00000000000E+00  0.00000000000E+00 -0.71577510394E+03  0.71577510395E+03  0.25500000920E-02 0.  1.
    10030    2    1    2    0    0  0.00000000000E+00  0.00000000000E+00 -0.31896207545E+02  0.13996540004E+04  0.13992905176E+04 0.  0.
        2    1    3    3  502    0 -0.50415114217E+03 -0.27652548147E+03  0.38273889001E+03  0.69074146682E+03  0.25500000920E-02 0. -1.
       -2    1    3    3    0  502  0.50415114217E+03  0.27652548147E+03 -0.41463509756E+03  0.70891253353E+03  0.25500000920E-02 0.  1.
</event>
<event>
 5   0  0.1766237E-04  0.1404092E+04  0.7818609E-02  0.8950862E-01
       -2   -1    0    0    0  501  0.00000000000E+00  0.00000000000E+00  0.13419758676E+04  0.13419758676E+04  0.25500000920E-02 0. -1.
        2   -1    0    0  501    0  0.00000000000E+00  0.00000000000E+00 -0.36727084572E+03  0.36727084573E+03  0.25500000920E-02 0.  1.
    10030    2    1    2    0    0  0.00000000000E+00  0.00000000000E+00  0.97470502192E+03  0.17092467134E+04  0.14040920367E+04 0.  0.
        3    1    3    3  502    0 -0.37738504158E+03 -0.36019316656E+03  0.10592526435E+04  0.11807517774E+04  0.10100000352E+00 0. -1.
       -3    1    3    3    0  502  0.37738504158E+03  0.36019316656E+03 -0.84547621571E+02  0.52849493598E+03  0.10100000352E+00 0.  1.
</event>
<event>
 5   0  0.6671375E-05  0.1397653E+04  0.7818609E-02  0.8955519E-01
        1   -1    0    0  501    0  0.00000000000E+00  0.00000000000E+00  0.11296062083E+04  0.11296062083E+04  0.50400001928E-02 0. -1.
       -1   -1    0    0    0  501  0.00000000000E+00  0.00000000000E+00 -0.43232636408E+03  0.43232636411E+03  0.50400001928E-02 0.  1.
    10030    2    1    2    0    0  0.00000000000E+00  0.00000000000E+00  0.69727984423E+03  0.15619325724E+04  0.13976530970E+04 0.  0.
        5    1    3    3  502    0 -0.62959885172E+03 -0.25242220551E+03  0.16089071831E+03  0.69715105763E+03  0.46999998093E+01 0.  1.
       -5    1    3    3    0  502  0.62959885172E+03  0.25242220551E+03  0.53638912592E+03  0.86478151479E+03  0.46999998093E+01 0. -1.
</event>
<event>
 5   0  0.9260916E-05  0.1402002E+04  0.7818609E-02  0.8952371E-01
       -1   -1    0    0    0  501  0.00000000000E+00  0.00000000000E+00  0.83224986043E+03  0.83224986044E+03  0.50400001928E-02 0.  1.
        1   -1    0    0  501    0  0.00000000000E+00  0.00000000000E+00 -0.59045017857E+03  0.59045017859E+03  0.50400001928E-02 0. -1.
    10030    2    1    2    0    0  0.00000000000E+00  0.00000000000E+00  0.24179968186E+03  0.14227000390E+04  0.14020015388E+04 0.  0.
        1    1    3    3  502    0  0.51307549566E+03  0.35627985086E+03 -0.20194854929E+03  0.65647925554E+03  0.50400001928E-02 0. -1.
       -1    1    3    3    0  502 -0.51307549566E+03 -0.35627985086E+03  0.44374823115E+03  0.76622078349E+03  0.50400001928E-02 0.  1.
</event>
<event>
 5   0  0.9978422E-05  0.1400519E+04  0.7818609E-02  0.8953443E-01
       -1   -1    0    0    0  501  0.00000000000E+00  0.00000000000E+00  0.76058820826E+03  0.76058820828E+03  0.50400001928E-02 0.  1.
        1   -1    0    0  501    0  0.00000000000E+00  0.00000000000E+00 -0.64471633888E+03  0.64471633890E+03  0.50400001928E-02 0. -1.
    10030    2    1    2    0    0  0.00000000000E+00  0.00000000000E+00  0.11587186938E+03  0.14053045472E+04  0.14005193966E+04 0.  0.
        2    1    3    3  502    0  0.26554383767E+03  0.11042141001E+03  0.69859783382E+03  0.75547690298E+03  0.25500000920E-02 0.  1.
       -2    1    3    3    0  502 -0.26554383767E+03 -0.11042141001E+03 -0.58272596444E+03  0.64982764419E+03  0.25500000920E-02 0. -1.
</event>
<event>
 5   0  0.6671375E-05  0.1400171E+04  0.7818609E-02  0.8953695E-01
       -3   -1    0    0    0  501  0.00000000000E+00  0.00000000000E+00  0.50163469146E+03  0.50163470163E+03  0.10100000352E+00 0.  1.
        3   -1    0    0  501    0  0.00000000000E+00  0.00000000000E+00 -0.97704523203E+03  0.97704523725E+03  0.10100000352E+00 0. -1.
    10030    2    1    2    0    0  0.00000000000E+00  0.00000000000E+00 -0.47541054057E+03  0.14786799389E+04  0.14001711251E+04 0.  0.
        1    1    3    3  502    0 -0.67638543308E+01 -0.18796399537E+03  0.47445272214E+03  0.51037397941E+03  0.50400001928E-02 0.  1.
       -1    1    3    3    0  502  0.67638543308E+01  0.18796399537E+03 -0.94986326271E+03  0.96830595947E+03  0.50400001928E-02 0. -1.
</event>
<event>
 5   0  0.9978422E-05  0.1400377E+04  0.7818609E-02  0.8953546E-01
       -1   -1    0    0    0  501  0.00000000000E+00  0.00000000000E+00  0.61786995638E+03  0.61786995640E+03  0.50400001928E-02 0.  1.
        1   -1    0    0  501    0  0.00000000000E+00  0.00000000000E+00 -0.79347393557E+03  0.79347393559E+03  0.50400001928E-02 0. -1.
    10030    2    1    2    0    0  0.00000000000E+00  0.00000000000E+00 -0.17560397919E+03  0.14113438920E+04  0.14003766722E+04 0.  0.
        2    1    3    3  502    0  0.52955473553E+02 -0.22430366570E+03  0.57854720231E+03  0.62276262085E+03  0.25500000920E-02 0.  1.
       -2    1    3    3    0  502 -0.52955473553E+02  0.22430366570E+03 -0.75415118150E+03  0.78858127114E+03  0.25500000920E-02 0. -1.
</event>
<event>
 5   0  0.1766237E-04  0.1398201E+04  0.7818609E-02  0.8955122E-01
        2   -1    0    0  501    0  0.00000000000E+00  0.00000000000E+00  0.68489429419E+03  0.68489429420E+03  0.25500000920E-02 0.  1.
       -2   -1    0    0    0  501  0.00000000000E+00  0.00000000000E+00 -0.71360123866E+03  0.71360123866E+03  0.25500000920E-02 0. -1.
    10030    2    1    2    0    0  0.00000000000E+00  0.00000000000E+00 -0.28706944463E+02  0.13984955329E+04  0.13982008678E+04 0.  0.
        3    1    3    3  502    0 -0.11738620150E+03  0.62564202234E+03  0.27472983521E+03  0.69331374787E+03  0.10100000352E+00 0.  1.
       -3    1    3    3    0  502  0.11738620150E+03 -0.62564202234E+03 -0.30343677967E+03  0.70518178499E+03  0.10100000352E+00 0. -1.
</event>
<event>
 5   0  0.1794185E-04  0.1399163E+04  0.7818609E-02  0.8954425E-01
        2   -1    0    0  501    0  0.00000000000E+00  0.00000000000E+00  0.73313999046E+03  0.73313999047E+03  0.25500000920E-02 0.  1.
       -2   -1    0    0    0  501  0.00000000000E+00  0.00000000000E+00 -0.66755894297E+03  0.66755894298E+03  0.25500000920E-02 0. -1.
    10030    2    1    2    0    0  0.00000000000E+00  0.00000000000E+00  0.65581047491E+02  0.14006989334E+04  0.13991628313E+04 0.  0.
        2    1    3    3  502    0 -0.32814560250E+02 -0.12326176616E+03  0.72140026244E+03  0.73259033369E+03  0.25500000920E-02 0.  1.
       -2    1    3    3    0  502  0.32814560250E+02  0.12326176616E+03 -0.65581921495E+03  0.66810859975E+03  0.25500000920E-02 0. -1.
</event>
<event>
 5   0  0.1794185E-04  0.1398674E+04  0.7818609E-02  0.8954779E-01
       -2   -1    0    0    0  501  0.00000000000E+00  0.00000000000E+00  0.34628227490E+03  0.34628227491E+03  0.25500000920E-02 0.  1.
        2   -1    0    0  501    0  0.00000000000E+00  0.00000000000E+00 -0.14123521667E+04  0.14123521667E+04  0.25500000920E-02 0. -1.
    10030    2    1    2    0    0  0.00000000000E+00  0.00000000000E+00 -0.10660698918E+04  0.17586344416E+04  0.13986744028E+04 0.  0.
        2    1    3    3  502    0 -0.78621841934E+02  0.65774878852E+03 -0.25115766565E+03  0.70844550662E+03  0.25500000920E-02 0.  1.
       -2    1    3    3    0  502  0.78621841934E+02 -0.65774878852E+03 -0.81491222615E+03  0.10501889350E+04  0.25500000920E-02 0. -1.
</event>
<event>
 5   0  0.9828111E-05  0.1396096E+04  0.7818609E-02  0.8956649E-01
        1   -1    0    0  501    0  0.00000000000E+00  0.00000000000E+00  0.45776600337E+03  0.45776600339E+03  0.50400001928E-02 0. -1.
       -1   -1    0    0    0  501  0.00000000000E+00  0.00000000000E+00 -0.10644543222E+04  0.10644543222E+04  0.50400001928E-02 0.  1.
    10030    2    1    2    0    0  0.00000000000E+00  0.00000000000E+00 -0.60668831880E+03  0.15222203256E+04  0.13960959865E+04 0.  0.
        4    1    3    3  502    0 -0.26526620043E+03  0.80601767395E+02 -0.10018489657E+04  0.10395026527E+04  0.12699999809E+01 0.  1.
       -4    1    3    3    0  502  0.26526620043E+03 -0.80601767395E+02  0.39516064687E+03  0.48271767290E+03  0.12699999809E+01 0. -1.
</event>
<event>
 5   0  0.6671375E-05  0.1399342E+04  0.7818609E-02  0.8954295E-01
       -1   -1    0    0    0  501  0.00000000000E+00  0.00000000000E+00  0.51656513354E+03  0.51656513356E+03  0.50400001928E-02 0. -1.
        1   -1    0    0  501    0  0.00000000000E+00  0.00000000000E+00 -0.94768247627E+03  0.94768247628E+03  0.50400001928E-02 0.  1.
    10030    2    1    2    0    0  0.00000000000E+00  0.00000000000E+00 -0.43111734273E+03  0.14642476098E+04  0.13993423097E+04 0.  0.
        5    1    3    3  502    0 -0.42812942140E+03 -0.53311962689E+03 -0.37078451981E+03  0.77782683688E+03  0.46999998093E+01 0.  1.
       -5    1    3    3    0  502  0.42812942140E+03  0.53311962689E+03 -0.60332822917E+02  0.68642077297E+03  0.46999998093E+01 0. -1.
</event>
<event>
 5   0  0.6671375E-05  0.1399487E+04  0.7818609E-02  0.8954190E-01
       -3   -1    0    0    0  501  0.00000000000E+00  0.00000000000E+00  0.47855143092E+03  0.47855144158E+03  0.10100000352E+00 0.  1.
        3   -1    0    0  501    0  0.00000000000E+00  0.00000000000E+00 -0.10231731692E+04  0.10231731742E+04  0.10100000352E+00 0. -1.
    10030    2    1    2    0    0  0.00000000000E+00  0.00000000000E+00 -0.54462173830E+03  0.15017246158E+04  0.13994870431E+04 0.  0.
        5    1    3    3  502    0  0.97875734427E+02 -0.38628764154E+03 -0.88949964772E+03  0.97469457508E+03  0.46999998093E+01 0. -1.
       -5    1    3    3    0  502 -0.97875734427E+02  0.38628764154E+03  0.34487790942E+03  0.52703004070E+03  0.46999998093E+01 0.  1.
</event>
<event>
 5   0  0.1712327E-04  0.1403129E+04  0.7818609E-02  0.8951557E-01
        2   -1    0    0  501    0  0.00000000000E+00  0.00000000000E+00  0.13830712128E+04  0.13830712128E+04  0.25500000920E-02 0.  1.
       -2   -1    0    0    0  501  0.00000000000E+00  0.00000000000E+00 -0.35586931923E+03  0.35586931924E+03  0.25500000920E-02 0. -1.
    10030    2    1    2    0    0  0.00000000000E+00  0.00000000000E+00  0.10272018936E+04  0.17389405320E+04  0.14031288051E+04 0.  0.
        1    1    3    3  502    0  0.29893836074E+03  0.50733663585E+03  0.98623623564E+03  0.11486585733E+04  0.50400001928E-02 0. -1.
       -1    1    3    3    0  502 -0.29893836074E+03 -0.50733663585E+03  0.40965657916E+02  0.59028195869E+03  0.50400001928E-02 0.  1.
</event>
<event>
 5   0  0.1766237E-04  0.1402784E+04  0.7818609E-02  0.8951806E-01
        2   -1    0    0  501    0  0.00000000000E+00  0.00000000000E+00  0.12517305008E+04  0.12517305008E+04  0.25500000920E-02 0. -1.
       -2   -1    0    0    0  501  0.00000000000E+00  0.00000000000E+00 -0.39301657309E+03  0.39301657310E+03  0.25500000920E-02 0.  1.
    10030    2    1    2    0    0  0.00000000000E+00  0.00000000000E+00  0.85871392767E+03  0.16447470739E+04  0.14027841343E+04 0.  0.
        3    1    3    3  502    0 -0.50006815919E+03  0.26858578885E+03 -0.53708420386E+02  0.57016760205E+03  0.10100000352E+00 0.  1.
       -3    1    3    3    0  502  0.50006815919E+03 -0.26858578885E+03  0.91242234805E+03  0.10745794718E+04  0.10100000352E+00 0. -1.
</event>
<event>
 5   0  0.6671375E-05  0.1400993E+04  0.7818609E-02  0.8953100E-01
       -4   -1    0    0    0  501  0.00000000000E+00  0.00000000000E+00  0.64877307080E+03  0.64877431384E+03  0.12699999809E+01 0. -1.
        4   -1    0    0  501    0  0.00000000000E+00  0.00000000000E+00 -0.75634079116E+03  0.75634185741E+03  0.12699999809E+01 0.  1.
    10030    2    1    2    0    0  0.00000000000E+00  0.00000000000E+00 -0.10756772036E+03  0.14051161713E+04  0.14009927338E+04 0.  0.
        5    1    3    3  502    0 -0.22527900128E+03 -0.10453374759E+03 -0.71068880935E+03  0.75284700075E+03  0.46999998093E+01 0.  1.
       -5    1    3    3    0  502  0.22527900128E+03  0.10453374759E+03  0.60312108899E+03  0.65226917050E+03  0.46999998093E+01 0. -1.
</event>
<event>
 5   0  0.1766237E-04  0.1399035E+04  0.7818609E-02  0.8954517E-01
        2   -1    0    0  501    0  0.00000000000E+00  0.00000000000E+00  0.70608477404E+03  0.70608477404E+03  0.25500000920E-02 0.  1.
       -2   -1    0    0    0  501  0.00000000000E+00  0.00000000000E+00 -0.69301130932E+03  0.69301130933E+03  0.25500000920E-02 0. -1.
    10030    2    1    2    0    0  0.00000000000E+00  0.00000000000E+00  0.13073464716E+02  0.13990960834E+04  0.13990350014E+04 0.  0.
        3    1    3    3  502    0 -0.40288202922E+02 -0.98863493087E+02  0.69788999057E+03  0.70600820017E+03  0.10100000352E+00 0.  1.
       -3    1    3    3    0  502  0.40288202922E+02  0.98863493087E+02 -0.68481652586E+03  0.69308788321E+03  0.10100000352E+00 0. -1.
</event>
<event>
 5   0  0.1794185E-04  0.1401580E+04  0.7818609E-02  0.8952676E-01
        2   -1    0    0  501    0  0.00000000000E+00  0.00000000000E+00  0.78325594421E+03  0.78325594421E+03  0.25500000920E-02 0.  1.
       -2   -1    0    0    0  501  0.00000000000E+00  0.00000000000E+00 -0.62700631705E+03  0.62700631706E+03  0.25500000920E-02 0. -1.
    10030    2    1    2    0    0  0.00000000000E+00  0.00000000000E+00  0.15624962716E+03  0.14102622613E+04  0.14015797157E+04 0.  0.
        2    1    3    3  502    0 -0.29798857122E+03  0.61836366655E+02 -0.55704279479E+03  0.63475790665E+03  0.25500000920E-02 0. -1.
       -2    1    3    3    0  502  0.29798857122E+03 -0.61836366655E+02  0.71329242195E+03  0.77550435462E+03  0.25500000920E-02 0.  1.
</event>
<event>
 5   0  0.1780171E-04  0.1399515E+04  0.7818609E-02  0.8954170E-01
        2   -1    0    0  501    0  0.00000000000E+00  0.00000000000E+00  0.22549572346E+04  0.22549572346E+04  0.25500000920E-02 0.  1.
       -2   -1    0    0    0  501  0.00000000000E+00  0.00000000000E+00 -0.21714834414E+03  0.21714834416E+03  0.25500000920E-02 0. -1.
    10030    2    1    2    0    0  0.00000000000E+00  0.00000000000E+00  0.20378088904E+04  0.24721055788E+04  0.13995145296E+04 0.  0.
        5    1    3    3  502    0  0.19447628094E+02  0.26367887756E+03  0.21633005128E+04  0.21794026611E+04  0.46999998093E+01 0.  1.
       -5    1    3    3    0  502 -0.19447628094E+02 -0.26367887756E+03 -0.12549162234E+03  0.29270291763E+03  0.46999998093E+01 0. -1.
</event>
<event>
 5   0  0.6671375E-05  0.1399242E+04  0.7818609E-02  0.8954368E-01
        1   -1    0    0  501    0  0.00000000000E+00  0.00000000000E+00  0.27427232716E+04  0.27427232716E+04  0.50400001928E-02 0. -1.
       -1   -1    0    0    0  501  0.00000000000E+00  0.00000000000E+00 -0.17846105173E+03  0.17846105180E+03  0.50400001928E-02 0.  1.
    10030    2    1    2    0    0  0.00000000000E+00  0.00000000000E+00  0.25642622199E+04  0.29211843234E+04  0.13992416228E+04 0.  0.
        5    1    3    3  502    0  0.63195925290E+03 -0.11699975079E+03  0.18591266039E+04  0.19670880149E+04  0.46999998093E+01 0. -1.
       -5    1    3    3    0  502 -0.63195925290E+03  0.11699975079E+03  0.70513561601E+03  0.95409630855E+03  0.46999998093E+01 0.  1.
</event>
<event>
 5   0  0.6671375E-05  0.1400613E+04  0.7818609E-02  0.8953375E-01
       -1   -1    0    0    0  501  0.00000000000E+00  0.00000000000E+00  0.29541126714E+03  0.29541126719E+03  0.50400001928E-02 0.  1.
        1   -1    0    0  501    0  0.00000000000E+00  0.00000000000E+00 -0.16601571529E+04  0.16601571529E+04  0.50400001928E-02 0. -1.
    10030    2    1    2    0    0  0.00000000000E+00  0.00000000000E+00 -0.13647458858E+04  0.19555684201E+04  0.14006129062E+04 0.  0.
        5    1    3    3  502    0 -0.25747796576E+03 -0.26710225387E+03 -0.15116502932E+04  0.15565176567E+04  0.46999998093E+01 0. -1.
       -5    1    3    3    0  502  0.25747796576E+03  0.26710225387E+03  0.14690440737E+03  0.39905076341E+03  0.46999998093E+01 0.  1.
</event>
<event>
 5   0  0.1712327E-04  0.1399210E+04  0.7818609E-02  0.8954391E-01
       -2   -1    0    0    0  501  0.00000000000E+00  0.00000000000E+00  0.69634804234E+03  0.69634804234E+03  0.25500000920E-02 0.  1.
        2   -1    0    0  501    0  0.00000000000E+00  0.00000000000E+00 -0.70287690026E+03  0.70287690026E+03  0.25500000920E-02 0. -1.
    10030    2    1    2    0    0  0.00000000000E+00  0.00000000000E+00 -0.65288579198E+01  0.13992249426E+04  0.13992097105E+04 0.  0.
        1    1    3    3  502    0  0.17041844877E+03  0.56695773753E+03  0.36951761894E+03  0.69787305046E+03  0.50400001928E-02 0.  1.
       -1    1    3    3    0  502 -0.17041844877E+03 -0.56695773753E+03 -0.37604647686E+03  0.70135189214E+03  0.50400001928E-02 0. -1.
</event>
<event>
 5   0  0.9978422E-05  0.1411357E+04  0.7818609E-02  0.8945639E-01
        1   -1    0    0  501    0  0.00000000000E+00  0.00000000000E+00  0.31214231002E+03  0.31214231006E+03  0.50400001928E-02 0.  1.
       -1   -1    0    0    0  501  0.00000000000E+00  0.00000000000E+00 -0.15953689516E+04  0.15953689516E+04  0.50400001928E-02 0. -1.
    10030    2    1    2    0    0  0.00000000000E+00  0.00000000000E+00 -0.12832266416E+04  0.19075112617E+04  0.14113570065E+04 0.  0.
        2    1    3    3  502    0 -0.38391483728E+03 -0.55958511303E+03 -0.38004134742E+03  0.77779015599E+03  0.25500000920E-02 0.  1.
       -2    1    3    3    0  502  0.38391483728E+03  0.55958511303E+03 -0.90318529415E+03  0.11297211057E+04  0.25500000920E-02 0. -1.
</event>
<event>
 5   0  0.1794185E-04  0.1397717E+04  0.7818609E-02  0.8955473E-01
        2   -1    0    0  501    0  0.00000000000E+00  0.00000000000E+00  0.64106058919E+03  0.64106058919E+03  0.25500000920E-02 0.  1.
       -2   -1    0    0    0  501  0.00000000000E+00  0.00000000000E+00 -0.76186754992E+03  0.76186754992E+03  0.25500000920E-02 0. -1.
    10030    2    1    2    0    0  0.00000000000E+00  0.00000000000E+00 -0.12080696073E+03  0.14029281391E+04  0.13977170822E+04 0.  0.
        2    1    3    3  502    0 -0.30123198136E+03 -0.42219344979E+03  0.40976071452E+03  0.66097795638E+03  0.25500000920E-02 0.  1.
       -2    1    3    3    0  502  0.30123198136E+03  0.42219344979E+03 -0.53056767525E+03  0.74195018274E+03  0.25500000920E-02 0. -1.
</event>
<event>
 5   0  0.9260916E-05  0.1401013E+04  0.7818609E-02  0.8953086E-01
        1   -1    0    0  501    0  0.00000000000E+00  0.00000000000E+00  0.97068412433E+03  0.97068412434E+03  0.50400001928E-02 0. -1.
       -1   -1    0    0    0  501  0.00000000000E+00  0.00000000000E+00 -0.50552926223E+03  0.50552926225E+03  0.50400001928E-02 0.  1.
    10030    2    1    2    0    0  0.00000000000E+00  0.00000000000E+00  0.46515486210E+03  0.14762133866E+04  0.14010128183E+04 0.  0.
        1    1    3    3  502    0  0.33542721580E+03  0.24592330930E+03  0.82649885537E+03  0.92525134375E+03  0.50400001928E-02 0. -1.
       -1    1    3    3    0  502 -0.33542721580E+03 -0.24592330930E+03 -0.36134399327E+03  0.55096204284E+03  0.50400001928E-02 0.  1.
</event>
<event>
 5   0  0.1833681E-04  0.1400760E+04  0.7818609E-02  0.8953268E-01
        2   -1    0    0  501    0  0.00000000000E+00  0.00000000000E+00  0.53340376710E+03  0.53340376711E+03  0.25500000920E-02 0.  1.
       -2   -1    0    0    0  501  0.00000000000E+00  0.00000000000E+00 -0.91962684456E+03  0.91962684456E+03  0.25500000920E-02 0. -1.
    10030    2    1    2    0    0  0.00000000000E+00  0.00000000000E+00 -0.38622307745E+03  0.14530306117E+04  0.14007603981E+04 0.  0.
        4    1    3    3  502    0 -0.37420108620E+03 -0.27388929178E+03  0.35134479030E+03  0.58179598799E+03  0.12699999809E+01 0.  1.
       -4    1    3    3    0  502  0.37420108620E+03  0.27388929178E+03 -0.73756786775E+03  0.87123462368E+03  0.12699999809E+01 0. -1.
</event>
<event>
 5   0  0.9828111E-05  0.1384621E+04  0.7818609E-02  0.8965026E-01
        1   -1    0    0  501    0  0.00000000000E+00  0.00000000000E+00  0.44137533563E+03  0.44137533566E+03  0.50400001928E-02 0. -1.
       -1   -1    0    0    0  501  0.00000000000E+00  0.00000000000E+00 -0.10859100147E+04  0.10859100147E+04  0.50400001928E-02 0.  1.
    10030    2    1    2    0    0  0.00000000000E+00  0.00000000000E+00 -0.64453467911E+03  0.15272853504E+04  0.13846210994E+04 0.  0.
        4    1    3    3  502    0  0.46679227566E+02 -0.91857404450E+02 -0.10774037136E+04  0.10823202428E+04  0.12699999809E+01 0.  1.
       -4    1    3    3    0  502 -0.46679227566E+02  0.91857404450E+02  0.43286903450E+03  0.44496510758E+03  0.12699999809E+01 0. -1.
</event>
<event>
 5   0  0.1780171E-04  0.1390927E+04  0.7818609E-02  0.8960412E-01
       -2   -1    0    0    0  501  0.00000000000E+00  0.00000000000E+00  0.10231234245E+04  0.10231234245E+04  0.25500000920E-02 0.  1.
        2   -1    0    0  501    0  0.00000000000E+00  0.00000000000E+00 -0.47273803829E+03  0.47273803830E+03  0.25500000920E-02 0. -1.
    10030    2    1    2    0    0  0.00000000000E+00  0.00000000000E+00  0.55038538619E+03  0.14958614628E+04  0.13909268286E+04 0.  0.
        5    1    3    3  502    0  0.37959614755E+03  0.47179987110E+03 -0.92600560673E+02  0.61260534395E+03  0.46999998093E+01 0. -1.
       -5    1    3    3    0  502 -0.37959614755E+03 -0.47179987110E+03  0.64298594686E+03  0.88325611883E+03  0.46999998093E+01 0.  1.
</event>
<event>
 5   0  0.9828111E-05  0.1399402E+04  0.7818609E-02  0.8954252E-01
       -1   -1    0    0    0  501  0.00000000000E+00  0.00000000000E+00  0.33195225983E+03  0.33195225987E+03  0.50400001928E-02 0.  1.
        1   -1    0    0  501    0  0.00000000000E+00  0.00000000000E+00 -0.14748546673E+04  0.14748546673E+04  0.50400001928E-02 0. -1.
    10030    2    1    2    0    0  0.00000000000E+00  0.00000000000E+00 -0.11429024075E+04  0.18068069272E+04  0.13994017862E+04 0.  0.
        4    1    3    3  502    0  0.54723846798E+03  0.43601561357E+03 -0.57198475260E+03  0.90374096190E+03  0.12699999809E+01 0.  1.
       -4    1    3    3    0  502 -0.54723846798E+03 -0.43601561357E+03 -0.57091765490E+03  0.90306596530E+03  0.12699999809E+01 0. -1.
</event>
<event>
 5   0  0.6671375E-05  0.1404232E+04  0.7818609E-02  0.8950761E-01
        1   -1    0    0  501    0  0.00000000000E+00  0.00000000000E+00  0.11704723669E+04  0.11704723669E+04  0.50400001928E-02 0. -1.
       -1   -1    0    0    0  501  0.00000000000E+00  0.00000000000E+00 -0.42116889283E+03  0.42116889286E+03  0.50400001928E-02 0.  1.
    10030    2    1    2    0    0  0.00000000000E+00  0.00000000000E+00  0.74930347405E+03  0.15916412598E+04  0.14042315349E+04 0.  0.
        5    1    3    3  502    0  0.16596390217E+03 -0.40787564315E+03  0.99447744740E+03  0.10876185179E+04  0.46999998093E+01 0. -1.
       -5    1    3    3    0  502 -0.16596390217E+03  0.40787564315E+03 -0.24517397335E+03  0.50402274185E+03  0.46999998093E+01 0.  1.
</event>
<event>
 5   0  0.1712327E-04  0.1400807E+04  0.7818609E-02  0.8953235E-01
        2   -1    0    0  501    0  0.00000000000E+00  0.00000000000E+00  0.62941619079E+03  0.62941619080E+03  0.25500000920E-02 0. -1.
       -2   -1    0    0    0  501  0.00000000000E+00  0.00000000000E+00 -0.77939702474E+03  0.77939702475E+03  0.25500000920E-02 0.  1.
    10030    2    1    2    0    0  0.00000000000E+00  0.00000000000E+00 -0.14998083395E+03  0.14088132155E+04  0.14008070623E+04 0.  0.
        1    1    3    3  502    0 -0.69105859861E+03  0.98050187740E+02 -0.13354067902E+03  0.71063980961E+03  0.50400001928E-02 0.  1.
       -1    1    3    3    0  502  0.69105859861E+03 -0.98050187740E+02 -0.16440154933E+02  0.69817340593E+03  0.50400001928E-02 0. -1.
</event>
<event>
 5   0  0.9900839E-05  0.1399079E+04  0.7818609E-02  0.8954486E-01
       -1   -1    0    0    0  501  0.00000000000E+00  0.00000000000E+00  0.43536274727E+03  0.43536274729E+03  0.50400001928E-02 0.  1.
        1   -1    0    0  501    0  0.00000000000E+00  0.00000000000E+00 -0.11240174457E+04  0.11240174457E+04  0.50400001928E-02 0. -1.
    10030    2    1    2    0    0  0.00000000000E+00  0.00000000000E+00 -0.68865469839E+03  0.15593801930E+04  0.13990787299E+04 0.  0.
        3    1    3    3  502    0  0.98142503991E+02 -0.16899560596E+03  0.40431950677E+03  0.44907208740E+03  0.10100000352E+00 0.  1.
       -3    1    3    3    0  502 -0.98142503991E+02  0.16899560596E+03 -0.10929742052E+04  0.11103081056E+04  0.10100000352E+00 0. -1.
</event>
<event>
 5   0  0.1712327E-04  0.1401185E+04  0.7818609E-02  0.8952961E-01
        2   -1    0    0  501    0  0.00000000000E+00  0.00000000000E+00  0.11649599139E+04  0.11649599139E+04  0.25500000920E-02 0.  1.
       -2   -1    0    0    0  501  0.00000000000E+00  0.00000000000E+00 -0.42132782120E+03  0.42132782121E+03  0.25500000920E-02 0. -1.
    10030    2    1    2    0    0  0.00000000000E+00  0.00000000000E+00  0.74363209270E+03  0.15862877351E+04  0.14011852445E+04 0.  0.
        1    1    3    3  502    0 -0.35104822740E+03 -0.14484660082E+03  0.10383309329E+04  0.11055978120E+04  0.50400001928E-02 0.  1.
       -1    1    3    3    0  502  0.35104822740E+03  0.14484660082E+03 -0.29469884018E+03  0.48068992309E+03  0.50400001928E-02 0. -1.
</event>
<event>
 5   0  0.9900839E-05  0.1403428E+04  0.7818609E-02  0.8951341E-01
       -1   -1    0    0    0  501  0.00000000000E+00  0.00000000000E+00  0.29433936568E+03  0.29433936572E+03  0.50400001928E-02 0. -1.
        1   -1    0    0  501    0  0.00000000000E+00  0.00000000000E+00 -0.16729083992E+04  0.16729083992E+04  0.50400001928E-02 0.  1.
    10030    2    1    2    0    0  0.00000000000E+00  0.00000000000E+00 -0.13785690335E+04  0.19672477649E+04  0.14034283695E+04 0.  0.
        3    1    3    3  502    0  0.45931304585E+03  0.53021958896E+03 -0.66494495902E+03  0.96656768792E+03  0.10100000352E+00 0. -1.
       -3    1    3    3    0  502 -0.45931304585E+03 -0.53021958896E+03 -0.71362407452E+03  0.10006800770E+04  0.10100000352E+00 0.  1.
</event>
<event>
 5   0  0.6671375E-05  0.1400150E+04  0.7818609E-02  0.8953710E-01
        1   -1    0    0  501    0  0.00000000000E+00  0.00000000000E+00  0.68932495803E+03  0.68932495805E+03  0.50400001928E-02 0. -1.
       -1   -1    0    0    0  501  0.00000000000E+00  0.00000000000E+00 -0.71099306408E+03  0.71099306410E+03  0.50400001928E-02 0.  1.
    10030    2    1    2    0    0  0.00000000000E+00  0.00000000000E+00 -0.21668106044E+02  0.14003180221E+04  0.14001503692E+04 0.  0.
        5    1    3    3  502    0 -0.43583658536E+03  0.51977788256E+03 -0.18394607775E+03  0.70283769524E+03  0.46999998093E+01 0. -1.
       -5    1    3    3    0  502  0.43583658536E+03 -0.51977788256E+03  0.16227797170E+03  0.69748032691E+03  0.46999998093E+01 0.  1.
</event>
<event>
 5   0  0.1833681E-04  0.1400740E+04  0.7818609E-02  0.8953283E-01
       -2   -1    0    0    0  501  0.00000000000E+00  0.00000000000E+00  0.32637014931E+03  0.32637014932E+03  0.25500000920E-02 0. -1.
        2   -1    0    0  501    0  0.00000000000E+00  0.00000000000E+00 -0.15029509957E+04  0.15029509957E+04  0.25500000920E-02 0.  1.
    10030    2    1    2    0    0  0.00000000000E+00  0.00000000000E+00 -0.11765808464E+04  0.18293211450E+04  0.14007402912E+04 0.  0.
        4    1    3    3  502    0 -0.71766675782E+02 -0.22984778117E+03 -0.14471923928E+04  0.14670882362E+04  0.12699999809E+01 0.  1.
       -4    1    3    3    0  502  0.71766675782E+02  0.22984778117E+03  0.27061154640E+03  0.36223290878E+03  0.12699999809E+01 0. -1.
</event>
<event>
 5   0  0.1794185E-04  0.1428438E+04  0.7818609E-02  0.8933487E-01
       -2   -1    0    0    0  501  0.00000000000E+00  0.00000000000E+00  0.38378631081E+03  0.38378631082E+03  0.25500000920E-02 0.  1.
        2   -1    0    0  501    0  0.00000000000E+00  0.00000000000E+00 -0.13291473269E+04  0.13291473269E+04  0.25500000920E-02 0. -1.
    10030    2    1    2    0    0  0.00000000000E+00  0.00000000000E+00 -0.94536101608E+03  0.17129336377E+04  0.14284376768E+04 0.  0.
        2    1    3    3  502    0  0.19157758593E+03  0.39744216993E+03 -0.11461872687E+04  0.12281724247E+04  0.25500000920E-02 0. -1.
       -2    1    3    3    0  502 -0.19157758593E+03 -0.39744216993E+03  0.20082625263E+03  0.48476121300E+03  0.25500000920E-02 0.  1.
</event>
<event>
 5   0  0.9828111E-05  0.1387164E+04  0.7818609E-02  0.8963163E-01
        1   -1    0    0  501    0  0.00000000000E+00  0.00000000000E+00  0.89600878042E+03  0.89600878043E+03  0.50400001928E-02 0.  1.
       -1   -1    0    0    0  501  0.00000000000E+00  0.00000000000E+00 -0.53688769238E+03  0.53688769241E+03  0.50400001928E-02 0. -1.
    10030    2    1    2    0    0  0.00000000000E+00  0.00000000000E+00  0.35912108804E+03  0.14328964728E+04  0.13871641381E+04 0.  0.
        4    1    3    3  502    0 -0.56552693177E+03 -0.12043653996E+03 -0.21611995631E+03  0.61728042180E+03  0.12699999809E+01 0. -1.
       -4    1    3    3    0  502  0.56552693177E+03  0.12043653996E+03  0.57524104435E+03  0.81561605104E+03  0.12699999809E+01 0.  1.
</event>
<event>
 5   0  0.6671375E-05  0.1399739E+04  0.7818609E-02  0.8954007E-01
       -1   -1    0    0    0  501  0.00000000000E+00  0.00000000000E+00  0.46080603975E+03  0.46080603978E+03  0.50400001928E-02 0.  1.
        1   -1    0    0  501    0  0.00000000000E+00  0.00000000000E+00 -0.10629576792E+04  0.10629576792E+04  0.50400001928E-02 0. -1.
    10030    2    1    2    0    0  0.00000000000E+00  0.00000000000E+00 -0.60215163941E+03  0.15237637190E+04  0.13997390022E+04 0.  0.
        5    1    3    3  502    0 -0.68710733529E+03 -0.11487940491E+03 -0.22820051875E+03  0.73308344316E+03  0.46999998093E+01 0.  1.
       -5    1    3    3    0  502  0.68710733529E+03  0.11487940491E+03 -0.37395112066E+03  0.79068027579E+03  0.46999998093E+01 0. -1.
</event>
<event>
 5   0  0.1780171E-04  0.1396960E+04  0.7818609E-02  0.8956022E-01
       -2   -1    0    0    0  501  0.00000000000E+00  0.00000000000E+00  0.36687512927E+03  0.36687512928E+03  0.25500000920E-02 0.  1.
        2   -1    0    0  501    0  0.00000000000E+00  0.00000000000E+00 -0.13298101570E+04  0.13298101570E+04  0.25500000920E-02 0. -1.
    10030    2    1    2    0    0  0.00000000000E+00  0.00000000000E+00 -0.96293502772E+03  0.16966852863E+04  0.13969599468E+04 0.  0.
        5    1    3    3  502    0  0.15427154768E+03  0.26093704508E+03 -0.12457349796E+04  0.12820942170E+04  0.46999998093E+01 0. -1.
       -5    1    3    3    0  502 -0.15427154768E+03 -0.26093704508E+03  0.28279995189E+03  0.41459106925E+03  0.46999998093E+01 0.  1.
</event>
<event>
 5   0  0.9260916E-05  0.1392753E+04  0.7818609E-02  0.8959081E-01
        1   -1    0    0  501    0  0.00000000000E+00  0.00000000000E+00  0.86493607105E+03  0.86493607107E+03  0.50400001928E-02 0.  1.
       -1   -1    0    0    0  501  0.00000000000E+00  0.00000000000E+00 -0.56066606797E+03  0.56066606800E+03  0.50400001928E-02 0. -1.
    10030    2    1    2    0    0  0.00000000000E+00  0.00000000000E+00  0.30427000308E+03  0.14256021391E+04  0.13927531095E+04 0.  0.
        1    1    3    3  502    0 -0.34723868355E+03 -0.35792715903E+03 -0.34538845180E+03  0.60661333417E+03  0.50400001928E-02 0. -1.
       -1    1    3    3    0  502  0.34723868355E+03  0.35792715903E+03  0.64965845488E+03  0.81898880490E+03  0.50400001928E-02 0.  1.
</event>
<event>
 5   0  0.1833681E-04  0.1403693E+04  0.7818609E-02  0.8951150E-01
        2   -1    0    0  501    0  0.00000000000E+00  0.00000000000E+00  0.12630473132E+04  0.12630473132E+04  0.25500000920E-02 0. -1.
       -2   -1    0    0    0  501  0.00000000000E+00  0.00000000000E+00 -0.39000004428E+03  0.39000004428E+03  0.25500000920E-02 0.  1.
    10030    2    1    2    0    0  0.00000000000E+00  0.00000000000E+00  0.87304726895E+03  0.16530473575E+04  0.14036929979E+04 0.  0.
        4    1    3    3  502    0  0.25461491223E+01 -0.40569591743E+03  0.11109651275E+04  0.11827259986E+04  0.12699999809E+01 0. -1.
       -4    1    3    3    0  502 -0.25461491223E+01  0.40569591743E+03 -0.23791785860E+03  0.47032135889E+03  0.12699999809E+01 0.  1.
</event>
<event>
 5   0  0.9978422E-05  0.1399320E+04  0.7818609E-02  0.8954311E-01
       -1   -1    0    0    0  501  0.00000000000E+00  0.00000000000E+00  0.63568668923E+03  0.63568668925E+03  0.50400001928E-02 0.  1.
        1   -1    0    0  501    0  0.00000000000E+00  0.00000000000E+00 -0.77007162473E+03  0.77007162475E+03  0.50400001928E-02 0. -1.
    10030    2    1    2    0    0  0.00000000000E+00  0.00000000000E+00 -0.13438493551E+03  0.14057583140E+04  0.13993202373E+04 0.  0.
        2    1    3    3  502    0  0.39420979039E+03  0.51701029888E+02 -0.64555814092E+03  0.75816862811E+03  0.25500000920E-02 0. -1.
       -2    1    3    3    0  502 -0.39420979039E+03 -0.51701029888E+02  0.51117320542E+03  0.64758968589E+03  0.25500000920E-02 0.  1.
</event>
<event>
 5   0  0.9978422E-05  0.1399769E+04  0.7818609E-02  0.8953985E-01
       -1   -1    0    0    0  501  0.00000000000E+00  0.00000000000E+00  0.53806621307E+03  0.53806621309E+03  0.50400001928E-02 0. -1.
        1   -1    0    0  501    0  0.00000000000E+00  0.00000000000E+00 -0.91036869004E+03  0.91036869005E+03  0.50400001928E-02 0.  1.
    10030    2    1    2    0    0  0.00000000000E+00  0.00000000000E+00 -0.37230247697E+03  0.14484349031E+04  0.13997694575E+04 0.  0.
        2    1    3    3  502    0 -0.27309851570E+03  0.37430383951E+03  0.35663543497E+03  0.58470077564E+03  0.25500000920E-02 0. -1.
       -2    1    3    3    0  502  0.27309851570E+03 -0.37430383951E+03 -0.72893791194E+03  0.86373412750E+03  0.25500000920E-02 0.  1.
</event>
<event>
 5   0  0.1794185E-04  0.1398452E+04  0.7818609E-02  0.8954940E-01
        2   -1    0    0  501    0  0.00000000000E+00  0.00000000000E+00  0.49076778780E+03  0.49076778781E+03  0.25500000920E-02 0.  1.
       -2   -1    0    0    0  501  0.00000000000E+00  0.00000000000E+00 -0.99622816144E+03  0.99622816144E+03  0.25500000920E-02 0. -1.
    10030    2    1    2    0    0  0.00000000000E+00  0.00000000000E+00 -0.50546037364E+03  0.14869959492E+04  0.13984515593E+04 0.  0.
        2    1    3    3  502    0 -0.44341312511E+03 -0.47087324243E+03  0.29759644140E+02  0.64747389629E+03  0.25500000920E-02 0.  1.
       -2    1    3    3    0  502  0.44341312511E+03  0.47087324243E+03 -0.53522001778E+03  0.83952205295E+03  0.25500000920E-02 0. -1.
</event>
<event>
 5   0  0.6671375E-05  0.1406372E+04  0.7818609E-02  0.8949219E-01
        1   -1    0    0  501    0  0.00000000000E+00  0.00000000000E+00  0.75801581943E+03  0.75801581944E+03  0.50400001928E-02 0.  1.
       -1   -1    0    0    0  501  0.00000000000E+00  0.00000000000E+00 -0.65232197990E+03  0.65232197992E+03  0.50400001928E-02 0. -1.
    10030    2    1    2    0    0  0.00000000000E+00  0.00000000000E+00  0.10569383952E+03  0.14103377994E+04  0.14063717576E+04 0.  0.
        5    1    3    3  502    0 -0.67403470915E+03  0.53165224303E+02  0.24652094124E+03  0.71968325997E+03  0.46999998093E+01 0.  1.
       -5    1    3    3    0  502  0.67403470915E+03 -0.53165224303E+02 -0.14082710171E+03  0.69065453939E+03  0.46999998093E+01 0. -1.
</event>
<event>
 5   0  0.9828111E-05  0.1401576E+04  0.7818609E-02  0.8952678E-01
        1   -1    0    0  501    0  0.00000000000E+00  0.00000000000E+00  0.70808786778E+03  0.70808786780E+03  0.50400001928E-02 0. -1.
       -1   -1    0    0    0  501  0.00000000000E+00  0.00000000000E+00 -0.69356364328E+03  0.69356364330E+03  0.50400001928E-02 0.  1.
    10030    2    1    2    0    0  0.00000000000E+00  0.00000000000E+00  0.14524224495E+02  0.14016515111E+04  0.14015762575E+04 0.  0.
        4    1    3    3  502    0  0.68090332110E+03 -0.16489181701E+03 -0.95835083137E+01  0.70065119748E+03  0.12699999809E+01 0. -1.
       -4    1    3    3    0  502 -0.68090332110E+03  0.16489181701E+03  0.24107732809E+02  0.70100031361E+03  0.12699999809E+01 0.  1.
</event>
<event>
 5   0  0.6671375E-05  0.1412976E+04  0.7818609E-02  0.8944479E-01
        1   -1    0    0  501    0  0.00000000000E+00  0.00000000000E+00  0.50226455864E+03  0.50226455866E+03  0.50400001928E-02 0.  1.
       -1   -1    0    0    0  501  0.00000000000E+00  0.00000000000E+00 -0.99375043425E+03  0.99375043427E+03  0.50400001928E-02 0. -1.
    10030    2    1    2    0    0  0.00000000000E+00  0.00000000000E+00 -0.49148587562E+03  0.14960149929E+04  0.14129764659E+04 0.  0.
        5    1    3    3  502    0 -0.26703830977E+01 -0.85635385684E+02  0.49672710405E+03  0.50408377888E+03  0.46999998093E+01 0.  1.
       -5    1    3    3    0  502  0.26703830977E+01  0.85635385684E+02 -0.98821297967E+03  0.99193121405E+03  0.46999998093E+01 0. -1.
</event>
<event>
 5   0  0.1794185E-04  0.1392857E+04  0.7818609E-02  0.8959005E-01
       -2   -1    0    0    0  501  0.00000000000E+00  0.00000000000E+00  0.28447248332E+03  0.28447248333E+03  0.25500000920E-02 0.  1.
        2   -1    0    0  501    0  0.00000000000E+00  0.00000000000E+00 -0.17049552772E+04  0.17049552772E+04  0.25500000920E-02 0. -1.
    10030    2    1    2    0    0  0.00000000000E+00  0.00000000000E+00 -0.14204827939E+04  0.19894277605E+04  0.13928572959E+04 0.  0.
        2    1    3    3  502    0 -0.29712385841E+03  0.29479916334E+03  0.84780129276E+02  0.42705597322E+03  0.25500000920E-02 0.  1.
       -2    1    3    3    0  502  0.29712385841E+03 -0.29479916334E+03 -0.15052629231E+04  0.15623717873E+04  0.25500000920E-02 0. -1.
</event>
<event>
 5   0  0.1794185E-04  0.1400586E+04  0.7818609E-02  0.8953395E-01
        2   -1    0    0  501    0  0.00000000000E+00  0.00000000000E+00  0.19172770248E+04  0.19172770248E+04  0.25500000920E-02 0.  1.
       -2   -1    0    0    0  501  0.00000000000E+00  0.00000000000E+00 -0.25578462471E+03  0.25578462472E+03  0.25500000920E-02 0. -1.
    10030    2    1    2    0    0  0.00000000000E+00  0.00000000000E+00  0.16614924001E+04  0.21730616495E+04  0.14005855693E+04 0.  0.
        2    1    3    3  502    0 -0.12361450381E+03 -0.28255035959E+03 -0.14474400704E+03  0.34068472058E+03  0.25500000920E-02 0. -1.
       -2    1    3    3    0  502  0.12361450381E+03  0.28255035959E+03  0.18062364071E+04  0.18323769289E+04  0.25500000920E-02 0.  1.
</event>
<event>
 5   0  0.9260916E-05  0.1402769E+04  0.7818609E-02  0.8951817E-01
       -1   -1    0    0    0  501  0.00000000000E+00  0.00000000000E+00  0.40177569665E+03  0.40177569669E+03  0.50400001928E-02 0.  1.
        1   -1    0    0  501    0  0.00000000000E+00  0.00000000000E+00 -0.12244146141E+04  0.12244146141E+04  0.50400001928E-02 0. -1.
    10030    2    1    2    0    0  0.00000000000E+00  0.00000000000E+00 -0.82263891740E+03  0.16261903107E+04  0.14027687402E+04 0.  0.
        1    1    3    3  502    0 -0.66268981480E+03  0.12258468132E+03 -0.63657418205E+03  0.92704448869E+03  0.50400001928E-02 0.  1.
       -1    1    3    3    0  502  0.66268981480E+03 -0.12258468132E+03 -0.18606473535E+03  0.69914582206E+03  0.50400001928E-02 0. -1.
</event>
<event>
 5   0  0.1766237E-04  0.1398569E+04  0.7818609E-02  0.8954855E-01
       -2   -1    0    0    0  501  0.00000000000E+00  0.00000000000E+00  0.31600801124E+03  0.31600801125E+03  0.25500000920E-02 0. -1.
        2   -1    0    0  501    0  0.00000000000E+00  0.00000000000E+00 -0.15474243820E+04  0.15474243820E+04  0.25500000920E-02 0.  1.
    10030    2    1    2    0    0  0.00000000000E+00  0.00000000000E+00 -0.12314163707E+04  0.18634323932E+04  0.13985685561E+04 0.  0.
        3    1    3    3  502    0  0.46387846419E+03  0.17132689059E+03 -0.12744813195E+04  0.13670547819E+04  0.10100000352E+00 0.  1.
       -3    1    3    3    0  502 -0.46387846419E+03 -0.17132689059E+03  0.43064948718E+02  0.49637761129E+03  0.10100000352E+00 0. -1.
</event>
<event>
 5   0  0.1766237E-04  0.1402998E+04  0.7818609E-02  0.8951651E-01
       -2   -1    0    0    0  501  0.00000000000E+00  0.00000000000E+00  0.23289779094E+03  0.23289779096E+03  0.25500000920E-02 0. -1.
        2   -1    0    0  501    0  0.00000000000E+00  0.00000000000E+00 -0.21129478075E+04  0.21129478075E+04  0.25500000920E-02 0.  1.
    10030    2    1    2    0    0  0.00000000000E+00  0.00000000000E+00 -0.18800500166E+04  0.23458455985E+04  0.14029980424E+04 0.  0.
        3    1    3    3  502    0  0.67531548481E+03 -0.15249320263E+03 -0.11291609824E+04  0.13245035732E+04  0.10100000352E+00 0. -1.
       -3    1    3    3    0  502 -0.67531548481E+03  0.15249320263E+03 -0.75088903417E+03  0.10213420253E+04  0.10100000352E+00 0.  1.
</event>
<event>
 5   0  0.1833681E-04  0.1399273E+04  0.7818609E-02  0.8954345E-01
       -2   -1    0    0    0  501  0.00000000000E+00  0.00000000000E+00  0.60401415400E+03  0.60401415401E+03  0.25500000920E-02 0. -1.
        2   -1    0    0  501    0  0.00000000000E+00  0.00000000000E+00 -0.81039676070E+03  0.81039676071E+03  0.25500000920E-02 0.  1.
    10030    2    1    2    0    0  0.00000000000E+00  0.00000000000E+00 -0.20638260670E+03  0.14144109147E+04  0.13992728309E+04 0.  0.
        4    1    3    3  502    0  0.25859121624E+03 -0.52725733625E+03 -0.48759455562E+03  0.76329534213E+03  0.12699999809E+01 0.  1.
       -4    1    3    3    0  502 -0.25859121624E+03  0.52725733625E+03  0.28121194892E+03  0.65111557258E+03  0.12699999809E+01 0. -1.
</event>
<event>
 5   0  0.9828111E-05  0.1391594E+04  0.7818609E-02  0.8959926E-01
       -1   -1    0    0    0  501  0.00000000000E+00  0.00000000000E+00  0.51988588469E+03  0.51988588471E+03  0.50400001928E-02 0. -1.
        1   -1    0    0  501    0  0.00000000000E+00  0.00000000000E+00 -0.93123034835E+03  0.93123034836E+03  0.50400001928E-02 0.  1.
    10030    2    1    2    0    0  0.00000000000E+00  0.00000000000E+00 -0.41134446366E+03  0.14511162331E+04  0.13915940694E+04 0.  0.
        4    1    3    3  502    0 -0.57170472074E+02  0.69001685978E+03 -0.13387848252E+03  0.70520691335E+03  0.12699999809E+01 0.  1.
       -4    1    3    3    0  502  0.57170472074E+02 -0.69001685978E+03 -0.27746598115E+03  0.74590931972E+03  0.12699999809E+01 0. -1.
</event>
<event>
 5   0  0.9828111E-05  0.1390097E+04  0.7818609E-02  0.8961018E-01
        1   -1    0    0  501    0  0.00000000000E+00  0.00000000000E+00  0.75446829757E+03  0.75446829759E+03  0.50400001928E-02 0. -1.
       -1   -1    0    0    0  501  0.00000000000E+00  0.00000000000E+00 -0.64030859501E+03  0.64030859503E+03  0.50400001928E-02 0.  1.
    10030    2    1    2    0    0  0.00000000000E+00  0.00000000000E+00  0.11415970257E+03  0.13947768926E+04  0.13900971702E+04 0.  0.
        4    1    3    3  502    0  0.10882656806E+03 -0.56500174417E+03  0.44829079139E+03  0.72940828030E+03  0.12699999809E+01 0. -1.
       -4    1    3    3    0  502 -0.10882656806E+03  0.56500174417E+03 -0.33413108882E+03  0.66536861231E+03  0.12699999809E+01 0.  1.
</event>
<event>
 5   0  0.1780171E-04  0.1401765E+04  0.7818609E-02  0.8952542E-01
       -2   -1    0    0    0  501  0.00000000000E+00  0.00000000000E+00  0.46544709279E+03  0.46544709280E+03  0.25500000920E-02 0.  1.
        2   -1    0    0  501    0  0.00000000000E+00  0.00000000000E+00 -0.10554075311E+04  0.10554075311E+04  0.25500000920E-02 0. -1.
    10030    2    1    2    0    0  0.00000000000E+00  0.00000000000E+00 -0.58996043834E+03  0.15208546239E+04  0.14017651260E+04 0.  0.
        5    1    3    3  502    0 -0.41867872313E+02  0.62838607961E+03  0.38707580908E+02  0.63098522217E+03  0.46999998093E+01 0. -1.
       -5    1    3    3    0  502  0.41867872313E+02 -0.62838607961E+03 -0.62866801925E+03  0.88986940177E+03  0.46999998093E+01 0.  1.
</event>
<event>
 5   0  0.9828111E-05  0.1400951E+04  0.7818609E-02  0.8953130E-01
       -1   -1    0    0    0  501  0.00000000000E+00  0.00000000000E+00  0.62135668002E+03  0.62135668004E+03  0.50400001928E-02 0.  1.
        1   -1    0    0  501    0  0.00000000000E+00  0.00000000000E+00 -0.78966924717E+03  0.78966924718E+03  0.50400001928E-02 0. -1.
    10030    2    1    2    0    0  0.00000000000E+00  0.00000000000E+00 -0.16831256715E+03  0.14110259272E+04  0.14009514792E+04 0.  0.
        4    1    3    3  502    0 -0.42877838132E+03  0.16711706053E+03  0.44773757216E+03  0.64206663099E+03  0.12699999809E+01 0.  1.
       -4    1    3    3    0  502  0.42877838132E+03 -0.16711706053E+03 -0.61605013931E+03  0.76895929623E+03  0.12699999809E+01 0. -1.
</event>
<event>
 5   0  0.1766237E-04  0.1393070E+04  0.7818609E-02  0.8958850E-01
        2   -1    0    0  501    0  0.00000000000E+00  0.00000000000E+00  0.11537885055E+04  0.11537885055E+04  0.25500000920E-02 0. -1.
       -2   -1    0    0    0  501  0.00000000000E+00  0.00000000000E+00 -0.42049359738E+03  0.42049359738E+03  0.25500000920E-02 0.  1.
    10030    2    1    2    0    0  0.00000000000E+00  0.00000000000E+00  0.73329490816E+03  0.15742821029E+04  0.13930695307E+04 0.  0.
        3    1    3    3  502    0 -0.40395674764E+03 -0.43683532759E+03  0.77590941643E+03  0.97777379291E+03  0.10100000352E+00 0. -1.
       -3    1    3    3    0  502  0.40395674764E+03  0.43683532759E+03 -0.42614508270E+02  0.59650831001E+03  0.10100000352E+00 0.  1.
</event>
<event>
 5   0  0.1766237E-04  0.1400162E+04  0.7818609E-02  0.8953702E-01
        2   -1    0    0  501    0  0.00000000000E+00  0.00000000000E+00  0.65001517772E+03  0.65001517773E+03  0.25500000920E-02 0.  1.
       -2   -1    0    0    0  501  0.00000000000E+00  0.00000000000E+00 -0.75400261945E+03  0.75400261946E+03  0.25500000920E-02 0. -1.
    10030    2    1    2    0    0  0.00000000000E+00  0.00000000000E+00 -0.10398744173E+03  0.14040177972E+04  0.14001616288E+04 0.  0.
        3    1    3    3  502    0  0.21302172101E+02 -0.27535017392E+03 -0.69707068314E+03  0.74978600168E+03  0.10100000352E+00 0. -1.
       -3    1    3    3    0  502 -0.21302172101E+02  0.27535017392E+03  0.59308324141E+03  0.65423179551E+03  0.10100000352E+00 0.  1.
</event>
<event>
 5   0  0.9828111E-05  0.1400251E+04  0.7818609E-02  0.8953637E-01
        1   -1    0    0  501    0  0.00000000000E+00  0.00000000000E+00  0.15209175508E+04  0.15209175508E+04  0.50400001928E-02 0. -1.
       -1   -1    0    0    0  501  0.00000000000E+00  0.00000000000E+00 -0.32228963479E+03  0.32228963483E+03  0.50400001928E-02 0.  1.
    10030    2    1    2    0    0  0.00000000000E+00  0.00000000000E+00  0.11986279160E+04  0.18432071856E+04  0.14002513518E+04 0.  0.
        4    1    3    3  502    0 -0.20614312584E+03 -0.49362683776E+03  0.47536530721E+01  0.53496416086E+03  0.12699999809E+01 0. -1.
       -4    1    3    3    0  502  0.20614312584E+03  0.49362683776E+03  0.11938742629E+04  0.13082430248E+04  0.12699999809E+01 0.  1.
</event>
<event>
 5   0  0.9900839E-05  0.1399827E+04  0.7818609E-02  0.8953944E-01
        1   -1    0    0  501    0  0.00000000000E+00  0.00000000000E+00  0.13761317360E+04  0.13761317360E+04  0.50400001928E-02 0.  1.
       -1   -1    0    0    0  501  0.00000000000E+00  0.00000000000E+00 -0.35598236570E+03  0.35598236574E+03  0.50400001928E-02 0. -1.
    10030    2    1    2    0    0  0.00000000000E+00  0.00000000000E+00  0.10201493703E+04  0.17321141018E+04  0.13998266049E+04 0.  0.
        3    1    3    3  502    0 -0.41647786667E+03  0.45714725189E+03  0.91566509162E+03  0.11049343843E+04  0.10100000352E+00 0.  1.
       -3    1    3    3    0  502  0.41647786667E+03 -0.45714725189E+03  0.10448427869E+03  0.62717971749E+03  0.10100000352E+00 0. -1.
</event>
<event>
 5   0  0.9828111E-05  0.1403687E+04  0.7818609E-02  0.8951154E-01
       -1   -1    0    0    0  501  0.00000000000E+00  0.00000000000E+00  0.24994874602E+03  0.24994874607E+03  0.50400001928E-02 0. -1.
        1   -1    0    0  501    0  0.00000000000E+00  0.00000000000E+00 -0.19707414892E+04  0.19707414892E+04  0.50400001928E-02 0.  1.
    10030    2    1    2    0    0  0.00000000000E+00  0.00000000000E+00 -0.17207927432E+04  0.22206902353E+04  0.14036870934E+04 0.  0.
        4    1    3    3  502    0  0.16073389236E+02 -0.86228495791E+02  0.24124151108E+03  0.25669590354E+03  0.12699999809E+01 0. -1.
       -4    1    3    3    0  502 -0.16073389236E+02  0.86228495791E+02 -0.19620342543E+04  0.19639943318E+04  0.12699999809E+01 0.  1.
</event>
<event>
 5   0  0.1780171E-04  0.1399899E+04  0.7818609E-02  0.8953891E-01
       -2   -1    0    0    0  501  0.00000000000E+00  0.00000000000E+00  0.19838931397E+03  0.19838931398E+03  0.25500000920E-02 0.  1.
        2   -1    0    0  501    0  0.00000000000E+00  0.00000000000E+00 -0.24695355810E+04  0.24695355810E+04  0.25500000920E-02 0. -1.
    10030    2    1    2    0    0  0.00000000000E+00  0.00000000000E+00 -0.22711462671E+04  0.26679248950E+04  0.13998992389E+04 0.  0.
        5    1    3    3  502    0  0.69043896028E+03  0.11080047175E+03 -0.10776206659E+04  0.12846287760E+04  0.46999998093E+01 0. -1.
       -5    1    3    3    0  502 -0.69043896028E+03 -0.11080047175E+03 -0.11935256011E+04  0.13832961190E+04  0.46999998093E+01 0.  1.
</event>
<event>
 5   0  0.9828111E-05  0.1400673E+04  0.7818609E-02  0.8953332E-01
       -1   -1    0    0    0  501  0.00000000000E+00  0.00000000000E+00  0.93657614405E+03  0.93657614406E+03  0.50400001928E-02 0. -1.
        1   -1    0    0  501    0  0.00000000000E+00  0.00000000000E+00 -0.52368524000E+03  0.52368524002E+03  0.50400001928E-02 0.  1.
    10030    2    1    2    0    0  0.00000000000E+00  0.00000000000E+00  0.41289090405E+03  0.14602613841E+04  0.14006728423E+04 0.  0.
        4    1    3    3  502    0 -0.15826084600E+03  0.41880070039E+02  0.91634671410E+03  0.93085624507E+03  0.12699999809E+01 0. -1.
       -4    1    3    3    0  502  0.15826084600E+03 -0.41880070039E+02 -0.50345581005E+03  0.52940513902E+03  0.12699999809E+01 0.  1.
</event>
<event>
 5   0  0.6671375E-05  0.1400145E+04  0.7818609E-02  0.8953713E-01
        1   -1    0    0  501    0  0.00000000000E+00  0.00000000000E+00  0.57925084643E+03  0.57925084645E+03  0.50400001928E-02 0. -1.
       -1   -1    0    0    0  501  0.00000000000E+00  0.00000000000E+00 -0.84609566524E+03  0.84609566525E+03  0.50400001928E-02 0.  1.
    10030    2    1    2    0    0  0.00000000000E+00  0.00000000000E+00 -0.26684481881E+03  0.14253465117E+04  0.14001451786E+04 0.  0.
        5    1    3    3  502    0  0.47801467152E+02 -0.69582483795E+03 -0.19469170495E+03  0.72414372562E+03  0.46999998093E+01 0.  1.
       -5    1    3    3    0  502 -0.47801467152E+02  0.69582483795E+03 -0.72153113861E+02  0.70120278608E+03  0.46999998093E+01 0. -1.
</event>
<event>
 5   0  0.9978422E-05  0.1400458E+04  0.7818609E-02  0.8953487E-01
        1   -1    0    0  501    0  0.00000000000E+00  0.00000000000E+00  0.86138898618E+03  0.86138898620E+03  0.50400001928E-02 0.  1.
       -1   -1    0    0    0  501  0.00000000000E+00  0.00000000000E+00 -0.56922070229E+03  0.56922070231E+03  0.50400001928E-02 0. -1.
    10030    2    1    2    0    0  0.00000000000E+00  0.00000000000E+00  0.29216828389E+03  0.14306096885E+04  0.14004577019E+04 0.  0.
        2    1    3    3  502    0 -0.69343751524E+02  0.45283698814E+03 -0.39489349631E+03  0.60482292213E+03  0.25500000920E-02 0. -1.
       -2    1    3    3    0  502  0.69343751524E+02 -0.45283698814E+03  0.68706178020E+03  0.82578676638E+03  0.25500000920E-02 0.  1.
</event>
<event>
 5   0  0.6671375E-05  0.1401515E+04  0.7818609E-02  0.8952723E-01
        1   -1    0    0  501    0  0.00000000000E+00  0.00000000000E+00  0.17937444234E+04  0.17937444234E+04  0.50400001928E-02 0.  1.
       -1   -1    0    0    0  501  0.00000000000E+00  0.00000000000E+00 -0.27376318968E+03  0.27376318972E+03  0.50400001928E-02 0. -1.
    10030    2    1    2    0    0  0.00000000000E+00  0.00000000000E+00  0.15199812337E+04  0.20675076131E+04  0.14015151728E+04 0.  0.
        5    1    3    3  502    0  0.81801260709E+02  0.20390602231E+02  0.17862128775E+04  0.17882074143E+04  0.46999998093E+01 0.  1.
       -5    1    3    3    0  502 -0.81801260709E+02 -0.20390602231E+02 -0.26623164377E+03  0.27930019881E+03  0.46999998093E+01 0. -1.
</event>
<event>
 5   0  0.1794185E-04  0.1398875E+04  0.7818609E-02  0.8954633E-01
       -2   -1    0    0    0  501  0.00000000000E+00  0.00000000000E+00  0.34782859230E+03  0.34782859231E+03  0.25500000920E-02 0. -1.
        2   -1    0    0  501    0  0.00000000000E+00  0.00000000000E+00 -0.14064774183E+04  0.14064774183E+04  0.25500000920E-02 0.  1.
    10030    2    1    2    0    0  0.00000000000E+00  0.00000000000E+00 -0.10586488260E+04  0.17543060106E+04  0.13988753490E+04 0.  0.
        2    1    3    3  502    0 -0.19182001368E+03  0.13256976911E+03  0.29765133820E+03  0.37810842423E+03  0.25500000920E-02 0. -1.
       -2    1    3    3    0  502  0.19182001368E+03 -0.13256976911E+03 -0.13563001642E+04  0.13761975864E+04  0.25500000920E-02 0.  1.
</event>
<event>
 5   0  0.1833681E-04  0.1399338E+04  0.7818609E-02  0.8954298E-01
        2   -1    0    0  501    0  0.00000000000E+00  0.00000000000E+00  0.10482617540E+04  0.10482617540E+04  0.25500000920E-02 0.  1.
       -2   -1    0    0    0  501  0.00000000000E+00  0.00000000000E+00 -0.46699878601E+03  0.46699878602E+03  0.25500000920E-02 0. -1.
    10030    2    1    2    0    0  0.00000000000E+00  0.00000000000E+00  0.58126296803E+03  0.15152605401E+04  0.13993383673E+04 0.  0.
        4    1    3    3  502    0 -0.34213044535E+03 -0.36241299586E+03 -0.24110717834E+03  0.55365215212E+03  0.12699999809E+01 0. -1.
       -4    1    3    3    0  502  0.34213044535E+03  0.36241299586E+03  0.82237014637E+03  0.96160838793E+03  0.12699999809E+01 0.  1.
</event>
<event>
 5   0  0.1766237E-04  0.1398961E+04  0.7818609E-02  0.8954571E-01
       -2   -1    0    0    0  501  0.00000000000E+00  0.00000000000E+00  0.67005307085E+03  0.67005307085E+03  0.25500000920E-02 0. -1.
        2   -1    0    0  501    0  0.00000000000E+00  0.00000000000E+00 -0.73020039233E+03  0.73020039233E+03  0.25500000920E-02 0.  1.
    10030    2    1    2    0    0  0.00000000000E+00  0.00000000000E+00 -0.60147321481E+02  0.14002534632E+04  0.13989610648E+04 0.  0.
        3    1    3    3  502    0  0.44585825919E+03 -0.42264155837E+03 -0.36483372467E+03  0.71450621482E+03  0.10100000352E+00 0.  1.
       -3    1    3    3    0  502 -0.44585825919E+03  0.42264155837E+03  0.30468640319E+03  0.68574724837E+03  0.10100000352E+00 0. -1.
</event>
<event>
 5   0  0.9828111E-05  0.1400645E+04  0.7818609E-02  0.8953352E-01
        1   -1    0    0  501    0  0.00000000000E+00  0.00000000000E+00  0.14071115128E+04  0.14071115128E+04  0.50400001928E-02 0.  1.
       -1   -1    0    0    0  501  0.00000000000E+00  0.00000000000E+00 -0.34855191017E+03  0.34855191021E+03  0.50400001928E-02 0. -1.
    10030    2    1    2    0    0  0.00000000000E+00  0.00000000000E+00  0.10585596026E+04  0.17556634230E+04  0.14006447168E+04 0.  0.
        4    1    3    3  502    0  0.68052035684E+03 -0.11960329940E+03  0.67239976974E+03  0.96412445699E+03  0.12699999809E+01 0.  1.
       -4    1    3    3    0  502 -0.68052035684E+03  0.11960329940E+03  0.38615983287E+03  0.79153896602E+03  0.12699999809E+01 0. -1.
</event>
<event>
 5   0  0.9900839E-05  0.1401334E+04  0.7818609E-02  0.8952853E-01
       -1   -1    0    0    0  501  0.00000000000E+00  0.00000000000E+00  0.36067872002E+03  0.36067872005E+03  0.50400001928E-02 0.  1.
        1   -1    0    0  501    0  0.00000000000E+00  0.00000000000E+00 -0.13611404050E+04  0.13611404050E+04  0.50400001928E-02 0. -1.
    10030    2    1    2    0    0  0.00000000000E+00  0.00000000000E+00 -0.10004616850E+04  0.17218191251E+04  0.14013341915E+04 0.  0.
        3    1    3    3  502    0 -0.21150152886E+03  0.33546363441E+03 -0.12099745330E+04  0.12733055908E+04  0.10100000352E+00 0. -1.
       -3    1    3    3    0  502  0.21150152886E+03 -0.33546363441E+03  0.20951284806E+03  0.44851353427E+03  0.10100000352E+00 0.  1.
</event>
<event>
 5   0  0.6671375E-05  0.1398368E+04  0.7818609E-02  0.8955000E-01
       -1   -1    0    0    0  501  0.00000000000E+00  0.00000000000E+00  0.22861557674E+03  0.22861557680E+03  0.50400001928E-02 0. -1.
        1   -1    0    0  501    0  0.00000000000E+00  0.00000000000E+00 -0.21383434062E+04  0.21383434062E+04  0.50400001928E-02 0.  1.
    10030    2    1    2    0    0  0.00000000000E+00  0.00000000000E+00 -0.19097278295E+04  0.23669589830E+04  0.13983684939E+04 0.  0.
        5    1    3    3  502    0  0.63301579952E+03 -0.25975765467E+03 -0.11981211218E+04  0.13797461195E+04  0.46999998093E+01 0.  1.
       -5    1    3    3    0  502 -0.63301579952E+03  0.25975765467E+03 -0.71160670761E+03  0.98721286353E+03  0.46999998093E+01 0. -1.
</event>
<event>
 5   0  0.6671375E-05  0.1400029E+04  0.7818609E-02  0.8953798E-01
       -1   -1    0    0    0  501  0.00000000000E+00  0.00000000000E+00  0.86447898570E+03  0.86447898571E+03  0.50400001928E-02 0.  1.
        1   -1    0    0  501    0  0.00000000000E+00  0.00000000000E+00 -0.56683847663E+03  0.56683847665E+03  0.50400001928E-02 0. -1.
    10030    2    1    2    0    0  0.00000000000E+00  0.00000000000E+00  0.29764050906E+03  0.14313174624E+04  0.14000285016E+04 0.  0.
        5    1    3    3  502    0  0.30425670582E+03 -0.61750417839E+03  0.27859940375E+03  0.74264612780E+03  0.46999998093E+01 0.  1.
       -5    1    3    3    0  502 -0.30425670582E+03  0.61750417839E+03  0.19041105309E+02  0.68867133457E+03  0.46999998093E+01 0. -1.
</event>
<event>
 5   0  0.1794185E-04  0.1399617E+04  0.7818609E-02  0.8954096E-01
        2   -1    0    0  501    0  0.00000000000E+00  0.00000000000E+00  0.10999303582E+04  0.10999303582E+04  0.25500000920E-02 0.  1.
       -2   -1    0    0    0  501  0.00000000000E+00  0.00000000000E+00 -0.44523897606E+03  0.44523897607E+03  0.25500000920E-02 0. -1.
    10030    2    1    2    0    0  0.00000000000E+00  0.00000000000E+00  0.65469138211E+03  0.15451693342E+04  0.13996168996E+04 0.  0.
        2    1    3    3  502    0 -0.41337001938E+03 -0.19792429875E+03  0.91119394840E+03  0.10199623584E+04  0.25500000920E-02 0.  1.
       -2    1    3    3    0  502  0.41337001938E+03  0.19792429875E+03 -0.25650256628E+03  0.52520697584E+03  0.25500000920E-02 0. -1.
</event>
<event>
 5   0  0.1794185E-04  0.1406922E+04  0.7818609E-02  0.8948823E-01
       -2   -1    0    0    0  501  0.00000000000E+00  0.00000000000E+00  0.15474860826E+04  0.15474860826E+04  0.25500000920E-02 0. -1.
        2   -1    0    0  501    0  0.00000000000E+00  0.00000000000E+00 -0.31978150038E+03  0.31978150039E+03  0.25500000920E-02 0.  1.
    10030    2    1    2    0    0  0.00000000000E+00  0.00000000000E+00  0.12277045822E+04  0.18672675830E+04  0.14069220609E+04 0.  0.
        2    1    3    3  502    0 -0.21384429230E+03  0.61057201020E+03  0.98052936077E+03  0.11747192806E+04  0.25500000920E-02 0.  1.
       -2    1    3    3    0  502  0.21384429230E+03 -0.61057201020E+03  0.24717522147E+03  0.69254830236E+03  0.25500000920E-02 0. -1.
</event>
<event>
 5   0  0.9900839E-05  0.1399917E+04  0.7818609E-02  0.8953879E-01
        1   -1    0    0  501    0  0.00000000000E+00  0.00000000000E+00  0.71791813279E+03  0.71791813281E+03  0.50400001928E-02 0. -1.
       -1   -1    0    0    0  501  0.00000000000E+00  0.00000000000E+00 -0.68244827512E+03  0.68244827514E+03  0.50400001928E-02 0.  1.
    10030    2    1    2    0    0  0.00000000000E+00  0.00000000000E+00  0.35469857672E+02  0.14003664079E+04  0.13999171282E+04 0.  0.
        3    1    3    3  502    0 -0.11322788966E+03  0.15271218904E+03  0.69159822318E+03  0.71725147625E+03  0.10100000352E+00 0. -1.
       -3    1    3    3    0  502  0.11322788966E+03 -0.15271218904E+03 -0.65612836551E+03  0.68311493169E+03  0.10100000352E+00 0.  1.
</event>
<event>
 5   0  0.9260916E-05  0.1403779E+04  0.7818609E-02  0.8951088E-01
       -1   -1    0    0    0  501  0.00000000000E+00  0.00000000000E+00  0.21812866965E+03  0.21812866971E+03  0.50400001928E-02 0. -1.
        1   -1    0    0  501    0  0.00000000000E+00  0.00000000000E+00 -0.22585226986E+04  0.22585226986E+04  0.50400001928E-02 0.  1.
    10030    2    1    2    0    0  0.00000000000E+00  0.00000000000E+00 -0.20403940290E+04  0.24766513683E+04  0.14037785462E+04 0.  0.
        1    1    3    3  502    0  0.13289913997E+03 -0.25018155979E+03  0.11278564935E+03  0.30491572112E+03  0.50400001928E-02 0. -1.
       -1    1    3    3    0  502 -0.13289913997E+03  0.25018155979E+03 -0.21531796783E+04  0.21717356472E+04  0.50400001928E-02 0.  1.
</event>
<event>
 5   0  0.1712327E-04  0.1396837E+04  0.7818609E-02  0.8956111E-01
       -2   -1    0    0    0  501  0.00000000000E+00  0.00000000000E+00  0.49986549260E+03  0.49986549261E+03  0.25500000920E-02 0. -1.
        2   -1    0    0  501    0  0.00000000000E+00  0.00000000000E+00 -0.97583911650E+03  0.97583911650E+03  0.25500000920E-02 0.  1.
    10030    2    1    2    0    0  0.00000000000E+00  0.00000000000E+00 -0.47597362390E+03  0.14757046091E+04  0.13968368561E+04 0.  0.
        1    1    3    3  502    0 -0.24391684874E+03  0.44526383397E+03  0.26871074476E+03  0.57442212293E+03  0.50400001928E-02 0. -1.
       -1    1    3    3    0  502  0.24391684874E+03 -0.44526383397E+03 -0.74468436866E+03  0.90128248617E+03  0.50400001928E-02 0.  1.
</event>
<event>
 5   0  0.1780171E-04  0.1397473E+04  0.7818609E-02  0.8955650E-01
       -2   -1    0    0    0  501  0.00000000000E+00  0.00000000000E+00  0.89088025605E+03  0.89088025606E+03  0.25500000920E-02 0.  1.
        2   -1    0    0  501    0  0.00000000000E+00  0.00000000000E+00 -0.54803383434E+03  0.54803383435E+03  0.25500000920E-02 0. -1.
    10030    2    1    2    0    0  0.00000000000E+00  0.00000000000E+00  0.34284642171E+03  0.14389140904E+04  0.13974727513E+04 0.  0.
        5    1    3    3  502    0  0.13502096829E+03 -0.33012837524E+03  0.79006909263E+03  0.86686023507E+03  0.46999998093E+01 0.  1.
       -5    1    3    3    0  502 -0.13502096829E+03  0.33012837524E+03 -0.44722267092E+03  0.57205385533E+03  0.46999998093E+01 0. -1.
</event>
<event>
 5   0  0.9978422E-05  0.1404039E+04  0.7818609E-02  0.8950900E-01
       -1   -1    0    0    0  501  0.00000000000E+00  0.00000000000E+00  0.63172374321E+03  0.63172374323E+03  0.50400001928E-02 0.  1.
        1   -1    0    0  501    0  0.00000000000E+00  0.00000000000E+00 -0.78013793861E+03  0.78013793862E+03  0.50400001928E-02 0. -1.
    10030    2    1    2    0    0  0.00000000000E+00  0.00000000000E+00 -0.14841419539E+03  0.14118616819E+04  0.14040393995E+04 0.  0.
        2    1    3    3  502    0  0.30439205164E+03 -0.25732401032E+03 -0.65532071520E+03  0.76701721439E+03  0.25500000920E-02 0. -1.
       -2    1    3    3    0  502 -0.30439205164E+03  0.25732401032E+03  0.50690651981E+03  0.64484446747E+03  0.25500000920E-02 0.  1.
</event>
<event>
 5   0  0.9978422E-05  0.1397061E+04  0.7818609E-02  0.8955949E-01
       -1   -1    0    0    0  501  0.00000000000E+00  0.00000000000E+00  0.71135494201E+03  0.71135494202E+03  0.50400001928E-02 0. -1.
        1   -1    0    0  501    0  0.00000000000E+00  0.00000000000E+00 -0.68593739360E+03  0.68593739362E+03  0.50400001928E-02 0.  1.
    10030    2    1    2    0    0  0.00000000000E+00  0.00000000000E+00  0.25417548402E+02  0.13972923356E+04  0.13970611366E+04 0.  0.
        2    1    3    3  502    0  0.94510201617E+01  0.63625735197E+03  0.30090957112E+03  0.70388870549E+03  0.25500000920E-02 0. -1.
       -2    1    3    3    0  502 -0.94510201617E+01 -0.63625735197E+03 -0.27549202272E+03  0.69340363015E+03  0.25500000920E-02 0.  1.
</event>
<event>
 5   0  0.9900839E-05  0.1397545E+04  0.7818609E-02  0.8955597E-01
        1   -1    0    0  501    0  0.00000000000E+00  0.00000000000E+00  0.78358874749E+03  0.78358874750E+03  0.50400001928E-02 0. -1.
       -1   -1    0    0    0  501  0.00000000000E+00  0.00000000000E+00 -0.62313704135E+03  0.62313704137E+03  0.50400001928E-02 0.  1.
    10030    2    1    2    0    0  0.00000000000E+00  0.00000000000E+00  0.16045170614E+03  0.14067257889E+04  0.13975452390E+04 0.  0.
        3    1    3    3  502    0  0.94329956904E+02  0.10490372214E+01 -0.61669796377E+03  0.62387148513E+03  0.10100000352E+00 0.  1.
       -3    1    3    3    0  502 -0.94329956904E+02 -0.10490372214E+01  0.77714966990E+03  0.78285430374E+03  0.10100000352E+00 0. -1.
</event>
<event>
 5   0  0.1766237E-04  0.1398349E+04  0.7818609E-02  0.8955014E-01
        2   -1    0    0  501    0  0.00000000000E+00  0.00000000000E+00  0.93373130141E+03  0.93373130141E+03  0.25500000920E-02 0. -1.
       -2   -1    0    0    0  501  0.00000000000E+00  0.00000000000E+00 -0.52353928512E+03  0.52353928512E+03  0.25500000920E-02 0.  1.
    10030    2    1    2    0    0  0.00000000000E+00  0.00000000000E+00  0.41019201629E+03  0.14572705865E+04  0.13983490523E+04 0.  0.
        3    1    3    3  502    0  0.44836375880E+03 -0.76139177262E+02  0.75852619804E+03  0.88441463004E+03  0.10100000352E+00 0. -1.
       -3    1    3    3    0  502 -0.44836375880E+03  0.76139177262E+02 -0.34833418175E+03  0.57285595649E+03  0.10100000352E+00 0.  1.
</event>
<event>
 5   0  0.6671375E-05  0.1401138E+04  0.7818609E-02  0.8952995E-01
        1   -1    0    0  501    0  0.00000000000E+00  0.00000000000E+00  0.92319189795E+03  0.92319189796E+03  0.50400001928E-02 0. -1.
       -1   -1    0    0    0  501  0.00000000000E+00  0.00000000000E+00 -0.53163016471E+03  0.53163016473E+03  0.50400001928E-02 0.  1.
    10030    2    1    2    0    0  0.00000000000E+00  0.00000000000E+00  0.39156173324E+03  0.14548220627E+04  0.14011376246E+04 0.  0.
        5    1    3    3  502    0 -0.29282350522E+03  0.11185869366E+03 -0.45473530354E+03  0.55232622502E+03  0.46999998093E+01 0.  1.
       -5    1    3    3    0  502  0.29282350522E+03 -0.11185869366E+03  0.84629703679E+03  0.90249583768E+03  0.46999998093E+01 0. -1.
</event>
<event>
 5   0  0.9978422E-05  0.1398254E+04  0.7818609E-02  0.8955083E-01
       -1   -1    0    0    0  501  0.00000000000E+00  0.00000000000E+00  0.62958752491E+03  0.62958752493E+03  0.50400001928E-02 0.  1.
        1   -1    0    0  501    0  0.00000000000E+00  0.00000000000E+00 -0.77634769678E+03  0.77634769680E+03  0.50400001928E-02 0. -1.
    10030    2    1    2    0    0  0.00000000000E+00  0.00000000000E+00 -0.14676017187E+03  0.14059352217E+04  0.13982543759E+04 0.  0.
        2    1    3    3  502    0  0.61671908892E+03 -0.86022503800E+02  0.24622840734E+03  0.66960490917E+03  0.25500000920E-02 0.  1.
       -2    1    3    3    0  502 -0.61671908892E+03  0.86022503800E+02 -0.39298857921E+03  0.73633031256E+03  0.25500000920E-02 0. -1.
</event>
<event>
 5   0  0.1766237E-04  0.1399927E+04  0.7818609E-02  0.8953871E-01
        2   -1    0    0  501    0  0.00000000000E+00  0.00000000000E+00  0.98931516935E+03  0.98931516935E+03  0.25500000920E-02 0.  1.
       -2   -1    0    0    0  501  0.00000000000E+00  0.00000000000E+00 -0.49524069676E+03  0.49524069676E+03  0.25500000920E-02 0. -1.
    10030    2    1    2    0    0  0.00000000000E+00  0.00000000000E+00  0.49407447259E+03  0.14845558661E+04  0.13999273321E+04 0.  0.
        3    1    3    3  502    0 -0.17644501473E+03  0.45512442774E+03  0.77903978199E+03  0.91933349774E+03  0.10100000352E+00 0.  1.
       -3    1    3    3    0  502  0.17644501473E+03 -0.45512442774E+03 -0.28496530940E+03  0.56522236837E+03  0.10100000352E+00 0. -1.
</event>
<event>
 5   0  0.1780171E-04  0.1400751E+04  0.7818609E-02  0.8953275E-01
       -2   -1    0    0    0  501  0.00000000000E+00  0.00000000000E+00  0.99640768437E+03  0.99640768437E+03  0.25500000920E-02 0.  1.
        2   -1    0    0  501    0  0.00000000000E+00  0.00000000000E+00 -0.49229404737E+03  0.49229404738E+03  0.25500000920E-02 0. -1.
    10030    2    1    2    0    0  0.00000000000E+00  0.00000000000E+00  0.50411363700E+03  0.14887017317E+04  0.14007506156E+04 0.  0.
        5    1    3    3  502    0  0.37839318725E+03 -0.90911833321E+02  0.87090383780E+03  0.95390877461E+03  0.46999998093E+01 0.  1.
       -5    1    3    3    0  502 -0.37839318725E+03  0.90911833321E+02 -0.36679020080E+03  0.53479295713E+03  0.46999998093E+01 0. -1.
</event>
<event>
 5   0  0.1780171E-04  0.1402333E+04  0.7818609E-02  0.8952131E-01
        2   -1    0    0  501    0  0.00000000000E+00  0.00000000000E+00  0.12960214459E+04  0.12960214459E+04  0.25500000920E-02 0. -1.
       -2   -1    0    0    0  501  0.00000000000E+00  0.00000000000E+00 -0.37934154018E+03  0.37934154019E+03  0.25500000920E-02 0.  1.
    10030    2    1    2    0    0  0.00000000000E+00  0.00000000000E+00  0.91667990574E+03  0.16753629861E+04  0.14023334431E+04 0.  0.
        5    1    3    3  502    0 -0.17896617628E+03  0.64712016194E+03  0.21696604454E+03  0.70561303185E+03  0.46999998093E+01 0. -1.
       -5    1    3    3    0  502  0.17896617628E+03 -0.64712016194E+03  0.69971386119E+03  0.96974995426E+03  0.46999998093E+01 0.  1.
</event>
<event>
 5   0  0.1780171E-04  0.1400046E+04  0.7818609E-02  0.8953786E-01
        2   -1    0    0  501    0  0.00000000000E+00  0.00000000000E+00  0.11833028745E+04  0.11833028745E+04  0.25500000920E-02 0.  1.
       -2   -1    0    0    0  501  0.00000000000E+00  0.00000000000E+00 -0.41412214407E+03  0.41412214408E+03  0.25500000920E-02 0. -1.
    10030    2    1    2    0    0  0.00000000000E+00  0.00000000000E+00  0.76918073045E+03  0.15974250186E+04  0.14000456042E+04 0.  0.
        5    1    3    3  502    0 -0.37866072895E+03 -0.50100778054E+03  0.31776162118E+02  0.62882792423E+03  0.46999998093E+01 0. -1.
       -5    1    3    3    0  502  0.37866072895E+03  0.50100778054E+03  0.73740456833E+03  0.96859709436E+03  0.46999998093E+01 0.  1.
</event>
<event>
 5   0  0.1794185E-04  0.1400696E+04  0.7818609E-02  0.8953315E-01
       -2   -1    0    0    0  501  0.00000000000E+00  0.00000000000E+00  0.31456074533E+03  0.31456074534E+03  0.25500000920E-02 0. -1.
        2   -1    0    0  501    0  0.00000000000E+00  0.00000000000E+00 -0.15592767739E+04  0.15592767739E+04  0.25500000920E-02 0.  1.
    10030    2    1    2    0    0  0.00000000000E+00  0.00000000000E+00 -0.12447160285E+04  0.18738375192E+04  0.14006959187E+04 0.  0.
        2    1    3    3  502    0  0.39761066144E+03 -0.36248327396E+03 -0.12221282504E+04  0.13353223665E+04  0.25500000920E-02 0.  1.
       -2    1    3    3    0  502 -0.39761066144E+03  0.36248327396E+03 -0.22587778131E+02  0.53851515273E+03  0.25500000920E-02 0. -1.
</event>
<event>
 5   0  0.1833681E-04  0.1398817E+04  0.7818609E-02  0.8954675E-01
       -2   -1    0    0    0  501  0.00000000000E+00  0.00000000000E+00  0.45380082824E+03  0.45380082825E+03  0.25500000920E-02 0.  1.
        2   -1    0    0  501    0  0.00000000000E+00  0.00000000000E+00 -0.10779450918E+04  0.10779450918E+04  0.25500000920E-02 0. -1.
    10030    2    1    2    0    0  0.00000000000E+00  0.00000000000E+00 -0.62414426357E+03  0.15317459201E+04  0.13988171796E+04 0.  0.
        4    1    3    3  502    0 -0.62249733243E+03  0.14116345068E+03  0.10004162567E+01  0.63830452170E+03  0.12699999809E+01 0.  1.
       -4    1    3    3    0  502  0.62249733243E+03 -0.14116345068E+03 -0.62514467983E+03  0.89344139836E+03  0.12699999809E+01 0. -1.
</event>
<event>
 5   0  0.1766237E-04  0.1399051E+04  0.7818609E-02  0.8954506E-01
        2   -1    0    0  501    0  0.00000000000E+00  0.00000000000E+00  0.73367865283E+03  0.73367865283E+03  0.25500000920E-02 0.  1.
       -2   -1    0    0    0  501  0.00000000000E+00  0.00000000000E+00 -0.66696254321E+03  0.66696254321E+03  0.25500000920E-02 0. -1.
    10030    2    1    2    0    0  0.00000000000E+00  0.00000000000E+00  0.66716109619E+02  0.14006411960E+04  0.13990513646E+04 0.  0.
        3    1    3    3  502    0 -0.42480641436E+03 -0.13416501970E+03  0.57329961098E+03  0.72603939035E+03  0.10100000352E+00 0.  1.
       -3    1    3    3    0  502  0.42480641436E+03  0.13416501970E+03 -0.50658350136E+03  0.67460180569E+03  0.10100000352E+00 0. -1.
</event>
<event>
 5   0  0.1780171E-04  0.1381838E+04  0.7818609E-02  0.8967071E-01
        2   -1    0    0  501    0  0.00000000000E+00  0.00000000000E+00  0.12297622184E+04  0.12297622184E+04  0.25500000920E-02 0. -1.
       -2   -1    0    0    0  501  0.00000000000E+00  0.00000000000E+00 -0.38817996410E+03  0.38817996411E+03  0.25500000920E-02 0.  1.
    10030    2    1    2    0    0  0.00000000000E+00  0.00000000000E+00  0.84158225433E+03  0.16179421825E+04  0.13818379844E+04 0.  0.
        5    1    3    3  502    0 -0.42958156437E+03 -0.16627829381E+03 -0.18212705338E+03  0.49535961181E+03  0.46999998093E+01 0.  1.
       -5    1    3    3    0  502  0.42958156437E+03  0.16627829381E+03  0.10237093077E+04  0.11225825707E+04  0.46999998093E+01 0. -1.
</event>
<event>
 5   0  0.1712327E-04  0.1404971E+04  0.7818609E-02  0.8950228E-01
       -2   -1    0    0    0  501  0.00000000000E+00  0.00000000000E+00  0.90032914834E+03  0.90032914835E+03  0.25500000920E-02 0.  1.
        2   -1    0    0  501    0  0.00000000000E+00  0.00000000000E+00 -0.54811705707E+03  0.54811705708E+03  0.25500000920E-02 0. -1.
    10030    2    1    2    0    0  0.00000000000E+00  0.00000000000E+00  0.35221209127E+03  0.14484462054E+04  0.14049708370E+04 0.  0.
        1    1    3    3  502    0  0.27495914910E+03  0.42907114210E+03  0.67457697795E+03  0.84543401745E+03  0.50400001928E-02 0.  1.
       -1    1    3    3    0  502 -0.27495914910E+03 -0.42907114210E+03 -0.32236488668E+03  0.60301218798E+03  0.50400001928E-02 0. -1.
</event>
<event>
 5   0  0.6671375E-05  0.1399278E+04  0.7818609E-02  0.8954341E-01
       -1   -1    0    0    0  501  0.00000000000E+00  0.00000000000E+00  0.58161951346E+03  0.58161951348E+03  0.50400001928E-02 0. -1.
        1   -1    0    0  501    0  0.00000000000E+00  0.00000000000E+00 -0.84160698530E+03  0.84160698531E+03  0.50400001928E-02 0.  1.
    10030    2    1    2    0    0  0.00000000000E+00  0.00000000000E+00 -0.25998747184E+03  0.14232264988E+04  0.13992784503E+04 0.  0.
        5    1    3    3  502    0 -0.51258491763E+01 -0.63108974846E+03  0.17712166375E+03  0.65551103630E+03  0.46999998093E+01 0. -1.
       -5    1    3    3    0  502  0.51258491763E+01  0.63108974846E+03 -0.43710913559E+03  0.76771546249E+03  0.46999998093E+01 0.  1.
</event>
<event>
 5   0  0.1712327E-04  0.1399033E+04  0.7818609E-02  0.8954519E-01
        2   -1    0    0  501    0  0.00000000000E+00  0.00000000000E+00  0.99033672590E+03  0.99033672590E+03  0.25500000920E-02 0. -1.
       -2   -1    0    0    0  501  0.00000000000E+00  0.00000000000E+00 -0.49409809105E+03  0.49409809105E+03  0.25500000920E-02 0.  1.
    10030    2    1    2    0    0  0.00000000000E+00  0.00000000000E+00  0.49623863485E+03  0.14844348170E+04  0.13990332173E+04 0.  0.
        1    1    3    3  502    0  0.61028624163E+03  0.21556704236E+03 -0.33417358405E+02  0.64810120069E+03  0.50400001928E-02 0.  1.
       -1    1    3    3    0  502 -0.61028624163E+03 -0.21556704236E+03  0.52965599326E+03  0.83633361626E+03  0.50400001928E-02 0. -1.
</event>
<event>
 5   0  0.9978422E-05  0.1394037E+04  0.7818609E-02  0.8958146E-01
       -1   -1    0    0    0  501  0.00000000000E+00  0.00000000000E+00  0.51670511299E+03  0.51670511302E+03  0.50400001928E-02 0.  1.
        1   -1    0    0  501    0  0.00000000000E+00  0.00000000000E+00 -0.94025541597E+03  0.94025541598E+03  0.50400001928E-02 0. -1.
    10030    2    1    2    0    0  0.00000000000E+00  0.00000000000E+00 -0.42355030298E+03  0.14569605290E+04  0.13940369880E+04 0.  0.
        2    1    3    3  502    0  0.44371720400E+03 -0.25664579441E+03 -0.70541077560E+03  0.87198416457E+03  0.25500000920E-02 0. -1.
       -2    1    3    3    0  502 -0.44371720400E+03  0.25664579441E+03  0.28186047262E+03  0.58497636443E+03  0.25500000920E-02 0.  1.
</event>
<event>
 5   0  0.1766237E-04  0.1400364E+04  0.7818609E-02  0.8953555E-01
       -2   -1    0    0    0  501  0.00000000000E+00  0.00000000000E+00  0.33694802880E+03  0.33694802881E+03  0.25500000920E-02 0.  1.
        2   -1    0    0  501    0  0.00000000000E+00  0.00000000000E+00 -0.14549868271E+04  0.14549868271E+04  0.25500000920E-02 0. -1.
    10030    2    1    2    0    0  0.00000000000E+00  0.00000000000E+00 -0.11180387983E+04  0.17919348559E+04  0.14003641574E+04 0.  0.
        3    1    3    3  502    0 -0.53405923145E+03 -0.74947988285E+02  0.12411762950E+02  0.53943537676E+03  0.10100000352E+00 0.  1.
       -3    1    3    3    0  502  0.53405923145E+03  0.74947988285E+02 -0.11304505612E+04  0.12524994791E+04  0.10100000352E+00 0. -1.
</event>
<event>
 5   0  0.9828111E-05  0.1397246E+04  0.7818609E-02  0.8955815E-01
       -1   -1    0    0    0  501  0.00000000000E+00  0.00000000000E+00  0.81132637145E+03  0.81132637147E+03  0.50400001928E-02 0. -1.
        1   -1    0    0  501    0  0.00000000000E+00  0.00000000000E+00 -0.60157538863E+03  0.60157538866E+03  0.50400001928E-02 0.  1.
    10030    2    1    2    0    0  0.00000000000E+00  0.00000000000E+00  0.20975098282E+03  0.14129017601E+04  0.13972458298E+04 0.  0.
        4    1    3    3  502    0 -0.10066889850E+03 -0.32432212371E+03 -0.51250071944E+03  0.61479888369E+03  0.12699999809E+01 0.  1.
       -4    1    3    3    0  502  0.10066889850E+03  0.32432212371E+03  0.72225170226E+03  0.79810287644E+03  0.12699999809E+01 0. -1.
</event>
<event>
 5   0  0.9260916E-05  0.1388854E+04  0.7818609E-02  0.8961926E-01
       -1   -1    0    0    0  501  0.00000000000E+00  0.00000000000E+00  0.91741465297E+03  0.91741465298E+03  0.50400001928E-02 0. -1.
        1   -1    0    0  501    0  0.00000000000E+00  0.00000000000E+00 -0.52563908093E+03  0.52563908095E+03  0.50400001928E-02 0.  1.
    10030    2    1    2    0    0  0.00000000000E+00  0.00000000000E+00  0.39177557204E+03  0.14430537339E+04  0.13888541969E+04 0.  0.
        1    1    3    3  502    0 -0.87462445967E+02  0.57474090597E+03  0.59051504407E+03  0.82866447115E+03  0.50400001928E-02 0. -1.
       -1    1    3    3    0  502  0.87462445967E+02 -0.57474090597E+03 -0.19873947203E+03  0.61438926278E+03  0.50400001928E-02 0.  1.
</event>
<event>
 5   0  0.6671375E-05  0.1400444E+04  0.7818609E-02  0.8953497E-01
        1   -1    0    0  501    0  0.00000000000E+00  0.00000000000E+00  0.11965517031E+04  0.11965517031E+04  0.50400001928E-02 0.  1.
       -1   -1    0    0    0  501  0.00000000000E+00  0.00000000000E+00 -0.40976997029E+03  0.40976997032E+03  0.50400001928E-02 0. -1.
    10030    2    1    2    0    0  0.00000000000E+00  0.00000000000E+00  0.78678173284E+03  0.16063216735E+04  0.14004441522E+04 0.  0.
        5    1    3    3  502    0  0.80832804031E+02  0.67931890800E+03  0.56460183254E+03  0.88702054107E+03  0.46999998093E+01 0.  1.
       -5    1    3    3    0  502 -0.80832804031E+02 -0.67931890800E+03  0.22217990031E+03  0.71930113240E+03  0.46999998093E+01 0. -1.
</event>
<event>
 5   0  0.1833681E-04  0.1397271E+04  0.7818609E-02  0.8955796E-01
       -2   -1    0    0    0  501  0.00000000000E+00  0.00000000000E+00  0.20710523527E+03  0.20710523528E+03  0.25500000920E-02 0. -1.
        2   -1    0    0  501    0  0.00000000000E+00  0.00000000000E+00 -0.23567317794E+04  0.23567317794E+04  0.25500000920E-02 0.  1.
    10030    2    1    2    0    0  0.00000000000E+00  0.00000000000E+00 -0.21496265441E+04  0.25638370147E+04  0.13972708966E+04 0.  0.
        4    1    3    3  502    0 -0.58885441573E+03 -0.24249050532E+01 -0.38499633585E+03  0.70354757807E+03  0.12699999809E+01 0. -1.
       -4    1    3    3    0  502  0.58885441573E+03  0.24249050532E+01 -0.17646302083E+04  0.18602894366E+04  0.12699999809E+01 0.  1.
</event>
<event>
 5   0  0.9978422E-05  0.1400084E+04  0.7818609E-02  0.8953758E-01
        1   -1    0    0  501    0  0.00000000000E+00  0.00000000000E+00  0.84043408355E+03  0.84043408357E+03  0.50400001928E-02 0. -1.
       -1   -1    0    0    0  501  0.00000000000E+00  0.00000000000E+00 -0.58310189357E+03  0.58310189359E+03  0.50400001928E-02 0.  1.
    10030    2    1    2    0    0  0.00000000000E+00  0.00000000000E+00  0.25733218998E+03  0.14235359772E+04  0.14000838626E+04 0.  0.
        2    1    3    3  502    0 -0.36964234584E+03  0.14921739787E+03 -0.45643597722E+03  0.60599925493E+03  0.25500000920E-02 0.  1.
       -2    1    3    3    0  502  0.36964234584E+03 -0.14921739787E+03  0.71376816721E+03  0.81753672223E+03  0.25500000920E-02 0. -1.
</event>
<event>
 5   0  0.1794185E-04  0.1397830E+04  0.7818609E-02  0.8955391E-01
        2   -1    0    0  501    0  0.00000000000E+00  0.00000000000E+00  0.81929197145E+03  0.81929197145E+03  0.25500000920E-02 0. -1.
       -2   -1    0    0    0  501  0.00000000000E+00  0.00000000000E+00 -0.59622467969E+03  0.59622467970E+03  0.25500000920E-02 0.  1.
    10030    2    1    2    0    0  0.00000000000E+00  0.00000000000E+00  0.22306729176E+03  0.14155166511E+04  0.13978298799E+04 0.  0.
        2    1    3    3  502    0  0.86316660412E+02 -0.48237553529E+03  0.61618180917E+03  0.78728441168E+03  0.25500000920E-02 0. -1.
       -2    1    3    3    0  502 -0.86316660412E+02  0.48237553529E+03 -0.39311451740E+03  0.62823223947E+03  0.25500000920E-02 0.  1.
</event>
<event>
 5   0  0.6671375E-05  0.1399723E+04  0.7818609E-02  0.8954019E-01
       -3   -1    0    0    0  501  0.00000000000E+00  0.00000000000E+00  0.87663531272E+03  0.87663531854E+03  0.10100000352E+00 0.  1.
        3   -1    0    0  501    0  0.00000000000E+00  0.00000000000E+00 -0.55873421798E+03  0.55873422711E+03  0.10100000352E+00 0. -1.
    10030    2    1    2    0    0  0.00000000000E+00  0.00000000000E+00  0.31790109474E+03  0.14353695457E+04  0.13997230535E+04 0.  0.
        4    1    3    3  502    0  0.42130970748E+03  0.23345243893E+03 -0.36172272683E+03  0.60236770736E+03  0.12699999809E+01 0. -1.
       -4    1    3    3    0  502 -0.42130970748E+03 -0.23345243893E+03  0.67962382157E+03  0.83300183830E+03  0.12699999809E+01 0.  1.
</event>
<event>
 5   0  0.1712327E-04  0.1399228E+04  0.7818609E-02  0.8954377E-01
       -2   -1    0    0    0  501  0.00000000000E+00  0.00000000000E+00  0.44339412209E+03  0.44339412210E+03  0.25500000920E-02 0. -1.
        2   -1    0    0  501    0  0.00000000000E+00  0.00000000000E+00 -0.11038934008E+04  0.11038934008E+04  0.25500000920E-02 0.  1.
    10030    2    1    2    0    0  0.00000000000E+00  0.00000000000E+00 -0.66049927874E+03  0.15472875229E+04  0.13992281377E+04 0.  0.
        1    1    3    3  502    0 -0.69107654209E+03 -0.10787890356E+03 -0.34720869187E+03  0.78088316705E+03  0.50400001928E-02 0. -1.
       -1    1    3    3    0  502  0.69107654209E+03  0.10787890356E+03 -0.31329058687E+03  0.76640435587E+03  0.50400001928E-02 0.  1.
</event>
<event>
 5   0  0.1780171E-04  0.1398177E+04  0.7818609E-02  0.8955139E-01
        2   -1    0    0  501    0  0.00000000000E+00  0.00000000000E+00  0.25360740211E+03  0.25360740212E+03  0.25500000920E-02 0.  1.
       -2   -1    0    0    0  501  0.00000000000E+00  0.00000000000E+00 -0.19270906286E+04  0.19270906286E+04  0.25500000920E-02 0. -1.
    10030    2    1    2    0    0  0.00000000000E+00  0.00000000000E+00 -0.16734832265E+04  0.21806980307E+04  0.13981765954E+04 0.  0.
        5    1    3    3  502    0 -0.91182710550E+02  0.69306993711E+03 -0.82661772132E+03  0.10825798685E+04  0.46999998093E+01 0.  1.
       -5    1    3    3    0  502  0.91182710550E+02 -0.69306993711E+03 -0.84686550518E+03  0.10981181623E+04  0.46999998093E+01 0. -1.
</event>
<event>
 5   0  0.9978422E-05  0.1398998E+04  0.7818609E-02  0.8954544E-01
        1   -1    0    0  501    0  0.00000000000E+00  0.00000000000E+00  0.67318208995E+03  0.67318208996E+03  0.50400001928E-02 0.  1.
       -1   -1    0    0    0  501  0.00000000000E+00  0.00000000000E+00 -0.72684521167E+03  0.72684521169E+03  0.50400001928E-02 0. -1.
    10030    2    1    2    0    0  0.00000000000E+00  0.00000000000E+00 -0.53663121722E+02  0.14000273016E+04  0.13989984685E+04 0.  0.
        2    1    3    3  502    0 -0.42431615202E+01 -0.51788508456E+03  0.44370164199E+03  0.68197808787E+03  0.25500000920E-02 0.  1.
       -2    1    3    3    0  502  0.42431615202E+01  0.51788508456E+03 -0.49736476371E+03  0.71804921378E+03  0.25500000920E-02 0. -1.
</event>
<event>
 5   0  0.9828111E-05  0.1401086E+04  0.7818609E-02  0.8953033E-01
        1   -1    0    0  501    0  0.00000000000E+00  0.00000000000E+00  0.71046173233E+03  0.71046173235E+03  0.50400001928E-02 0.  1.
       -1   -1    0    0    0  501  0.00000000000E+00  0.00000000000E+00 -0.69076285136E+03  0.69076285138E+03  0.50400001928E-02 0. -1.
    10030    2    1    2    0    0  0.00000000000E+00  0.00000000000E+00  0.19698880967E+02  0.14012245837E+04  0.14010861102E+04 0.  0.
        4    1    3    3  502    0 -0.21836089605E+03 -0.14792359399E+03  0.65890979886E+03  0.70973699813E+03  0.12699999809E+01 0.  1.
       -4    1    3    3    0  502  0.21836089605E+03  0.14792359399E+03 -0.63921091789E+03  0.69148758560E+03  0.12699999809E+01 0. -1.
</event>
<event>
 5   0  0.1833681E-04  0.1430905E+04  0.7818609E-02  0.8931747E-01
        2   -1    0    0  501    0  0.00000000000E+00  0.00000000000E+00  0.63251442969E+03  0.63251442969E+03  0.25500000920E-02 0. -1.
       -2   -1    0    0    0  501  0.00000000000E+00  0.00000000000E+00 -0.80926562809E+03  0.80926562809E+03  0.25500000920E-02 0.  1.
    10030    2    1    2    0    0  0.00000000000E+00  0.00000000000E+00 -0.17675119841E+03  0.14417800578E+04  0.14309048707E+04 0.  0.
        4    1    3    3  502    0 -0.55637745880E+03  0.27038133799E+03 -0.45056356204E+03  0.76529150062E+03  0.12699999809E+01 0.  1.
       -4    1    3    3    0  502  0.55637745880E+03 -0.27038133799E+03  0.27381236363E+03  0.67648855716E+03  0.12699999809E+01 0. -1.
</event>
<event>
 5   0  0.1766237E-04  0.1396596E+04  0.7818609E-02  0.8956286E-01
       -2   -1    0    0    0  501  0.00000000000E+00  0.00000000000E+00  0.28127932820E+03  0.28127932822E+03  0.25500000920E-02 0. -1.
        2   -1    0    0  501    0  0.00000000000E+00  0.00000000000E+00 -0.17335797947E+04  0.17335797947E+04  0.25500000920E-02 0.  1.
    10030    2    1    2    0    0  0.00000000000E+00  0.00000000000E+00 -0.14523004665E+04  0.20148591229E+04  0.13965960906E+04 0.  0.
        3    1    3    3  502    0 -0.14354818476E+02 -0.92324380032E+02 -0.17245210629E+04  0.17270503057E+04  0.10100000352E+00 0.  1.
       -3    1    3    3    0  502  0.14354818476E+02  0.92324380032E+02  0.27222059638E+03  0.28780881720E+03  0.10100000352E+00 0. -1.
</event>
<event>
 5   0  0.9260916E-05  0.1403992E+04  0.7818609E-02  0.8950934E-01
        1   -1    0    0  501    0  0.00000000000E+00  0.00000000000E+00  0.18115689073E+04  0.18115689073E+04  0.50400001928E-02 0. -1.
       -1   -1    0    0    0  501  0.00000000000E+00  0.00000000000E+00 -0.27202861312E+03  0.27202861316E+03  0.50400001928E-02 0.  1.
    10030    2    1    2    0    0  0.00000000000E+00  0.00000000000E+00  0.15395402941E+04  0.20835975204E+04  0.14039922756E+04 0.  0.
        1    1    3    3  502    0  0.18888214072E+03  0.10258820017E+03  0.17615319810E+04  0.17745973409E+04  0.50400001928E-02 0. -1.
       -1    1    3    3    0  502 -0.18888214072E+03 -0.10258820017E+03 -0.22199168690E+03  0.30900017957E+03  0.50400001928E-02 0.  1.
</event>
<event>
 5   0  0.9260916E-05  0.1397303E+04  0.7818609E-02  0.8955773E-01
       -1   -1    0    0    0  501  0.00000000000E+00  0.00000000000E+00  0.58563460873E+03  0.58563460875E+03  0.50400001928E-02 0. -1.
        1   -1    0    0  501    0  0.00000000000E+00  0.00000000000E+00 -0.83347909575E+03  0.83347909577E+03  0.50400001928E-02 0.  1.
    10030    2    1    2    0    0  0.00000000000E+00  0.00000000000E+00 -0.24784448703E+03  0.14191137045E+04  0.13973034089E+04 0.  0.
        1    1    3    3  502    0  0.14303859813E+03  0.41136010822E+03  0.43089867435E+03  0.61265883391E+03  0.50400001928E-02 0. -1.
       -1    1    3    3    0  502 -0.14303859813E+03 -0.41136010822E+03 -0.67874316137E+03  0.80645487061E+03  0.50400001928E-02 0.  1.
</event>
<event>
 5   0  0.9978422E-05  0.1401505E+04  0.7818609E-02  0.8952730E-01
       -1   -1    0    0    0  501  0.00000000000E+00  0.00000000000E+00  0.38794039934E+03  0.38794039937E+03  0.50400001928E-02 0. -1.
        1   -1    0    0  501    0  0.00000000000E+00  0.00000000000E+00 -0.12657978318E+04  0.12657978318E+04  0.50400001928E-02 0.  1.
    10030    2    1    2    0    0  0.00000000000E+00  0.00000000000E+00 -0.87785743248E+03  0.16537382312E+04  0.14015050716E+04 0.  0.
        2    1    3    3  502    0  0.49843303477E+03  0.47890205137E+03 -0.30299371237E+03  0.75471044428E+03  0.25500000920E-02 0. -1.
       -2    1    3    3    0  502 -0.49843303477E+03 -0.47890205137E+03 -0.57486372011E+03  0.89902778693E+03  0.25500000920E-02 0.  1.
</event>
<event>
 5   0  0.9978422E-05  0.1398135E+04  0.7818609E-02  0.8955170E-01
        1   -1    0    0  501    0  0.00000000000E+00  0.00000000000E+00  0.12471978204E+04  0.12471978204E+04  0.50400001928E-02 0.  1.
       -1   -1    0    0    0  501  0.00000000000E+00  0.00000000000E+00 -0.39183447828E+03  0.39183447831E+03  0.50400001928E-02 0. -1.
    10030    2    1    2    0    0  0.00000000000E+00  0.00000000000E+00  0.85536334215E+03  0.16390322988E+04  0.13981346249E+04 0.  0.
        2    1    3    3  502    0 -0.37809972901E+03  0.66411504556E+02 -0.25721129577E+03  0.46209040641E+03  0.25500000920E-02 0. -1.
       -2    1    3    3    0  502  0.37809972901E+03 -0.66411504556E+02  0.11125746379E+04  0.11769418923E+04  0.25500000920E-02 0.  1.
</event>
<event>
 5   0  0.1780171E-04  0.1422446E+04  0.7818609E-02  0.8937729E-01
        2   -1    0    0  501    0  0.00000000000E+00  0.00000000000E+00  0.10462747087E+04  0.10462747087E+04  0.25500000920E-02 0.  1.
       -2   -1    0    0    0  501  0.00000000000E+00  0.00000000000E+00 -0.48346588654E+03  0.48346588655E+03  0.25500000920E-02 0. -1.
    10030    2    1    2    0    0  0.00000000000E+00  0.00000000000E+00  0.56280882219E+03  0.15297405953E+04  0.14224459633E+04 0.  0.
        5    1    3    3  502    0  0.22057522575E+03 -0.63293707309E+03  0.53715160607E+03  0.85896257579E+03  0.46999998093E+01 0.  1.
       -5    1    3    3    0  502 -0.22057522575E+03  0.63293707309E+03  0.25657216129E+02  0.67077801950E+03  0.46999998093E+01 0. -1.
</event>
<event>
 5   0  0.6671375E-05  0.1400184E+04  0.7818609E-02  0.8953686E-01
       -1   -1    0    0    0  501  0.00000000000E+00  0.00000000000E+00  0.42388418211E+03  0.42388418214E+03  0.50400001928E-02 0.  1.
        1   -1    0    0  501    0  0.00000000000E+00  0.00000000000E+00 -0.11562795401E+04  0.11562795401E+04  0.50400001928E-02 0. -1.
    10030    2    1    2    0    0  0.00000000000E+00  0.00000000000E+00 -0.73239535801E+03  0.15801637223E+04  0.14001837125E+04 0.  0.
        5    1    3    3  502    0 -0.47166130549E+02 -0.64481122956E+03 -0.63167587722E+02  0.64962943265E+03  0.46999998093E+01 0.  1.
       -5    1    3    3    0  502  0.47166130549E+02  0.64481122956E+03 -0.66922777029E+03  0.93053428962E+03  0.46999998093E+01 0. -1.
</event>
<event>
 5   0  0.9900839E-05  0.1358222E+04  0.7818609E-02  0.8984627E-01
       -1   -1    0    0    0  501  0.00000000000E+00  0.00000000000E+00  0.85278651347E+03  0.85278651348E+03  0.50400001928E-02 0.  1.
        1   -1    0    0  501    0  0.00000000000E+00  0.00000000000E+00 -0.54080602657E+03  0.54080602660E+03  0.50400001928E-02 0. -1.
    10030    2    1    2    0    0  0.00000000000E+00  0.00000000000E+00  0.31198048689E+03  0.13935925401E+04  0.13582224941E+04 0.  0.
        3    1    3    3  502    0 -0.60155166322E+03 -0.93427371755E+02 -0.15284481318E+03  0.62765804738E+03  0.10100000352E+00 0.  1.
       -3    1    3    3    0  502  0.60155166322E+03  0.93427371755E+02  0.46482530007E+03  0.76593449270E+03  0.10100000352E+00 0. -1.
</event>
<event>
 5   0  0.6671375E-05  0.1397802E+04  0.7818609E-02  0.8955411E-01
       -1   -1    0    0    0  501  0.00000000000E+00  0.00000000000E+00  0.45210883937E+03  0.45210883940E+03  0.50400001928E-02 0. -1.
        1   -1    0    0  501    0  0.00000000000E+00  0.00000000000E+00 -0.10804097468E+04  0.10804097468E+04  0.50400001928E-02 0.  1.
    10030    2    1    2    0    0  0.00000000000E+00  0.00000000000E+00 -0.62830090744E+03  0.15325185862E+04  0.13978022703E+04 0.  0.
        5    1    3    3  502    0 -0.41176197749E+03  0.13226530570E+03 -0.91605922792E+03  0.10130294350E+04  0.46999998093E+01 0.  1.
       -5    1    3    3    0  502  0.41176197749E+03 -0.13226530570E+03  0.28775832048E+03  0.51948915118E+03  0.46999998093E+01 0. -1.
</event>
<event>
 5   0  0.9260916E-05  0.1399754E+04  0.7818609E-02  0.8953997E-01
        1   -1    0    0  501    0  0.00000000000E+00  0.00000000000E+00  0.42773433148E+03  0.42773433151E+03  0.50400001928E-02 0. -1.
       -1   -1    0    0    0  501  0.00000000000E+00  0.00000000000E+00 -0.11451680248E+04  0.11451680249E+04  0.50400001928E-02 0.  1.
    10030    2    1    2    0    0  0.00000000000E+00  0.00000000000E+00 -0.71743369336E+03  0.15729023564E+04  0.13997538063E+04 0.  0.
        1    1    3    3  502    0  0.64028011024E+03 -0.11970808129E+03 -0.64639052603E+03  0.91766516577E+03  0.50400001928E-02 0. -1.
       -1    1    3    3    0  502 -0.64028011024E+03  0.11970808129E+03 -0.71043167329E+02  0.65523719060E+03  0.50400001928E-02 0.  1.
</event>
<event>
 5   0  0.1794185E-04  0.1397949E+04  0.7818609E-02  0.8955305E-01
       -2   -1    0    0    0  501  0.00000000000E+00  0.00000000000E+00  0.52501393686E+03  0.52501393687E+03  0.25500000920E-02 0. -1.
        2   -1    0    0  501    0  0.00000000000E+00  0.00000000000E+00 -0.93057554358E+03  0.93057554359E+03  0.25500000920E-02 0.  1.
    10030    2    1    2    0    0  0.00000000000E+00  0.00000000000E+00 -0.40556160672E+03  0.14555894805E+04  0.13979486825E+04 0.  0.
        2    1    3    3  502    0 -0.54739295514E+03 -0.12903010544E+03 -0.63495787800E+03  0.84820948019E+03  0.25500000920E-02 0.  1.
       -2    1    3    3    0  502  0.54739295514E+03  0.12903010544E+03  0.22939627127E+03  0.60738000027E+03  0.25500000920E-02 0. -1.
</event>
<event>
 5   0  0.1712327E-04  0.1397851E+04  0.7818609E-02  0.8955376E-01
       -2   -1    0    0    0  501  0.00000000000E+00  0.00000000000E+00  0.73313379799E+03  0.73313379799E+03  0.25500000920E-02 0. -1.
        2   -1    0    0  501    0  0.00000000000E+00  0.00000000000E+00 -0.66631306710E+03  0.66631306710E+03  0.25500000920E-02 0.  1.
    10030    2    1    2    0    0  0.00000000000E+00  0.00000000000E+00  0.66820730894E+02  0.13994468651E+04  0.13978506781E+04 0.  0.
        1    1    3    3  502    0 -0.47067498458E+03  0.40569827665E+03 -0.28690903991E+03  0.68442883486E+03  0.50400001928E-02 0.  1.
       -1    1    3    3    0  502  0.47067498458E+03 -0.40569827665E+03  0.35372977081E+03  0.71501803023E+03  0.50400001928E-02 0. -1.
</event>
<event>
 5   0  0.6671375E-05  0.1399072E+04  0.7818609E-02  0.8954490E-01
        1   -1    0    0  501    0  0.00000000000E+00  0.00000000000E+00  0.31806491098E+03  0.31806491102E+03  0.50400001928E-02 0. -1.
       -1   -1    0    0    0  501  0.00000000000E+00  0.00000000000E+00 -0.15385252388E+04  0.15385252389E+04  0.50400001928E-02 0.  1.
    10030    2    1    2    0    0  0.00000000000E+00  0.00000000000E+00 -0.12204603279E+04  0.18565901499E+04  0.13990723972E+04 0.  0.
        5    1    3    3  502    0  0.19026065890E+03 -0.21513894912E+03  0.23619838101E+03  0.37188123231E+03  0.46999998093E+01 0. -1.
       -5    1    3    3    0  502 -0.19026065890E+03  0.21513894912E+03 -0.14566587089E+04  0.14847089176E+04  0.46999998093E+01 0.  1.
</event>
<event>
 5   0  0.9978422E-05  0.1398896E+04  0.7818609E-02  0.8954618E-01
       -1   -1    0    0    0  501  0.00000000000E+00  0.00000000000E+00  0.54784828067E+03  0.54784828069E+03  0.50400001928E-02 0. -1.
        1   -1    0    0  501    0  0.00000000000E+00  0.00000000000E+00 -0.89299819469E+03  0.89299819470E+03  0.50400001928E-02 0.  1.
    10030    2    1    2    0    0  0.00000000000E+00  0.00000000000E+00 -0.34514991402E+03  0.14408464754E+04  0.13988960299E+04 0.  0.
        2    1    3    3  502    0 -0.46442412207E+03  0.12452214352E+03  0.35062662917E+03  0.59509206219E+03  0.25500000920E-02 0. -1.
       -2    1    3    3    0  502  0.46442412207E+03 -0.12452214352E+03 -0.69577654319E+03  0.84575441320E+03  0.25500000920E-02 0.  1.
</event>
<event>
 5   0  0.9900839E-05  0.1397400E+04  0.7818609E-02  0.8955703E-01
        1   -1    0    0  501    0  0.00000000000E+00  0.00000000000E+00  0.22426483855E+04  0.22426483855E+04  0.50400001928E-02 0. -1.
       -1   -1    0    0    0  501  0.00000000000E+00  0.00000000000E+00 -0.21768089567E+03  0.21768089573E+03  0.50400001928E-02 0.  1.
    10030    2    1    2    0    0  0.00000000000E+00  0.00000000000E+00  0.20249674898E+04  0.24603292812E+04  0.13974000276E+04 0.  0.
        3    1    3    3  502    0 -0.36697008223E+03  0.29590564897E+03  0.10450399414E+03  0.48285431482E+03  0.10100000352E+00 0.  1.
       -3    1    3    3    0  502  0.36697008223E+03 -0.29590564897E+03  0.19204634956E+04  0.19774749664E+04  0.10100000352E+00 0. -1.
</event>
<event>
 5   0  0.1794185E-04  0.1396447E+04  0.7818609E-02  0.8956394E-01
        2   -1    0    0  501    0  0.00000000000E+00  0.00000000000E+00  0.44283125869E+03  0.44283125870E+03  0.25500000920E-02 0. -1.
       -2   -1    0    0    0  501  0.00000000000E+00  0.00000000000E+00 -0.11009073566E+04  0.11009073566E+04  0.25500000920E-02 0.  1.
    10030    2    1    2    0    0  0.00000000000E+00  0.00000000000E+00 -0.65807609786E+03  0.15437386153E+04  0.13964471926E+04 0.  0.
        2    1    3    3  502    0 -0.63603525216E+03  0.14209192789E+03 -0.60603692298E+03  0.88995039749E+03  0.25500000920E-02 0.  1.
       -2    1    3    3    0  502  0.63603525216E+03 -0.14209192789E+03 -0.52039174884E+02  0.65378821777E+03  0.25500000920E-02 0. -1.
</event>
<event>
 5   0  0.1712327E-04  0.1399743E+04  0.7818609E-02  0.8954005E-01
       -2   -1    0    0    0  501  0.00000000000E+00  0.00000000000E+00  0.58590860660E+03  0.58590860661E+03  0.25500000920E-02 0. -1.
        2   -1    0    0  501    0  0.00000000000E+00  0.00000000000E+00 -0.83600040933E+03  0.83600040934E+03  0.25500000920E-02 0.  1.
    10030    2    1    2    0    0  0.00000000000E+00  0.00000000000E+00 -0.25009180273E+03  0.14219090159E+04  0.13997425977E+04 0.  0.
        1    1    3    3  502    0 -0.33267828932E+03  0.36016572237E+03 -0.63238014724E+03  0.80018675470E+03  0.50400001928E-02 0.  1.
       -1    1    3    3    0  502  0.33267828932E+03 -0.36016572237E+03  0.38228834451E+03  0.62172226124E+03  0.50400001928E-02 0. -1.
</event>
<event>
 5   0  0.9260916E-05  0.1397937E+04  0.7818609E-02  0.8955313E-01
       -1   -1    0    0    0  501  0.00000000000E+00  0.00000000000E+00  0.16391041407E+04  0.16391041408E+04  0.50400001928E-02 0.  1.
        1   -1    0    0  501    0  0.00000000000E+00  0.00000000000E+00 -0.29806359822E+03  0.29806359826E+03  0.50400001928E-02 0. -1.
    10030    2    1    2    0    0  0.00000000000E+00  0.00000000000E+00  0.13410405425E+04  0.19371677390E+04  0.13979374494E+04 0.  0.
        1    1    3    3  502    0 -0.56446019946E+03 -0.30794345053E+03  0.29073646499E+03  0.70567143743E+03  0.50400001928E-02 0. -1.
       -1    1    3    3    0  502  0.56446019946E+03  0.30794345053E+03  0.10503040775E+04  0.12314963016E+04  0.50400001928E-02 0.  1.
</event>
<event>
 5   0  0.1794185E-04  0.1398734E+04  0.7818609E-02  0.8954735E-01
       -2   -1    0    0    0  501  0.00000000000E+00  0.00000000000E+00  0.11372018256E+04  0.11372018256E+04  0.25500000920E-02 0. -1.
        2   -1    0    0  501    0  0.00000000000E+00  0.00000000000E+00 -0.43010331030E+03  0.43010331031E+03  0.25500000920E-02 0.  1.
    10030    2    1    2    0    0  0.00000000000E+00  0.00000000000E+00  0.70709851527E+03  0.15673051359E+04  0.13987340986E+04 0.  0.
        2    1    3    3  502    0  0.19706832172E+03  0.32743238868E+03  0.10098569168E+04  0.10797494547E+04  0.25500000920E-02 0. -1.
       -2    1    3    3    0  502 -0.19706832172E+03 -0.32743238868E+03 -0.30275840149E+03  0.48755568119E+03  0.25500000920E-02 0.  1.
</event>
<event>
 5   0  0.9828111E-05  0.1400825E+04  0.7818609E-02  0.8953222E-01
        1   -1    0    0  501    0  0.00000000000E+00  0.00000000000E+00  0.11858396420E+04  0.11858396420E+04  0.50400001928E-02 0. -1.
       -1   -1    0    0    0  501  0.00000000000E+00  0.00000000000E+00 -0.41369627223E+03  0.41369627226E+03  0.50400001928E-02 0.  1.
    10030    2    1    2    0    0  0.00000000000E+00  0.00000000000E+00  0.77214336977E+03  0.15995359143E+04  0.14008246705E+04 0.  0.
        4    1    3    3  502    0  0.61466244344E+03  0.84242190359E+01  0.76939251651E+03  0.98480827789E+03  0.12699999809E+01 0. -1.
       -4    1    3    3    0  502 -0.61466244344E+03 -0.84242190359E+01  0.27508532569E+01  0.61472763638E+03  0.12699999809E+01 0.  1.
</event>
<event>
 5   0  0.6671375E-05  0.1394775E+04  0.7818609E-02  0.8957609E-01
       -1   -1    0    0    0  501  0.00000000000E+00  0.00000000000E+00  0.37709929779E+03  0.37709929782E+03  0.50400001928E-02 0. -1.
        1   -1    0    0  501    0  0.00000000000E+00  0.00000000000E+00 -0.12897114062E+04  0.12897114062E+04  0.50400001928E-02 0.  1.
    10030    2    1    2    0    0  0.00000000000E+00  0.00000000000E+00 -0.91261210845E+03  0.16668107041E+04  0.13947749147E+04 0.  0.
        5    1    3    3  502    0  0.19921475726E+03  0.62495854153E+03 -0.73927427347E+03  0.98833609645E+03  0.46999998093E+01 0.  1.
       -5    1    3    3    0  502 -0.19921475726E+03 -0.62495854153E+03 -0.17333783498E+03  0.67847460761E+03  0.46999998093E+01 0. -1.
</event>
<event>
 5   0  0.9900839E-05  0.1400118E+04  0.7818609E-02  0.8953733E-01
       -1   -1    0    0    0  501  0.00000000000E+00  0.00000000000E+00  0.98710513003E+03  0.98710513004E+03  0.50400001928E-02 0. -1.
        1   -1    0    0  501    0  0.00000000000E+00  0.00000000000E+00 -0.49648475304E+03  0.49648475306E+03  0.50400001928E-02 0.  1.
    10030    2    1    2    0    0  0.00000000000E+00  0.00000000000E+00  0.49062037699E+03  0.14835898831E+04  0.14001180618E+04 0.  0.
        3    1    3    3  502    0 -0.65986171426E+03  0.70631055270E+02  0.91404219135E+01  0.66369404505E+03  0.10100000352E+00 0.  1.
       -3    1    3    3    0  502  0.65986171426E+03 -0.70631055270E+02  0.48147995508E+03  0.81989583806E+03  0.10100000352E+00 0. -1.
</event>
<event>
 5   0  0.1780171E-04  0.1376488E+04  0.7818609E-02  0.8971016E-01
       -2   -1    0    0    0  501  0.00000000000E+00  0.00000000000E+00  0.43385604376E+03  0.43385604377E+03  0.25500000920E-02 0. -1.
        2   -1    0    0  501    0  0.00000000000E+00  0.00000000000E+00 -0.10917899308E+04  0.10917899308E+04  0.25500000920E-02 0.  1.
    10030    2    1    2    0    0  0.00000000000E+00  0.00000000000E+00 -0.65793388704E+03  0.15256459746E+04  0.13764877915E+04 0.  0.
        5    1    3    3  502    0  0.21464916256E+03  0.52384351345E+03 -0.76274749351E+03  0.94989058235E+03  0.46999998093E+01 0.  1.
       -5    1    3    3    0  502 -0.21464916256E+03 -0.52384351345E+03  0.10481360647E+03  0.57575539222E+03  0.46999998093E+01 0. -1.
</event>
<event>
 5   0  0.1794185E-04  0.1398662E+04  0.7818609E-02  0.8954788E-01
       -2   -1    0    0    0  501  0.00000000000E+00  0.00000000000E+00  0.28104047179E+03  0.28104047180E+03  0.25500000920E-02 0. -1.
        2   -1    0    0  501    0  0.00000000000E+00  0.00000000000E+00 -0.17401892572E+04  0.17401892572E+04  0.25500000920E-02 0.  1.
    10030    2    1    2    0    0  0.00000000000E+00  0.00000000000E+00 -0.14591487854E+04  0.20212297290E+04  0.13986616601E+04 0.  0.
        2    1    3    3  502    0 -0.25265631964E+03  0.54563147192E+03 -0.21353468770E+03  0.63807991808E+03  0.25500000920E-02 0. -1.
       -2    1    3    3    0  502  0.25265631964E+03 -0.54563147192E+03 -0.12456140977E+04  0.13831498109E+04  0.25500000920E-02 0.  1.
</event>
<event>
 5   0  0.6671375E-05  0.1404822E+04  0.7818609E-02  0.8950336E-01
       -1   -1    0    0    0  501  0.00000000000E+00  0.00000000000E+00  0.45833707408E+03  0.45833707411E+03  0.50400001928E-02 0. -1.
        1   -1    0    0  501    0  0.00000000000E+00  0.00000000000E+00 -0.10764591395E+04  0.10764591396E+04  0.50400001928E-02 0.  1.
    10030    2    1    2    0    0  0.00000000000E+00  0.00000000000E+00 -0.61812206546E+03  0.15347962137E+04  0.14048218854E+04 0.  0.
        5    1    3    3  502    0  0.35574763759E+03 -0.55671765590E+03 -0.56959470516E+03  0.87232513903E+03  0.46999998093E+01 0.  1.
       -5    1    3    3    0  502 -0.35574763759E+03  0.55671765590E+03 -0.48527360302E+02  0.66247107464E+03  0.46999998093E+01 0. -1.
</event>
<event>
 5   0  0.6671375E-05  0.1396683E+04  0.7818609E-02  0.8956223E-01
        3   -1    0    0  501    0  0.00000000000E+00  0.00000000000E+00  0.36222120065E+03  0.36222121473E+03  0.10100000352E+00 0.  1.
       -3   -1    0    0    0  501  0.00000000000E+00  0.00000000000E+00 -0.13463615555E+04  0.13463615593E+04  0.10100000352E+00 0. -1.
    10030    2    1    2    0    0  0.00000000000E+00  0.00000000000E+00 -0.98414035489E+03  0.17085827741E+04  0.13966828050E+04 0.  0.
        5    1    3    3  502    0 -0.27699477626E+03  0.18769709341E+03 -0.12418956246E+04  0.12861893863E+04  0.46999998093E+01 0. -1.
       -5    1    3    3    0  502  0.27699477626E+03 -0.18769709341E+03  0.25775526974E+03  0.42239338776E+03  0.46999998093E+01 0.  1.
</event>
<event>
 5   0  0.6671375E-05  0.1401942E+04  0.7818609E-02  0.8952414E-01
        1   -1    0    0  501    0  0.00000000000E+00  0.00000000000E+00  0.63211547336E+03  0.63211547338E+03  0.50400001928E-02 0.  1.
       -1   -1    0    0    0  501  0.00000000000E+00  0.00000000000E+00 -0.77732652663E+03  0.77732652665E+03  0.50400001928E-02 0. -1.
    10030    2    1    2    0    0  0.00000000000E+00  0.00000000000E+00 -0.14521105327E+03  0.14094420000E+04  0.14019416898E+04 0.  0.
        5    1    3    3  502    0  0.28829471606E+02  0.23307698232E+03  0.59136856985E+03  0.63631351827E+03  0.46999998093E+01 0.  1.
       -5    1    3    3    0  502 -0.28829471606E+02 -0.23307698232E+03 -0.73657962312E+03  0.77312848177E+03  0.46999998093E+01 0. -1.
</event>
<event>
 5   0  0.9978422E-05  0.1404157E+04  0.7818609E-02  0.8950815E-01
        1   -1    0    0  501    0  0.00000000000E+00  0.00000000000E+00  0.59630319687E+03  0.59630319690E+03  0.50400001928E-02 0. -1.
       -1   -1    0    0    0  501  0.00000000000E+00  0.00000000000E+00 -0.82661663759E+03  0.82661663761E+03  0.50400001928E-02 0.  1.
    10030    2    1    2    0    0  0.00000000000E+00  0.00000000000E+00 -0.23031344072E+03  0.14229198345E+04  0.14041568910E+04 0.  0.
        2    1    3    3  502    0 -0.35424868612E+02 -0.42917711648E+03 -0.67706250804E+03  0.80240984442E+03  0.25500000920E-02 0.  1.
       -2    1    3    3    0  502  0.35424868612E+02  0.42917711648E+03  0.44674906732E+03  0.62050999008E+03  0.25500000920E-02 0. -1.
</event>
<event>
 5   0  0.9260916E-05  0.1398032E+04  0.7818609E-02  0.8955244E-01
       -1   -1    0    0    0  501  0.00000000000E+00  0.00000000000E+00  0.43830217308E+03  0.43830217311E+03  0.50400001928E-02 0. -1.
        1   -1    0    0  501    0  0.00000000000E+00  0.00000000000E+00 -0.11148099019E+04  0.11148099019E+04  0.50400001928E-02 0.  1.
    10030    2    1    2    0    0  0.00000000000E+00  0.00000000000E+00 -0.67650772885E+03  0.15531120750E+04  0.13980323353E+04 0.  0.
        1    1    3    3  502    0 -0.47471111226E+03 -0.28878883437E+03 -0.80941530598E+03  0.98178550027E+03  0.50400001928E-02 0.  1.
       -1    1    3    3    0  502  0.47471111226E+03  0.28878883437E+03  0.13290757713E+03  0.57132657478E+03  0.50400001928E-02 0. -1.
</event>
<event>
 5   0  0.1794185E-04  0.1400627E+04  0.7818609E-02  0.8953365E-01
       -2   -1    0    0    0  501  0.00000000000E+00  0.00000000000E+00  0.15596271687E+03  0.15596271689E+03  0.25500000920E-02 0. -1.
        2   -1    0    0  501    0  0.00000000000E+00  0.00000000000E+00 -0.31445912760E+04  0.31445912760E+04  0.25500000920E-02 0.  1.
    10030    2    1    2    0    0  0.00000000000E+00  0.00000000000E+00 -0.29886285591E+04  0.33005539929E+04  0.14006270009E+04 0.  0.
        2    1    3    3  502    0 -0.62123504389E+03 -0.51264057366E+02 -0.74216406137E+03  0.96921023381E+03  0.25500000920E-02 0. -1.
       -2    1    3    3    0  502  0.62123504389E+03  0.51264057366E+02 -0.22464644978E+04  0.23313437591E+04  0.25500000920E-02 0.  1.
</event>
<event>
 5   0  0.9260916E-05  0.1387357E+04  0.7818609E-02  0.8963022E-01
        1   -1    0    0  501    0  0.00000000000E+00  0.00000000000E+00  0.15656742100E+04  0.15656742100E+04  0.50400001928E-02 0.  1.
       -1   -1    0    0    0  501  0.00000000000E+00  0.00000000000E+00 -0.30733696109E+03  0.30733696113E+03  0.50400001928E-02 0. -1.
    10030    2    1    2    0    0  0.00000000000E+00  0.00000000000E+00  0.12583372489E+04  0.18730111712E+04  0.13873565566E+04 0.  0.
        1    1    3    3  502    0 -0.64413244226E+03 -0.87571669113E+02  0.30231483466E+03  0.71691677319E+03  0.50400001928E-02 0.  1.
       -1    1    3    3    0  502  0.64413244226E+03  0.87571669113E+02  0.95602241427E+03  0.11560943980E+04  0.50400001928E-02 0. -1.
</event>
<event>
 5   0  0.6671375E-05  0.1403035E+04  0.7818609E-02  0.8951625E-01
       -3   -1    0    0    0  501  0.00000000000E+00  0.00000000000E+00  0.61915861475E+03  0.61915862299E+03  0.10100000352E+00 0. -1.
        3   -1    0    0  501    0  0.00000000000E+00  0.00000000000E+00 -0.79483166548E+03  0.79483167190E+03  0.10100000352E+00 0.  1.
    10030    2    1    2    0    0  0.00000000000E+00  0.00000000000E+00 -0.17567305073E+03  0.14139902949E+04  0.14030351148E+04 0.  0.
        2    1    3    3  502    0  0.11036391742E+03 -0.47482322425E+03 -0.59624514278E+03  0.77015943730E+03  0.25500000920E-02 0.  1.
       -2    1    3    3    0  502 -0.11036391742E+03  0.47482322425E+03  0.42057209205E+03  0.64383085759E+03  0.25500000920E-02 0. -1.
</event>
<event>
 5   0  0.6671375E-05  0.1405706E+04  0.7818609E-02  0.8949699E-01
        3   -1    0    0  501    0  0.00000000000E+00  0.00000000000E+00  0.59475944094E+03  0.59475944952E+03  0.10100000352E+00 0. -1.
       -3   -1    0    0    0  501  0.00000000000E+00  0.00000000000E+00 -0.83059180180E+03  0.83059180794E+03  0.10100000352E+00 0.  1.
    10030    2    1    2    0    0  0.00000000000E+00  0.00000000000E+00 -0.23583236085E+03  0.14253512575E+04  0.14057059809E+04 0.  0.
        5    1    3    3  502    0 -0.39016277843E+03 -0.21876303832E+03  0.43178191234E+03  0.62172499582E+03  0.46999998093E+01 0. -1.
       -5    1    3    3    0  502  0.39016277843E+03  0.21876303832E+03 -0.66761427320E+03  0.80362626163E+03  0.46999998093E+01 0.  1.
</event>
<event>
 5   0  0.1780171E-04  0.1401375E+04  0.7818609E-02  0.8952824E-01
       -2   -1    0    0    0  501  0.00000000000E+00  0.00000000000E+00  0.14859474701E+03  0.14859474703E+03  0.25500000920E-02 0. -1.
        2   -1    0    0  501    0  0.00000000000E+00  0.00000000000E+00 -0.33040385043E+04  0.33040385043E+04  0.25500000920E-02 0.  1.
    10030    2    1    2    0    0  0.00000000000E+00  0.00000000000E+00 -0.31554437573E+04  0.34526332514E+04  0.14013747046E+04 0.  0.
        5    1    3    3  502    0 -0.41016105023E+03 -0.56722379368E+03 -0.15011569315E+04  0.16563420969E+04  0.46999998093E+01 0.  1.
       -5    1    3    3    0  502  0.41016105023E+03  0.56722379368E+03 -0.16542868259E+04  0.17962911544E+04  0.46999998093E+01 0. -1.
</event>
<event>
 5   0  0.9900839E-05  0.1397091E+04  0.7818609E-02  0.8955927E-01
       -1   -1    0    0    0  501  0.00000000000E+00  0.00000000000E+00  0.54472622576E+03  0.54472622578E+03  0.50400001928E-02 0. -1.
        1   -1    0    0  501    0  0.00000000000E+00  0.00000000000E+00 -0.89580016804E+03  0.89580016806E+03  0.50400001928E-02 0.  1.
    10030    2    1    2    0    0  0.00000000000E+00  0.00000000000E+00 -0.35107394229E+03  0.14405263938E+04  0.13970910416E+04 0.  0.
        3    1    3    3  502    0 -0.30045198989E+03 -0.47298415177E+03 -0.60561445872E+03  0.82507835317E+03  0.10100000352E+00 0.  1.
       -3    1    3    3    0  502  0.30045198989E+03  0.47298415177E+03  0.25454051644E+03  0.61544804067E+03  0.10100000352E+00 0. -1.
</event>
<event>
 5   0  0.6671375E-05  0.1395979E+04  0.7818609E-02  0.8956734E-01
        1   -1    0    0  501    0  0.00000000000E+00  0.00000000000E+00  0.10270177875E+04  0.10270177875E+04  0.50400001928E-02 0.  1.
       -1   -1    0    0    0  501  0.00000000000E+00  0.00000000000E+00 -0.47437312535E+03  0.47437312538E+03  0.50400001928E-02 0. -1.
    10030    2    1    2    0    0  0.00000000000E+00  0.00000000000E+00  0.55264466214E+03  0.15013909129E+04  0.13959794235E+04 0.  0.
        5    1    3    3  502    0  0.32216236662E+03 -0.26441338154E+02  0.94164533937E+03  0.99559317494E+03  0.46999998093E+01 0.  1.
       -5    1    3    3    0  502 -0.32216236662E+03  0.26441338154E+02 -0.38900067723E+03  0.50579773795E+03  0.46999998093E+01 0. -1.
</event>
<event>
 5   0  0.6671375E-05  0.1399940E+04  0.7818609E-02  0.8953862E-01
       -1   -1    0    0    0  501  0.00000000000E+00  0.00000000000E+00  0.17482006784E+03  0.17482006791E+03  0.50400001928E-02 0. -1.
        1   -1    0    0  501    0  0.00000000000E+00  0.00000000000E+00 -0.28026409769E+04  0.28026409769E+04  0.50400001928E-02 0.  1.
    10030    2    1    2    0    0  0.00000000000E+00  0.00000000000E+00 -0.26278209090E+04  0.29774610448E+04  0.13999398356E+04 0.  0.
        5    1    3    3  502    0 -0.16300036836E+02  0.40477912642E+03 -0.99883784163E+02  0.41726573394E+03  0.46999998093E+01 0. -1.
       -5    1    3    3    0  502  0.16300036836E+02 -0.40477912642E+03 -0.25279371249E+04  0.25601953108E+04  0.46999998093E+01 0.  1.
</event>
<event>
 5   0  0.1794185E-04  0.1408845E+04  0.7818609E-02  0.8947441E-01
        2   -1    0    0  501    0  0.00000000000E+00  0.00000000000E+00  0.17674389089E+04  0.17674389089E+04  0.25500000920E-02 0. -1.
       -2   -1    0    0    0  501  0.00000000000E+00  0.00000000000E+00 -0.28075163071E+03  0.28075163072E+03  0.25500000920E-02 0.  1.
    10030    2    1    2    0    0  0.00000000000E+00  0.00000000000E+00  0.14866872782E+04  0.20481905396E+04  0.14088454221E+04 0.  0.
        2    1    3    3  502    0 -0.33956991238E+03  0.23838548186E+03  0.15709626166E+04  0.16248258079E+04  0.25500000920E-02 0. -1.
       -2    1    3    3    0  502  0.33956991238E+03 -0.23838548186E+03 -0.84275338429E+02  0.42336473168E+03  0.25500000920E-02 0.  1.
</event>
<event>
 5   0  0.6671375E-05  0.1399741E+04  0.7818609E-02  0.8954006E-01
       -1   -1    0    0    0  501  0.00000000000E+00  0.00000000000E+00  0.47492990689E+03  0.47492990691E+03  0.50400001928E-02 0. -1.
        1   -1    0    0  501    0  0.00000000000E+00  0.00000000000E+00 -0.10313501553E+04  0.10313501553E+04  0.50400001928E-02 0.  1.
    10030    2    1    2    0    0  0.00000000000E+00  0.00000000000E+00 -0.55642024842E+03  0.15062800622E+04  0.13997414522E+04 0.  0.
        5    1    3    3  502    0 -0.26540462464E+03 -0.31139785644E+03  0.33279916289E+03  0.52743304087E+03  0.46999998093E+01 0. -1.
       -5    1    3    3    0  502  0.26540462464E+03  0.31139785644E+03 -0.88921941131E+03  0.97884702136E+03  0.46999998093E+01 0.  1.
</event>
<event>
 5   0  0.9260916E-05  0.1399605E+04  0.7818609E-02  0.8954105E-01
        1   -1    0    0  501    0  0.00000000000E+00  0.00000000000E+00  0.70203053439E+03  0.70203053441E+03  0.50400001928E-02 0. -1.
       -1   -1    0    0    0  501  0.00000000000E+00  0.00000000000E+00 -0.69758140310E+03  0.69758140312E+03  0.50400001928E-02 0.  1.
    10030    2    1    2    0    0  0.00000000000E+00  0.00000000000E+00  0.44491312876E+01  0.13996119375E+04  0.13996048660E+04 0.  0.
        1    1    3    3  502    0 -0.25978331310E+03 -0.22775935235E+03 -0.60635204858E+03  0.69787140591E+03  0.50400001928E-02 0.  1.
       -1    1    3    3    0  502  0.25978331310E+03  0.22775935235E+03  0.61080117987E+03  0.70174053161E+03  0.50400001928E-02 0. -1.
</event>
<event>
 5   0  0.1794185E-04  0.1398443E+04  0.7818609E-02  0.8954947E-01
       -2   -1    0    0    0  501  0.00000000000E+00  0.00000000000E+00  0.44349632734E+03  0.44349632735E+03  0.25500000920E-02 0. -1.
        2   -1    0    0  501    0  0.00000000000E+00  0.00000000000E+00 -0.11024002416E+04  0.11024002416E+04  0.25500000920E-02 0.  1.
    10030    2    1    2    0    0  0.00000000000E+00  0.00000000000E+00 -0.65890391421E+03  0.15458965689E+04  0.13984426458E+04 0.  0.
        2    1    3    3  502    0 -0.52070170498E+03  0.49849156035E+02 -0.84237593593E+03  0.99157068400E+03  0.25500000920E-02 0.  1.
       -2    1    3    3    0  502  0.52070170498E+03 -0.49849156035E+02  0.18347202171E+03  0.55432588491E+03  0.25500000920E-02 0. -1.
</event>
<event>
 5   0  0.9978422E-05  0.1400352E+04  0.7818609E-02  0.8953564E-01
        1   -1    0    0  501    0  0.00000000000E+00  0.00000000000E+00  0.14883471392E+04  0.14883471393E+04  0.50400001928E-02 0.  1.
       -1   -1    0    0    0  501  0.00000000000E+00  0.00000000000E+00 -0.32938988229E+03  0.32938988232E+03  0.50400001928E-02 0. -1.
    10030    2    1    2    0    0  0.00000000000E+00  0.00000000000E+00  0.11589572570E+04  0.18177370216E+04  0.14003520829E+04 0.  0.
        2    1    3    3  502    0 -0.41448904668E+03  0.43374222132E+03  0.11089437522E+03  0.61010740599E+03  0.25500000920E-02 0. -1.
       -2    1    3    3    0  502  0.41448904668E+03 -0.43374222132E+03  0.10480628817E+04  0.12076296156E+04  0.25500000920E-02 0.  1.
</event>
<event>
 5   0  0.9978422E-05  0.1399234E+04  0.7818609E-02  0.8954373E-01
       -1   -1    0    0    0  501  0.00000000000E+00  0.00000000000E+00  0.46314407051E+03  0.46314407053E+03  0.50400001928E-02 0. -1.
        1   -1    0    0  501    0  0.00000000000E+00  0.00000000000E+00 -0.10568288594E+04  0.10568288595E+04  0.50400001928E-02 0.  1.
    10030    2    1    2    0    0  0.00000000000E+00  0.00000000000E+00 -0.59368478894E+03  0.15199729300E+04  0.13992341045E+04 0.  0.
        2    1    3    3  502    0 -0.27279940029E+03  0.59203957653E+03 -0.57279759024E+03  0.86777154388E+03  0.25500000920E-02 0.  1.
       -2    1    3    3    0  502  0.27279940029E+03 -0.59203957653E+03 -0.20887198701E+02  0.65220138611E+03  0.25500000920E-02 0. -1.
</event>
<event>
 5   0  0.9828111E-05  0.1400928E+04  0.7818609E-02  0.8953147E-01
        1   -1    0    0  501    0  0.00000000000E+00  0.00000000000E+00  0.13008563538E+04  0.13008563538E+04  0.50400001928E-02 0. -1.
       -1   -1    0    0    0  501  0.00000000000E+00  0.00000000000E+00 -0.37717426168E+03  0.37717426172E+03  0.50400001928E-02 0.  1.
    10030    2    1    2    0    0  0.00000000000E+00  0.00000000000E+00  0.92368209211E+03  0.16780306155E+04  0.14009275996E+04 0.  0.
        4    1    3    3  502    0 -0.52020592724E+03  0.24344277613E+03 -0.18429319272E+02  0.57464758305E+03  0.12699999809E+01 0.  1.
       -4    1    3    3    0  502  0.52020592724E+03 -0.24344277613E+03  0.94211141138E+03  0.11033830325E+04  0.12699999809E+01 0. -1.
</event>
<event>
 5   0  0.9828111E-05  0.1397200E+04  0.7818609E-02  0.8955848E-01
       -1   -1    0    0    0  501  0.00000000000E+00  0.00000000000E+00  0.63587067855E+03  0.63587067857E+03  0.50400001928E-02 0. -1.
        1   -1    0    0  501    0  0.00000000000E+00  0.00000000000E+00 -0.76751733885E+03  0.76751733887E+03  0.50400001928E-02 0.  1.
    10030    2    1    2    0    0  0.00000000000E+00  0.00000000000E+00 -0.13164666030E+03  0.14033880174E+04  0.13971997296E+04 0.  0.
        4    1    3    3  502    0 -0.31333364637E+02  0.25678850159E+03 -0.71763359614E+03  0.76283792872E+03  0.12699999809E+01 0.  1.
       -4    1    3    3    0  502  0.31333364637E+02 -0.25678850159E+03  0.58598693584E+03  0.64055008872E+03  0.12699999809E+01 0. -1.
</event>
<event>
 5   0  0.6671375E-05  0.1397628E+04  0.7818609E-02  0.8955537E-01
       -1   -1    0    0    0  501  0.00000000000E+00  0.00000000000E+00  0.24089577242E+03  0.24089577248E+03  0.50400001928E-02 0. -1.
        1   -1    0    0  501    0  0.00000000000E+00  0.00000000000E+00 -0.20271888307E+04  0.20271888307E+04  0.50400001928E-02 0.  1.
    10030    2    1    2    0    0  0.00000000000E+00  0.00000000000E+00 -0.17862930583E+04  0.22680846032E+04  0.13976283044E+04 0.  0.
        5    1    3    3  502    0 -0.60529200083E+03 -0.89094084048E+01 -0.32664570300E+03  0.68787883317E+03  0.46999998093E+01 0. -1.
       -5    1    3    3    0  502  0.60529200083E+03  0.89094084048E+01 -0.14596473553E+04  0.15802057700E+04  0.46999998093E+01 0.  1.
</event>
<event>
 5   0  0.9900839E-05  0.1387158E+04  0.7818609E-02  0.8963167E-01
       -1   -1    0    0    0  501  0.00000000000E+00  0.00000000000E+00  0.61774778377E+03  0.61774778379E+03  0.50400001928E-02 0. -1.
        1   -1    0    0  501    0  0.00000000000E+00  0.00000000000E+00 -0.77871843745E+03  0.77871843746E+03  0.50400001928E-02 0.  1.
    10030    2    1    2    0    0  0.00000000000E+00  0.00000000000E+00 -0.16097065367E+03  0.13964662213E+04  0.13871576535E+04 0.  0.
        3    1    3    3  502    0  0.36203633954E+03  0.20276287910E+03  0.47900348959E+03  0.63374083782E+03  0.10100000352E+00 0. -1.
       -3    1    3    3    0  502 -0.36203633954E+03 -0.20276287910E+03 -0.63997414326E+03  0.76272538343E+03  0.10100000352E+00 0.  1.
</event>
<event>
 5   0  0.1780171E-04  0.1377681E+04  0.7818609E-02  0.8970135E-01
       -2   -1    0    0    0  501  0.00000000000E+00  0.00000000000E+00  0.35390933361E+03  0.35390933362E+03  0.25500000920E-02 0. -1.
        2   -1    0    0  501    0  0.00000000000E+00  0.00000000000E+00 -0.13407416909E+04  0.13407416909E+04  0.25500000920E-02 0.  1.
    10030    2    1    2    0    0  0.00000000000E+00  0.00000000000E+00 -0.98683235729E+03  0.16946510245E+04  0.13776806573E+04 0.  0.
        5    1    3    3  502    0  0.24694101866E+03  0.49358808327E+03 -0.10003950541E+04  0.11425504002E+04  0.46999998093E+01 0.  1.
       -5    1    3    3    0  502 -0.24694101866E+03 -0.49358808327E+03  0.13562696848E+02  0.55210062433E+03  0.46999998093E+01 0. -1.
</event>
<event>
 5   0  0.6671375E-05  0.1400298E+04  0.7818609E-02  0.8953603E-01
        1   -1    0    0  501    0  0.00000000000E+00  0.00000000000E+00  0.36160107088E+03  0.36160107091E+03  0.50400001928E-02 0.  1.
       -1   -1    0    0    0  501  0.00000000000E+00  0.00000000000E+00 -0.13556619420E+04  0.13556619420E+04  0.50400001928E-02 0. -1.
    10030    2    1    2    0    0  0.00000000000E+00  0.00000000000E+00 -0.99406087112E+03  0.17172630129E+04  0.14002982682E+04 0.  0.
        5    1    3    3  502    0  0.55087532574E+03 -0.30914756612E+03 -0.12677905025E+03  0.64430649518E+03  0.46999998093E+01 0.  1.
       -5    1    3    3    0  502 -0.55087532574E+03  0.30914756612E+03 -0.86728182087E+03  0.10729565177E+04  0.46999998093E+01 0. -1.
</event>
<event>
 5   0  0.1712327E-04  0.1399521E+04  0.7818609E-02  0.8954165E-01
       -2   -1    0    0    0  501  0.00000000000E+00  0.00000000000E+00  0.13389419438E+04  0.13389419438E+04  0.25500000920E-02 0. -1.
        2   -1    0    0  501    0  0.00000000000E+00  0.00000000000E+00 -0.36571044946E+03  0.36571044946E+03  0.25500000920E-02 0.  1.
    10030    2    1    2    0    0  0.00000000000E+00  0.00000000000E+00  0.97323149436E+03  0.17046523933E+04  0.13995214326E+04 0.  0.
        1    1    3    3  502    0  0.36925952999E+03  0.48446103736E+03  0.67130333906E+02  0.61283079146E+03  0.50400001928E-02 0.  1.
       -1    1    3    3    0  502 -0.36925952999E+03 -0.48446103736E+03  0.90610116046E+03  0.10918216018E+04  0.50400001928E-02 0. -1.
</event>
<event>
 5   0  0.9900839E-05  0.1405088E+04  0.7818609E-02  0.8950144E-01
       -1   -1    0    0    0  501  0.00000000000E+00  0.00000000000E+00  0.25977670912E+03  0.25977670917E+03  0.50400001928E-02 0.  1.
        1   -1    0    0  501    0  0.00000000000E+00  0.00000000000E+00 -0.18999699987E+04  0.18999699987E+04  0.50400001928E-02 0. -1.
    10030    2    1    2    0    0  0.00000000000E+00  0.00000000000E+00 -0.16401932896E+04  0.21597467079E+04  0.14050878318E+04 0.  0.
        3    1    3    3  502    0 -0.29977410117E+03 -0.23248673113E+03 -0.17290010236E+04  0.17701296963E+04  0.10100000352E+00 0. -1.
       -3    1    3    3    0  502  0.29977410117E+03  0.23248673113E+03  0.88807734025E+02  0.38961701158E+03  0.10100000352E+00 0.  1.
</event>
<event>
 5   0  0.9978422E-05  0.1402311E+04  0.7818609E-02  0.8952147E-01
        1   -1    0    0  501    0  0.00000000000E+00  0.00000000000E+00  0.86129610438E+03  0.86129610440E+03  0.50400001928E-02 0. -1.
       -1   -1    0    0    0  501  0.00000000000E+00  0.00000000000E+00 -0.57079005409E+03  0.57079005411E+03  0.50400001928E-02 0.  1.
    10030    2    1    2    0    0  0.00000000000E+00  0.00000000000E+00  0.29050605030E+03  0.14320861585E+04  0.14023113064E+04 0.  0.
        2    1    3    3  502    0 -0.26020967151E+03  0.54599433075E+03 -0.21696133719E+03  0.64256603101E+03  0.25500000920E-02 0.  1.
       -2    1    3    3    0  502  0.26020967151E+03 -0.54599433075E+03  0.50746738749E+03  0.78952012750E+03  0.25500000920E-02 0. -1.
</event>
<event>
 5   0  0.6671375E-05  0.1401823E+04  0.7818609E-02  0.8952500E-01
       -1   -1    0    0    0  501  0.00000000000E+00  0.00000000000E+00  0.32630226649E+03  0.32630226653E+03  0.50400001928E-02 0.  1.
        1   -1    0    0  501    0  0.00000000000E+00  0.00000000000E+00 -0.15055888269E+04  0.15055888269E+04  0.50400001928E-02 0. -1.
    10030    2    1    2    0    0  0.00000000000E+00  0.00000000000E+00 -0.11792865604E+04  0.18318910934E+04  0.14018231652E+04 0.  0.
        5    1    3    3  502    0  0.65004658794E+03  0.33211911227E+02 -0.92938744653E+03  0.11346570906E+04  0.46999998093E+01 0. -1.
       -5    1    3    3    0  502 -0.65004658794E+03 -0.33211911227E+02 -0.24989911387E+03  0.69723400280E+03  0.46999998093E+01 0.  1.
</event>
<event>
 5   0  0.1712327E-04  0.1402160E+04  0.7818609E-02  0.8952257E-01
        2   -1    0    0  501    0  0.00000000000E+00  0.00000000000E+00  0.46365942367E+03  0.46365942368E+03  0.25500000920E-02 0.  1.
       -2   -1    0    0    0  501  0.00000000000E+00  0.00000000000E+00 -0.10600732422E+04  0.10600732422E+04  0.25500000920E-02 0. -1.
    10030    2    1    2    0    0  0.00000000000E+00  0.00000000000E+00 -0.59641381848E+03  0.15237326658E+04  0.14021596892E+04 0.  0.
        1    1    3    3  502    0  0.39671479798E+03 -0.35424477094E+03  0.19816944695E+03  0.56757653088E+03  0.50400001928E-02 0.  1.
       -1    1    3    3    0  502 -0.39671479798E+03  0.35424477094E+03 -0.79458326544E+03  0.95615613496E+03  0.50400001928E-02 0. -1.
</event>
<event>
 5   0  0.1766237E-04  0.1401302E+04  0.7818609E-02  0.8952877E-01
        2   -1    0    0  501    0  0.00000000000E+00  0.00000000000E+00  0.10814935966E+04  0.10814935966E+04  0.25500000920E-02 0.  1.
       -2   -1    0    0    0  501  0.00000000000E+00  0.00000000000E+00 -0.45391995400E+03  0.45391995400E+03  0.25500000920E-02 0. -1.
    10030    2    1    2    0    0  0.00000000000E+00  0.00000000000E+00  0.62757364264E+03  0.15354135506E+04  0.14013015716E+04 0.  0.
        3    1    3    3  502    0  0.24341754359E+03 -0.62869455330E+03  0.52284145214E+03  0.85315422765E+03  0.10100000352E+00 0. -1.
       -3    1    3    3    0  502 -0.24341754359E+03  0.62869455330E+03  0.10473219050E+03  0.68225932299E+03  0.10100000352E+00 0.  1.
</event>
<event>
 5   0  0.1712327E-04  0.1399553E+04  0.7818609E-02  0.8954142E-01
       -2   -1    0    0    0  501  0.00000000000E+00  0.00000000000E+00  0.30945620580E+03  0.30945620581E+03  0.25500000920E-02 0.  1.
        2   -1    0    0  501    0  0.00000000000E+00  0.00000000000E+00 -0.15824113954E+04  0.15824113954E+04  0.25500000920E-02 0. -1.
    10030    2    1    2    0    0  0.00000000000E+00  0.00000000000E+00 -0.12729551896E+04  0.18918676012E+04  0.13995528235E+04 0.  0.
        1    1    3    3  502    0  0.48220145085E+02 -0.64285652012E+03 -0.10044394075E+04  0.11935192547E+04  0.50400001928E-02 0. -1.
       -1    1    3    3    0  502 -0.48220145085E+02  0.64285652012E+03 -0.26851578205E+03  0.69834834652E+03  0.50400001928E-02 0.  1.
</event>
<event>
 5   0  0.1766237E-04  0.1399244E+04  0.7818609E-02  0.8954366E-01
       -2   -1    0    0    0  501  0.00000000000E+00  0.00000000000E+00  0.60712149599E+03  0.60712149600E+03  0.25500000920E-02 0.  1.
        2   -1    0    0  501    0  0.00000000000E+00  0.00000000000E+00 -0.80621589077E+03  0.80621589077E+03  0.25500000920E-02 0. -1.
    10030    2    1    2    0    0  0.00000000000E+00  0.00000000000E+00 -0.19909439478E+03  0.14133373868E+04  0.13992440784E+04 0.  0.
        3    1    3    3  502    0  0.57981090366E+03  0.37542145607E+03  0.12698282200E+02  0.69085686669E+03  0.10100000352E+00 0. -1.
       -3    1    3    3    0  502 -0.57981090366E+03 -0.37542145607E+03 -0.21179267698E+03  0.72248052008E+03  0.10100000352E+00 0.  1.
</event>
<event>
 5   0  0.1794185E-04  0.1400699E+04  0.7818609E-02  0.8953312E-01
        2   -1    0    0  501    0  0.00000000000E+00  0.00000000000E+00  0.48475947895E+03  0.48475947896E+03  0.25500000920E-02 0.  1.
       -2   -1    0    0    0  501  0.00000000000E+00  0.00000000000E+00 -0.10118206831E+04  0.10118206831E+04  0.25500000920E-02 0. -1.
    10030    2    1    2    0    0  0.00000000000E+00  0.00000000000E+00 -0.52706120415E+03  0.14965801621E+04  0.14006993498E+04 0.  0.
        2    1    3    3  502    0  0.46687314101E+03  0.11703915584E+00 -0.82129854352E+03  0.94472315579E+03  0.25500000920E-02 0. -1.
       -2    1    3    3    0  502 -0.46687314101E+03 -0.11703915584E+00  0.29423733937E+03  0.55185700628E+03  0.25500000920E-02 0.  1.
</event>
<event>
 5   0  0.1712327E-04  0.1389557E+04  0.7818609E-02  0.8961413E-01
        2   -1    0    0  501    0  0.00000000000E+00  0.00000000000E+00  0.17056818868E+04  0.17056818868E+04  0.25500000920E-02 0.  1.
       -2   -1    0    0    0  501  0.00000000000E+00  0.00000000000E+00 -0.28300526472E+03  0.28300526473E+03  0.25500000920E-02 0. -1.
    10030    2    1    2    0    0  0.00000000000E+00  0.00000000000E+00  0.14226766220E+04  0.19886871515E+04  0.13895566975E+04 0.  0.
        1    1    3    3  502    0  0.38414000874E+03 -0.42664391179E+03  0.12713770128E+04  0.13949867678E+04  0.50400001928E-02 0.  1.
       -1    1    3    3    0  502 -0.38414000874E+03  0.42664391179E+03  0.15129960927E+03  0.59370038367E+03  0.50400001928E-02 0. -1.
</event>
<event>
 5   0  0.6671375E-05  0.1397880E+04  0.7818609E-02  0.8955355E-01
        1   -1    0    0  501    0  0.00000000000E+00  0.00000000000E+00  0.13698349842E+04  0.13698349842E+04  0.50400001928E-02 0. -1.
       -1   -1    0    0    0  501  0.00000000000E+00  0.00000000000E+00 -0.35662475417E+03  0.35662475421E+03  0.50400001928E-02 0.  1.
    10030    2    1    2    0    0  0.00000000000E+00  0.00000000000E+00  0.10132102300E+04  0.17264597384E+04  0.13978799155E+04 0.  0.
        5    1    3    3  502    0 -0.26044491742E+03  0.36716675755E+03  0.11669292956E+04  0.12507553933E+04  0.46999998093E+01 0. -1.
       -5    1    3    3    0  502  0.26044491742E+03 -0.36716675755E+03 -0.15371906559E+03  0.47570434513E+03  0.46999998093E+01 0.  1.
</event>
<event>
 5   0  0.6671375E-05  0.1402463E+04  0.7818609E-02  0.8952038E-01
       -1   -1    0    0    0  501  0.00000000000E+00  0.00000000000E+00  0.42923096327E+03  0.42923096330E+03  0.50400001928E-02 0.  1.
        1   -1    0    0  501    0  0.00000000000E+00  0.00000000000E+00 -0.11455962720E+04  0.11455962720E+04  0.50400001928E-02 0. -1.
    10030    2    1    2    0    0  0.00000000000E+00  0.00000000000E+00 -0.71636530875E+03  0.15748272353E+04  0.14024626788E+04 0.  0.
        5    1    3    3  502    0 -0.60902122116E+03 -0.92655162629E+02 -0.73433193740E+03  0.95851828949E+03  0.46999998093E+01 0. -1.
       -5    1    3    3    0  502  0.60902122116E+03  0.92655162629E+02  0.17966628651E+02  0.61630894585E+03  0.46999998093E+01 0.  1.
</event>
<event>
 5   0  0.1794185E-04  0.1407057E+04  0.7818609E-02  0.8948726E-01
        2   -1    0    0  501    0  0.00000000000E+00  0.00000000000E+00  0.89758232802E+03  0.89758232802E+03  0.25500000920E-02 0. -1.
       -2   -1    0    0    0  501  0.00000000000E+00  0.00000000000E+00 -0.55142829783E+03  0.55142829784E+03  0.25500000920E-02 0.  1.
    10030    2    1    2    0    0  0.00000000000E+00  0.00000000000E+00  0.34615403019E+03  0.14490106259E+04  0.14070569218E+04 0.  0.
        2    1    3    3  502    0 -0.32028138133E+03 -0.35871257818E+03 -0.35574903721E+03  0.59817410045E+03  0.25500000920E-02 0.  1.
       -2    1    3    3    0  502  0.32028138133E+03  0.35871257818E+03  0.70190306739E+03  0.85083652542E+03  0.25500000920E-02 0. -1.
</event>
<event>
 5   0  0.9900839E-05  0.1402108E+04  0.7818609E-02  0.8952294E-01
       -1   -1    0    0    0  501  0.00000000000E+00  0.00000000000E+00  0.37506670436E+03  0.37506670440E+03  0.50400001928E-02 0.  1.
        1   -1    0    0  501    0  0.00000000000E+00  0.00000000000E+00 -0.13103706493E+04  0.13103706493E+04  0.50400001928E-02 0. -1.
    10030    2    1    2    0    0  0.00000000000E+00  0.00000000000E+00 -0.93530394496E+03  0.16854373537E+04  0.14021075579E+04 0.  0.
        3    1    3    3  502    0 -0.21571923011E+03 -0.66301017312E+03 -0.37965295621E+03  0.79388516378E+03  0.10100000352E+00 0.  1.
       -3    1    3    3    0  502  0.21571923011E+03  0.66301017312E+03 -0.55565098875E+03  0.89155218995E+03  0.10100000352E+00 0. -1.
</event>
<event>
 5   0  0.6671375E-05  0.1397670E+04  0.7818609E-02  0.8955507E-01
       -1   -1    0    0    0  501  0.00000000000E+00  0.00000000000E+00  0.35095184954E+03  0.35095184958E+03  0.50400001928E-02 0. -1.
        1   -1    0    0  501    0  0.00000000000E+00  0.00000000000E+00 -0.13915586986E+04  0.13915586986E+04  0.50400001928E-02 0.  1.
    10030    2    1    2    0    0  0.00000000000E+00  0.00000000000E+00 -0.10406068491E+04  0.17425105482E+04  0.13976696306E+04 0.  0.
        5    1    3    3  502    0  0.94755539698E+02  0.54564170764E+03 -0.10516550844E+04  0.11885722494E+04  0.46999998093E+01 0.  1.
       -5    1    3    3    0  502 -0.94755539698E+02 -0.54564170764E+03  0.11048235319E+02  0.55393829884E+03  0.46999998093E+01 0. -1.
</event>
<event>
 5   0  0.6671375E-05  0.1400952E+04  0.7818609E-02  0.8953130E-01
        4   -1    0    0  501    0  0.00000000000E+00  0.00000000000E+00  0.41559708467E+03  0.41559902512E+03  0.12699999809E+01 0. -1.
       -4   -1    0    0    0  501  0.00000000000E+00  0.00000000000E+00 -0.11806257010E+04  0.11806263841E+04  0.12699999809E+01 0.  1.
    10030    2    1    2    0    0  0.00000000000E+00  0.00000000000E+00 -0.76502861636E+03  0.15962254092E+04  0.14009520953E+04 0.  0.
        2    1    3    3  502    0  0.31968035138E+03 -0.36328127457E+03  0.19453486907E+03  0.52154829767E+03  0.25500000920E-02 0. -1.
       -2    1    3    3    0  502 -0.31968035138E+03  0.36328127457E+03 -0.95956348543E+03  0.10746771116E+04  0.25500000920E-02 0.  1.
</event>
<event>
 5   0  0.1766237E-04  0.1409554E+04  0.7818609E-02  0.8946932E-01
        2   -1    0    0  501    0  0.00000000000E+00  0.00000000000E+00  0.12836063234E+04  0.12836063234E+04  0.25500000920E-02 0. -1.
       -2   -1    0    0    0  501  0.00000000000E+00  0.00000000000E+00 -0.38696493149E+03  0.38696493150E+03  0.25500000920E-02 0.  1.
    10030    2    1    2    0    0  0.00000000000E+00  0.00000000000E+00  0.89664139189E+03  0.16705712549E+04  0.14095540188E+04 0.  0.
        3    1    3    3  502    0  0.10629247549E+03 -0.21870020989E+03 -0.33567445608E+03  0.41449393580E+03  0.10100000352E+00 0.  1.
       -3    1    3    3    0  502 -0.10629247549E+03  0.21870020989E+03  0.12323158480E+04  0.12560773191E+04  0.10100000352E+00 0. -1.
</event>
<event>
 5   0  0.6671375E-05  0.1400066E+04  0.7818609E-02  0.8953771E-01
       -1   -1    0    0    0  501  0.00000000000E+00  0.00000000000E+00  0.36594813805E+03  0.36594813808E+03  0.50400001928E-02 0. -1.
        1   -1    0    0  501    0  0.00000000000E+00  0.00000000000E+00 -0.13391134392E+04  0.13391134392E+04  0.50400001928E-02 0.  1.
    10030    2    1    2    0    0  0.00000000000E+00  0.00000000000E+00 -0.97316530111E+03  0.17050615773E+04  0.14000658124E+04 0.  0.
        5    1    3    3  502    0  0.68966309424E+03  0.96665345369E+02 -0.57308049680E+03  0.90189950569E+03  0.46999998093E+01 0.  1.
       -5    1    3    3    0  502 -0.68966309424E+03 -0.96665345369E+02 -0.40008480430E+03  0.80316207156E+03  0.46999998093E+01 0. -1.
</event>
<event>
 5   0  0.1794185E-04  0.1397947E+04  0.7818609E-02  0.8955306E-01
       -2   -1    0    0    0  501  0.00000000000E+00  0.00000000000E+00  0.70178517979E+03  0.70178517980E+03  0.25500000920E-02 0.  1.
        2   -1    0    0  501    0  0.00000000000E+00  0.00000000000E+00 -0.69617272534E+03  0.69617272534E+03  0.25500000920E-02 0. -1.
    10030    2    1    2    0    0  0.00000000000E+00  0.00000000000E+00  0.56124544504E+01  0.13979579051E+04  0.13979466388E+04 0.  0.
        2    1    3    3  502    0  0.15158219325E+03 -0.67802412207E+03 -0.73809204730E+02  0.69867136060E+03  0.25500000920E-02 0. -1.
       -2    1    3    3    0  502 -0.15158219325E+03  0.67802412207E+03  0.79421659180E+02  0.69928654454E+03  0.25500000920E-02 0.  1.
</event>
<event>
 5   0  0.9260916E-05  0.1404603E+04  0.7818609E-02  0.8950493E-01
        1   -1    0    0  501    0  0.00000000000E+00  0.00000000000E+00  0.16673959242E+04  0.16673959242E+04  0.50400001928E-02 0.  1.
       -1   -1    0    0    0  501  0.00000000000E+00  0.00000000000E+00 -0.29580699941E+03  0.29580699945E+03  0.50400001928E-02 0. -1.
    10030    2    1    2    0    0  0.00000000000E+00  0.00000000000E+00  0.13715889248E+04  0.19632029236E+04  0.14046029833E+04 0.  0.
        1    1    3    3  502    0  0.11341356195E+03  0.36421003855E+03  0.15099777737E+04  0.15574159577E+04  0.50400001928E-02 0.  1.
       -1    1    3    3    0  502 -0.11341356195E+03 -0.36421003855E+03 -0.13838884890E+03  0.40578696596E+03  0.50400001928E-02 0. -1.
</event>
<event>
 5   0  0.6671375E-05  0.1400479E+04  0.7818609E-02  0.8953472E-01
       -1   -1    0    0    0  501  0.00000000000E+00  0.00000000000E+00  0.67865309028E+03  0.67865309030E+03  0.50400001928E-02 0. -1.
        1   -1    0    0  501    0  0.00000000000E+00  0.00000000000E+00 -0.72251294193E+03  0.72251294195E+03  0.50400001928E-02 0.  1.
    10030    2    1    2    0    0  0.00000000000E+00  0.00000000000E+00 -0.43859851651E+02  0.14011660322E+04  0.14004794048E+04 0.  0.
        5    1    3    3  502    0 -0.32168879705E+03  0.56017080668E+03 -0.29231885365E+03  0.70904683696E+03  0.46999998093E+01 0.  1.
       -5    1    3    3    0  502  0.32168879705E+03 -0.56017080668E+03  0.24845900200E+03  0.69211919528E+03  0.46999998093E+01 0. -1.
</event>
<event>
 5   0  0.1766237E-04  0.1401406E+04  0.7818609E-02  0.8952801E-01
       -2   -1    0    0    0  501  0.00000000000E+00  0.00000000000E+00  0.10664754390E+04  0.10664754390E+04  0.25500000920E-02 0. -1.
        2   -1    0    0  501    0  0.00000000000E+00  0.00000000000E+00 -0.46038080979E+03  0.46038080979E+03  0.25500000920E-02 0.  1.
    10030    2    1    2    0    0  0.00000000000E+00  0.00000000000E+00  0.60609462926E+03  0.15268562488E+04  0.14014061884E+04 0.  0.
        3    1    3    3  502    0 -0.60913101809E+03 -0.15901357496E+03  0.63825568195E+03  0.89649107077E+03  0.10100000352E+00 0. -1.
       -3    1    3    3    0  502  0.60913101809E+03  0.15901357496E+03 -0.32161052696E+02  0.63036517807E+03  0.10100000352E+00 0.  1.
</event>
<event>
 5   0  0.9978422E-05  0.1399932E+04  0.7818609E-02  0.8953867E-01
        1   -1    0    0  501    0  0.00000000000E+00  0.00000000000E+00  0.12182865731E+04  0.12182865731E+04  0.50400001928E-02 0. -1.
       -1   -1    0    0    0  501  0.00000000000E+00  0.00000000000E+00 -0.40216536721E+03  0.40216536724E+03  0.50400001928E-02 0.  1.
    10030    2    1    2    0    0  0.00000000000E+00  0.00000000000E+00  0.81612120586E+03  0.16204519403E+04  0.13999323799E+04 0.  0.
        2    1    3    3  502    0 -0.52527515309E+03 -0.45939129506E+03  0.47144290183E+03  0.84214770565E+03  0.25500000920E-02 0.  1.
       -2    1    3    3    0  502  0.52527515309E+03  0.45939129506E+03  0.34467830402E+03  0.77830423467E+03  0.25500000920E-02 0. -1.
</event>
<event>
 5   0  0.9900839E-05  0.1398659E+04  0.7818609E-02  0.8954789E-01
       -1   -1    0    0    0  501  0.00000000000E+00  0.00000000000E+00  0.11832451935E+04  0.11832451935E+04  0.50400001928E-02 0. -1.
        1   -1    0    0  501    0  0.00000000000E+00  0.00000000000E+00 -0.41332265173E+03  0.41332265176E+03  0.50400001928E-02 0.  1.
    10030    2    1    2    0    0  0.00000000000E+00  0.00000000000E+00  0.76992254177E+03  0.15965678453E+04  0.13986594168E+04 0.  0.
        3    1    3    3  502    0 -0.25527819266E+03 -0.22293538364E+03  0.10832327938E+04  0.11350156108E+04  0.10100000352E+00 0. -1.
       -3    1    3    3    0  502  0.25527819266E+03  0.22293538364E+03 -0.31331025204E+03  0.46155223449E+03  0.10100000352E+00 0.  1.
</event>
<event>
 5   0  0.6671375E-05  0.1411390E+04  0.7818609E-02  0.8945615E-01
       -1   -1    0    0    0  501  0.00000000000E+00  0.00000000000E+00  0.34746541170E+03  0.34746541174E+03  0.50400001928E-02 0.  1.
        1   -1    0    0  501    0  0.00000000000E+00  0.00000000000E+00 -0.14332513929E+04  0.14332513929E+04  0.50400001928E-02 0. -1.
    10030    2    1    2    0    0  0.00000000000E+00  0.00000000000E+00 -0.10857859812E+04  0.17807168046E+04  0.14113897907E+04 0.  0.
        5    1    3    3  502    0 -0.33558336175E+03 -0.59186949804E+02  0.23676151269E+03  0.41496673553E+03  0.46999998093E+01 0.  1.
       -5    1    3    3    0  502  0.33558336175E+03  0.59186949804E+02 -0.13225474939E+04  0.13657500691E+04  0.46999998093E+01 0. -1.
</event>
<event>
 5   0  0.9978422E-05  0.1399192E+04  0.7818609E-02  0.8954404E-01
        1   -1    0    0  501    0  0.00000000000E+00  0.00000000000E+00  0.20789766663E+04  0.20789766663E+04  0.50400001928E-02 0.  1.
       -1   -1    0    0    0  501  0.00000000000E+00  0.00000000000E+00 -0.23542083243E+03  0.23542083248E+03  0.50400001928E-02 0. -1.
    10030    2    1    2    0    0  0.00000000000E+00  0.00000000000E+00  0.18435558339E+04  0.23143974988E+04  0.13991917916E+04 0.  0.
        2    1    3    3  502    0  0.64410912216E+03  0.19525632686E+03  0.12375015668E+04  0.14086914929E+04  0.25500000920E-02 0.  1.
       -2    1    3    3    0  502 -0.64410912216E+03 -0.19525632686E+03  0.60605426716E+03  0.90570600593E+03  0.25500000920E-02 0. -1.
</event>
<event>
 5   0  0.6671375E-05  0.1401770E+04  0.7818609E-02  0.8952538E-01
        3   -1    0    0  501    0  0.00000000000E+00  0.00000000000E+00  0.55647873563E+03  0.55647874480E+03  0.10100000352E+00 0. -1.
       -3   -1    0    0    0  501  0.00000000000E+00  0.00000000000E+00 -0.88276470867E+03  0.88276471445E+03  0.10100000352E+00 0.  1.
    10030    2    1    2    0    0  0.00000000000E+00  0.00000000000E+00 -0.32628597304E+03  0.14392434592E+04  0.14017700235E+04 0.  0.
        1    1    3    3  502    0 -0.43502008369E+03  0.21252534926E+03 -0.68347509679E+03  0.83758444664E+03  0.50400001928E-02 0.  1.
       -1    1    3    3    0  502  0.43502008369E+03 -0.21252534926E+03  0.35718912375E+03  0.60165901260E+03  0.50400001928E-02 0. -1.
</event>
<event>
 5   0  0.1833681E-04  0.1401004E+04  0.7818609E-02  0.8953092E-01
        2   -1    0    0  501    0  0.00000000000E+00  0.00000000000E+00  0.77765727720E+03  0.77765727721E+03  0.25500000920E-02 0.  1.
       -2   -1    0    0    0  501  0.00000000000E+00  0.00000000000E+00 -0.63100132154E+03  0.63100132155E+03  0.25500000920E-02 0. -1.
    10030    2    1    2    0    0  0.00000000000E+00  0.00000000000E+00  0.14665595566E+03  0.14086585988E+04  0.14010035969E+04 0.  0.
        4    1    3    3  502    0 -0.58278488276E+03 -0.21575918073E+03  0.39837584551E+03  0.73817015032E+03  0.12699999809E+01 0.  1.
       -4    1    3    3    0  502  0.58278488276E+03  0.21575918073E+03 -0.25171988985E+03  0.67048844843E+03  0.12699999809E+01 0. -1.
</event>
<event>
 5   0  0.9828111E-05  0.1401193E+04  0.7818609E-02  0.8952955E-01
        1   -1    0    0  501    0  0.00000000000E+00  0.00000000000E+00  0.92373953904E+03  0.92373953905E+03  0.50400001928E-02 0.  1.
       -1   -1    0    0    0  501  0.00000000000E+00  0.00000000000E+00 -0.53135700523E+03  0.53135700525E+03  0.50400001928E-02 0. -1.
    10030    2    1    2    0    0  0.00000000000E+00  0.00000000000E+00  0.39238253381E+03  0.14550965443E+04  0.14011930275E+04 0.  0.
        4    1    3    3  502    0  0.64058650357E+03  0.25208556150E+02 -0.97251912909E+02  0.64841814235E+03  0.12699999809E+01 0. -1.
       -4    1    3    3    0  502 -0.64058650357E+03 -0.25208556150E+02  0.48963444672E+03  0.80667840195E+03  0.12699999809E+01 0.  1.
</event>
<event>
 5   0  0.6671375E-05  0.1398274E+04  0.7818609E-02  0.8955069E-01
       -1   -1    0    0    0  501  0.00000000000E+00  0.00000000000E+00  0.28940441640E+03  0.28940441645E+03  0.50400001928E-02 0. -1.
        1   -1    0    0  501    0  0.00000000000E+00  0.00000000000E+00 -0.16889590323E+04  0.16889590323E+04  0.50400001928E-02 0.  1.
    10030    2    1    2    0    0  0.00000000000E+00  0.00000000000E+00 -0.13995546159E+04  0.19783634487E+04  0.13982735113E+04 0.  0.
        5    1    3    3  502    0 -0.56889342387E+03  0.38898245163E+03 -0.86612458478E+03  0.11068608593E+04  0.46999998093E+01 0. -1.
       -5    1    3    3    0  502  0.56889342387E+03 -0.38898245163E+03 -0.53343003109E+03  0.87150258948E+03  0.46999998093E+01 0.  1.
</event>
<event>
 5   0  0.6671375E-05  0.1406429E+04  0.7818609E-02  0.8949178E-01
        4   -1    0    0  501    0  0.00000000000E+00  0.00000000000E+00  0.29074859444E+03  0.29075136813E+03  0.12699999809E+01 0.  1.
       -4   -1    0    0    0  501  0.00000000000E+00  0.00000000000E+00 -0.17008085349E+04  0.17008090090E+04  0.12699999809E+01 0. -1.
    10030    2    1    2    0    0  0.00000000000E+00  0.00000000000E+00 -0.14100599404E+04  0.19915603772E+04  0.14064294153E+04 0.  0.
        3    1    3    3  502    0 -0.19345554532E+03  0.64878291938E+03 -0.97432560886E+03  0.11864462595E+04  0.10100000352E+00 0. -1.
       -3    1    3    3    0  502  0.19345554532E+03 -0.64878291938E+03 -0.43573433159E+03  0.80511411764E+03  0.10100000352E+00 0.  1.
</event>
<event>
 5   0  0.1712327E-04  0.1393504E+04  0.7818609E-02  0.8958534E-01
        2   -1    0    0  501    0  0.00000000000E+00  0.00000000000E+00  0.69044847547E+03  0.69044847548E+03  0.25500000920E-02 0. -1.
       -2   -1    0    0    0  501  0.00000000000E+00  0.00000000000E+00 -0.70311301364E+03  0.70311301364E+03  0.25500000920E-02 0.  1.
    10030    2    1    2    0    0  0.00000000000E+00  0.00000000000E+00 -0.12664538162E+02  0.13935614891E+04  0.13935039409E+04 0.  0.
        1    1    3    3  502    0  0.48057186244E+03 -0.13913197553E+03 -0.49128145184E+03  0.70118791100E+03  0.50400001928E-02 0.  1.
       -1    1    3    3    0  502 -0.48057186244E+03  0.13913197553E+03  0.47861691368E+03  0.69237357812E+03  0.50400001928E-02 0. -1.
</event>
<event>
 5   0  0.1766237E-04  0.1399814E+04  0.7818609E-02  0.8953953E-01
        2   -1    0    0  501    0  0.00000000000E+00  0.00000000000E+00  0.15809144069E+04  0.15809144069E+04  0.25500000920E-02 0.  1.
       -2   -1    0    0    0  501  0.00000000000E+00  0.00000000000E+00 -0.30986487149E+03  0.30986487150E+03  0.25500000920E-02 0. -1.
    10030    2    1    2    0    0  0.00000000000E+00  0.00000000000E+00  0.12710495354E+04  0.18907792784E+04  0.13998140442E+04 0.  0.
        3    1    3    3  502    0  0.23358340160E+03  0.14876075427E+03  0.15037642583E+04  0.15290513144E+04  0.10100000352E+00 0.  1.
       -3    1    3    3    0  502 -0.23358340160E+03 -0.14876075427E+03 -0.23271472283E+03  0.36172796400E+03  0.10100000352E+00 0. -1.
</event>
<event>
 5   0  0.1766237E-04  0.1400373E+04  0.7818609E-02  0.8953548E-01
        2   -1    0    0  501    0  0.00000000000E+00  0.00000000000E+00  0.19166556884E+04  0.19166556884E+04  0.25500000920E-02 0.  1.
       -2   -1    0    0    0  501  0.00000000000E+00  0.00000000000E+00 -0.25579002827E+03  0.25579002828E+03  0.25500000920E-02 0. -1.
    10030    2    1    2    0    0  0.00000000000E+00  0.00000000000E+00  0.16608656601E+04  0.21724457167E+04  0.14003733970E+04 0.  0.
        3    1    3    3  502    0  0.93836923755E+02 -0.22139734287E+03  0.18505912885E+04  0.18661485147E+04  0.10100000352E+00 0.  1.
       -3    1    3    3    0  502 -0.93836923755E+02  0.22139734287E+03 -0.18972562835E+03  0.30629720199E+03  0.10100000352E+00 0. -1.
</event>
<event>
 5   0  0.9828111E-05  0.1394216E+04  0.7818609E-02  0.8958016E-01
        1   -1    0    0  501    0  0.00000000000E+00  0.00000000000E+00  0.84928729942E+03  0.84928729944E+03  0.50400001928E-02 0.  1.
       -1   -1    0    0    0  501  0.00000000000E+00  0.00000000000E+00 -0.57219683484E+03  0.57219683487E+03  0.50400001928E-02 0. -1.
    10030    2    1    2    0    0  0.00000000000E+00  0.00000000000E+00  0.27709046458E+03  0.14214841343E+04  0.13942159153E+04 0.  0.
        4    1    3    3  502    0  0.27595368789E+03 -0.11053588784E+03 -0.50433387074E+03  0.58542538930E+03  0.12699999809E+01 0. -1.
       -4    1    3    3    0  502 -0.27595368789E+03  0.11053588784E+03  0.78142433532E+03  0.83605874500E+03  0.12699999809E+01 0.  1.
</event>
<event>
 5   0  0.1712327E-04  0.1400443E+04  0.7818609E-02  0.8953498E-01
       -2   -1    0    0    0  501  0.00000000000E+00  0.00000000000E+00  0.88938294756E+03  0.88938294757E+03  0.25500000920E-02 0. -1.
        2   -1    0    0  501    0  0.00000000000E+00  0.00000000000E+00 -0.55129257898E+03  0.55129257899E+03  0.25500000920E-02 0.  1.
    10030    2    1    2    0    0  0.00000000000E+00  0.00000000000E+00  0.33809036858E+03  0.14406755266E+04  0.14004430997E+04 0.  0.
        1    1    3    3  502    0  0.66444194786E+03  0.53541071233E+00 -0.58270800266E+02  0.66699240995E+03  0.50400001928E-02 0.  1.
       -1    1    3    3    0  502 -0.66444194786E+03 -0.53541071233E+00  0.39636116884E+03  0.77368311661E+03  0.50400001928E-02 0. -1.
</event>
<event>
 5   0  0.9978422E-05  0.1400486E+04  0.7818609E-02  0.8953467E-01
        1   -1    0    0  501    0  0.00000000000E+00  0.00000000000E+00  0.12111271565E+04  0.12111271565E+04  0.50400001928E-02 0.  1.
       -1   -1    0    0    0  501  0.00000000000E+00  0.00000000000E+00 -0.40486256650E+03  0.40486256653E+03  0.50400001928E-02 0. -1.
    10030    2    1    2    0    0  0.00000000000E+00  0.00000000000E+00  0.80626458999E+03  0.16159897230E+04  0.14004857000E+04 0.  0.
        2    1    3    3  502    0 -0.48255237465E+03 -0.43054370977E+03  0.93266363576E+02  0.65339367527E+03  0.25500000920E-02 0. -1.
       -2    1    3    3    0  502  0.48255237465E+03  0.43054370977E+03  0.71299822642E+03  0.96259604777E+03  0.25500000920E-02 0.  1.
</event>
<event>
 5   0  0.9260916E-05  0.1398846E+04  0.7818609E-02  0.8954654E-01
       -1   -1    0    0    0  501  0.00000000000E+00  0.00000000000E+00  0.39793268870E+03  0.39793268873E+03  0.50400001928E-02 0.  1.
        1   -1    0    0  501    0  0.00000000000E+00  0.00000000000E+00 -0.12293355788E+04  0.12293355788E+04  0.50400001928E-02 0. -1.
    10030    2    1    2    0    0  0.00000000000E+00  0.00000000000E+00 -0.83140289014E+03  0.16272682676E+04  0.13988463993E+04 0.  0.
        1    1    3    3  502    0 -0.33572885138E+03 -0.42159122895E+03  0.10289738831E+03  0.54867194071E+03  0.50400001928E-02 0.  1.
       -1    1    3    3    0  502  0.33572885138E+03  0.42159122895E+03 -0.93430027845E+03  0.10785963269E+04  0.50400001928E-02 0. -1.
</event>
<event>
 5   0  0.6671375E-05  0.1397838E+04  0.7818609E-02  0.8955385E-01
        1   -1    0    0  501    0  0.00000000000E+00  0.00000000000E+00  0.15198818713E+04  0.15198818713E+04  0.50400001928E-02 0. -1.
       -1   -1    0    0    0  501  0.00000000000E+00  0.00000000000E+00 -0.32139837608E+03  0.32139837612E+03  0.50400001928E-02 0.  1.
    10030    2    1    2    0    0  0.00000000000E+00  0.00000000000E+00  0.11984834952E+04  0.18412802475E+04  0.13978377092E+04 0.  0.
        5    1    3    3  502    0  0.22570135304E+03  0.21559414743E+03 -0.22447083278E+03  0.38448820779E+03  0.46999998093E+01 0.  1.
       -5    1    3    3    0  502 -0.22570135304E+03 -0.21559414743E+03  0.14229543280E+04  0.14567920397E+04  0.46999998093E+01 0. -1.
</event>
<event>
 5   0  0.1794185E-04  0.1398483E+04  0.7818609E-02  0.8954917E-01
        2   -1    0    0  501    0  0.00000000000E+00  0.00000000000E+00  0.70862103916E+03  0.70862103916E+03  0.25500000920E-02 0. -1.
       -2   -1    0    0    0  501  0.00000000000E+00  0.00000000000E+00 -0.68998644982E+03  0.68998644982E+03  0.25500000920E-02 0.  1.
    10030    2    1    2    0    0  0.00000000000E+00  0.00000000000E+00  0.18634589337E+02  0.13986074890E+04  0.13984833429E+04 0.  0.
        2    1    3    3  502    0  0.41452691457E+03 -0.40224073600E+03 -0.38480999165E+03  0.69405252127E+03  0.25500000920E-02 0.  1.
       -2    1    3    3    0  502 -0.41452691457E+03  0.40224073600E+03  0.40344458098E+03  0.70455496772E+03  0.25500000920E-02 0. -1.
</event>
<event>
 5   0  0.1712327E-04  0.1400101E+04  0.7818609E-02  0.8953745E-01
       -2   -1    0    0    0  501  0.00000000000E+00  0.00000000000E+00  0.67504243521E+03  0.67504243522E+03  0.25500000920E-02 0.  1.
        2   -1    0    0  501    0  0.00000000000E+00  0.00000000000E+00 -0.72598503287E+03  0.72598503288E+03  0.25500000920E-02 0. -1.
    10030    2    1    2    0    0  0.00000000000E+00  0.00000000000E+00 -0.50942597656E+02  0.14010274681E+04  0.14001010028E+04 0.  0.
        1    1    3    3  502    0 -0.11366613369E+03  0.62642986713E+03  0.26581638632E+03  0.68992225623E+03  0.50400001928E-02 0.  1.
       -1    1    3    3    0  502  0.11366613369E+03 -0.62642986713E+03 -0.31675898398E+03  0.71110521186E+03  0.50400001928E-02 0. -1.
</event>
<event>
 5   0  0.1780171E-04  0.1401816E+04  0.7818609E-02  0.8952505E-01
       -2   -1    0    0    0  501  0.00000000000E+00  0.00000000000E+00  0.34628611521E+03  0.34628611522E+03  0.25500000920E-02 0. -1.
        2   -1    0    0  501    0  0.00000000000E+00  0.00000000000E+00 -0.14186879614E+04  0.14186879614E+04  0.25500000920E-02 0.  1.
    10030    2    1    2    0    0  0.00000000000E+00  0.00000000000E+00 -0.10724018461E+04  0.17649740766E+04  0.14018158836E+04 0.  0.
        5    1    3    3  502    0 -0.61663680809E+03 -0.51003449647E+02 -0.12165073647E+03  0.63060550001E+03  0.46999998093E+01 0. -1.
       -5    1    3    3    0  502  0.61663680809E+03  0.51003449647E+02 -0.95075110966E+03  0.11343685766E+04  0.46999998093E+01 0.  1.
</event>
<event>
 5   0  0.6671375E-05  0.1380631E+04  0.7818609E-02  0.8967960E-01
       -1   -1    0    0    0  501  0.00000000000E+00  0.00000000000E+00  0.62620425800E+03  0.62620425802E+03  0.50400001928E-02 0. -1.
        1   -1    0    0  501    0  0.00000000000E+00  0.00000000000E+00 -0.76099019823E+03  0.76099019824E+03  0.50400001928E-02 0.  1.
    10030    2    1    2    0    0  0.00000000000E+00  0.00000000000E+00 -0.13478594022E+03  0.13871944563E+04  0.13806307290E+04 0.  0.
        5    1    3    3  502    0  0.50256675415E+03  0.24872511532E+03 -0.47189317403E+03  0.73290025451E+03  0.46999998093E+01 0.  1.
       -5    1    3    3    0  502 -0.50256675415E+03 -0.24872511532E+03  0.33710723381E+03  0.65429420176E+03  0.46999998093E+01 0. -1.
</event>
<event>
 5   0  0.6671375E-05  0.1396527E+04  0.7818609E-02  0.8956337E-01
       -4   -1    0    0    0  501  0.00000000000E+00  0.00000000000E+00  0.88581480016E+03  0.88581571056E+03  0.12699999809E+01 0.  1.
        4   -1    0    0  501    0  0.00000000000E+00  0.00000000000E+00 -0.55041973671E+03  0.55042120186E+03  0.12699999809E+01 0. -1.
    10030    2    1    2    0    0  0.00000000000E+00  0.00000000000E+00  0.33539506345E+03  0.14362369124E+04  0.13965266270E+04 0.  0.
        1    1    3    3  502    0 -0.12266761099E+03  0.16218294663E+03  0.85468982973E+03  0.87854729868E+03  0.50400001928E-02 0.  1.
       -1    1    3    3    0  502  0.12266761099E+03 -0.16218294663E+03 -0.51929476628E+03  0.55768961374E+03  0.50400001928E-02 0. -1.
</event>
<event>
 5   0  0.1833681E-04  0.1400606E+04  0.7818609E-02  0.8953380E-01
       -2   -1    0    0    0  501  0.00000000000E+00  0.00000000000E+00  0.29531077128E+03  0.29531077129E+03  0.25500000920E-02 0.  1.
        2   -1    0    0  501    0  0.00000000000E+00  0.00000000000E+00 -0.16607059333E+04  0.16607059333E+04  0.25500000920E-02 0. -1.
    10030    2    1    2    0    0  0.00000000000E+00  0.00000000000E+00 -0.13653951620E+04  0.19560167046E+04  0.14006060832E+04 0.  0.
        4    1    3    3  502    0  0.12038355556E+03 -0.20723564095E+03 -0.16016487574E+04  0.16194811410E+04  0.12699999809E+01 0. -1.
       -4    1    3    3    0  502 -0.12038355556E+03  0.20723564095E+03  0.23625359533E+03  0.33653556355E+03  0.12699999809E+01 0.  1.
</event>
<event>
 5   0  0.1712327E-04  0.1390348E+04  0.7818609E-02  0.8960835E-01
        2   -1    0    0  501    0  0.00000000000E+00  0.00000000000E+00  0.93112146348E+03  0.93112146349E+03  0.25500000920E-02 0. -1.
       -2   -1    0    0    0  501  0.00000000000E+00  0.00000000000E+00 -0.51901615091E+03  0.51901615092E+03  0.25500000920E-02 0.  1.
    10030    2    1    2    0    0  0.00000000000E+00  0.00000000000E+00  0.41210531257E+03  0.14501376144E+04  0.13903482701E+04 0.  0.
        1    1    3    3  502    0 -0.51315532954E+02 -0.26887318214E+03 -0.46044267869E+03  0.53566177051E+03  0.50400001928E-02 0.  1.
       -1    1    3    3    0  502  0.51315532954E+02  0.26887318214E+03  0.87254799126E+03  0.91447584390E+03  0.50400001928E-02 0. -1.
</event>
<event>
 5   0  0.9260916E-05  0.1399340E+04  0.7818609E-02  0.8954297E-01
       -1   -1    0    0    0  501  0.00000000000E+00  0.00000000000E+00  0.77266601268E+03  0.77266601270E+03  0.50400001928E-02 0. -1.
        1   -1    0    0  501    0  0.00000000000E+00  0.00000000000E+00 -0.63356980407E+03  0.63356980409E+03  0.50400001928E-02 0.  1.
    10030    2    1    2    0    0  0.00000000000E+00  0.00000000000E+00  0.13909620861E+03  0.14062358168E+04  0.13993396361E+04 0.  0.
        1    1    3    3  502    0 -0.37535162300E+03  0.12830294614E+03  0.64874546741E+03  0.76040855360E+03  0.50400001928E-02 0. -1.
       -1    1    3    3    0  502  0.37535162300E+03 -0.12830294614E+03 -0.50964925880E+03  0.64582726320E+03  0.50400001928E-02 0.  1.
</event>
<event>
 5   0  0.6671375E-05  0.1397602E+04  0.7818609E-02  0.8955556E-01
        1   -1    0    0  501    0  0.00000000000E+00  0.00000000000E+00  0.55081028453E+03  0.55081028456E+03  0.50400001928E-02 0. -1.
       -1   -1    0    0    0  501  0.00000000000E+00  0.00000000000E+00 -0.88655370908E+03  0.88655370910E+03  0.50400001928E-02 0.  1.
    10030    2    1    2    0    0  0.00000000000E+00  0.00000000000E+00 -0.33574342455E+03  0.14373639937E+04  0.13976020904E+04 0.  0.
        5    1    3    3  502    0  0.52644004909E+03  0.33088794414E+03  0.16006496989E+03  0.64208164703E+03  0.46999998093E+01 0. -1.
       -5    1    3    3    0  502 -0.52644004909E+03 -0.33088794414E+03 -0.49580839444E+03  0.79528234663E+03  0.46999998093E+01 0.  1.
</event>
<event>
 5   0  0.1780171E-04  0.1401651E+04  0.7818609E-02  0.8952624E-01
       -2   -1    0    0    0  501  0.00000000000E+00  0.00000000000E+00  0.18982957015E+04  0.18982957015E+04  0.25500000920E-02 0.  1.
        2   -1    0    0  501    0  0.00000000000E+00  0.00000000000E+00 -0.25873555644E+03  0.25873555645E+03  0.25500000920E-02 0. -1.
    10030    2    1    2    0    0  0.00000000000E+00  0.00000000000E+00  0.16395601451E+04  0.21570312580E+04  0.14016513042E+04 0.  0.
        5    1    3    3  502    0 -0.56810559715E+03 -0.38012620912E+03  0.58189546709E+03  0.89769946473E+03  0.46999998093E+01 0.  1.
       -5    1    3    3    0  502  0.56810559715E+03  0.38012620912E+03  0.10576646780E+04  0.12593317932E+04  0.46999998093E+01 0. -1.
</event>
<event>
 5   0  0.1780171E-04  0.1404344E+04  0.7818609E-02  0.8950680E-01
        2   -1    0    0  501    0  0.00000000000E+00  0.00000000000E+00  0.56064562648E+03  0.56064562649E+03  0.25500000920E-02 0.  1.
       -2   -1    0    0    0  501  0.00000000000E+00  0.00000000000E+00 -0.87942433238E+03  0.87942433238E+03  0.25500000920E-02 0. -1.
    10030    2    1    2    0    0  0.00000000000E+00  0.00000000000E+00 -0.31877870590E+03  0.14400699589E+04  0.14043438408E+04 0.  0.
        5    1    3    3  502    0  0.25449593278E+03 -0.21506449505E+03  0.47439743564E+03  0.57973781468E+03  0.46999998093E+01 0.  1.
       -5    1    3    3    0  502 -0.25449593278E+03  0.21506449505E+03 -0.79317614153E+03  0.86033214419E+03  0.46999998093E+01 0. -1.
</event>
<event>
 5   0  0.1780171E-04  0.1399749E+04  0.7818609E-02  0.8954000E-01
       -2   -1    0    0    0  501  0.00000000000E+00  0.00000000000E+00  0.69620540889E+03  0.69620540890E+03  0.25500000920E-02 0.  1.
        2   -1    0    0  501    0  0.00000000000E+00  0.00000000000E+00 -0.70356298465E+03  0.70356298466E+03  0.25500000920E-02 0. -1.
    10030    2    1    2    0    0  0.00000000000E+00  0.00000000000E+00 -0.73575757630E+01  0.13997683936E+04  0.13997490567E+04 0.  0.
        5    1    3    3  502    0 -0.66876870694E+03  0.17035044448E+03  0.11264739990E+03  0.69927275367E+03  0.46999998093E+01 0.  1.
       -5    1    3    3    0  502  0.66876870694E+03 -0.17035044448E+03 -0.12000497567E+03  0.70049563989E+03  0.46999998093E+01 0. -1.
</event>
<event>
 5   0  0.1833681E-04  0.1398023E+04  0.7818609E-02  0.8955251E-01
        2   -1    0    0  501    0  0.00000000000E+00  0.00000000000E+00  0.32973505089E+04  0.32973505089E+04  0.25500000920E-02 0.  1.
       -2   -1    0    0    0  501  0.00000000000E+00  0.00000000000E+00 -0.14818481720E+03  0.14818481722E+03  0.25500000920E-02 0. -1.
    10030    2    1    2    0    0  0.00000000000E+00  0.00000000000E+00  0.31491656917E+04  0.34455353261E+04  0.13980232937E+04 0.  0.
        4    1    3    3  502    0  0.65701426491E+03 -0.18735715757E+03  0.19388504240E+04  0.20557025632E+04  0.12699999809E+01 0. -1.
       -4    1    3    3    0  502 -0.65701426491E+03  0.18735715757E+03  0.12103152677E+04  0.13898327630E+04  0.12699999809E+01 0.  1.
</event>
<event>
 5   0  0.1833681E-04  0.1402712E+04  0.7818609E-02  0.8951858E-01
        2   -1    0    0  501    0  0.00000000000E+00  0.00000000000E+00  0.50459900958E+03  0.50459900958E+03  0.25500000920E-02 0. -1.
       -2   -1    0    0    0  501  0.00000000000E+00  0.00000000000E+00 -0.97483410257E+03  0.97483410258E+03  0.25500000920E-02 0.  1.
    10030    2    1    2    0    0  0.00000000000E+00  0.00000000000E+00 -0.47023509300E+03  0.14794331122E+04  0.14027121197E+04 0.  0.
        4    1    3    3  502    0 -0.11803009073E+03  0.45082500267E+03 -0.78792694931E+03  0.91542600776E+03  0.12699999809E+01 0.  1.
       -4    1    3    3    0  502  0.11803009073E+03 -0.45082500267E+03  0.31769185631E+03  0.56400710440E+03  0.12699999809E+01 0. -1.
</event>
<event>
 5   0  0.6671375E-05  0.1403955E+04  0.7818609E-02  0.8950961E-01
        1   -1    0    0  501    0  0.00000000000E+00  0.00000000000E+00  0.50514782822E+03  0.50514782825E+03  0.50400001928E-02 0. -1.
       -1   -1    0    0    0  501  0.00000000000E+00  0.00000000000E+00 -0.97550086407E+03  0.97550086408E+03  0.50400001928E-02 0.  1.
    10030    2    1    2    0    0  0.00000000000E+00  0.00000000000E+00 -0.47035303585E+03  0.14806486923E+04  0.14039546188E+04 0.  0.
        5    1    3    3  502    0  0.31458276737E+03  0.58288567984E+03  0.99693390951E+01  0.66244962904E+03  0.46999998093E+01 0. -1.
       -5    1    3    3    0  502 -0.31458276737E+03 -0.58288567984E+03 -0.48032237494E+03  0.81819906329E+03  0.46999998093E+01 0.  1.
</event>
<event>
 5   0  0.1766237E-04  0.1404007E+04  0.7818609E-02  0.8950924E-01
       -2   -1    0    0    0  501  0.00000000000E+00  0.00000000000E+00  0.50720656931E+03  0.50720656932E+03  0.25500000920E-02 0.  1.
        2   -1    0    0  501    0  0.00000000000E+00  0.00000000000E+00 -0.97161317765E+03  0.97161317765E+03  0.25500000920E-02 0. -1.
    10030    2    1    2    0    0  0.00000000000E+00  0.00000000000E+00 -0.46440660834E+03  0.14788197470E+04  0.14040065335E+04 0.  0.
        3    1    3    3  502    0 -0.66606234744E+03 -0.75954902520E+02 -0.12774886878E+02  0.67050086192E+03  0.10100000352E+00 0.  1.
       -3    1    3    3    0  502  0.66606234744E+03  0.75954902520E+02 -0.45163172146E+03  0.80831888505E+03  0.10100000352E+00 0. -1.
</event>
<event>
 5   0  0.1794185E-04  0.1400666E+04  0.7818609E-02  0.8953337E-01
       -2   -1    0    0    0  501  0.00000000000E+00  0.00000000000E+00  0.13899902874E+04  0.13899902874E+04  0.25500000920E-02 0.  1.
        2   -1    0    0  501    0  0.00000000000E+00  0.00000000000E+00 -0.35285597702E+03  0.35285597703E+03  0.25500000920E-02 0. -1.
    10030    2    1    2    0    0  0.00000000000E+00  0.00000000000E+00  0.10371343104E+04  0.17428462644E+04  0.14006661000E+04 0.  0.
        2    1    3    3  502    0 -0.40847901452E+02 -0.47756304502E+03 -0.11679465027E+03  0.49333153493E+03  0.25500000920E-02 0. -1.
       -2    1    3    3    0  502  0.40847901452E+02  0.47756304502E+03  0.11539289606E+04  0.12495147295E+04  0.25500000920E-02 0.  1.
</event>
<event>
 5   0  0.9900839E-05  0.1367636E+04  0.7818609E-02  0.8977584E-01
        1   -1    0    0  501    0  0.00000000000E+00  0.00000000000E+00  0.13963736653E+04  0.13963736653E+04  0.50400001928E-02 0. -1.
       -1   -1    0    0    0  501  0.00000000000E+00  0.00000000000E+00 -0.33487232007E+03  0.33487232011E+03  0.50400001928E-02 0.  1.
    10030    2    1    2    0    0  0.00000000000E+00  0.00000000000E+00  0.10615013452E+04  0.17312459854E+04  0.13676357542E+04 0.  0.
        3    1    3    3  502    0 -0.55187493657E+03 -0.12973383402E+03  0.10147858989E+04  0.11624058001E+04  0.10100000352E+00 0. -1.
       -3    1    3    3    0  502  0.55187493657E+03  0.12973383402E+03  0.46715446338E+02  0.56884018532E+03  0.10100000352E+00 0.  1.
</event>
<event>
 5   0  0.1780171E-04  0.1403337E+04  0.7818609E-02  0.8951407E-01
        2   -1    0    0  501    0  0.00000000000E+00  0.00000000000E+00  0.76119738337E+03  0.76119738337E+03  0.25500000920E-02 0. -1.
       -2   -1    0    0    0  501  0.00000000000E+00  0.00000000000E+00 -0.64679468883E+03  0.64679468884E+03  0.25500000920E-02 0.  1.
    10030    2    1    2    0    0  0.00000000000E+00  0.00000000000E+00  0.11440269453E+03  0.14079920722E+04  0.14033366306E+04 0.  0.
        5    1    3    3  502    0 -0.91299327991E+02 -0.14192310940E+03  0.74051766331E+03  0.75951710708E+03  0.46999998093E+01 0. -1.
       -5    1    3    3    0  502  0.91299327991E+02  0.14192310940E+03 -0.62611496877E+03  0.64847496513E+03  0.46999998093E+01 0.  1.
</event>
<event>
 5   0  0.1794185E-04  0.1398612E+04  0.7818609E-02  0.8954824E-01
       -2   -1    0    0    0  501  0.00000000000E+00  0.00000000000E+00  0.57637984612E+03  0.57637984613E+03  0.25500000920E-02 0. -1.
        2   -1    0    0  501    0  0.00000000000E+00  0.00000000000E+00 -0.84844955468E+03  0.84844955468E+03  0.25500000920E-02 0.  1.
    10030    2    1    2    0    0  0.00000000000E+00  0.00000000000E+00 -0.27206970856E+03  0.14248294008E+04  0.13986124893E+04 0.  0.
        2    1    3    3  502    0  0.32375876258E+03 -0.61866916944E+03 -0.97136053162E+02  0.70498701434E+03  0.25500000920E-02 0.  1.
       -2    1    3    3    0  502 -0.32375876258E+03  0.61866916944E+03 -0.17493365540E+03  0.71984238647E+03  0.25500000920E-02 0. -1.
</event>
<event>
 5   0  0.9260916E-05  0.1398190E+04  0.7818609E-02  0.8955130E-01
        1   -1    0    0  501    0  0.00000000000E+00  0.00000000000E+00  0.25558199831E+04  0.25558199831E+04  0.50400001928E-02 0. -1.
       -1   -1    0    0    0  501  0.00000000000E+00  0.00000000000E+00 -0.19122386526E+03  0.19122386532E+03  0.50400001928E-02 0.  1.
    10030    2    1    2    0    0  0.00000000000E+00  0.00000000000E+00  0.23645961178E+04  0.27470438484E+04  0.13981899387E+04 0.  0.
        1    1    3    3  502    0  0.58357419439E+02 -0.28739711552E+03  0.24291273476E+04  0.24467656939E+04  0.50400001928E-02 0. -1.
       -1    1    3    3    0  502 -0.58357419439E+02  0.28739711552E+03 -0.64531229728E+02  0.30027815446E+03  0.50400001928E-02 0.  1.
</event>
<event>
 5   0  0.1780171E-04  0.1397352E+04  0.7818609E-02  0.8955738E-01
        2   -1    0    0  501    0  0.00000000000E+00  0.00000000000E+00  0.89868914933E+03  0.89868914934E+03  0.25500000920E-02 0. -1.
       -2   -1    0    0    0  501  0.00000000000E+00  0.00000000000E+00 -0.54317759221E+03  0.54317759222E+03  0.25500000920E-02 0.  1.
    10030    2    1    2    0    0  0.00000000000E+00  0.00000000000E+00  0.35551155712E+03  0.14418667416E+04  0.13973515067E+04 0.  0.
        5    1    3    3  502    0 -0.30401830901E+03  0.40885845221E+03 -0.31552506701E+03  0.59930837143E+03  0.46999998093E+01 0.  1.
       -5    1    3    3    0  502  0.30401830901E+03 -0.40885845221E+03  0.67103662413E+03  0.84255837013E+03  0.46999998093E+01 0. -1.
</event>
<event>
 5   0  0.6671375E-05  0.1396923E+04  0.7818609E-02  0.8956049E-01
       -4   -1    0    0    0  501  0.00000000000E+00  0.00000000000E+00  0.55254651375E+03  0.55254797327E+03  0.12699999809E+01 0. -1.
        4   -1    0    0  501    0  0.00000000000E+00  0.00000000000E+00 -0.88290621175E+03  0.88290712515E+03  0.12699999809E+01 0.  1.
    10030    2    1    2    0    0  0.00000000000E+00  0.00000000000E+00 -0.33035969800E+03  0.14354550984E+04  0.13969229791E+04 0.  0.
        2    1    3    3  502    0 -0.61093771337E+03 -0.20045174779E+03 -0.44550995654E+03  0.78224351336E+03  0.25500000920E-02 0. -1.
       -2    1    3    3    0  502  0.61093771337E+03  0.20045174779E+03  0.11515025855E+03  0.65321158506E+03  0.25500000920E-02 0.  1.
</event>
<event>
 5   0  0.1766237E-04  0.1396552E+04  0.7818609E-02  0.8956318E-01
       -2   -1    0    0    0  501  0.00000000000E+00  0.00000000000E+00  0.90635011441E+03  0.90635011441E+03  0.25500000920E-02 0.  1.
        2   -1    0    0  501    0  0.00000000000E+00  0.00000000000E+00 -0.53797044598E+03  0.53797044598E+03  0.25500000920E-02 0. -1.
    10030    2    1    2    0    0  0.00000000000E+00  0.00000000000E+00  0.36837966843E+03  0.14443205604E+04  0.13965522908E+04 0.  0.
        3    1    3    3  502    0 -0.17658634154E+03 -0.34849476592E+03 -0.41436193209E+03  0.56949728608E+03  0.10100000352E+00 0. -1.
       -3    1    3    3    0  502  0.17658634154E+03  0.34849476592E+03  0.78274160052E+03  0.87482327431E+03  0.10100000352E+00 0.  1.
</event>
<event>
 5   0  0.9978422E-05  0.1402665E+04  0.7818609E-02  0.8951892E-01
       -1   -1    0    0    0  501  0.00000000000E+00  0.00000000000E+00  0.30539777007E+03  0.30539777011E+03  0.50400001928E-02 0.  1.
        1   -1    0    0  501    0  0.00000000000E+00  0.00000000000E+00 -0.16105785349E+04  0.16105785349E+04  0.50400001928E-02 0. -1.
    10030    2    1    2    0    0  0.00000000000E+00  0.00000000000E+00 -0.13051807649E+04  0.19159763050E+04  0.14026647399E+04 0.  0.
        2    1    3    3  502    0 -0.79395061803E+02  0.28439847934E+03  0.21635538704E+03  0.36605426428E+03  0.25500000920E-02 0.  1.
       -2    1    3    3    0  502  0.79395061803E+02 -0.28439847934E+03 -0.15215361519E+04  0.15499220408E+04  0.25500000920E-02 0. -1.
</event>
<event>
 5   0  0.6671375E-05  0.1400948E+04  0.7818609E-02  0.8953132E-01
        1   -1    0    0  501    0  0.00000000000E+00  0.00000000000E+00  0.11176635356E+04  0.11176635356E+04  0.50400001928E-02 0. -1.
       -1   -1    0    0    0  501  0.00000000000E+00  0.00000000000E+00 -0.43900875189E+03  0.43900875192E+03  0.50400001928E-02 0.  1.
    10030    2    1    2    0    0  0.00000000000E+00  0.00000000000E+00  0.67865478371E+03  0.15566722875E+04  0.14009483557E+04 0.  0.
        5    1    3    3  502    0  0.59614993846E+03  0.26314572088E+03  0.53862842602E+02  0.65388356407E+03  0.46999998093E+01 0.  1.
       -5    1    3    3    0  502 -0.59614993846E+03 -0.26314572088E+03  0.62479194110E+03  0.90278872346E+03  0.46999998093E+01 0. -1.
</event>
<event>
 5   0  0.1794185E-04  0.1399451E+04  0.7818609E-02  0.8954216E-01
       -2   -1    0    0    0  501  0.00000000000E+00  0.00000000000E+00  0.53578973464E+03  0.53578973465E+03  0.25500000920E-02 0.  1.
        2   -1    0    0  501    0  0.00000000000E+00  0.00000000000E+00 -0.91382110422E+03  0.91382110422E+03  0.25500000920E-02 0. -1.
    10030    2    1    2    0    0  0.00000000000E+00  0.00000000000E+00 -0.37803136958E+03  0.14496108389E+04  0.13994512738E+04 0.  0.
        2    1    3    3  502    0  0.27853303056E+03  0.29443713392E+03 -0.77984736404E+03  0.87888326082E+03  0.25500000920E-02 0. -1.
       -2    1    3    3    0  502 -0.27853303056E+03 -0.29443713392E+03  0.40181599446E+03  0.57072757805E+03  0.25500000920E-02 0.  1.
</event>
<event>
 5   0  0.1712327E-04  0.1400479E+04  0.7818609E-02  0.8953472E-01
       -2   -1    0    0    0  501  0.00000000000E+00  0.00000000000E+00  0.41861377444E+03  0.41861377445E+03  0.25500000920E-02 0.  1.
        2   -1    0    0  501    0  0.00000000000E+00  0.00000000000E+00 -0.11713313707E+04  0.11713313707E+04  0.25500000920E-02 0. -1.
    10030    2    1    2    0    0  0.00000000000E+00  0.00000000000E+00 -0.75271759630E+03  0.15899451452E+04  0.14004791269E+04 0.  0.
        1    1    3    3  502    0 -0.64676458362E+03 -0.26724266858E+03 -0.40445285555E+03  0.80827296313E+03  0.50400001928E-02 0.  1.
       -1    1    3    3    0  502  0.64676458362E+03  0.26724266858E+03 -0.34826474075E+03  0.78167218206E+03  0.50400001928E-02 0. -1.
</event>
<event>
 5   0  0.9978422E-05  0.1400992E+04  0.7818609E-02  0.8953101E-01
       -1   -1    0    0    0  501  0.00000000000E+00  0.00000000000E+00  0.95775456114E+03  0.95775456115E+03  0.50400001928E-02 0.  1.
        1   -1    0    0  501    0  0.00000000000E+00  0.00000000000E+00 -0.51233852733E+03  0.51233852735E+03  0.50400001928E-02 0. -1.
    10030    2    1    2    0    0  0.00000000000E+00  0.00000000000E+00  0.44541603381E+03  0.14700930885E+04  0.14009918792E+04 0.  0.
        2    1    3    3  502    0  0.47524069749E+02  0.45178735523E+03 -0.33681265736E+03  0.56552021866E+03  0.25500000920E-02 0. -1.
       -2    1    3    3    0  502 -0.47524069749E+02 -0.45178735523E+03  0.78222869117E+03  0.90457286984E+03  0.25500000920E-02 0.  1.
</event>
<event>
 5   0  0.9900839E-05  0.1400567E+04  0.7818609E-02  0.8953408E-01
        1   -1    0    0  501    0  0.00000000000E+00  0.00000000000E+00  0.64662311348E+03  0.64662311350E+03  0.50400001928E-02 0. -1.
       -1   -1    0    0    0  501  0.00000000000E+00  0.00000000000E+00 -0.75839672914E+03  0.75839672915E+03  0.50400001928E-02 0.  1.
    10030    2    1    2    0    0  0.00000000000E+00  0.00000000000E+00 -0.11177361566E+03  0.14050198427E+04  0.14005668199E+04 0.  0.
        3    1    3    3  502    0 -0.20932327027E+03 -0.54574828186E+03  0.33100690646E+03  0.67173134582E+03  0.10100000352E+00 0. -1.
       -3    1    3    3    0  502  0.20932327027E+03  0.54574828186E+03 -0.44278052212E+03  0.73328849684E+03  0.10100000352E+00 0.  1.
</event>
<event>
 5   0  0.1794185E-04  0.1403490E+04  0.7818609E-02  0.8951296E-01
       -2   -1    0    0    0  501  0.00000000000E+00  0.00000000000E+00  0.52364496718E+03  0.52364496719E+03  0.25500000920E-02 0.  1.
        2   -1    0    0  501    0  0.00000000000E+00  0.00000000000E+00 -0.94041937739E+03  0.94041937739E+03  0.25500000920E-02 0. -1.
    10030    2    1    2    0    0  0.00000000000E+00  0.00000000000E+00 -0.41677441021E+03  0.14640643446E+04  0.14034897563E+04 0.  0.
        2    1    3    3  502    0 -0.69144554311E+03 -0.72658263642E+02 -0.30773258090E+03  0.76031276703E+03  0.25500000920E-02 0. -1.
       -2    1    3    3    0  502  0.69144554311E+03  0.72658263642E+02 -0.10904182931E+03  0.70375157755E+03  0.25500000920E-02 0.  1.
</event>
<event>
 5   0  0.9260916E-05  0.1400814E+04  0.7818609E-02  0.8953229E-01
        1   -1    0    0  501    0  0.00000000000E+00  0.00000000000E+00  0.10053424826E+04  0.10053424826E+04  0.50400001928E-02 0.  1.
       -1   -1    0    0    0  501  0.00000000000E+00  0.00000000000E+00 -0.48796315049E+03  0.48796315052E+03  0.50400001928E-02 0. -1.
    10030    2    1    2    0    0  0.00000000000E+00  0.00000000000E+00  0.51737933213E+03  0.14933056331E+04  0.14008141706E+04 0.  0.
        1    1    3    3  502    0  0.45744678813E+03  0.53018554419E+03  0.27435010276E+03  0.75207862231E+03  0.50400001928E-02 0. -1.
       -1    1    3    3    0  502 -0.45744678813E+03 -0.53018554419E+03  0.24302922937E+03  0.74122701083E+03  0.50400001928E-02 0.  1.
</event>
<event>
 5   0  0.9260916E-05  0.1405646E+04  0.7818609E-02  0.8949742E-01
        1   -1    0    0  501    0  0.00000000000E+00  0.00000000000E+00  0.74463115791E+03  0.74463115793E+03  0.50400001928E-02 0.  1.
       -1   -1    0    0    0  501  0.00000000000E+00  0.00000000000E+00 -0.66336249354E+03  0.66336249356E+03  0.50400001928E-02 0. -1.
    10030    2    1    2    0    0  0.00000000000E+00  0.00000000000E+00  0.81268664373E+02  0.14079936515E+04  0.14056463022E+04 0.  0.
        1    1    3    3  502    0  0.68371746082E+03  0.15841855968E+03  0.32306380534E+01  0.70183790389E+03  0.50400001928E-02 0.  1.
       -1    1    3    3    0  502 -0.68371746082E+03 -0.15841855968E+03  0.78038026319E+02  0.70615574760E+03  0.50400001928E-02 0. -1.
</event>
<event>
 5   0  0.9978422E-05  0.1401651E+04  0.7818609E-02  0.8952624E-01
        1   -1    0    0  501    0  0.00000000000E+00  0.00000000000E+00  0.64048399839E+03  0.64048399841E+03  0.50400001928E-02 0.  1.
       -1   -1    0    0    0  501  0.00000000000E+00  0.00000000000E+00 -0.76685216675E+03  0.76685216676E+03  0.50400001928E-02 0. -1.
    10030    2    1    2    0    0  0.00000000000E+00  0.00000000000E+00 -0.12636816836E+03  0.14073361652E+04  0.14016512290E+04 0.  0.
        2    1    3    3  502    0  0.34798671646E+03 -0.41049930283E+03 -0.51395050862E+03  0.74414350617E+03  0.25500000920E-02 0. -1.
       -2    1    3    3    0  502 -0.34798671646E+03  0.41049930283E+03  0.38758234026E+03  0.66319265900E+03  0.25500000920E-02 0.  1.
</event>
<event>
 5   0  0.1833681E-04  0.1399083E+04  0.7818609E-02  0.8954482E-01
        2   -1    0    0  501    0  0.00000000000E+00  0.00000000000E+00  0.13622258832E+04  0.13622258832E+04  0.25500000920E-02 0. -1.
       -2   -1    0    0    0  501  0.00000000000E+00  0.00000000000E+00 -0.35923445888E+03  0.35923445888E+03  0.25500000920E-02 0.  1.
    10030    2    1    2    0    0  0.00000000000E+00  0.00000000000E+00  0.10029914244E+04  0.17214603421E+04  0.13990832399E+04 0.  0.
        4    1    3    3  502    0  0.30837311275E+03  0.54211907119E+02 -0.26820464241E+03  0.41227205902E+03  0.12699999809E+01 0.  1.
       -4    1    3    3    0  502 -0.30837311275E+03 -0.54211907119E+02  0.12711960668E+04  0.13091882831E+04  0.12699999809E+01 0. -1.
</event>
<event>
 5   0  0.6671375E-05  0.1400422E+04  0.7818609E-02  0.8953513E-01
       -4   -1    0    0    0  501  0.00000000000E+00  0.00000000000E+00  0.69066915377E+03  0.69067032141E+03  0.12699999809E+01 0.  1.
        4   -1    0    0  501    0  0.00000000000E+00  0.00000000000E+00 -0.70988269992E+03  0.70988383595E+03  0.12699999809E+01 0. -1.
    10030    2    1    2    0    0  0.00000000000E+00  0.00000000000E+00 -0.19213546145E+02  0.14005541574E+04  0.14004223603E+04 0.  0.
        2    1    3    3  502    0  0.42811201444E+03  0.23911435783E+03  0.49028036627E+03  0.69341936128E+03  0.25500000920E-02 0.  1.
       -2    1    3    3    0  502 -0.42811201444E+03 -0.23911435783E+03 -0.50949391242E+03  0.70713479608E+03  0.25500000920E-02 0. -1.
</event>
<event>
 5   0  0.1833681E-04  0.1399221E+04  0.7818609E-02  0.8954383E-01
        2   -1    0    0  501    0  0.00000000000E+00  0.00000000000E+00  0.22322419209E+04  0.22322419209E+04  0.25500000920E-02 0. -1.
       -2   -1    0    0    0  501  0.00000000000E+00  0.00000000000E+00 -0.21926602511E+03  0.21926602512E+03  0.25500000920E-02 0.  1.
    10030    2    1    2    0    0  0.00000000000E+00  0.00000000000E+00  0.20129758957E+04  0.24515079460E+04  0.13992209448E+04 0.  0.
        4    1    3    3  502    0  0.16998730127E+03 -0.59382891539E+03  0.15820703495E+04  0.16983747134E+04  0.12699999809E+01 0.  1.
       -4    1    3    3    0  502 -0.16998730127E+03  0.59382891539E+03  0.43090554620E+03  0.75313323257E+03  0.12699999809E+01 0. -1.
</event>
<event>
 5   0  0.1712327E-04  0.1392018E+04  0.7818609E-02  0.8959617E-01
        2   -1    0    0  501    0  0.00000000000E+00  0.00000000000E+00  0.14633861250E+04  0.14633861251E+04  0.25500000920E-02 0. -1.
       -2   -1    0    0    0  501  0.00000000000E+00  0.00000000000E+00 -0.33103249723E+03  0.33103249724E+03  0.25500000920E-02 0.  1.
    10030    2    1    2    0    0  0.00000000000E+00  0.00000000000E+00  0.11323536278E+04  0.17944186223E+04  0.13920177634E+04 0.  0.
        1    1    3    3  502    0 -0.60546652266E+02  0.42822995187E+03 -0.13679193529E+03  0.45360646200E+03  0.50400001928E-02 0.  1.
       -1    1    3    3    0  502  0.60546652266E+02 -0.42822995187E+03  0.12691455631E+04  0.13408121603E+04  0.50400001928E-02 0. -1.
</event>
<event>
 5   0  0.1780171E-04  0.1399435E+04  0.7818609E-02  0.8954228E-01
        2   -1    0    0  501    0  0.00000000000E+00  0.00000000000E+00  0.74479551238E+03  0.74479551239E+03  0.25500000920E-02 0.  1.
       -2   -1    0    0    0  501  0.00000000000E+00  0.00000000000E+00 -0.65736743569E+03  0.65736743569E+03  0.25500000920E-02 0. -1.
    10030    2    1    2    0    0  0.00000000000E+00  0.00000000000E+00  0.87428076698E+02  0.14021629481E+04  0.13994346231E+04 0.  0.
        5    1    3    3  502    0 -0.29519623347E+03 -0.63420304977E+03  0.58839876892E+02  0.70202460477E+03  0.46999998093E+01 0.  1.
       -5    1    3    3    0  502  0.29519623347E+03  0.63420304977E+03  0.28588199806E+02  0.70013834330E+03  0.46999998093E+01 0. -1.
</event>
<event>
 5   0  0.1766237E-04  0.1404009E+04  0.7818609E-02  0.8950921E-01
       -2   -1    0    0    0  501  0.00000000000E+00  0.00000000000E+00  0.16439357982E+04  0.16439357982E+04  0.25500000920E-02 0. -1.
        2   -1    0    0  501    0  0.00000000000E+00  0.00000000000E+00 -0.29977484556E+03  0.29977484557E+03  0.25500000920E-02 0.  1.
    10030    2    1    2    0    0  0.00000000000E+00  0.00000000000E+00  0.13441609526E+04  0.19437106437E+04  0.14040094017E+04 0.  0.
        3    1    3    3  502    0 -0.55492367370E+02  0.55429591750E+03  0.12634757206E+04  0.13808310084E+04  0.10100000352E+00 0. -1.
       -3    1    3    3    0  502  0.55492367370E+02 -0.55429591750E+03  0.80685231958E+02  0.56287963531E+03  0.10100000352E+00 0.  1.
</event>
<event>
 5   0  0.1833681E-04  0.1401515E+04  0.7818609E-02  0.8952722E-01
       -2   -1    0    0    0  501  0.00000000000E+00  0.00000000000E+00  0.29137172336E+03  0.29137172337E+03  0.25500000920E-02 0.  1.
        2   -1    0    0  501    0  0.00000000000E+00  0.00000000000E+00 -0.16853431060E+04  0.16853431060E+04  0.25500000920E-02 0. -1.
    10030    2    1    2    0    0  0.00000000000E+00  0.00000000000E+00 -0.13939713826E+04  0.19767148294E+04  0.14015153588E+04 0.  0.
        4    1    3    3  502    0 -0.54410947160E+03 -0.43541169975E+03 -0.59313826064E+03  0.91512462239E+03  0.12699999809E+01 0. -1.
       -4    1    3    3    0  502  0.54410947160E+03  0.43541169975E+03 -0.80083312200E+03  0.10615902070E+04  0.12699999809E+01 0.  1.
</event>
<event>
 5   0  0.9900839E-05  0.1398595E+04  0.7818609E-02  0.8954836E-01
       -1   -1    0    0    0  501  0.00000000000E+00  0.00000000000E+00  0.39123354723E+03  0.39123354726E+03  0.50400001928E-02 0. -1.
        1   -1    0    0  501    0  0.00000000000E+00  0.00000000000E+00 -0.12499358182E+04  0.12499358182E+04  0.50400001928E-02 0.  1.
    10030    2    1    2    0    0  0.00000000000E+00  0.00000000000E+00 -0.85870227093E+03  0.16411693654E+04  0.13985947576E+04 0.  0.
        3    1    3    3  502    0  0.68562458556E+03  0.12207034924E+03 -0.50388612628E+03  0.85958331821E+03  0.10100000352E+00 0.  1.
       -3    1    3    3    0  502 -0.68562458556E+03 -0.12207034924E+03 -0.35481614465E+03  0.78158604721E+03  0.10100000352E+00 0. -1.
</event>
<event>
 5   0  0.9978422E-05  0.1399938E+04  0.7818609E-02  0.8953863E-01
        1   -1    0    0  501    0  0.00000000000E+00  0.00000000000E+00  0.11893621763E+04  0.11893621763E+04  0.50400001928E-02 0. -1.
       -1   -1    0    0    0  501  0.00000000000E+00  0.00000000000E+00 -0.41194924785E+03  0.41194924788E+03  0.50400001928E-02 0.  1.
    10030    2    1    2    0    0  0.00000000000E+00  0.00000000000E+00  0.77741292844E+03  0.16013114242E+04  0.13999383615E+04 0.  0.
        2    1    3    3  502    0 -0.46190877813E+03  0.12132949988E+03  0.97405559141E+03  0.10848340251E+04  0.25500000920E-02 0. -1.
       -2    1    3    3    0  502  0.46190877813E+03 -0.12132949988E+03 -0.19664266297E+03  0.51647739908E+03  0.25500000920E-02 0.  1.
</event>
<event>
 5   0  0.6671375E-05  0.1400625E+04  0.7818609E-02  0.8953366E-01
        1   -1    0    0  501    0  0.00000000000E+00  0.00000000000E+00  0.10899137398E+04  0.10899137398E+04  0.50400001928E-02 0. -1.
       -1   -1    0    0    0  501  0.00000000000E+00  0.00000000000E+00 -0.44997863388E+03  0.44997863391E+03  0.50400001928E-02 0.  1.
    10030    2    1    2    0    0  0.00000000000E+00  0.00000000000E+00  0.63993510595E+03  0.15398923737E+04  0.14006254256E+04 0.  0.
        5    1    3    3  502    0  0.32172324825E+03 -0.61525265298E+03  0.21935823184E+03  0.72813583852E+03  0.46999998093E+01 0.  1.
       -5    1    3    3    0  502 -0.32172324825E+03  0.61525265298E+03  0.42057687411E+03  0.81175653523E+03  0.46999998093E+01 0. -1.
</event>
<event>
 5   0  0.1833681E-04  0.1399179E+04  0.7818609E-02  0.8954413E-01
       -2   -1    0    0    0  501  0.00000000000E+00  0.00000000000E+00  0.87315457653E+03  0.87315457653E+03  0.25500000920E-02 0. -1.
        2   -1    0    0  501    0  0.00000000000E+00  0.00000000000E+00 -0.56052574003E+03  0.56052574004E+03  0.25500000920E-02 0.  1.
    10030    2    1    2    0    0  0.00000000000E+00  0.00000000000E+00  0.31262883650E+03  0.14336803166E+04  0.13991792096E+04 0.  0.
        4    1    3    3  502    0  0.35526389335E+03  0.22627685186E+03  0.72866678491E+03  0.84164751763E+03  0.12699999809E+01 0. -1.
       -4    1    3    3    0  502 -0.35526389335E+03 -0.22627685186E+03 -0.41603794841E+03  0.59203279894E+03  0.12699999809E+01 0.  1.
</event>
<event>
 5   0  0.9260916E-05  0.1396026E+04  0.7818609E-02  0.8956700E-01
        1   -1    0    0  501    0  0.00000000000E+00  0.00000000000E+00  0.45335816276E+03  0.45335816279E+03  0.50400001928E-02 0.  1.
       -1   -1    0    0    0  501  0.00000000000E+00  0.00000000000E+00 -0.10746954961E+04  0.10746954961E+04  0.50400001928E-02 0. -1.
    10030    2    1    2    0    0  0.00000000000E+00  0.00000000000E+00 -0.62133733333E+03  0.15280536589E+04  0.13960257529E+04 0.  0.
        1    1    3    3  502    0  0.62824545424E+03  0.85290909754E+02  0.89302676871E+01  0.63407147843E+03  0.50400001928E-02 0.  1.
       -1    1    3    3    0  502 -0.62824545424E+03 -0.85290909754E+02 -0.63026760102E+03  0.89398218046E+03  0.50400001928E-02 0. -1.
</event>
<event>
 5   0  0.6671375E-05  0.1394949E+04  0.7818609E-02  0.8957483E-01
       -1   -1    0    0    0  501  0.00000000000E+00  0.00000000000E+00  0.63156512914E+03  0.63156512916E+03  0.50400001928E-02 0. -1.
        1   -1    0    0  501    0  0.00000000000E+00  0.00000000000E+00 -0.77026225952E+03  0.77026225954E+03  0.50400001928E-02 0.  1.
    10030    2    1    2    0    0  0.00000000000E+00  0.00000000000E+00 -0.13869713039E+03  0.14018273887E+04  0.13949491509E+04 0.  0.
        5    1    3    3  502    0 -0.41230417655E+03  0.39990172756E+03 -0.46694137210E+03  0.74025161985E+03  0.46999998093E+01 0.  1.
       -5    1    3    3    0  502  0.41230417655E+03 -0.39990172756E+03  0.32824424172E+03  0.66157576885E+03  0.46999998093E+01 0. -1.
</event>
<event>
 5   0  0.9260916E-05  0.1400826E+04  0.7818609E-02  0.8953221E-01
        1   -1    0    0  501    0  0.00000000000E+00  0.00000000000E+00  0.14233084387E+04  0.14233084387E+04  0.50400001928E-02 0.  1.
       -1   -1    0    0    0  501  0.00000000000E+00  0.00000000000E+00 -0.34467460401E+03  0.34467460405E+03  0.50400001928E-02 0. -1.
    10030    2    1    2    0    0  0.00000000000E+00  0.00000000000E+00  0.10786338347E+04  0.17679830428E+04  0.14008258601E+04 0.  0.
        1    1    3    3  502    0  0.31463433261E+03 -0.34378431052E+03 -0.12060098387E+03  0.48138032028E+03  0.50400001928E-02 0. -1.
       -1    1    3    3    0  502 -0.31463433261E+03  0.34378431052E+03  0.11992348186E+04  0.12866027225E+04  0.50400001928E-02 0.  1.
</event>
<event>
 5   0  0.9978422E-05  0.1402068E+04  0.7818609E-02  0.8952323E-01
        1   -1    0    0  501    0  0.00000000000E+00  0.00000000000E+00  0.42446487606E+03  0.42446487609E+03  0.50400001928E-02 0.  1.
       -1   -1    0    0    0  501  0.00000000000E+00  0.00000000000E+00 -0.11578070095E+04  0.11578070095E+04  0.50400001928E-02 0. -1.
    10030    2    1    2    0    0  0.00000000000E+00  0.00000000000E+00 -0.73334213342E+03  0.15822718856E+04  0.14020676286E+04 0.  0.
        2    1    3    3  502    0 -0.57392079553E+03 -0.47444830507E+02  0.84475102071E+02  0.58204135107E+03  0.25500000920E-02 0.  1.
       -2    1    3    3    0  502  0.57392079553E+03  0.47444830507E+02 -0.81781723549E+03  0.10002305345E+04  0.25500000920E-02 0. -1.
</event>
<event>
 5   0  0.1780171E-04  0.1396263E+04  0.7818609E-02  0.8956528E-01
       -2   -1    0    0    0  501  0.00000000000E+00  0.00000000000E+00  0.91229593730E+03  0.91229593730E+03  0.25500000920E-02 0. -1.
        2   -1    0    0  501    0  0.00000000000E+00  0.00000000000E+00 -0.53424288539E+03  0.53424288539E+03  0.25500000920E-02 0.  1.
    10030    2    1    2    0    0  0.00000000000E+00  0.00000000000E+00  0.37805305191E+03  0.14465388227E+04  0.13962630323E+04 0.  0.
        5    1    3    3  502    0 -0.18309684305E+02 -0.69626457417E+03  0.23812411851E+03  0.73610107159E+03  0.46999998093E+01 0. -1.
       -5    1    3    3    0  502  0.18309684305E+02  0.69626457417E+03  0.13992893340E+03  0.71043775110E+03  0.46999998093E+01 0.  1.
</event>
<event>
 5   0  0.1833681E-04  0.1401346E+04  0.7818609E-02  0.8952845E-01
       -2   -1    0    0    0  501  0.00000000000E+00  0.00000000000E+00  0.66154308955E+03  0.66154308955E+03  0.25500000920E-02 0.  1.
        2   -1    0    0  501    0  0.00000000000E+00  0.00000000000E+00 -0.74211787783E+03  0.74211787784E+03  0.25500000920E-02 0. -1.
    10030    2    1    2    0    0  0.00000000000E+00  0.00000000000E+00 -0.80574788284E+02  0.14036609674E+04  0.14013464293E+04 0.  0.
        4    1    3    3  502    0  0.21858693713E+03 -0.16967111089E+03  0.60449375979E+03  0.66481791002E+03  0.12699999809E+01 0.  1.
       -4    1    3    3    0  502 -0.21858693713E+03  0.16967111089E+03 -0.68506854808E+03  0.73884305737E+03  0.12699999809E+01 0. -1.
</event>
<event>
 5   0  0.9900839E-05  0.1401065E+04  0.7818609E-02  0.8953048E-01
       -1   -1    0    0    0  501  0.00000000000E+00  0.00000000000E+00  0.11489328176E+04  0.11489328176E+04  0.50400001928E-02 0.  1.
        1   -1    0    0  501    0  0.00000000000E+00  0.00000000000E+00 -0.42713154487E+03  0.42713154490E+03  0.50400001928E-02 0. -1.
    10030    2    1    2    0    0  0.00000000000E+00  0.00000000000E+00  0.72180127276E+03  0.15760643625E+04  0.14010645230E+04 0.  0.
        3    1    3    3  502    0 -0.80254352275E+02 -0.14323056246E+02  0.11435786650E+04  0.11464807388E+04  0.10100000352E+00 0.  1.
       -3    1    3    3    0  502  0.80254352275E+02  0.14323056246E+02 -0.42177739228E+03  0.42958362380E+03  0.10100000352E+00 0. -1.
</event>
<event>
 5   0  0.9978422E-05  0.1396429E+04  0.7818609E-02  0.8956408E-01
       -1   -1    0    0    0  501  0.00000000000E+00  0.00000000000E+00  0.14174906517E+04  0.14174906517E+04  0.50400001928E-02 0.  1.
        1   -1    0    0  501    0  0.00000000000E+00  0.00000000000E+00 -0.34391998026E+03  0.34391998029E+03  0.50400001928E-02 0. -1.
    10030    2    1    2    0    0  0.00000000000E+00  0.00000000000E+00  0.10735706714E+04  0.17614106320E+04  0.13964288123E+04 0.  0.
        2    1    3    3  502    0 -0.44648184320E+03  0.18921356532E+03 -0.96862915279E+02  0.49449998379E+03  0.25500000920E-02 0. -1.
       -2    1    3    3    0  502  0.44648184320E+03 -0.18921356532E+03  0.11704335867E+04  0.12669106482E+04  0.25500000920E-02 0.  1.
</event>
<event>
 5   0  0.1833681E-04  0.1392452E+04  0.7818609E-02  0.8959300E-01
        2   -1    0    0  501    0  0.00000000000E+00  0.00000000000E+00  0.19263569311E+04  0.19263569311E+04  0.25500000920E-02 0. -1.
       -2   -1    0    0    0  501  0.00000000000E+00  0.00000000000E+00 -0.25163083051E+03  0.25163083052E+03  0.25500000920E-02 0.  1.
    10030    2    1    2    0    0  0.00000000000E+00  0.00000000000E+00  0.16747261006E+04  0.21779877617E+04  0.13924522174E+04 0.  0.
        4    1    3    3  502    0  0.58008243189E+03 -0.23533095003E+03  0.36074238917E+03  0.72250464917E+03  0.12699999809E+01 0. -1.
       -4    1    3    3    0  502 -0.58008243189E+03  0.23533095003E+03  0.13139837115E+04  0.14554831125E+04  0.12699999809E+01 0.  1.
</event>
<event>
 5   0  0.9260916E-05  0.1404073E+04  0.7818609E-02  0.8950875E-01
       -1   -1    0    0    0  501  0.00000000000E+00  0.00000000000E+00  0.62706123926E+03  0.62706123928E+03  0.50400001928E-02 0.  1.
        1   -1    0    0  501    0  0.00000000000E+00  0.00000000000E+00 -0.78597646352E+03  0.78597646354E+03  0.50400001928E-02 0. -1.
    10030    2    1    2    0    0  0.00000000000E+00  0.00000000000E+00 -0.15891522427E+03  0.14130377028E+04  0.14040731822E+04 0.  0.
        1    1    3    3  502    0  0.81176712600E+02  0.63794987788E+03 -0.36283249619E+03  0.73838819443E+03  0.50400001928E-02 0. -1.
       -1    1    3    3    0  502 -0.81176712600E+02 -0.63794987788E+03  0.20391727192E+03  0.67464950839E+03  0.50400001928E-02 0.  1.
</event>
<event>
 5   0  0.1712327E-04  0.1383571E+04  0.7818609E-02  0.8965797E-01
       -2   -1    0    0    0  501  0.00000000000E+00  0.00000000000E+00  0.37225821966E+03  0.37225821967E+03  0.25500000920E-02 0. -1.
        2   -1    0    0  501    0  0.00000000000E+00  0.00000000000E+00 -0.12855792105E+04  0.12855792105E+04  0.25500000920E-02 0.  1.
    10030    2    1    2    0    0  0.00000000000E+00  0.00000000000E+00 -0.91332099081E+03  0.16578374301E+04  0.13835713616E+04 0.  0.
        1    1    3    3  502    0 -0.55069743902E+03  0.34372464284E+03 -0.74311811684E+03  0.98673138951E+03  0.50400001928E-02 0.  1.
       -1    1    3    3    0  502  0.55069743902E+03 -0.34372464284E+03 -0.17020287397E+03  0.67110604064E+03  0.50400001928E-02 0. -1.
</event>
<event>
 5   0  0.9260916E-05  0.1398443E+04  0.7818609E-02  0.8954946E-01
       -1   -1    0    0    0  501  0.00000000000E+00  0.00000000000E+00  0.37058222857E+03  0.37058222861E+03  0.50400001928E-02 0.  1.
        1   -1    0    0  501    0  0.00000000000E+00  0.00000000000E+00 -0.13193050485E+04  0.13193050485E+04  0.50400001928E-02 0. -1.
    10030    2    1    2    0    0  0.00000000000E+00  0.00000000000E+00 -0.94872281988E+03  0.16898872771E+04  0.13984434276E+04 0.  0.
        1    1    3    3  502    0  0.10084532875E+03  0.18158413241E+03 -0.12811643771E+04  0.12978924219E+04  0.50400001928E-02 0. -1.
       -1    1    3    3    0  502 -0.10084532875E+03 -0.18158413241E+03  0.33244155726E+03  0.39199485519E+03  0.50400001928E-02 0.  1.
</event>
<event>
 5   0  0.9260916E-05  0.1396521E+04  0.7818609E-02  0.8956340E-01
        1   -1    0    0  501    0  0.00000000000E+00  0.00000000000E+00  0.18886240442E+04  0.18886240442E+04  0.50400001928E-02 0. -1.
       -1   -1    0    0    0  501  0.00000000000E+00  0.00000000000E+00 -0.25816038201E+03  0.25816038206E+03  0.50400001928E-02 0.  1.
    10030    2    1    2    0    0  0.00000000000E+00  0.00000000000E+00  0.16304636621E+04  0.21467844262E+04  0.13965212562E+04 0.  0.
        1    1    3    3  502    0 -0.24402712445E+03  0.52172591331E+03  0.14220429291E+04  0.15342598405E+04  0.50400001928E-02 0. -1.
       -1    1    3    3    0  502  0.24402712445E+03 -0.52172591331E+03  0.20842073307E+03  0.61252458570E+03  0.50400001928E-02 0.  1.
</event>
<event>
 5   0  0.1766237E-04  0.1401125E+04  0.7818609E-02  0.8953005E-01
        2   -1    0    0  501    0  0.00000000000E+00  0.00000000000E+00  0.16396720087E+04  0.16396720087E+04  0.25500000920E-02 0.  1.
       -2   -1    0    0    0  501  0.00000000000E+00  0.00000000000E+00 -0.29932072683E+03  0.29932072684E+03  0.25500000920E-02 0. -1.
    10030    2    1    2    0    0  0.00000000000E+00  0.00000000000E+00  0.13403512819E+04  0.19389927355E+04  0.14011250014E+04 0.  0.
        3    1    3    3  502    0 -0.39656269908E+03  0.65715530279E+01 -0.12898837345E+03  0.41706494734E+03  0.10100000352E+00 0. -1.
       -3    1    3    3    0  502  0.39656269908E+03 -0.65715530279E+01  0.14693396553E+04  0.15219277882E+04  0.10100000352E+00 0.  1.
</event>
<event>
 5   0  0.6671375E-05  0.1392729E+04  0.7818609E-02  0.8959099E-01
        1   -1    0    0  501    0  0.00000000000E+00  0.00000000000E+00  0.64394123331E+03  0.64394123333E+03  0.50400001928E-02 0. -1.
       -1   -1    0    0    0  501  0.00000000000E+00  0.00000000000E+00 -0.75305505264E+03  0.75305505266E+03  0.50400001928E-02 0.  1.
    10030    2    1    2    0    0  0.00000000000E+00  0.00000000000E+00 -0.10911381933E+03  0.13969962860E+04  0.13927285441E+04 0.  0.
        5    1    3    3  502    0  0.10125626009E+03  0.28540639967E+03  0.57441437237E+03  0.64937169970E+03  0.46999998093E+01 0. -1.
       -5    1    3    3    0  502 -0.10125626009E+03 -0.28540639967E+03 -0.68352819170E+03  0.74762458629E+03  0.46999998093E+01 0.  1.
</event>
<event>
 5   0  0.1766237E-04  0.1400581E+04  0.7818609E-02  0.8953398E-01
       -2   -1    0    0    0  501  0.00000000000E+00  0.00000000000E+00  0.67888708035E+03  0.67888708035E+03  0.25500000920E-02 0. -1.
        2   -1    0    0  501    0  0.00000000000E+00  0.00000000000E+00 -0.72236834891E+03  0.72236834892E+03  0.25500000920E-02 0.  1.
    10030    2    1    2    0    0  0.00000000000E+00  0.00000000000E+00 -0.43481268566E+02  0.14012554293E+04  0.14005806501E+04 0.  0.
        3    1    3    3  502    0  0.66644508419E+03 -0.13062382756E+02 -0.23652255084E+03  0.70729244542E+03  0.10100000352E+00 0.  1.
       -3    1    3    3    0  502 -0.66644508419E+03  0.13062382756E+02  0.19304128227E+03  0.69396298385E+03  0.10100000352E+00 0. -1.
</event>
<event>
 5   0  0.1833681E-04  0.1396543E+04  0.7818609E-02  0.8956325E-01
       -2   -1    0    0    0  501  0.00000000000E+00  0.00000000000E+00  0.70172148109E+03  0.70172148110E+03  0.25500000920E-02 0.  1.
        2   -1    0    0  501    0  0.00000000000E+00  0.00000000000E+00 -0.69483847635E+03  0.69483847635E+03  0.25500000920E-02 0. -1.
    10030    2    1    2    0    0  0.00000000000E+00  0.00000000000E+00  0.68830047411E+01  0.13965599575E+04  0.13965429958E+04 0.  0.
        4    1    3    3  502    0 -0.67661035922E+02  0.15276383905E+03 -0.67455394847E+03  0.69493844951E+03  0.12699999809E+01 0. -1.
       -4    1    3    3    0  502  0.67661035922E+02 -0.15276383905E+03  0.68143695321E+03  0.70162150794E+03  0.12699999809E+01 0.  1.
</event>
<event>
 5   0  0.1766237E-04  0.1398102E+04  0.7818609E-02  0.8955193E-01
        2   -1    0    0  501    0  0.00000000000E+00  0.00000000000E+00  0.15353015081E+04  0.15353015081E+04  0.25500000920E-02 0. -1.
       -2   -1    0    0    0  501  0.00000000000E+00  0.00000000000E+00 -0.31829098674E+03  0.31829098675E+03  0.25500000920E-02 0.  1.
    10030    2    1    2    0    0  0.00000000000E+00  0.00000000000E+00  0.12170105213E+04  0.18535924948E+04  0.13981024740E+04 0.  0.
        3    1    3    3  502    0  0.40163842454E+03  0.23902515855E+03  0.12976952524E+04  0.13792967153E+04  0.10100000352E+00 0. -1.
       -3    1    3    3    0  502 -0.40163842454E+03 -0.23902515855E+03 -0.80684731051E+02  0.47429577956E+03  0.10100000352E+00 0.  1.
</event>
<event>
 5   0  0.1712327E-04  0.1398923E+04  0.7818609E-02  0.8954598E-01
        2   -1    0    0  501    0  0.00000000000E+00  0.00000000000E+00  0.81796346762E+03  0.81796346762E+03  0.25500000920E-02 0. -1.
       -2   -1    0    0    0  501  0.00000000000E+00  0.00000000000E+00 -0.59812762507E+03  0.59812762507E+03  0.25500000920E-02 0.  1.
    10030    2    1    2    0    0  0.00000000000E+00  0.00000000000E+00  0.21983584255E+03  0.14160910927E+04  0.13989232235E+04 0.  0.
        1    1    3    3  502    0 -0.23512392449E+03  0.65748304656E+03  0.15140045915E+03  0.71448535005E+03  0.50400001928E-02 0. -1.
       -1    1    3    3    0  502  0.23512392449E+03 -0.65748304656E+03  0.68435383400E+02  0.70160574264E+03  0.50400001928E-02 0.  1.
</event>
<event>
 5   0  0.9978422E-05  0.1401067E+04  0.7818609E-02  0.8953046E-01
       -1   -1    0    0    0  501  0.00000000000E+00  0.00000000000E+00  0.77967694859E+03  0.77967694860E+03  0.50400001928E-02 0. -1.
        1   -1    0    0  501    0  0.00000000000E+00  0.00000000000E+00 -0.62942408314E+03  0.62942408316E+03  0.50400001928E-02 0.  1.
    10030    2    1    2    0    0  0.00000000000E+00  0.00000000000E+00  0.15025286545E+03  0.14091010318E+04  0.14010673767E+04 0.  0.
        2    1    3    3  502    0  0.23139526549E+03  0.52544895642E+03  0.47880939204E+03  0.74759535085E+03  0.25500000920E-02 0. -1.
       -2    1    3    3    0  502 -0.23139526549E+03 -0.52544895642E+03 -0.32855652659E+03  0.66150568091E+03  0.25500000920E-02 0.  1.
</event>
<event>
 5   0  0.9828111E-05  0.1401249E+04  0.7818609E-02  0.8952915E-01
       -1   -1    0    0    0  501  0.00000000000E+00  0.00000000000E+00  0.50486465176E+03  0.50486465179E+03  0.50400001928E-02 0.  1.
        1   -1    0    0  501    0  0.00000000000E+00  0.00000000000E+00 -0.97229027253E+03  0.97229027254E+03  0.50400001928E-02 0. -1.
    10030    2    1    2    0    0  0.00000000000E+00  0.00000000000E+00 -0.46742562077E+03  0.14771549243E+04  0.14012494280E+04 0.  0.
        4    1    3    3  502    0  0.17738326163E+03  0.56612301629E+03 -0.62661322803E+03  0.86290546500E+03  0.12699999809E+01 0. -1.
       -4    1    3    3    0  502 -0.17738326163E+03 -0.56612301629E+03  0.15918760727E+03  0.61424945933E+03  0.12699999809E+01 0.  1.
</event>
<event>
 5   0  0.1780171E-04  0.1401375E+04  0.7818609E-02  0.8952824E-01
       -2   -1    0    0    0  501  0.00000000000E+00  0.00000000000E+00  0.79976404591E+03  0.79976404592E+03  0.25500000920E-02 0.  1.
        2   -1    0    0  501    0  0.00000000000E+00  0.00000000000E+00 -0.61388444727E+03  0.61388444727E+03  0.25500000920E-02 0. -1.
    10030    2    1    2    0    0  0.00000000000E+00  0.00000000000E+00  0.18587959865E+03  0.14136484932E+04  0.14013746241E+04 0.  0.
        5    1    3    3  502    0  0.30376913291E+03  0.96621046240E+02  0.72236732848E+03  0.78958720858E+03  0.46999998093E+01 0.  1.
       -5    1    3    3    0  502 -0.30376913291E+03 -0.96621046240E+02 -0.53648772984E+03  0.62406128461E+03  0.46999998093E+01 0. -1.
</event>
<event>
 5   0  0.9260916E-05  0.1410753E+04  0.7818609E-02  0.8946071E-01
        1   -1    0    0  501    0  0.00000000000E+00  0.00000000000E+00  0.48784331048E+03  0.48784331051E+03  0.50400001928E-02 0. -1.
       -1   -1    0    0    0  501  0.00000000000E+00  0.00000000000E+00 -0.10199099338E+04  0.10199099338E+04  0.50400001928E-02 0.  1.
    10030    2    1    2    0    0  0.00000000000E+00  0.00000000000E+00 -0.53206662333E+03  0.15077532443E+04  0.14107533286E+04 0.  0.
        1    1    3    3  502    0 -0.13543193117E+03 -0.50046047842E+03 -0.77720087769E+03  0.93426104636E+03  0.50400001928E-02 0.  1.
       -1    1    3    3    0  502  0.13543193117E+03  0.50046047842E+03  0.24513425436E+03  0.57349219797E+03  0.50400001928E-02 0. -1.
</event>
<event>
 5   0  0.6671375E-05  0.1401618E+04  0.7818609E-02  0.8952648E-01
       -3   -1    0    0    0  501  0.00000000000E+00  0.00000000000E+00  0.80552021535E+03  0.80552022169E+03  0.10100000352E+00 0.  1.
        3   -1    0    0  501    0  0.00000000000E+00  0.00000000000E+00 -0.60970942417E+03  0.60970943254E+03  0.10100000352E+00 0. -1.
    10030    2    1    2    0    0  0.00000000000E+00  0.00000000000E+00  0.19581079118E+03  0.14152296542E+04  0.14016180322E+04 0.  0.
        3    1    3    3  502    0 -0.20539042052E+03 -0.41623637572E+03 -0.43226068916E+03  0.63426119139E+03  0.10100000352E+00 0. -1.
       -3    1    3    3    0  502  0.20539042052E+03  0.41623637572E+03  0.62807148034E+03  0.78096846283E+03  0.10100000352E+00 0.  1.
</event>
<event>
 5   0  0.9828111E-05  0.1404111E+04  0.7818609E-02  0.8950848E-01
       -1   -1    0    0    0  501  0.00000000000E+00  0.00000000000E+00  0.29114010954E+03  0.29114010959E+03  0.50400001928E-02 0. -1.
        1   -1    0    0  501    0  0.00000000000E+00  0.00000000000E+00 -0.16929379672E+04  0.16929379672E+04  0.50400001928E-02 0.  1.
    10030    2    1    2    0    0  0.00000000000E+00  0.00000000000E+00 -0.14017978577E+04  0.19840780768E+04  0.14041113136E+04 0.  0.
        4    1    3    3  502    0 -0.27324620862E+03  0.20856301665E+03  0.16408849430E+03  0.38090506599E+03  0.12699999809E+01 0. -1.
       -4    1    3    3    0  502  0.27324620862E+03 -0.20856301665E+03 -0.15658863520E+04  0.16031730108E+04  0.12699999809E+01 0.  1.
</event>
<event>
 5   0  0.6671375E-05  0.1398899E+04  0.7818609E-02  0.8954616E-01
        1   -1    0    0  501    0  0.00000000000E+00  0.00000000000E+00  0.58383976706E+03  0.58383976708E+03  0.50400001928E-02 0.  1.
       -1   -1    0    0    0  501  0.00000000000E+00  0.00000000000E+00 -0.83795232569E+03  0.83795232570E+03  0.50400001928E-02 0. -1.
    10030    2    1    2    0    0  0.00000000000E+00  0.00000000000E+00 -0.25411255863E+03  0.14217920928E+04  0.13988994112E+04 0.  0.
        5    1    3    3  502    0 -0.64962658543E+03 -0.24408104002E+03 -0.38349430519E+02  0.69504174221E+03  0.46999998093E+01 0. -1.
       -5    1    3    3    0  502  0.64962658543E+03  0.24408104002E+03 -0.21576312811E+03  0.72675035057E+03  0.46999998093E+01 0.  1.
</event>
<event>
 5   0  0.1833681E-04  0.1400661E+04  0.7818609E-02  0.8953340E-01
       -2   -1    0    0    0  501  0.00000000000E+00  0.00000000000E+00  0.68901199510E+03  0.68901199510E+03  0.25500000920E-02 0.  1.
        2   -1    0    0  501    0  0.00000000000E+00  0.00000000000E+00 -0.71183536490E+03  0.71183536490E+03  0.25500000920E-02 0. -1.
    10030    2    1    2    0    0  0.00000000000E+00  0.00000000000E+00 -0.22823369805E+02  0.14008473600E+04  0.14006614223E+04 0.  0.
        4    1    3    3  502    0  0.61190254693E+03  0.13511385876E+03 -0.32415274849E+03  0.70551902811E+03  0.12699999809E+01 0. -1.
       -4    1    3    3    0  502 -0.61190254693E+03 -0.13511385876E+03  0.30132937869E+03  0.69532833189E+03  0.12699999809E+01 0.  1.
</event>
<event>
 5   0  0.9260916E-05  0.1401533E+04  0.7818609E-02  0.8952710E-01
        1   -1    0    0  501    0  0.00000000000E+00  0.00000000000E+00  0.10417652696E+04  0.10417652696E+04  0.50400001928E-02 0. -1.
       -1   -1    0    0    0  501  0.00000000000E+00  0.00000000000E+00 -0.47138587567E+03  0.47138587570E+03  0.50400001928E-02 0.  1.
    10030    2    1    2    0    0  0.00000000000E+00  0.00000000000E+00  0.57037939396E+03  0.15131511453E+04  0.14015326381E+04 0.  0.
        1    1    3    3  502    0 -0.43786955761E+03  0.33123294783E+03 -0.18495420432E+03  0.57935573953E+03  0.50400001928E-02 0.  1.
       -1    1    3    3    0  502  0.43786955761E+03 -0.33123294783E+03  0.75533359828E+03  0.93379540581E+03  0.50400001928E-02 0. -1.
</event>
<event>
 5   0  0.1794185E-04  0.1394506E+04  0.7818609E-02  0.8957805E-01
       -2   -1    0    0    0  501  0.00000000000E+00  0.00000000000E+00  0.34725657891E+03  0.34725657892E+03  0.25500000920E-02 0. -1.
        2   -1    0    0  501    0  0.00000000000E+00  0.00000000000E+00 -0.14000073765E+04  0.14000073765E+04  0.25500000920E-02 0.  1.
    10030    2    1    2    0    0  0.00000000000E+00  0.00000000000E+00 -0.10527507976E+04  0.17472639554E+04  0.13945060373E+04 0.  0.
        2    1    3    3  502    0 -0.20548533704E+03 -0.19273545483E+03  0.27276588977E+03  0.39213825358E+03  0.25500000920E-02 0. -1.
       -2    1    3    3    0  502  0.20548533704E+03  0.19273545483E+03 -0.13255166873E+04  0.13551257018E+04  0.25500000920E-02 0.  1.
</event>
<event>
 5   0  0.1780171E-04  0.1399468E+04  0.7818609E-02  0.8954203E-01
        2   -1    0    0  501    0  0.00000000000E+00  0.00000000000E+00  0.17773885184E+04  0.17773885184E+04  0.25500000920E-02 0.  1.
       -2   -1    0    0    0  501  0.00000000000E+00  0.00000000000E+00 -0.27547606593E+03  0.27547606595E+03  0.25500000920E-02 0. -1.
    10030    2    1    2    0    0  0.00000000000E+00  0.00000000000E+00  0.15019124524E+04  0.20528645843E+04  0.13994684658E+04 0.  0.
        5    1    3    3  502    0 -0.55668618949E+03 -0.39541710655E+03  0.52679707008E+03  0.86243344367E+03  0.46999998093E+01 0.  1.
       -5    1    3    3    0  502  0.55668618949E+03  0.39541710655E+03  0.97511538235E+03  0.11904311406E+04  0.46999998093E+01 0. -1.
</event>
<event>
 5   0  0.9900839E-05  0.1398727E+04  0.7818609E-02  0.8954741E-01
       -1   -1    0    0    0  501  0.00000000000E+00  0.00000000000E+00  0.74181194246E+03  0.74181194248E+03  0.50400001928E-02 0.  1.
        1   -1    0    0  501    0  0.00000000000E+00  0.00000000000E+00 -0.65934382771E+03  0.65934382773E+03  0.50400001928E-02 0. -1.
    10030    2    1    2    0    0  0.00000000000E+00  0.00000000000E+00  0.82468114757E+02  0.14011557702E+04  0.13987267433E+04 0.  0.
        3    1    3    3  502    0 -0.31019868700E+03 -0.46667067500E+03  0.46041548728E+03  0.72524973316E+03  0.10100000352E+00 0.  1.
       -3    1    3    3    0  502  0.31019868700E+03  0.46667067500E+03 -0.37794737252E+03  0.67590603705E+03  0.10100000352E+00 0. -1.
</event>
<event>
 5   0  0.6671375E-05  0.1400367E+04  0.7818609E-02  0.8953553E-01
       -1   -1    0    0    0  501  0.00000000000E+00  0.00000000000E+00  0.55742473809E+03  0.55742473812E+03  0.50400001928E-02 0.  1.
        1   -1    0    0  501    0  0.00000000000E+00  0.00000000000E+00 -0.87950366004E+03  0.87950366005E+03  0.50400001928E-02 0. -1.
    10030    2    1    2    0    0  0.00000000000E+00  0.00000000000E+00 -0.32207892194E+03  0.14369283982E+04  0.14003672338E+04 0.  0.
        5    1    3    3  502    0  0.22940420670E+03  0.28563925838E+03 -0.77329078582E+03  0.85569667839E+03  0.46999998093E+01 0. -1.
       -5    1    3    3    0  502 -0.22940420670E+03 -0.28563925838E+03  0.45121186387E+03  0.58123171978E+03  0.46999998093E+01 0.  1.
</event>
<event>
 5   0  0.6671375E-05  0.1398384E+04  0.7818609E-02  0.8954989E-01
       -1   -1    0    0    0  501  0.00000000000E+00  0.00000000000E+00  0.52963699353E+03  0.52963699355E+03  0.50400001928E-02 0. -1.
        1   -1    0    0  501    0  0.00000000000E+00  0.00000000000E+00 -0.92302713854E+03  0.92302713855E+03  0.50400001928E-02 0.  1.
    10030    2    1    2    0    0  0.00000000000E+00  0.00000000000E+00 -0.39339014501E+03  0.14526641321E+04  0.13983838080E+04 0.  0.
        5    1    3    3  502    0 -0.19309534232E+03 -0.21828884530E+03 -0.85690474222E+03  0.90512079771E+03  0.46999998093E+01 0.  1.
       -5    1    3    3    0  502  0.19309534232E+03  0.21828884530E+03  0.46351459722E+03  0.54754333439E+03  0.46999998093E+01 0. -1.
</event>
<event>
 5   0  0.1794185E-04  0.1398793E+04  0.7818609E-02  0.8954693E-01
        2   -1    0    0  501    0  0.00000000000E+00  0.00000000000E+00  0.65534604864E+03  0.65534604865E+03  0.25500000920E-02 0.  1.
       -2   -1    0    0    0  501  0.00000000000E+00  0.00000000000E+00 -0.74640814375E+03  0.74640814375E+03  0.25500000920E-02 0. -1.
    10030    2    1    2    0    0  0.00000000000E+00  0.00000000000E+00 -0.91062095105E+02  0.14017541924E+04  0.13987932337E+04 0.  0.
        2    1    3    3  502    0 -0.52686400141E+00  0.59073678762E+03 -0.42073700902E+03  0.72525158435E+03  0.25500000920E-02 0. -1.
       -2    1    3    3    0  502  0.52686400141E+00 -0.59073678762E+03  0.32967491391E+03  0.67650260805E+03  0.25500000920E-02 0.  1.
</event>
<event>
 5   0  0.9828111E-05  0.1392133E+04  0.7818609E-02  0.8959533E-01
        1   -1    0    0  501    0  0.00000000000E+00  0.00000000000E+00  0.17030024416E+04  0.17030024416E+04  0.50400001928E-02 0.  1.
       -1   -1    0    0    0  501  0.00000000000E+00  0.00000000000E+00 -0.28450273368E+03  0.28450273372E+03  0.50400001928E-02 0. -1.
    10030    2    1    2    0    0  0.00000000000E+00  0.00000000000E+00  0.14184997079E+04  0.19875051753E+04  0.13921333990E+04 0.  0.
        4    1    3    3  502    0  0.59791678495E+03  0.34331977292E+03  0.57280260298E+03  0.89636899940E+03  0.12699999809E+01 0. -1.
       -4    1    3    3    0  502 -0.59791678495E+03 -0.34331977292E+03  0.84569710491E+03  0.10911361759E+04  0.12699999809E+01 0.  1.
</event>
<event>
 5   0  0.1766237E-04  0.1399887E+04  0.7818609E-02  0.8953900E-01
        2   -1    0    0  501    0  0.00000000000E+00  0.00000000000E+00  0.98730972965E+03  0.98730972966E+03  0.25500000920E-02 0.  1.
       -2   -1    0    0    0  501  0.00000000000E+00  0.00000000000E+00 -0.49621810564E+03  0.49621810565E+03  0.25500000920E-02 0. -1.
    10030    2    1    2    0    0  0.00000000000E+00  0.00000000000E+00  0.49109162401E+03  0.14835278353E+04  0.13998870865E+04 0.  0.
        3    1    3    3  502    0 -0.31080646590E+03 -0.39404340916E+03 -0.27150933229E+03  0.57060336072E+03  0.10100000352E+00 0. -1.
       -3    1    3    3    0  502  0.31080646590E+03  0.39404340916E+03  0.76260095630E+03  0.91292447458E+03  0.10100000352E+00 0.  1.
</event>
<event>
 5   0  0.1780171E-04  0.1401940E+04  0.7818609E-02  0.8952415E-01
       -2   -1    0    0    0  501  0.00000000000E+00  0.00000000000E+00  0.24345286855E+03  0.24345286856E+03  0.25500000920E-02 0. -1.
        2   -1    0    0  501    0  0.00000000000E+00  0.00000000000E+00 -0.20182923580E+04  0.20182923580E+04  0.25500000920E-02 0.  1.
    10030    2    1    2    0    0  0.00000000000E+00  0.00000000000E+00 -0.17748394895E+04  0.22617452266E+04  0.14019401758E+04 0.  0.
        5    1    3    3  502    0  0.26387910076E+03 -0.29822099099E+03  0.43228696641E+02  0.40057302642E+03  0.46999998093E+01 0. -1.
       -5    1    3    3    0  502 -0.26387910076E+03  0.29822099099E+03 -0.18180681861E+04  0.18611722002E+04  0.46999998093E+01 0.  1.
</event>
<event>
 5   0  0.1712327E-04  0.1400071E+04  0.7818609E-02  0.8953767E-01
        2   -1    0    0  501    0  0.00000000000E+00  0.00000000000E+00  0.50584271289E+03  0.50584271289E+03  0.25500000920E-02 0. -1.
       -2   -1    0    0    0  501  0.00000000000E+00  0.00000000000E+00 -0.96877877080E+03  0.96877877080E+03  0.25500000920E-02 0.  1.
    10030    2    1    2    0    0  0.00000000000E+00  0.00000000000E+00 -0.46293605791E+03  0.14746214837E+04  0.14000709719E+04 0.  0.
        1    1    3    3  502    0 -0.36672610909E+03  0.23763247291E+03 -0.80748228331E+03  0.91814207461E+03  0.50400001928E-02 0.  1.
       -1    1    3    3    0  502  0.36672610909E+03 -0.23763247291E+03  0.34454622540E+03  0.55647940909E+03  0.50400001928E-02 0. -1.
</event>
<event>
 5   0  0.9828111E-05  0.1399625E+04  0.7818609E-02  0.8954090E-01
       -1   -1    0    0    0  501  0.00000000000E+00  0.00000000000E+00  0.54405758478E+03  0.54405758480E+03  0.50400001928E-02 0. -1.
        1   -1    0    0  501    0  0.00000000000E+00  0.00000000000E+00 -0.90015780692E+03  0.90015780693E+03  0.50400001928E-02 0.  1.
    10030    2    1    2    0    0  0.00000000000E+00  0.00000000000E+00 -0.35610022214E+03  0.14442153917E+04  0.13996252104E+04 0.  0.
        4    1    3    3  502    0  0.94313556431E+02 -0.61124734202E+03  0.15982287892E+03  0.63879834501E+03  0.12699999809E+01 0. -1.
       -4    1    3    3    0  502 -0.94313556431E+02  0.61124734202E+03 -0.51592310106E+03  0.80541704673E+03  0.12699999809E+01 0.  1.
</event>
<event>
 5   0  0.1712327E-04  0.1396679E+04  0.7818609E-02  0.8956226E-01
       -2   -1    0    0    0  501  0.00000000000E+00  0.00000000000E+00  0.46124326138E+03  0.46124326139E+03  0.25500000920E-02 0.  1.
        2   -1    0    0  501    0  0.00000000000E+00  0.00000000000E+00 -0.10573121754E+04  0.10573121754E+04  0.25500000920E-02 0. -1.
    10030    2    1    2    0    0  0.00000000000E+00  0.00000000000E+00 -0.59606891399E+03  0.15185554368E+04  0.13966790842E+04 0.  0.
        1    1    3    3  502    0  0.25482883722E+03  0.54373843488E+03  0.89569160802E+02  0.60713413381E+03  0.50400001928E-02 0.  1.
       -1    1    3    3    0  502 -0.25482883722E+03 -0.54373843488E+03 -0.68563807479E+03  0.91142130295E+03  0.50400001928E-02 0. -1.
</event>
<event>
 5   0  0.9828111E-05  0.1377929E+04  0.7818609E-02  0.8969951E-01
       -1   -1    0    0    0  501  0.00000000000E+00  0.00000000000E+00  0.87074541791E+03  0.87074541792E+03  0.50400001928E-02 0.  1.
        1   -1    0    0  501    0  0.00000000000E+00  0.00000000000E+00 -0.54513336344E+03  0.54513336346E+03  0.50400001928E-02 0. -1.
    10030    2    1    2    0    0  0.00000000000E+00  0.00000000000E+00  0.32561205447E+03  0.14158787814E+04  0.13779294298E+04 0.  0.
        4    1    3    3  502    0 -0.63937592573E+02 -0.68492957018E+03  0.20199069688E+03  0.71695075590E+03  0.12699999809E+01 0. -1.
       -4    1    3    3    0  502  0.63937592573E+02  0.68492957018E+03  0.12362135759E+03  0.69892802549E+03  0.12699999809E+01 0.  1.
</event>
<event>
 5   0  0.1833681E-04  0.1402076E+04  0.7818609E-02  0.8952317E-01
       -2   -1    0    0    0  501  0.00000000000E+00  0.00000000000E+00  0.34571846061E+03  0.34571846062E+03  0.25500000920E-02 0. -1.
        2   -1    0    0  501    0  0.00000000000E+00  0.00000000000E+00 -0.14215439743E+04  0.14215439743E+04  0.25500000920E-02 0.  1.
    10030    2    1    2    0    0  0.00000000000E+00  0.00000000000E+00 -0.10758255137E+04  0.17672624349E+04  0.14020755964E+04 0.  0.
        4    1    3    3  502    0 -0.60606084126E+03  0.34700396784E+02 -0.95962279379E+02  0.61459273735E+03  0.12699999809E+01 0. -1.
       -4    1    3    3    0  502  0.60606084126E+03 -0.34700396784E+02 -0.97986323429E+03  0.11526696976E+04  0.12699999809E+01 0.  1.
</event>
<event>
 5   0  0.9260916E-05  0.1399949E+04  0.7818609E-02  0.8953856E-01
       -1   -1    0    0    0  501  0.00000000000E+00  0.00000000000E+00  0.97924354023E+03  0.97924354025E+03  0.50400001928E-02 0. -1.
        1   -1    0    0  501    0  0.00000000000E+00  0.00000000000E+00 -0.50034959721E+03  0.50034959724E+03  0.50400001928E-02 0.  1.
    10030    2    1    2    0    0  0.00000000000E+00  0.00000000000E+00  0.47889394302E+03  0.14795931375E+04  0.13999487290E+04 0.  0.
        1    1    3    3  502    0 -0.35313232735E+03 -0.27171107056E+03  0.81000635984E+03  0.92446722467E+03  0.50400001928E-02 0. -1.
       -1    1    3    3    0  502  0.35313232735E+03  0.27171107056E+03 -0.33111241682E+03  0.55512591281E+03  0.50400001928E-02 0.  1.
</event>
<event>
 5   0  0.1780171E-04  0.1399164E+04  0.7818609E-02  0.8954424E-01
       -2   -1    0    0    0  501  0.00000000000E+00  0.00000000000E+00  0.20588089085E+03  0.20588089087E+03  0.25500000920E-02 0.  1.
        2   -1    0    0  501    0  0.00000000000E+00  0.00000000000E+00 -0.23771763641E+04  0.23771763641E+04  0.25500000920E-02 0. -1.
    10030    2    1    2    0    0  0.00000000000E+00  0.00000000000E+00 -0.21712954732E+04  0.25830572549E+04  0.13991643042E+04 0.  0.
        5    1    3    3  502    0 -0.31271443011E+02 -0.28578503447E+02  0.20348156550E+03  0.20789774290E+03  0.46999998093E+01 0.  1.
       -5    1    3    3    0  502  0.31271443011E+02  0.28578503447E+02 -0.23747770387E+04  0.23751595120E+04  0.46999998093E+01 0. -1.
</event>
<event>
 5   0  0.1780171E-04  0.1398057E+04  0.7818609E-02  0.8955226E-01
       -2   -1    0    0    0  501  0.00000000000E+00  0.00000000000E+00  0.34560614292E+03  0.34560614293E+03  0.25500000920E-02 0.  1.
        2   -1    0    0  501    0  0.00000000000E+00  0.00000000000E+00 -0.14138658076E+04  0.14138658076E+04  0.25500000920E-02 0. -1.
    10030    2    1    2    0    0  0.00000000000E+00  0.00000000000E+00 -0.10682596647E+04  0.17594719505E+04  0.13980568062E+04 0.  0.
        5    1    3    3  502    0  0.32569061146E+03  0.39233753563E+02  0.24269453914E+03  0.40808870499E+03  0.46999998093E+01 0.  1.
       -5    1    3    3    0  502 -0.32569061146E+03 -0.39233753563E+02 -0.13109542038E+04  0.13513832455E+04  0.46999998093E+01 0. -1.
</event>
<event>
 5   0  0.1794185E-04  0.1397980E+04  0.7818609E-02  0.8955282E-01
       -2   -1    0    0    0  501  0.00000000000E+00  0.00000000000E+00  0.23376813482E+03  0.23376813484E+03  0.25500000920E-02 0.  1.
        2   -1    0    0  501    0  0.00000000000E+00  0.00000000000E+00 -0.20900492010E+04  0.20900492010E+04  0.25500000920E-02 0. -1.
    10030    2    1    2    0    0  0.00000000000E+00  0.00000000000E+00 -0.18562810662E+04  0.23238173359E+04  0.13979798331E+04 0.  0.
        2    1    3    3  502    0  0.49026495053E+03  0.28671080674E+03 -0.25083185263E+03  0.62086989517E+03  0.25500000920E-02 0.  1.
       -2    1    3    3    0  502 -0.49026495053E+03 -0.28671080674E+03 -0.16054492136E+04  0.17029474407E+04  0.25500000920E-02 0. -1.
</event>
<event>
 5   0  0.1794185E-04  0.1401226E+04  0.7818609E-02  0.8952932E-01
        2   -1    0    0  501    0  0.00000000000E+00  0.00000000000E+00  0.12011260521E+04  0.12011260521E+04  0.25500000920E-02 0.  1.
       -2   -1    0    0    0  501  0.00000000000E+00  0.00000000000E+00 -0.40866520522E+03  0.40866520523E+03  0.25500000920E-02 0. -1.
    10030    2    1    2    0    0  0.00000000000E+00  0.00000000000E+00  0.79246084690E+03  0.16097912574E+04  0.14012257842E+04 0.  0.
        2    1    3    3  502    0  0.69190577028E+02 -0.58357219529E+03  0.83447313449E+03  0.10206317922E+04  0.25500000920E-02 0.  1.
       -2    1    3    3    0  502 -0.69190577028E+02  0.58357219529E+03 -0.42012287593E+02  0.58915946515E+03  0.25500000920E-02 0. -1.
</event>
<event>
 5   0  0.1712327E-04  0.1397866E+04  0.7818609E-02  0.8955365E-01
       -2   -1    0    0    0  501  0.00000000000E+00  0.00000000000E+00  0.29178172065E+03  0.29178172066E+03  0.25500000920E-02 0. -1.
        2   -1    0    0  501    0  0.00000000000E+00  0.00000000000E+00 -0.16742218299E+04  0.16742218299E+04  0.25500000920E-02 0.  1.
    10030    2    1    2    0    0  0.00000000000E+00  0.00000000000E+00 -0.13824401093E+04  0.19660035506E+04  0.13978659826E+04 0.  0.
        1    1    3    3  502    0 -0.52044186586E+03 -0.29836026814E+03 -0.18680531258E+03  0.62831107755E+03  0.50400001928E-02 0. -1.
       -1    1    3    3    0  502  0.52044186586E+03  0.29836026814E+03 -0.11956347967E+04  0.13376924730E+04  0.50400001928E-02 0.  1.
</event>
<event>
 5   0  0.9900839E-05  0.1401346E+04  0.7818609E-02  0.8952844E-01
        1   -1    0    0  501    0  0.00000000000E+00  0.00000000000E+00  0.60186062118E+03  0.60186062120E+03  0.50400001928E-02 0. -1.
       -1   -1    0    0    0  501  0.00000000000E+00  0.00000000000E+00 -0.81570873756E+03  0.81570873757E+03  0.50400001928E-02 0.  1.
    10030    2    1    2    0    0  0.00000000000E+00  0.00000000000E+00 -0.21384811637E+03  0.14175693588E+04  0.14013464490E+04 0.  0.
        3    1    3    3  502    0  0.63942275097E+03 -0.14574261946E+03  0.14259028425E+03  0.67114407167E+03  0.10100000352E+00 0. -1.
       -3    1    3    3    0  502 -0.63942275097E+03  0.14574261946E+03 -0.35643840063E+03  0.74642528710E+03  0.10100000352E+00 0.  1.
</event>
<event>
 5   0  0.9900839E-05  0.1400436E+04  0.7818609E-02  0.8953503E-01
       -1   -1    0    0    0  501  0.00000000000E+00  0.00000000000E+00  0.59707185501E+03  0.59707185503E+03  0.50400001928E-02 0.  1.
        1   -1    0    0  501    0  0.00000000000E+00  0.00000000000E+00 -0.82118242739E+03  0.82118242741E+03  0.50400001928E-02 0. -1.
    10030    2    1    2    0    0  0.00000000000E+00  0.00000000000E+00 -0.22411057238E+03  0.14182542824E+04  0.14004355255E+04 0.  0.
        3    1    3    3  502    0  0.74656731471E+02 -0.35905559445E+03  0.49203280952E+03  0.61366997914E+03  0.10100000352E+00 0.  1.
       -3    1    3    3    0  502 -0.74656731471E+02  0.35905559445E+03 -0.71614338190E+03  0.80458430329E+03  0.10100000352E+00 0. -1.
</event>
<event>
 5   0  0.6671375E-05  0.1414636E+04  0.7818609E-02  0.8943292E-01
        1   -1    0    0  501    0  0.00000000000E+00  0.00000000000E+00  0.87484095702E+03  0.87484095704E+03  0.50400001928E-02 0. -1.
       -1   -1    0    0    0  501  0.00000000000E+00  0.00000000000E+00 -0.57187428511E+03  0.57187428513E+03  0.50400001928E-02 0.  1.
    10030    2    1    2    0    0  0.00000000000E+00  0.00000000000E+00  0.30296667192E+03  0.14467152422E+04  0.14146364153E+04 0.  0.
        5    1    3    3  502    0 -0.33261027910E+03  0.13099086825E+03 -0.47267504278E+03  0.59264828642E+03  0.46999998093E+01 0.  1.
       -5    1    3    3    0  502  0.33261027910E+03 -0.13099086825E+03  0.77564171470E+03  0.85406695575E+03  0.46999998093E+01 0. -1.
</event>
<event>
 5   0  0.1766237E-04  0.1402554E+04  0.7818609E-02  0.8951972E-01
        2   -1    0    0  501    0  0.00000000000E+00  0.00000000000E+00  0.76712735652E+03  0.76712735653E+03  0.25500000920E-02 0.  1.
       -2   -1    0    0    0  501  0.00000000000E+00  0.00000000000E+00 -0.64107894999E+03  0.64107895000E+03  0.25500000920E-02 0. -1.
    10030    2    1    2    0    0  0.00000000000E+00  0.00000000000E+00  0.12604840653E+03  0.14082063065E+04  0.14025536713E+04 0.  0.
        3    1    3    3  502    0  0.38014024152E+03  0.85228581213E+02  0.64848548799E+03  0.75650773467E+03  0.10100000352E+00 0.  1.
       -3    1    3    3    0  502 -0.38014024152E+03 -0.85228581213E+02 -0.52243708145E+03  0.65169857186E+03  0.10100000352E+00 0. -1.
</event>
<event>
 5   0  0.9260916E-05  0.1401730E+04  0.7818609E-02  0.8952567E-01
        1   -1    0    0  501    0  0.00000000000E+00  0.00000000000E+00  0.69605939429E+03  0.69605939430E+03  0.50400001928E-02 0.  1.
       -1   -1    0    0    0  501  0.00000000000E+00  0.00000000000E+00 -0.70570421750E+03  0.70570421751E+03  0.50400001928E-02 0. -1.
    10030    2    1    2    0    0  0.00000000000E+00  0.00000000000E+00 -0.96448232103E+01  0.14017636118E+04  0.14017304309E+04 0.  0.
        1    1    3    3  502    0 -0.43478216860E+03 -0.26215339574E+03  0.47835785037E+03  0.69755728802E+03  0.50400001928E-02 0.  1.
       -1    1    3    3    0  502  0.43478216860E+03  0.26215339574E+03 -0.48800267358E+03  0.70420632380E+03  0.50400001928E-02 0. -1.
</event>
<event>
 5   0  0.1794185E-04  0.1403284E+04  0.7818609E-02  0.8951445E-01
       -2   -1    0    0    0  501  0.00000000000E+00  0.00000000000E+00  0.46913612225E+03  0.46913612226E+03  0.25500000920E-02 0. -1.
        2   -1    0    0  501    0  0.00000000000E+00  0.00000000000E+00 -0.10493787562E+04  0.10493787562E+04  0.25500000920E-02 0.  1.
    10030    2    1    2    0    0  0.00000000000E+00  0.00000000000E+00 -0.58024263395E+03  0.15185148785E+04  0.14032839776E+04 0.  0.
        2    1    3    3  502    0 -0.30686426030E+03  0.62952836132E+03 -0.33641066384E+03  0.77694515038E+03  0.25500000920E-02 0.  1.
       -2    1    3    3    0  502  0.30686426030E+03 -0.62952836132E+03 -0.24383197011E+03  0.74156972809E+03  0.25500000920E-02 0. -1.
</event>
<event>
 5   0  0.9828111E-05  0.1400744E+04  0.7818609E-02  0.8953280E-01
        1   -1    0    0  501    0  0.00000000000E+00  0.00000000000E+00  0.46618028407E+03  0.46618028410E+03  0.50400001928E-02 0. -1.
       -1   -1    0    0    0  501  0.00000000000E+00  0.00000000000E+00 -0.10522130086E+04  0.10522130087E+04  0.50400001928E-02 0.  1.
    10030    2    1    2    0    0  0.00000000000E+00  0.00000000000E+00 -0.58603272458E+03  0.15183932928E+04  0.14007440299E+04 0.  0.
        4    1    3    3  502    0 -0.64593511321E+03  0.21023668229E+03 -0.47789225639E+03  0.83055057322E+03  0.12699999809E+01 0.  1.
       -4    1    3    3    0  502  0.64593511321E+03 -0.21023668229E+03 -0.10814046819E+03  0.68784271953E+03  0.12699999809E+01 0. -1.
</event>
<event>
 5   0  0.9260916E-05  0.1399518E+04  0.7818609E-02  0.8954168E-01
       -1   -1    0    0    0  501  0.00000000000E+00  0.00000000000E+00  0.90671848791E+03  0.90671848792E+03  0.50400001928E-02 0. -1.
        1   -1    0    0  501    0  0.00000000000E+00  0.00000000000E+00 -0.54003820486E+03  0.54003820488E+03  0.50400001928E-02 0.  1.
    10030    2    1    2    0    0  0.00000000000E+00  0.00000000000E+00  0.36668028305E+03  0.14467566928E+04  0.13995179521E+04 0.  0.
        1    1    3    3  502    0  0.43522549519E+03  0.12065820143E+03  0.73587441044E+03  0.86341808019E+03  0.50400001928E-02 0. -1.
       -1    1    3    3    0  502 -0.43522549519E+03 -0.12065820143E+03 -0.36919412739E+03  0.58333861261E+03  0.50400001928E-02 0.  1.
</event>
<event>
 5   0  0.9978422E-05  0.1399720E+04  0.7818609E-02  0.8954021E-01
       -1   -1    0    0    0  501  0.00000000000E+00  0.00000000000E+00  0.15719055892E+04  0.15719055892E+04  0.50400001928E-02 0.  1.
        1   -1    0    0  501    0  0.00000000000E+00  0.00000000000E+00 -0.31159886602E+03  0.31159886606E+03  0.50400001928E-02 0. -1.
    10030    2    1    2    0    0  0.00000000000E+00  0.00000000000E+00  0.12603067232E+04  0.18835044553E+04  0.13997199708E+04 0.  0.
        2    1    3    3  502    0 -0.51793181471E+03 -0.47069118983E+03  0.63104417554E+03  0.94234829674E+03  0.25500000920E-02 0.  1.
       -2    1    3    3    0  502  0.51793181471E+03  0.47069118983E+03  0.62926254764E+03  0.94115615854E+03  0.25500000920E-02 0. -1.
</event>
<event>
 5   0  0.9900839E-05  0.1412211E+04  0.7818609E-02  0.8945027E-01
        1   -1    0    0  501    0  0.00000000000E+00  0.00000000000E+00  0.98605048315E+03  0.98605048316E+03  0.50400001928E-02 0.  1.
       -1   -1    0    0    0  501  0.00000000000E+00  0.00000000000E+00 -0.50563851680E+03  0.50563851683E+03  0.50400001928E-02 0. -1.
    10030    2    1    2    0    0  0.00000000000E+00  0.00000000000E+00  0.48041196634E+03  0.14916890000E+04  0.14122111794E+04 0.  0.
        3    1    3    3  502    0 -0.30517957958E+03  0.52106557091E+03 -0.14637075417E+03  0.62134395697E+03  0.10100000352E+00 0. -1.
       -3    1    3    3    0  502  0.30517957958E+03 -0.52106557091E+03  0.62678272051E+03  0.87034504302E+03  0.10100000352E+00 0.  1.
</event>
<event>
 5   0  0.1833681E-04  0.1399752E+04  0.7818609E-02  0.8953998E-01
        2   -1    0    0  501    0  0.00000000000E+00  0.00000000000E+00  0.11910959771E+04  0.11910959771E+04  0.25500000920E-02 0. -1.
       -2   -1    0    0    0  501  0.00000000000E+00  0.00000000000E+00 -0.41124030814E+03  0.41124030814E+03  0.25500000920E-02 0.  1.
    10030    2    1    2    0    0  0.00000000000E+00  0.00000000000E+00  0.77985566896E+03  0.16023362852E+04  0.13997523733E+04 0.  0.
        4    1    3    3  502    0  0.60512105905E+03  0.32605061898E+03  0.23916853273E+03  0.72779372228E+03  0.12699999809E+01 0. -1.
       -4    1    3    3    0  502 -0.60512105905E+03 -0.32605061898E+03  0.54068713623E+03  0.87454256296E+03  0.12699999809E+01 0.  1.
</event>
<event>
 5   0  0.1833681E-04  0.1404177E+04  0.7818609E-02  0.8950800E-01
        2   -1    0    0  501    0  0.00000000000E+00  0.00000000000E+00  0.63381701997E+03  0.63381701997E+03  0.25500000920E-02 0.  1.
       -2   -1    0    0    0  501  0.00000000000E+00  0.00000000000E+00 -0.77771402969E+03  0.77771402970E+03  0.25500000920E-02 0. -1.
    10030    2    1    2    0    0  0.00000000000E+00  0.00000000000E+00 -0.14389700972E+03  0.14115310497E+04  0.14041771807E+04 0.  0.
        4    1    3    3  502    0 -0.51545384163E+03  0.26267358631E+03  0.32792454345E+03  0.66500089841E+03  0.12699999809E+01 0.  1.
       -4    1    3    3    0  502  0.51545384163E+03 -0.26267358631E+03 -0.47182155318E+03  0.74653015126E+03  0.12699999809E+01 0. -1.
</event>
<event>
 5   0  0.9978422E-05  0.1405421E+04  0.7818609E-02  0.8949904E-01
        1   -1    0    0  501    0  0.00000000000E+00  0.00000000000E+00  0.78398962893E+03  0.78398962895E+03  0.50400001928E-02 0. -1.
       -1   -1    0    0    0  501  0.00000000000E+00  0.00000000000E+00 -0.62985784620E+03  0.62985784622E+03  0.50400001928E-02 0.  1.
    10030    2    1    2    0    0  0.00000000000E+00  0.00000000000E+00  0.15413178273E+03  0.14138474752E+04  0.14054209606E+04 0.  0.
        2    1    3    3  502    0  0.15622267159E+03 -0.63382941172E+03  0.33873458943E+03  0.73544977284E+03  0.25500000920E-02 0. -1.
       -2    1    3    3    0  502 -0.15622267159E+03  0.63382941172E+03 -0.18460280670E+03  0.67839770233E+03  0.25500000920E-02 0.  1.
</event>
<event>
 5   0  0.1833681E-04  0.1398488E+04  0.7818609E-02  0.8954914E-01
        2   -1    0    0  501    0  0.00000000000E+00  0.00000000000E+00  0.11062719248E+04  0.11062719248E+04  0.25500000920E-02 0. -1.
       -2   -1    0    0    0  501  0.00000000000E+00  0.00000000000E+00 -0.44197294698E+03  0.44197294699E+03  0.25500000920E-02 0.  1.
    10030    2    1    2    0    0  0.00000000000E+00  0.00000000000E+00  0.66429897780E+03  0.15482448718E+04  0.13984881305E+04 0.  0.
        4    1    3    3  502    0 -0.68594884854E+03  0.13519850641E+03  0.31922971442E+03  0.76857900207E+03  0.12699999809E+01 0. -1.
       -4    1    3    3    0  502  0.68594884854E+03 -0.13519850641E+03  0.34506926338E+03  0.77966586970E+03  0.12699999809E+01 0.  1.
</event>
<event>
 5   0  0.1712327E-04  0.1401637E+04  0.7818609E-02  0.8952634E-01
       -2   -1    0    0    0  501  0.00000000000E+00  0.00000000000E+00  0.26854439277E+03  0.26854439278E+03  0.25500000920E-02 0.  1.
        2   -1    0    0  501    0  0.00000000000E+00  0.00000000000E+00 -0.18289214950E+04  0.18289214950E+04  0.25500000920E-02 0. -1.
    10030    2    1    2    0    0  0.00000000000E+00  0.00000000000E+00 -0.15603771023E+04  0.20974658878E+04  0.14016370605E+04 0.  0.
        1    1    3    3  502    0 -0.53910448195E+02  0.25588665191E+03 -0.17531764947E+04  0.17725721809E+04  0.50400001928E-02 0. -1.
       -1    1    3    3    0  502  0.53910448195E+02 -0.25588665191E+03  0.19279939241E+03  0.32489370690E+03  0.50400001928E-02 0.  1.
</event>
<event>
 5   0  0.6671375E-05  0.1399329E+04  0.7818609E-02  0.8954304E-01
        3   -1    0    0  501    0  0.00000000000E+00  0.00000000000E+00  0.84504624335E+03  0.84504624939E+03  0.10100000352E+00 0.  1.
       -3   -1    0    0    0  501  0.00000000000E+00  0.00000000000E+00 -0.57929449481E+03  0.57929450361E+03  0.10100000352E+00 0. -1.
    10030    2    1    2    0    0  0.00000000000E+00  0.00000000000E+00  0.26575174855E+03  0.14243407530E+04  0.13993293354E+04 0.  0.
        2    1    3    3  502    0 -0.35068620862E+03 -0.36417738003E+03 -0.35942654601E+03  0.62031719549E+03  0.25500000920E-02 0. -1.
       -2    1    3    3    0  502  0.35068620862E+03  0.36417738003E+03  0.62517829455E+03  0.80402355751E+03  0.25500000920E-02 0.  1.
</event>
<event>
 5   0  0.1833681E-04  0.1399640E+04  0.7818609E-02  0.8954080E-01
       -2   -1    0    0    0  501  0.00000000000E+00  0.00000000000E+00  0.25991349556E+03  0.25991349557E+03  0.25500000920E-02 0.  1.
        2   -1    0    0  501    0  0.00000000000E+00  0.00000000000E+00 -0.18842719022E+04  0.18842719022E+04  0.25500000920E-02 0. -1.
    10030    2    1    2    0    0  0.00000000000E+00  0.00000000000E+00 -0.16243584067E+04  0.21441853978E+04  0.13996395203E+04 0.  0.
        4    1    3    3  502    0 -0.16282398242E+03  0.37133687755E+03 -0.16859894029E+04  0.17340601505E+04  0.12699999809E+01 0. -1.
       -4    1    3    3    0  502  0.16282398242E+03 -0.37133687755E+03  0.61630996253E+02  0.41012524730E+03  0.12699999809E+01 0.  1.
</event>
<event>
 5   0  0.9900839E-05  0.1398661E+04  0.7818609E-02  0.8954788E-01
       -1   -1    0    0    0  501  0.00000000000E+00  0.00000000000E+00  0.13030683526E+04  0.13030683526E+04  0.50400001928E-02 0. -1.
        1   -1    0    0  501    0  0.00000000000E+00  0.00000000000E+00 -0.37531657958E+03  0.37531657962E+03  0.50400001928E-02 0.  1.
    10030    2    1    2    0    0  0.00000000000E+00  0.00000000000E+00  0.92775177298E+03  0.16783849322E+04  0.13986610127E+04 0.  0.
        3    1    3    3  502    0 -0.59476656312E+03  0.30015137986E+03  0.71906875962E+03  0.98025405212E+03  0.10100000352E+00 0. -1.
       -3    1    3    3    0  502  0.59476656312E+03 -0.30015137986E+03  0.20868301336E+03  0.69813088007E+03  0.10100000352E+00 0.  1.
</event>
<event>
 5   0  0.1780171E-04  0.1413123E+04  0.7818609E-02  0.8944374E-01
       -2   -1    0    0    0  501  0.00000000000E+00  0.00000000000E+00  0.11966319490E+04  0.11966319490E+04  0.25500000920E-02 0. -1.
        2   -1    0    0  501    0  0.00000000000E+00  0.00000000000E+00 -0.41719496049E+03  0.41719496050E+03  0.25500000920E-02 0.  1.
    10030    2    1    2    0    0  0.00000000000E+00  0.00000000000E+00  0.77943698851E+03  0.16138269095E+04  0.14131225264E+04 0.  0.
        5    1    3    3  502    0 -0.46767446287E+03  0.52066989143E+03  0.50038452017E+03  0.86036230572E+03  0.46999998093E+01 0. -1.
       -5    1    3    3    0  502  0.46767446287E+03 -0.52066989143E+03  0.27905246834E+03  0.75346460378E+03  0.46999998093E+01 0.  1.
</event>
<event>
 5   0  0.6671375E-05  0.1400049E+04  0.7818609E-02  0.8953783E-01
       -1   -1    0    0    0  501  0.00000000000E+00  0.00000000000E+00  0.46679084174E+03  0.46679084177E+03  0.50400001928E-02 0. -1.
        1   -1    0    0  501    0  0.00000000000E+00  0.00000000000E+00 -0.10497939363E+04  0.10497939363E+04  0.50400001928E-02 0.  1.
    10030    2    1    2    0    0  0.00000000000E+00  0.00000000000E+00 -0.58300309457E+03  0.15165847781E+04  0.14000488495E+04 0.  0.
        5    1    3    3  502    0  0.42152724924E+03  0.48663029186E+03 -0.58918061053E+03  0.87272569839E+03  0.46999998093E+01 0.  1.
       -5    1    3    3    0  502 -0.42152724924E+03 -0.48663029186E+03  0.61775159682E+01  0.64385907970E+03  0.46999998093E+01 0. -1.
</event>
<event>
 5   0  0.9900839E-05  0.1398471E+04  0.7818609E-02  0.8954926E-01
       -1   -1    0    0    0  501  0.00000000000E+00  0.00000000000E+00  0.48987609614E+03  0.48987609617E+03  0.50400001928E-02 0.  1.
        1   -1    0    0  501    0  0.00000000000E+00  0.00000000000E+00 -0.99806972734E+03  0.99806972736E+03  0.50400001928E-02 0. -1.
    10030    2    1    2    0    0  0.00000000000E+00  0.00000000000E+00 -0.50819363120E+03  0.14879458235E+04  0.13984713107E+04 0.  0.
        3    1    3    3  502    0 -0.69338014263E+03  0.17530875136E+02 -0.15984511479E+03  0.71178214693E+03  0.10100000352E+00 0.  1.
       -3    1    3    3    0  502  0.69338014263E+03 -0.17530875136E+02 -0.34834851641E+03  0.77616367659E+03  0.10100000352E+00 0. -1.
</event>
<event>
 5   0  0.1766237E-04  0.1400571E+04  0.7818609E-02  0.8953405E-01
       -2   -1    0    0    0  501  0.00000000000E+00  0.00000000000E+00  0.26495087507E+03  0.26495087508E+03  0.25500000920E-02 0.  1.
        2   -1    0    0  501    0  0.00000000000E+00  0.00000000000E+00 -0.18509094987E+04  0.18509094987E+04  0.25500000920E-02 0. -1.
    10030    2    1    2    0    0  0.00000000000E+00  0.00000000000E+00 -0.15859586237E+04  0.21158603738E+04  0.14005714425E+04 0.  0.
        3    1    3    3  502    0  0.36374802539E+03  0.44425037492E+03 -0.18731924510E+03  0.60395325264E+03  0.10100000352E+00 0.  1.
       -3    1    3    3    0  502 -0.36374802539E+03 -0.44425037492E+03 -0.13986393786E+04  0.15119071212E+04  0.10100000352E+00 0. -1.
</event>
<event>
 5   0  0.6671375E-05  0.1399907E+04  0.7818609E-02  0.8953886E-01
        3   -1    0    0  501    0  0.00000000000E+00  0.00000000000E+00  0.12312523132E+04  0.12312523173E+04  0.10100000352E+00 0.  1.
       -3   -1    0    0    0  501  0.00000000000E+00  0.00000000000E+00 -0.39791616139E+03  0.39791617421E+03  0.10100000352E+00 0. -1.
    10030    2    1    2    0    0  0.00000000000E+00  0.00000000000E+00  0.83333615179E+03  0.16291684915E+04  0.13999074369E+04 0.  0.
        3    1    3    3  502    0  0.53709396291E+03 -0.28117101400E+03  0.82383437041E+03  0.10228539212E+04  0.10100000352E+00 0. -1.
       -3    1    3    3    0  502 -0.53709396291E+03  0.28117101400E+03  0.95017813823E+01  0.60631457030E+03  0.10100000352E+00 0.  1.
</event>
<event>
 5   0  0.9260916E-05  0.1394314E+04  0.7818609E-02  0.8957945E-01
        1   -1    0    0  501    0  0.00000000000E+00  0.00000000000E+00  0.35915133770E+03  0.35915133773E+03  0.50400001928E-02 0. -1.
       -1   -1    0    0    0  501  0.00000000000E+00  0.00000000000E+00 -0.13532668773E+04  0.13532668773E+04  0.50400001928E-02 0.  1.
    10030    2    1    2    0    0  0.00000000000E+00  0.00000000000E+00 -0.99411553960E+03  0.17124182150E+04  0.13943136079E+04 0.  0.
        1    1    3    3  502    0 -0.59792562720E+03  0.35781810205E+03 -0.47018527123E+03  0.84060873129E+03  0.50400001928E-02 0.  1.
       -1    1    3    3    0  502  0.59792562720E+03 -0.35781810205E+03 -0.52393026837E+03  0.87180948375E+03  0.50400001928E-02 0. -1.
</event>
<event>
 5   0  0.9828111E-05  0.1399061E+04  0.7818609E-02  0.8954499E-01
        1   -1    0    0  501    0  0.00000000000E+00  0.00000000000E+00  0.76223226014E+03  0.76223226016E+03  0.50400001928E-02 0.  1.
       -1   -1    0    0    0  501  0.00000000000E+00  0.00000000000E+00 -0.64198621729E+03  0.64198621731E+03  0.50400001928E-02 0. -1.
    10030    2    1    2    0    0  0.00000000000E+00  0.00000000000E+00  0.12024604285E+03  0.14042184775E+04  0.13990605497E+04 0.  0.
        4    1    3    3  502    0 -0.35453680933E+03 -0.59857375667E+03  0.13356450803E+03  0.70839818044E+03  0.12699999809E+01 0.  1.
       -4    1    3    3    0  502  0.35453680933E+03  0.59857375667E+03 -0.13318465180E+02  0.69582029703E+03  0.12699999809E+01 0. -1.
</event>
<event>
 5   0  0.6671375E-05  0.1399623E+04  0.7818609E-02  0.8954091E-01
       -1   -1    0    0    0  501  0.00000000000E+00  0.00000000000E+00  0.65198249958E+03  0.65198249960E+03  0.50400001928E-02 0. -1.
        1   -1    0    0  501    0  0.00000000000E+00  0.00000000000E+00 -0.75114922765E+03  0.75114922766E+03  0.50400001928E-02 0.  1.
    10030    2    1    2    0    0  0.00000000000E+00  0.00000000000E+00 -0.99166728065E+02  0.14031317273E+04  0.13996230221E+04 0.  0.
        5    1    3    3  502    0 -0.56845632065E+02  0.35250820653E+03  0.55377305833E+03  0.65892347939E+03  0.46999998093E+01 0. -1.
       -5    1    3    3    0  502  0.56845632065E+02 -0.35250820653E+03 -0.65293978639E+03  0.74420824788E+03  0.46999998093E+01 0.  1.
</event>
<event>
 5   0  0.6671375E-05  0.1399017E+04  0.7818609E-02  0.8954530E-01
        3   -1    0    0  501    0  0.00000000000E+00  0.00000000000E+00  0.31317073449E+03  0.31317075077E+03  0.10100000352E+00 0. -1.
       -3   -1    0    0    0  501  0.00000000000E+00  0.00000000000E+00 -0.15624459390E+04  0.15624459423E+04  0.10100000352E+00 0.  1.
    10030    2    1    2    0    0  0.00000000000E+00  0.00000000000E+00 -0.12492752045E+04  0.18756166931E+04  0.13990173132E+04 0.  0.
        1    1    3    3  502    0  0.45470124261E+03 -0.33626583412E+03 -0.11765700200E+04  0.13054290265E+04  0.50400001928E-02 0.  1.
       -1    1    3    3    0  502 -0.45470124261E+03  0.33626583412E+03 -0.72705184548E+02  0.57018766658E+03  0.50400001928E-02 0. -1.
</event>
<event>
 5   0  0.9828111E-05  0.1400159E+04  0.7818609E-02  0.8953704E-01
       -1   -1    0    0    0  501  0.00000000000E+00  0.00000000000E+00  0.11927279943E+04  0.11927279943E+04  0.50400001928E-02 0. -1.
        1   -1    0    0  501    0  0.00000000000E+00  0.00000000000E+00 -0.41091611317E+03  0.41091611321E+03  0.50400001928E-02 0.  1.
    10030    2    1    2    0    0  0.00000000000E+00  0.00000000000E+00  0.78181188114E+03  0.16036441075E+04  0.14001587789E+04 0.  0.
        4    1    3    3  502    0 -0.53291578535E+03  0.44527769043E+03  0.28950648405E+03  0.75238758169E+03  0.12699999809E+01 0. -1.
       -4    1    3    3    0  502  0.53291578535E+03 -0.44527769043E+03  0.49230539709E+03  0.85125652584E+03  0.12699999809E+01 0.  1.
</event>
<event>
 5   0  0.9260916E-05  0.1396823E+04  0.7818609E-02  0.8956122E-01
       -1   -1    0    0    0  501  0.00000000000E+00  0.00000000000E+00  0.51526695913E+03  0.51526695916E+03  0.50400001928E-02 0.  1.
        1   -1    0    0  501    0  0.00000000000E+00  0.00000000000E+00 -0.94665188087E+03  0.94665188088E+03  0.50400001928E-02 0. -1.
    10030    2    1    2    0    0  0.00000000000E+00  0.00000000000E+00 -0.43138492173E+03  0.14619188400E+04  0.13968227318E+04 0.  0.
        1    1    3    3  502    0 -0.31083889979E+03  0.33617922799E+03 -0.76766133065E+03  0.89383511542E+03  0.50400001928E-02 0. -1.
       -1    1    3    3    0  502  0.31083889979E+03 -0.33617922799E+03  0.33627640892E+03  0.56808372462E+03  0.50400001928E-02 0.  1.
</event>
<event>
 5   0  0.1833681E-04  0.1399724E+04  0.7818609E-02  0.8954018E-01
       -2   -1    0    0    0  501  0.00000000000E+00  0.00000000000E+00  0.21092664004E+03  0.21092664006E+03  0.25500000920E-02 0. -1.
        2   -1    0    0  501    0  0.00000000000E+00  0.00000000000E+00 -0.23221674598E+04  0.23221674598E+04  0.25500000920E-02 0.  1.
    10030    2    1    2    0    0  0.00000000000E+00  0.00000000000E+00 -0.21112408198E+04  0.25330940998E+04  0.13997242299E+04 0.  0.
        4    1    3    3  502    0  0.30377069244E+03  0.52045942861E+03 -0.16996601537E+04  0.18033305025E+04  0.12699999809E+01 0.  1.
       -4    1    3    3    0  502 -0.30377069244E+03 -0.52045942861E+03 -0.41158066609E+03  0.72976359735E+03  0.12699999809E+01 0. -1.
</event>
<event>
 5   0  0.9828111E-05  0.1394904E+04  0.7818609E-02  0.8957515E-01
        1   -1    0    0  501    0  0.00000000000E+00  0.00000000000E+00  0.57886156745E+03  0.57886156747E+03  0.50400001928E-02 0. -1.
       -1   -1    0    0    0  501  0.00000000000E+00  0.00000000000E+00 -0.84033801177E+03  0.84033801178E+03  0.50400001928E-02 0.  1.
    10030    2    1    2    0    0  0.00000000000E+00  0.00000000000E+00 -0.26147644432E+03  0.14191995792E+04  0.13949041239E+04 0.  0.
        4    1    3    3  502    0  0.65829564630E+03 -0.10068464103E+03 -0.34158482016E+03  0.74844662945E+03  0.12699999809E+01 0. -1.
       -4    1    3    3    0  502 -0.65829564630E+03  0.10068464103E+03  0.80108375835E+02  0.67075294980E+03  0.12699999809E+01 0.  1.
</event>
<event>
 5   0  0.9260916E-05  0.1400251E+04  0.7818609E-02  0.8953637E-01
        1   -1    0    0  501    0  0.00000000000E+00  0.00000000000E+00  0.66670375386E+03  0.66670375388E+03  0.50400001928E-02 0. -1.
       -1   -1    0    0    0  501  0.00000000000E+00  0.00000000000E+00 -0.73522288316E+03  0.73522288317E+03  0.50400001928E-02 0.  1.
    10030    2    1    2    0    0  0.00000000000E+00  0.00000000000E+00 -0.68519129299E+02  0.14019266371E+04  0.14002512005E+04 0.  0.
        1    1    3    3  502    0 -0.26130805298E+03 -0.60234909378E+03 -0.27759260345E+03  0.71285621471E+03  0.50400001928E-02 0.  1.
       -1    1    3    3    0  502  0.26130805298E+03  0.60234909378E+03  0.20907347415E+03  0.68907042234E+03  0.50400001928E-02 0. -1.
</event>
<event>
 5   0  0.9900839E-05  0.1402265E+04  0.7818609E-02  0.8952181E-01
        1   -1    0    0  501    0  0.00000000000E+00  0.00000000000E+00  0.19530568241E+04  0.19530568241E+04  0.50400001928E-02 0. -1.
       -1   -1    0    0    0  501  0.00000000000E+00  0.00000000000E+00 -0.25170124314E+03  0.25170124319E+03  0.50400001928E-02 0.  1.
    10030    2    1    2    0    0  0.00000000000E+00  0.00000000000E+00  0.17013555809E+04  0.22047580673E+04  0.14022650685E+04 0.  0.
        3    1    3    3  502    0 -0.12348365725E+03  0.23802308385E+03  0.18692500253E+04  0.18883852544E+04  0.10100000352E+00 0. -1.
       -3    1    3    3    0  502  0.12348365725E+03 -0.23802308385E+03 -0.16789444433E+03  0.31637281282E+03  0.10100000352E+00 0.  1.
</event>
<event>
 5   0  0.9900839E-05  0.1399056E+04  0.7818609E-02  0.8954502E-01
        1   -1    0    0  501    0  0.00000000000E+00  0.00000000000E+00  0.56369651885E+03  0.56369651887E+03  0.50400001928E-02 0. -1.
       -1   -1    0    0    0  501  0.00000000000E+00  0.00000000000E+00 -0.86808988870E+03  0.86808988871E+03  0.50400001928E-02 0.  1.
    10030    2    1    2    0    0  0.00000000000E+00  0.00000000000E+00 -0.30439336985E+03  0.14317864076E+04  0.13990557506E+04 0.  0.
        3    1    3    3  502    0 -0.19940972959E+03 -0.60803888167E+03 -0.44140979243E+03  0.77737901755E+03  0.10100000352E+00 0.  1.
       -3    1    3    3    0  502  0.19940972959E+03  0.60803888167E+03  0.13701642258E+03  0.65440739003E+03  0.10100000352E+00 0. -1.
</event>
<event>
 5   0  0.6671375E-05  0.1402191E+04  0.7818609E-02  0.8952234E-01
        3   -1    0    0  501    0  0.00000000000E+00  0.00000000000E+00  0.99540550326E+03  0.99540550838E+03  0.10100000352E+00 0.  1.
       -3   -1    0    0    0  501  0.00000000000E+00  0.00000000000E+00 -0.49380376995E+03  0.49380378028E+03  0.10100000352E+00 0. -1.
    10030    2    1    2    0    0  0.00000000000E+00  0.00000000000E+00  0.50160173331E+03  0.14892092887E+04  0.14021911448E+04 0.  0.
        4    1    3    3  502    0  0.32285129573E+02 -0.47646355199E+03 -0.29435039545E+03  0.56098450439E+03  0.12699999809E+01 0. -1.
       -4    1    3    3    0  502 -0.32285129573E+02  0.47646355199E+03  0.79595212875E+03  0.92822478427E+03  0.12699999809E+01 0.  1.
</event>
<event>
 5   0  0.1833681E-04  0.1400278E+04  0.7818609E-02  0.8953618E-01
       -2   -1    0    0    0  501  0.00000000000E+00  0.00000000000E+00  0.13816035436E+04  0.13816035436E+04  0.25500000920E-02 0.  1.
        2   -1    0    0  501    0  0.00000000000E+00  0.00000000000E+00 -0.35480102271E+03  0.35480102272E+03  0.25500000920E-02 0. -1.
    10030    2    1    2    0    0  0.00000000000E+00  0.00000000000E+00  0.10268025209E+04  0.17364045663E+04  0.14002776157E+04 0.  0.
        4    1    3    3  502    0  0.27712415911E+03 -0.56457476959E+03  0.89490403024E+03  0.10937994817E+04  0.12699999809E+01 0.  1.
       -4    1    3    3    0  502 -0.27712415911E+03  0.56457476959E+03  0.13189849068E+03  0.64260508461E+03  0.12699999809E+01 0. -1.
</event>
<event>
 5   0  0.9978422E-05  0.1382702E+04  0.7818609E-02  0.8966436E-01
       -1   -1    0    0    0  501  0.00000000000E+00  0.00000000000E+00  0.28752792467E+03  0.28752792471E+03  0.50400001928E-02 0. -1.
        1   -1    0    0  501    0  0.00000000000E+00  0.00000000000E+00 -0.16623287754E+04  0.16623287754E+04  0.50400001928E-02 0.  1.
    10030    2    1    2    0    0  0.00000000000E+00  0.00000000000E+00 -0.13748008508E+04  0.19498567001E+04  0.13827016207E+04 0.  0.
        2    1    3    3  502    0 -0.77464058760E+02  0.17508307106E+03 -0.16242000080E+04  0.16354450245E+04  0.25500000920E-02 0.  1.
       -2    1    3    3    0  502  0.77464058760E+02 -0.17508307106E+03  0.24939915721E+03  0.31441167567E+03  0.25500000920E-02 0. -1.
</event>
<event>
 5   0  0.9828111E-05  0.1402228E+04  0.7818609E-02  0.8952208E-01
        1   -1    0    0  501    0  0.00000000000E+00  0.00000000000E+00  0.12322649799E+04  0.12322649799E+04  0.50400001928E-02 0.  1.
       -1   -1    0    0    0  501  0.00000000000E+00  0.00000000000E+00 -0.39890815320E+03  0.39890815323E+03  0.50400001928E-02 0. -1.
    10030    2    1    2    0    0  0.00000000000E+00  0.00000000000E+00  0.83335682671E+03  0.16311731332E+04  0.14022275813E+04 0.  0.
        4    1    3    3  502    0 -0.12938841405E+03 -0.68906990066E+03  0.41610280535E+03  0.81529249181E+03  0.12699999809E+01 0.  1.
       -4    1    3    3    0  502  0.12938841405E+03  0.68906990066E+03  0.41725402136E+03  0.81588064135E+03  0.12699999809E+01 0. -1.
</event>
<event>
 5   0  0.1833681E-04  0.1388907E+04  0.7818609E-02  0.8961888E-01
        2   -1    0    0  501    0  0.00000000000E+00  0.00000000000E+00  0.62755542124E+03  0.62755542124E+03  0.25500000920E-02 0.  1.
       -2   -1    0    0    0  501  0.00000000000E+00  0.00000000000E+00 -0.76848297452E+03  0.76848297452E+03  0.25500000920E-02 0. -1.
    10030    2    1    2    0    0  0.00000000000E+00  0.00000000000E+00 -0.14092755328E+03  0.13960383958E+04  0.13889069901E+04 0.  0.
        4    1    3    3  502    0  0.20284045216E+03 -0.61418349329E+03 -0.32454308469E+03  0.72366804488E+03  0.12699999809E+01 0. -1.
       -4    1    3    3    0  502 -0.20284045216E+03  0.61418349329E+03  0.18361553141E+03  0.67237035088E+03  0.12699999809E+01 0.  1.
</event>
<event>
 5   0  0.1780171E-04  0.1400149E+04  0.7818609E-02  0.8953710E-01
       -2   -1    0    0    0  501  0.00000000000E+00  0.00000000000E+00  0.77129492754E+03  0.77129492754E+03  0.25500000920E-02 0.  1.
        2   -1    0    0  501    0  0.00000000000E+00  0.00000000000E+00 -0.63543091093E+03  0.63543091093E+03  0.25500000920E-02 0. -1.
    10030    2    1    2    0    0  0.00000000000E+00  0.00000000000E+00  0.13586401661E+03  0.14067258385E+04  0.14001494755E+04 0.  0.
        5    1    3    3  502    0  0.35264669180E+03 -0.32862718104E+03  0.57798470883E+03  0.75262469199E+03  0.46999998093E+01 0.  1.
       -5    1    3    3    0  502 -0.35264669180E+03  0.32862718104E+03 -0.44212069222E+03  0.65410114649E+03  0.46999998093E+01 0. -1.
</event>
<event>
 5   0  0.9828111E-05  0.1401170E+04  0.7818609E-02  0.8952972E-01
        1   -1    0    0  501    0  0.00000000000E+00  0.00000000000E+00  0.15203752700E+04  0.15203752700E+04  0.50400001928E-02 0. -1.
       -1   -1    0    0    0  501  0.00000000000E+00  0.00000000000E+00 -0.32282756325E+03  0.32282756329E+03  0.50400001928E-02 0.  1.
    10030    2    1    2    0    0  0.00000000000E+00  0.00000000000E+00  0.11975477068E+04  0.18432028333E+04  0.14011695739E+04 0.  0.
        4    1    3    3  502    0  0.63874379153E+02 -0.69766295639E+03  0.59617807959E+03  0.91991491592E+03  0.12699999809E+01 0.  1.
       -4    1    3    3    0  502 -0.63874379153E+02  0.69766295639E+03  0.60136962718E+03  0.92328791741E+03  0.12699999809E+01 0. -1.
</event>
<event>
 5   0  0.1833681E-04  0.1422342E+04  0.7818609E-02  0.8937803E-01
       -2   -1    0    0    0  501  0.00000000000E+00  0.00000000000E+00  0.41392272338E+03  0.41392272339E+03  0.25500000920E-02 0. -1.
        2   -1    0    0  501    0  0.00000000000E+00  0.00000000000E+00 -0.12218805509E+04  0.12218805509E+04  0.25500000920E-02 0.  1.
    10030    2    1    2    0    0  0.00000000000E+00  0.00000000000E+00 -0.80795782749E+03  0.16358032743E+04  0.14223419072E+04 0.  0.
        4    1    3    3  502    0  0.21321777153E+03  0.15565526863E+03 -0.11634412370E+04  0.11930161380E+04  0.12699999809E+01 0.  1.
       -4    1    3    3    0  502 -0.21321777153E+03 -0.15565526863E+03  0.35548340947E+03  0.44278713628E+03  0.12699999809E+01 0. -1.
</event>
<event>
 5   0  0.1766237E-04  0.1400014E+04  0.7818609E-02  0.8953808E-01
       -2   -1    0    0    0  501  0.00000000000E+00  0.00000000000E+00  0.15422765816E+04  0.15422765816E+04  0.25500000920E-02 0.  1.
        2   -1    0    0  501    0  0.00000000000E+00  0.00000000000E+00 -0.31771851088E+03  0.31771851089E+03  0.25500000920E-02 0. -1.
    10030    2    1    2    0    0  0.00000000000E+00  0.00000000000E+00  0.12245580707E+04  0.18599950925E+04  0.14000140269E+04 0.  0.
        3    1    3    3  502    0 -0.27424045079E+03 -0.10027256884E+02  0.14678325545E+04  0.14932651436E+04  0.10100000352E+00 0.  1.
       -3    1    3    3    0  502  0.27424045079E+03  0.10027256884E+02 -0.24327448382E+03  0.36672994889E+03  0.10100000352E+00 0. -1.
</event>
<event>
 5   0  0.6671375E-05  0.1401665E+04  0.7818609E-02  0.8952614E-01
       -1   -1    0    0    0  501  0.00000000000E+00  0.00000000000E+00  0.27232667628E+03  0.27232667633E+03  0.50400001928E-02 0. -1.
        1   -1    0    0  501    0  0.00000000000E+00  0.00000000000E+00 -0.18035910567E+04  0.18035910567E+04  0.50400001928E-02 0.  1.
    10030    2    1    2    0    0  0.00000000000E+00  0.00000000000E+00 -0.15312643804E+04  0.20759177330E+04  0.14016646645E+04 0.  0.
        5    1    3    3  502    0 -0.31041307947E+03  0.34281985587E+03  0.14218201847E+02  0.46271587475E+03  0.46999998093E+01 0. -1.
       -5    1    3    3    0  502  0.31041307947E+03 -0.34281985587E+03 -0.15454825823E+04  0.16132018583E+04  0.46999998093E+01 0.  1.
</event>
<event>
 5   0  0.1794185E-04  0.1399623E+04  0.7818609E-02  0.8954092E-01
        2   -1    0    0  501    0  0.00000000000E+00  0.00000000000E+00  0.12782756854E+04  0.12782756854E+04  0.25500000920E-02 0. -1.
       -2   -1    0    0    0  501  0.00000000000E+00  0.00000000000E+00 -0.38312221136E+03  0.38312221137E+03  0.25500000920E-02 0.  1.
    10030    2    1    2    0    0  0.00000000000E+00  0.00000000000E+00  0.89515347400E+03  0.16613978967E+04  0.13996225310E+04 0.  0.
        2    1    3    3  502    0 -0.23008275667E+02  0.59358820766E+03  0.88671385995E+03  0.10673039916E+04  0.25500000920E-02 0. -1.
       -2    1    3    3    0  502  0.23008275667E+02 -0.59358820766E+03  0.84396140482E+01  0.59409390514E+03  0.25500000920E-02 0.  1.
</event>
<event>
 5   0  0.6671375E-05  0.1375671E+04  0.7818609E-02  0.8971620E-01
        1   -1    0    0  501    0  0.00000000000E+00  0.00000000000E+00  0.12498929505E+04  0.12498929505E+04  0.50400001928E-02 0. -1.
       -1   -1    0    0    0  501  0.00000000000E+00  0.00000000000E+00 -0.37852667445E+03  0.37852667449E+03  0.50400001928E-02 0.  1.
    10030    2    1    2    0    0  0.00000000000E+00  0.00000000000E+00  0.87136627602E+03  0.16284196250E+04  0.13756712136E+04 0.  0.
        5    1    3    3  502    0 -0.36524422717E+03 -0.58281167710E+03  0.43001413922E+03  0.81117633494E+03  0.46999998093E+01 0.  1.
       -5    1    3    3    0  502  0.36524422717E+03  0.58281167710E+03  0.44135213681E+03  0.81724329003E+03  0.46999998093E+01 0. -1.
</event>
<event>
 5   0  0.1794185E-04  0.1399957E+04  0.7818609E-02  0.8953850E-01
       -2   -1    0    0    0  501  0.00000000000E+00  0.00000000000E+00  0.53304089136E+03  0.53304089137E+03  0.25500000920E-02 0. -1.
        2   -1    0    0  501    0  0.00000000000E+00  0.00000000000E+00 -0.91919785669E+03  0.91919785669E+03  0.25500000920E-02 0.  1.
    10030    2    1    2    0    0  0.00000000000E+00  0.00000000000E+00 -0.38615696533E+03  0.14522387481E+04  0.13999572063E+04 0.  0.
        2    1    3    3  502    0 -0.22777523825E+03 -0.35466458071E+03 -0.77278783850E+03  0.88026675918E+03  0.25500000920E-02 0.  1.
       -2    1    3    3    0  502  0.22777523825E+03  0.35466458071E+03  0.38663087317E+03  0.57197198888E+03  0.25500000920E-02 0. -1.
</event>
<event>
 5   0  0.9900839E-05  0.1403404E+04  0.7818609E-02  0.8951358E-01
        1   -1    0    0  501    0  0.00000000000E+00  0.00000000000E+00  0.19569515988E+04  0.19569515988E+04  0.50400001928E-02 0.  1.
       -1   -1    0    0    0  501  0.00000000000E+00  0.00000000000E+00 -0.25160850339E+03  0.25160850344E+03  0.50400001928E-02 0. -1.
    10030    2    1    2    0    0  0.00000000000E+00  0.00000000000E+00  0.17053430954E+04  0.22085601022E+04  0.14034039519E+04 0.  0.
        3    1    3    3  502    0 -0.71165490305E+02 -0.17016305633E+03  0.19181202972E+04  0.19269679493E+04  0.10100000352E+00 0.  1.
       -3    1    3    3    0  502  0.71165490305E+02  0.17016305633E+03 -0.21277720186E+03  0.28159215291E+03  0.10100000352E+00 0. -1.
</event>
<event>
 5   0  0.1766237E-04  0.1400550E+04  0.7818609E-02  0.8953421E-01
        2   -1    0    0  501    0  0.00000000000E+00  0.00000000000E+00  0.53664998775E+03  0.53664998776E+03  0.25500000920E-02 0.  1.
       -2   -1    0    0    0  501  0.00000000000E+00  0.00000000000E+00 -0.91378887166E+03  0.91378887166E+03  0.25500000920E-02 0. -1.
    10030    2    1    2    0    0  0.00000000000E+00  0.00000000000E+00 -0.37713888390E+03  0.14504388594E+04  0.14005495875E+04 0.  0.
        3    1    3    3  502    0 -0.15514283929E+03  0.44612754711E+02 -0.89425633900E+03  0.90871007946E+03  0.10100000352E+00 0. -1.
       -3    1    3    3    0  502  0.15514283929E+03 -0.44612754711E+02  0.51711745510E+03  0.54172877996E+03  0.10100000352E+00 0.  1.
</event>
<event>
 5   0  0.9978422E-05  0.1396744E+04  0.7818609E-02  0.8956179E-01
       -1   -1    0    0    0  501  0.00000000000E+00  0.00000000000E+00  0.31312127198E+03  0.31312127202E+03  0.50400001928E-02 0.  1.
        1   -1    0    0  501    0  0.00000000000E+00  0.00000000000E+00 -0.15576187783E+04  0.15576187783E+04  0.50400001928E-02 0. -1.
    10030    2    1    2    0    0  0.00000000000E+00  0.00000000000E+00 -0.12444975063E+04  0.18707400503E+04  0.13967441758E+04 0.  0.
        2    1    3    3  502    0  0.44086770341E+02 -0.32077635925E+02  0.31026643000E+03  0.31502043685E+03  0.25500000920E-02 0.  1.
       -2    1    3    3    0  502 -0.44086770341E+02  0.32077635925E+02 -0.15547639363E+04  0.15557196134E+04  0.25500000920E-02 0. -1.
</event>
<event>
 5   0  0.9260916E-05  0.1400952E+04  0.7818609E-02  0.8953129E-01
        1   -1    0    0  501    0  0.00000000000E+00  0.00000000000E+00  0.17366433783E+04  0.17366433783E+04  0.50400001928E-02 0. -1.
       -1   -1    0    0    0  501  0.00000000000E+00  0.00000000000E+00 -0.28253751766E+03  0.28253751771E+03  0.50400001928E-02 0.  1.
    10030    2    1    2    0    0  0.00000000000E+00  0.00000000000E+00  0.14541058606E+04  0.20191808960E+04  0.14009524035E+04 0.  0.
        1    1    3    3  502    0 -0.63259994777E+03  0.74005654793E+01  0.11604707721E+04  0.13217147481E+04  0.50400001928E-02 0. -1.
       -1    1    3    3    0  502  0.63259994777E+03 -0.74005654793E+01  0.29363508851E+03  0.69746614794E+03  0.50400001928E-02 0.  1.
</event>
<event>
 5   0  0.1794185E-04  0.1425016E+04  0.7818609E-02  0.8935907E-01
       -2   -1    0    0    0  501  0.00000000000E+00  0.00000000000E+00  0.30981062093E+03  0.30981062094E+03  0.25500000920E-02 0.  1.
        2   -1    0    0  501    0  0.00000000000E+00  0.00000000000E+00 -0.16386379121E+04  0.16386379121E+04  0.25500000920E-02 0. -1.
    10030    2    1    2    0    0  0.00000000000E+00  0.00000000000E+00 -0.13288272912E+04  0.19484485331E+04  0.14250156898E+04 0.  0.
        2    1    3    3  502    0 -0.21408331002E+02  0.63912144224E+03 -0.10940492129E+04  0.12672325023E+04  0.25500000920E-02 0. -1.
       -2    1    3    3    0  502  0.21408331002E+02 -0.63912144224E+03 -0.23477807832E+03  0.68121603081E+03  0.25500000920E-02 0.  1.
</event>
<event>
 5   0  0.9900839E-05  0.1400065E+04  0.7818609E-02  0.8953772E-01
       -1   -1    0    0    0  501  0.00000000000E+00  0.00000000000E+00  0.30610535446E+03  0.30610535450E+03  0.50400001928E-02 0.  1.
        1   -1    0    0  501    0  0.00000000000E+00  0.00000000000E+00 -0.16009041062E+04  0.16009041062E+04  0.50400001928E-02 0. -1.
    10030    2    1    2    0    0  0.00000000000E+00  0.00000000000E+00 -0.12947987517E+04  0.19070094607E+04  0.14000647398E+04 0.  0.
        3    1    3    3  502    0 -0.58477730632E+03  0.37813966261E+03 -0.55021083174E+03  0.88751680096E+03  0.10100000352E+00 0. -1.
       -3    1    3    3    0  502  0.58477730632E+03 -0.37813966261E+03 -0.74458791997E+03  0.10194926597E+04  0.10100000352E+00 0.  1.
</event>
<event>
 5   0  0.1833681E-04  0.1401499E+04  0.7818609E-02  0.8952734E-01
        2   -1    0    0  501    0  0.00000000000E+00  0.00000000000E+00  0.20509984764E+04  0.20509984764E+04  0.25500000920E-02 0.  1.
       -2   -1    0    0    0  501  0.00000000000E+00  0.00000000000E+00 -0.23941997771E+03  0.23941997772E+03  0.25500000920E-02 0. -1.
    10030    2    1    2    0    0  0.00000000000E+00  0.00000000000E+00  0.18115784986E+04  0.22904184541E+04  0.14014992108E+04 0.  0.
        4    1    3    3  502    0 -0.43687427612E+03  0.28291279681E+03  0.16725871932E+04  0.17516986942E+04  0.12699999809E+01 0.  1.
       -4    1    3    3    0  502  0.43687427612E+03 -0.28291279681E+03  0.13899130548E+03  0.53871975984E+03  0.12699999809E+01 0. -1.
</event>
<event>
 5   0  0.1766237E-04  0.1407109E+04  0.7818609E-02  0.8948689E-01
       -2   -1    0    0    0  501  0.00000000000E+00  0.00000000000E+00  0.72306384554E+03  0.72306384554E+03  0.25500000920E-02 0.  1.
        2   -1    0    0  501    0  0.00000000000E+00  0.00000000000E+00 -0.68457121374E+03  0.68457121375E+03  0.25500000920E-02 0. -1.
    10030    2    1    2    0    0  0.00000000000E+00  0.00000000000E+00  0.38492631792E+02  0.14076350593E+04  0.14071086587E+04 0.  0.
        3    1    3    3  502    0  0.37869383605E+03  0.42165931140E+03  0.43627525607E+03  0.71522143816E+03  0.10100000352E+00 0.  1.
       -3    1    3    3    0  502 -0.37869383605E+03 -0.42165931140E+03 -0.39778262427E+03  0.69241362113E+03  0.10100000352E+00 0. -1.
</event>
<event>
 5   0  0.1780171E-04  0.1400378E+04  0.7818609E-02  0.8953545E-01
        2   -1    0    0  501    0  0.00000000000E+00  0.00000000000E+00  0.62436366304E+03  0.62436366304E+03  0.25500000920E-02 0. -1.
       -2   -1    0    0    0  501  0.00000000000E+00  0.00000000000E+00 -0.78522271502E+03  0.78522271503E+03  0.25500000920E-02 0.  1.
    10030    2    1    2    0    0  0.00000000000E+00  0.00000000000E+00 -0.16085905199E+03  0.14095863781E+04  0.14003778500E+04 0.  0.
        5    1    3    3  502    0 -0.18736239018E+03  0.46664876433E+03 -0.57084651995E+03  0.76075855161E+03  0.46999998093E+01 0.  1.
       -5    1    3    3    0  502  0.18736239018E+03 -0.46664876433E+03  0.40998746796E+03  0.64882782646E+03  0.46999998093E+01 0. -1.
</event>
<event>
 5   0  0.9828111E-05  0.1405078E+04  0.7818609E-02  0.8950151E-01
       -1   -1    0    0    0  501  0.00000000000E+00  0.00000000000E+00  0.33463754082E+03  0.33463754086E+03  0.50400001928E-02 0. -1.
        1   -1    0    0  501    0  0.00000000000E+00  0.00000000000E+00 -0.14749134111E+04  0.14749134111E+04  0.50400001928E-02 0.  1.
    10030    2    1    2    0    0  0.00000000000E+00  0.00000000000E+00 -0.11402758703E+04  0.18095509520E+04  0.14050784987E+04 0.  0.
        4    1    3    3  502    0 -0.80065005334E+02 -0.25042114004E+03 -0.14091683049E+04  0.14334845925E+04  0.12699999809E+01 0.  1.
       -4    1    3    3    0  502  0.80065005334E+02  0.25042114004E+03  0.26889243460E+03  0.37606635950E+03  0.12699999809E+01 0. -1.
</event>
<event>
 5   0  0.9900839E-05  0.1398107E+04  0.7818609E-02  0.8955190E-01
       -1   -1    0    0    0  501  0.00000000000E+00  0.00000000000E+00  0.94497220971E+03  0.94497220972E+03  0.50400001928E-02 0. -1.
        1   -1    0    0  501    0  0.00000000000E+00  0.00000000000E+00 -0.51713268486E+03  0.51713268488E+03  0.50400001928E-02 0.  1.
    10030    2    1    2    0    0  0.00000000000E+00  0.00000000000E+00  0.42783952485E+03  0.14621048946E+04  0.13981073148E+04 0.  0.
        3    1    3    3  502    0 -0.14876102364E+03 -0.93147397151E+02 -0.49371472020E+03  0.52398522393E+03  0.10100000352E+00 0.  1.
       -3    1    3    3    0  502  0.14876102364E+03  0.93147397151E+02  0.92155424505E+03  0.93811967068E+03  0.10100000352E+00 0. -1.
</event>
<event>
 5   0  0.6671375E-05  0.1401247E+04  0.7818609E-02  0.8952917E-01
        1   -1    0    0  501    0  0.00000000000E+00  0.00000000000E+00  0.90984187340E+03  0.90984187341E+03  0.50400001928E-02 0.  1.
       -1   -1    0    0    0  501  0.00000000000E+00  0.00000000000E+00 -0.53951456843E+03  0.53951456845E+03  0.50400001928E-02 0. -1.
    10030    2    1    2    0    0  0.00000000000E+00  0.00000000000E+00  0.37032730497E+03  0.14493564419E+04  0.14012465103E+04 0.  0.
        5    1    3    3  502    0  0.72118712144E+02 -0.52265633006E+02  0.90394596319E+03  0.90833540028E+03  0.46999998093E+01 0.  1.
       -5    1    3    3    0  502 -0.72118712144E+02  0.52265633006E+02 -0.53361865822E+03  0.54102104158E+03  0.46999998093E+01 0. -1.
</event>
<event>
 5   0  0.1833681E-04  0.1433055E+04  0.7818609E-02  0.8930233E-01
       -2   -1    0    0    0  501  0.00000000000E+00  0.00000000000E+00  0.27223120911E+03  0.27223120912E+03  0.25500000920E-02 0. -1.
        2   -1    0    0  501    0  0.00000000000E+00  0.00000000000E+00 -0.18859408831E+04  0.18859408831E+04  0.25500000920E-02 0.  1.
    10030    2    1    2    0    0  0.00000000000E+00  0.00000000000E+00 -0.16137096740E+04  0.21581720922E+04  0.14330554308E+04 0.  0.
        4    1    3    3  502    0 -0.71359752680E+03 -0.64579928708E+02 -0.81330720101E+03  0.10839106114E+04  0.12699999809E+01 0. -1.
       -4    1    3    3    0  502  0.71359752680E+03  0.64579928708E+02 -0.80040247296E+03  0.10742614808E+04  0.12699999809E+01 0.  1.
</event>
<event>
 5   0  0.1712327E-04  0.1405805E+04  0.7818609E-02  0.8949627E-01
        2   -1    0    0  501    0  0.00000000000E+00  0.00000000000E+00  0.16312543359E+04  0.16312543359E+04  0.25500000920E-02 0. -1.
       -2   -1    0    0    0  501  0.00000000000E+00  0.00000000000E+00 -0.30287846125E+03  0.30287846126E+03  0.25500000920E-02 0.  1.
    10030    2    1    2    0    0  0.00000000000E+00  0.00000000000E+00  0.13283758746E+04  0.19341327971E+04  0.14058048274E+04 0.  0.
        1    1    3    3  502    0  0.67866539328E+03  0.13292511302E+03  0.49116263886E+03  0.84823141863E+03  0.50400001928E-02 0. -1.
       -1    1    3    3    0  502 -0.67866539328E+03 -0.13292511302E+03  0.83721323577E+03  0.10859013785E+04  0.50400001928E-02 0.  1.
</event>
<event>
 5   0  0.1780171E-04  0.1402764E+04  0.7818609E-02  0.8951820E-01
        2   -1    0    0  501    0  0.00000000000E+00  0.00000000000E+00  0.60579896096E+03  0.60579896097E+03  0.25500000920E-02 0. -1.
       -2   -1    0    0    0  501  0.00000000000E+00  0.00000000000E+00 -0.81204587167E+03  0.81204587168E+03  0.25500000920E-02 0.  1.
    10030    2    1    2    0    0  0.00000000000E+00  0.00000000000E+00 -0.20624691071E+03  0.14178448326E+04  0.14027637653E+04 0.  0.
        5    1    3    3  502    0 -0.39142568640E+03  0.25863977065E+03  0.42383159428E+03  0.63226885835E+03  0.46999998093E+01 0. -1.
       -5    1    3    3    0  502  0.39142568640E+03 -0.25863977065E+03 -0.63007850499E+03  0.78557597429E+03  0.46999998093E+01 0.  1.
</event>
<event>
 5   0  0.1833681E-04  0.1400398E+04  0.7818609E-02  0.8953531E-01
       -2   -1    0    0    0  501  0.00000000000E+00  0.00000000000E+00  0.45528460958E+03  0.45528460959E+03  0.25500000920E-02 0.  1.
        2   -1    0    0  501    0  0.00000000000E+00  0.00000000000E+00 -0.10768611976E+04  0.10768611976E+04  0.25500000920E-02 0. -1.
    10030    2    1    2    0    0  0.00000000000E+00  0.00000000000E+00 -0.62157658807E+03  0.15321458072E+04  0.14003975578E+04 0.  0.
        4    1    3    3  502    0 -0.48387509464E+03 -0.47788134516E+02 -0.86203257572E+03  0.98970732417E+03  0.12699999809E+01 0. -1.
       -4    1    3    3    0  502  0.48387509464E+03  0.47788134516E+02  0.24045598765E+03  0.54243848307E+03  0.12699999809E+01 0.  1.
</event>
<event>
 5   0  0.1794185E-04  0.1396519E+04  0.7818609E-02  0.8956342E-01
       -2   -1    0    0    0  501  0.00000000000E+00  0.00000000000E+00  0.34383330261E+03  0.34383330262E+03  0.25500000920E-02 0.  1.
        2   -1    0    0  501    0  0.00000000000E+00  0.00000000000E+00 -0.14180316158E+04  0.14180316158E+04  0.25500000920E-02 0. -1.
    10030    2    1    2    0    0  0.00000000000E+00  0.00000000000E+00 -0.10741983132E+04  0.17618649184E+04  0.13965192354E+04 0.  0.
        2    1    3    3  502    0  0.29318831657E+02  0.17053147254E+03 -0.13905548739E+04  0.14012792136E+04  0.25500000920E-02 0. -1.
       -2    1    3    3    0  502 -0.29318831657E+02 -0.17053147254E+03  0.31635656073E+03  0.36058570484E+03  0.25500000920E-02 0.  1.
</event>
<event>
 5   0  0.1780171E-04  0.1399940E+04  0.7818609E-02  0.8953862E-01
       -2   -1    0    0    0  501  0.00000000000E+00  0.00000000000E+00  0.37674026903E+03  0.37674026903E+03  0.25500000920E-02 0. -1.
        2   -1    0    0  501    0  0.00000000000E+00  0.00000000000E+00 -0.13005200207E+04  0.13005200207E+04  0.25500000920E-02 0.  1.
    10030    2    1    2    0    0  0.00000000000E+00  0.00000000000E+00 -0.92377975168E+03  0.16772602897E+04  0.13999403737E+04 0.  0.
        5    1    3    3  502    0  0.50098267796E+02 -0.58398986994E+03 -0.92027974798E+03  0.10910961961E+04  0.46999998093E+01 0. -1.
       -5    1    3    3    0  502 -0.50098267796E+02  0.58398986994E+03 -0.35000037004E+01  0.58616409363E+03  0.46999998093E+01 0.  1.
</event>
<event>
 5   0  0.1780171E-04  0.1399483E+04  0.7818609E-02  0.8954193E-01
       -2   -1    0    0    0  501  0.00000000000E+00  0.00000000000E+00  0.62287030402E+03  0.62287030402E+03  0.25500000920E-02 0. -1.
        2   -1    0    0  501    0  0.00000000000E+00  0.00000000000E+00 -0.78609981453E+03  0.78609981453E+03  0.25500000920E-02 0.  1.
    10030    2    1    2    0    0  0.00000000000E+00  0.00000000000E+00 -0.16322951051E+03  0.14089701186E+04  0.13994830910E+04 0.  0.
        5    1    3    3  502    0  0.60637480926E+03 -0.34871415807E+03 -0.63488060821E+02  0.70238507758E+03  0.46999998093E+01 0.  1.
       -5    1    3    3    0  502 -0.60637480926E+03  0.34871415807E+03 -0.99741449691E+02  0.70658504098E+03  0.46999998093E+01 0. -1.
</event>
<event>
 5   0  0.9978422E-05  0.1403695E+04  0.7818609E-02  0.8951148E-01
        1   -1    0    0  501    0  0.00000000000E+00  0.00000000000E+00  0.95478554983E+03  0.95478554984E+03  0.50400001928E-02 0. -1.
       -1   -1    0    0    0  501  0.00000000000E+00  0.00000000000E+00 -0.51591716164E+03  0.51591716166E+03  0.50400001928E-02 0.  1.
    10030    2    1    2    0    0  0.00000000000E+00  0.00000000000E+00  0.43886838819E+03  0.14707027115E+04  0.14036954810E+04 0.  0.
        2    1    3    3  502    0 -0.65197187005E+03  0.14602034400E+03  0.44463899024E+03  0.80255410524E+03  0.25500000920E-02 0. -1.
       -2    1    3    3    0  502  0.65197187005E+03 -0.14602034400E+03 -0.57706020541E+01  0.66814860626E+03  0.25500000920E-02 0.  1.
</event>
<event>
 5   0  0.9978422E-05  0.1402591E+04  0.7818609E-02  0.8951946E-01
       -1   -1    0    0    0  501  0.00000000000E+00  0.00000000000E+00  0.72145331188E+03  0.72145331190E+03  0.50400001928E-02 0. -1.
        1   -1    0    0  501    0  0.00000000000E+00  0.00000000000E+00 -0.68170044847E+03  0.68170044849E+03  0.50400001928E-02 0.  1.
    10030    2    1    2    0    0  0.00000000000E+00  0.00000000000E+00  0.39752863409E+02  0.14031537604E+04  0.14025905265E+04 0.  0.
        2    1    3    3  502    0  0.26269887654E+03  0.41059994187E+03  0.52427334042E+03  0.71586699007E+03  0.25500000920E-02 0. -1.
       -2    1    3    3    0  502 -0.26269887654E+03 -0.41059994187E+03 -0.48452047701E+03  0.68728677031E+03  0.25500000920E-02 0.  1.
</event>
<event>
 5   0  0.6671375E-05  0.1398984E+04  0.7818609E-02  0.8954554E-01
       -4   -1    0    0    0  501  0.00000000000E+00  0.00000000000E+00  0.14128457027E+04  0.14128462735E+04  0.12699999809E+01 0. -1.
        4   -1    0    0  501    0  0.00000000000E+00  0.00000000000E+00 -0.34631297587E+03  0.34631530453E+03  0.12699999809E+01 0.  1.
    10030    2    1    2    0    0  0.00000000000E+00  0.00000000000E+00  0.10665327268E+04  0.17591615780E+04  0.13989844174E+04 0.  0.
        3    1    3    3  502    0  0.21180516192E+02 -0.27985146857E+03 -0.27241267925E+03  0.39111908256E+03  0.10100000352E+00 0.  1.
       -3    1    3    3    0  502 -0.21180516192E+02  0.27985146857E+03  0.13389454061E+04  0.13680424955E+04  0.10100000352E+00 0. -1.
</event>
<event>
 5   0  0.6671375E-05  0.1399466E+04  0.7818609E-02  0.8954205E-01
        1   -1    0    0  501    0  0.00000000000E+00  0.00000000000E+00  0.11635659937E+04  0.11635659937E+04  0.50400001928E-02 0.  1.
       -1   -1    0    0    0  501  0.00000000000E+00  0.00000000000E+00 -0.42079796691E+03  0.42079796694E+03  0.50400001928E-02 0. -1.
    10030    2    1    2    0    0  0.00000000000E+00  0.00000000000E+00  0.74276802677E+03  0.15843639606E+04  0.13994659046E+04 0.  0.
        5    1    3    3  502    0 -0.47232076892E+03 -0.99598995160E+02  0.94486447776E+03  0.10610362105E+04  0.46999998093E+01 0.  1.
       -5    1    3    3    0  502  0.47232076892E+03  0.99598995160E+02 -0.20209645099E+03  0.52332775016E+03  0.46999998093E+01 0. -1.
</event>
<event>
 5   0  0.1766237E-04  0.1400685E+04  0.7818609E-02  0.8953323E-01
       -2   -1    0    0    0  501  0.00000000000E+00  0.00000000000E+00  0.25087860044E+03  0.25087860045E+03  0.25500000920E-02 0. -1.
        2   -1    0    0  501    0  0.00000000000E+00  0.00000000000E+00 -0.19550464459E+04  0.19550464459E+04  0.25500000920E-02 0.  1.
    10030    2    1    2    0    0  0.00000000000E+00  0.00000000000E+00 -0.17041678455E+04  0.22059250464E+04  0.14006845700E+04 0.  0.
        3    1    3    3  502    0  0.60520550617E+03  0.13317794116E+03 -0.33820301964E+03  0.70596838555E+03  0.10100000352E+00 0. -1.
       -3    1    3    3    0  502 -0.60520550617E+03 -0.13317794116E+03 -0.13659648258E+04  0.14999566608E+04  0.10100000352E+00 0.  1.
</event>
<event>
 5   0  0.9260916E-05  0.1410416E+04  0.7818609E-02  0.8946313E-01
        1   -1    0    0  501    0  0.00000000000E+00  0.00000000000E+00  0.69016345738E+03  0.69016345740E+03  0.50400001928E-02 0.  1.
       -1   -1    0    0    0  501  0.00000000000E+00  0.00000000000E+00 -0.72058069405E+03  0.72058069407E+03  0.50400001928E-02 0. -1.
    10030    2    1    2    0    0  0.00000000000E+00  0.00000000000E+00 -0.30417236672E+02  0.14107441515E+04  0.14104161984E+04 0.  0.
        1    1    3    3  502    0  0.42035768478E+03 -0.20579617295E+03 -0.54284034236E+03  0.71674841142E+03  0.50400001928E-02 0. -1.
       -1    1    3    3    0  502 -0.42035768478E+03  0.20579617295E+03  0.51242310568E+03  0.69399574006E+03  0.50400001928E-02 0.  1.
</event>
<event>
 5   0  0.9978422E-05  0.1401305E+04  0.7818609E-02  0.8952874E-01
       -1   -1    0    0    0  501  0.00000000000E+00  0.00000000000E+00  0.40645972685E+03  0.40645972689E+03  0.50400001928E-02 0. -1.
        1   -1    0    0  501    0  0.00000000000E+00  0.00000000000E+00 -0.12077806347E+04  0.12077806347E+04  0.50400001928E-02 0.  1.
    10030    2    1    2    0    0  0.00000000000E+00  0.00000000000E+00 -0.80132090783E+03  0.16142403616E+04  0.14013053727E+04 0.  0.
        2    1    3    3  502    0 -0.67803342975E+03  0.16603678684E+03 -0.33138361174E+03  0.77273064167E+03  0.25500000920E-02 0.  1.
       -2    1    3    3    0  502  0.67803342975E+03 -0.16603678684E+03 -0.46993729608E+03  0.84150971991E+03  0.25500000920E-02 0. -1.
</event>
<event>
 5   0  0.6671375E-05  0.1399843E+04  0.7818609E-02  0.8953932E-01
       -1   -1    0    0    0  501  0.00000000000E+00  0.00000000000E+00  0.38098296105E+03  0.38098296108E+03  0.50400001928E-02 0.  1.
        1   -1    0    0  501    0  0.00000000000E+00  0.00000000000E+00 -0.12858576280E+04  0.12858576280E+04  0.50400001928E-02 0. -1.
    10030    2    1    2    0    0  0.00000000000E+00  0.00000000000E+00 -0.90487466696E+03  0.16668405891E+04  0.13998426292E+04 0.  0.
        5    1    3    3  502    0  0.40506143839E+03 -0.14151958126E+03 -0.11108662222E+04  0.11908603673E+04  0.46999998093E+01 0. -1.
       -5    1    3    3    0  502 -0.40506143839E+03  0.14151958126E+03  0.20599155523E+03  0.47598022183E+03  0.46999998093E+01 0.  1.
</event>
<event>
 5   0  0.1794185E-04  0.1409625E+04  0.7818609E-02  0.8946881E-01
       -2   -1    0    0    0  501  0.00000000000E+00  0.00000000000E+00  0.72025086304E+03  0.72025086304E+03  0.25500000920E-02 0. -1.
        2   -1    0    0  501    0  0.00000000000E+00  0.00000000000E+00 -0.68970521153E+03  0.68970521154E+03  0.25500000920E-02 0.  1.
    10030    2    1    2    0    0  0.00000000000E+00  0.00000000000E+00  0.30545651507E+02  0.14099560746E+04  0.14096251613E+04 0.  0.
        2    1    3    3  502    0 -0.43369639061E+03  0.50819586307E+03  0.23983650861E+03  0.70984304275E+03  0.25500000920E-02 0. -1.
       -2    1    3    3    0  502  0.43369639061E+03 -0.50819586307E+03 -0.20929085710E+03  0.70011303183E+03  0.25500000920E-02 0.  1.
</event>
<event>
 5   0  0.1833681E-04  0.1398923E+04  0.7818609E-02  0.8954598E-01
        2   -1    0    0  501    0  0.00000000000E+00  0.00000000000E+00  0.64101378651E+03  0.64101378651E+03  0.25500000920E-02 0. -1.
       -2   -1    0    0    0  501  0.00000000000E+00  0.00000000000E+00 -0.76323899892E+03  0.76323899893E+03  0.25500000920E-02 0.  1.
    10030    2    1    2    0    0  0.00000000000E+00  0.00000000000E+00 -0.12222521241E+03  0.14042527854E+04  0.13989234728E+04 0.  0.
        4    1    3    3  502    0  0.46399432200E+03  0.24868602773E+03 -0.52342074229E+03  0.74236538012E+03  0.12699999809E+01 0.  1.
       -4    1    3    3    0  502 -0.46399432200E+03 -0.24868602773E+03  0.40119552987E+03  0.66188740533E+03  0.12699999809E+01 0. -1.
</event>
<event>
 5   0  0.9900839E-05  0.1402513E+04  0.7818609E-02  0.8952002E-01
        1   -1    0    0  501    0  0.00000000000E+00  0.00000000000E+00  0.88904487890E+03  0.88904487892E+03  0.50400001928E-02 0. -1.
       -1   -1    0    0    0  501  0.00000000000E+00  0.00000000000E+00 -0.55313334340E+03  0.55313334342E+03  0.50400001928E-02 0.  1.
    10030    2    1    2    0    0  0.00000000000E+00  0.00000000000E+00  0.33591153550E+03  0.14421782223E+04  0.14025125544E+04 0.  0.
        3    1    3    3  502    0  0.35601116798E+03 -0.68159144223E+02  0.78524248759E+03  0.86486727028E+03  0.10100000352E+00 0. -1.
       -3    1    3    3    0  502 -0.35601116798E+03  0.68159144223E+02 -0.44933095209E+03  0.57731095207E+03  0.10100000352E+00 0.  1.
</event>
<event>
 5   0  0.1794185E-04  0.1400396E+04  0.7818609E-02  0.8953532E-01
       -2   -1    0    0    0  501  0.00000000000E+00  0.00000000000E+00  0.63217488193E+03  0.63217488194E+03  0.25500000920E-02 0. -1.
        2   -1    0    0  501    0  0.00000000000E+00  0.00000000000E+00 -0.77554046135E+03  0.77554046136E+03  0.25500000920E-02 0.  1.
    10030    2    1    2    0    0  0.00000000000E+00  0.00000000000E+00 -0.14336557942E+03  0.14077153433E+04  0.14003959434E+04 0.  0.
        2    1    3    3  502    0  0.35589644057E+03 -0.52366324096E+03  0.22886440536E+03  0.67324912357E+03  0.25500000920E-02 0. -1.
       -2    1    3    3    0  502 -0.35589644057E+03  0.52366324096E+03 -0.37222998478E+03  0.73446621972E+03  0.25500000920E-02 0.  1.
</event>
<event>
 5   0  0.6671375E-05  0.1400719E+04  0.7818609E-02  0.8953298E-01
        1   -1    0    0  501    0  0.00000000000E+00  0.00000000000E+00  0.90831669117E+03  0.90831669118E+03  0.50400001928E-02 0. -1.
       -1   -1    0    0    0  501  0.00000000000E+00  0.00000000000E+00 -0.54001374508E+03  0.54001374510E+03  0.50400001928E-02 0.  1.
    10030    2    1    2    0    0  0.00000000000E+00  0.00000000000E+00  0.36830294609E+03  0.14483304363E+04  0.14007190984E+04 0.  0.
        5    1    3    3  502    0 -0.10460365843E+03 -0.29197998556E+03  0.83341787601E+03  0.88927030951E+03  0.46999998093E+01 0. -1.
       -5    1    3    3    0  502  0.10460365843E+03  0.29197998556E+03 -0.46511492992E+03  0.55906012678E+03  0.46999998093E+01 0.  1.
</event>
<event>
 5   0  0.6671375E-05  0.1399971E+04  0.7818609E-02  0.8953839E-01
       -1   -1    0    0    0  501  0.00000000000E+00  0.00000000000E+00  0.63563678775E+03  0.63563678777E+03  0.50400001928E-02 0. -1.
        1   -1    0    0  501    0  0.00000000000E+00  0.00000000000E+00 -0.77084883215E+03  0.77084883216E+03  0.50400001928E-02 0.  1.
    10030    2    1    2    0    0  0.00000000000E+00  0.00000000000E+00 -0.13521204439E+03  0.14064856199E+04  0.13999712505E+04 0.  0.
        5    1    3    3  502    0 -0.38979687491E+03  0.32357418779E+03  0.41766948490E+03  0.65659100459E+03  0.46999998093E+01 0.  1.
       -5    1    3    3    0  502  0.38979687491E+03 -0.32357418779E+03 -0.55288152929E+03  0.74989461535E+03  0.46999998093E+01 0. -1.
</event>
<event>
 5   0  0.9828111E-05  0.1398218E+04  0.7818609E-02  0.8955109E-01
       -1   -1    0    0    0  501  0.00000000000E+00  0.00000000000E+00  0.76675536575E+03  0.76675536577E+03  0.50400001928E-02 0. -1.
        1   -1    0    0  501    0  0.00000000000E+00  0.00000000000E+00 -0.63743068889E+03  0.63743068891E+03  0.50400001928E-02 0.  1.
    10030    2    1    2    0    0  0.00000000000E+00  0.00000000000E+00  0.12932467686E+03  0.14041860547E+04  0.13982180102E+04 0.  0.
        4    1    3    3  502    0  0.18346502945E+03  0.65412661009E+03  0.23032323692E+03  0.71735029478E+03  0.12699999809E+01 0. -1.
       -4    1    3    3    0  502 -0.18346502945E+03 -0.65412661009E+03 -0.10099856005E+03  0.68683575991E+03  0.12699999809E+01 0.  1.
</event>
<event>
 5   0  0.9978422E-05  0.1400370E+04  0.7818609E-02  0.8953551E-01
        1   -1    0    0  501    0  0.00000000000E+00  0.00000000000E+00  0.13335008392E+04  0.13335008392E+04  0.50400001928E-02 0.  1.
       -1   -1    0    0    0  501  0.00000000000E+00  0.00000000000E+00 -0.36764784682E+03  0.36764784686E+03  0.50400001928E-02 0. -1.
    10030    2    1    2    0    0  0.00000000000E+00  0.00000000000E+00  0.96585299237E+03  0.17011486861E+04  0.14003695402E+04 0.  0.
        2    1    3    3  502    0 -0.67975529864E+02 -0.64990318065E+03  0.78847318606E+03  0.10240531148E+04  0.25500000920E-02 0.  1.
       -2    1    3    3    0  502  0.67975529864E+02  0.64990318065E+03  0.17737980632E+03  0.67709557122E+03  0.25500000920E-02 0. -1.
</event>
<event>
 5   0  0.6671375E-05  0.1401422E+04  0.7818609E-02  0.8952790E-01
       -1   -1    0    0    0  501  0.00000000000E+00  0.00000000000E+00  0.46208728191E+03  0.46208728194E+03  0.50400001928E-02 0. -1.
        1   -1    0    0  501    0  0.00000000000E+00  0.00000000000E+00 -0.10625602540E+04  0.10625602540E+04  0.50400001928E-02 0.  1.
    10030    2    1    2    0    0  0.00000000000E+00  0.00000000000E+00 -0.60047297210E+03  0.15246475360E+04  0.14014215350E+04 0.  0.
        5    1    3    3  502    0 -0.18171230543E+03  0.67480409218E+03 -0.35564152047E+03  0.78414469701E+03  0.46999998093E+01 0. -1.
       -5    1    3    3    0  502  0.18171230543E+03 -0.67480409218E+03 -0.24483145163E+03  0.74050283894E+03  0.46999998093E+01 0.  1.
</event>
<event>
 5   0  0.9260916E-05  0.1401839E+04  0.7818609E-02  0.8952488E-01
       -1   -1    0    0    0  501  0.00000000000E+00  0.00000000000E+00  0.81589992731E+03  0.81589992733E+03  0.50400001928E-02 0. -1.
        1   -1    0    0  501    0  0.00000000000E+00  0.00000000000E+00 -0.60214303254E+03  0.60214303256E+03  0.50400001928E-02 0.  1.
    10030    2    1    2    0    0  0.00000000000E+00  0.00000000000E+00  0.21375689477E+03  0.14180429599E+04  0.14018394437E+04 0.  0.
        1    1    3    3  502    0  0.36784132425E+03  0.57135001712E+03  0.28073822172E+03  0.73522923707E+03  0.50400001928E-02 0. -1.
       -1    1    3    3    0  502 -0.36784132425E+03 -0.57135001712E+03 -0.66981326948E+02  0.68281372282E+03  0.50400001928E-02 0.  1.
</event>
<event>
 5   0  0.1766237E-04  0.1424137E+04  0.7818609E-02  0.8936530E-01
       -2   -1    0    0    0  501  0.00000000000E+00  0.00000000000E+00  0.25484302143E+03  0.25484302145E+03  0.25500000920E-02 0. -1.
        2   -1    0    0  501    0  0.00000000000E+00  0.00000000000E+00 -0.19896244125E+04  0.19896244125E+04  0.25500000920E-02 0.  1.
    10030    2    1    2    0    0  0.00000000000E+00  0.00000000000E+00 -0.17347813911E+04  0.22444674339E+04  0.14241374889E+04 0.  0.
        3    1    3    3  502    0 -0.28599318288E+03  0.49249153662E+03 -0.19374290690E+03  0.60156158328E+03  0.10100000352E+00 0. -1.
       -3    1    3    3    0  502  0.28599318288E+03 -0.49249153662E+03 -0.15410384841E+04  0.16429058507E+04  0.10100000352E+00 0.  1.
</event>
<event>
 5   0  0.1766237E-04  0.1392661E+04  0.7818609E-02  0.8959148E-01
        2   -1    0    0  501    0  0.00000000000E+00  0.00000000000E+00  0.10245514282E+04  0.10245514282E+04  0.25500000920E-02 0. -1.
       -2   -1    0    0    0  501  0.00000000000E+00  0.00000000000E+00 -0.47325735775E+03  0.47325735776E+03  0.25500000920E-02 0.  1.
    10030    2    1    2    0    0  0.00000000000E+00  0.00000000000E+00  0.55129407042E+03  0.14978087859E+04  0.13926614833E+04 0.  0.
        3    1    3    3  502    0  0.61324086525E+02 -0.27441815305E+03  0.96077621197E+03  0.10010778721E+04  0.10100000352E+00 0. -1.
       -3    1    3    3    0  502 -0.61324086525E+02  0.27441815305E+03 -0.40948214155E+03  0.49673091384E+03  0.10100000352E+00 0.  1.
</event>
<event>
 5   0  0.6671375E-05  0.1391405E+04  0.7818609E-02  0.8960064E-01
        1   -1    0    0  501    0  0.00000000000E+00  0.00000000000E+00  0.11363268895E+04  0.11363268895E+04  0.50400001928E-02 0. -1.
       -1   -1    0    0    0  501  0.00000000000E+00  0.00000000000E+00 -0.42593523850E+03  0.42593523853E+03  0.50400001928E-02 0.  1.
    10030    2    1    2    0    0  0.00000000000E+00  0.00000000000E+00  0.71039165100E+03  0.15622621280E+04  0.13914045634E+04 0.  0.
        5    1    3    3  502    0  0.61756188688E+03  0.16485970298E+03  0.66354193522E+03  0.92134217074E+03  0.46999998093E+01 0. -1.
       -5    1    3    3    0  502 -0.61756188688E+03 -0.16485970298E+03  0.46849715781E+02  0.64091995730E+03  0.46999998093E+01 0.  1.
</event>
<event>
 5   0  0.9900839E-05  0.1402040E+04  0.7818609E-02  0.8952343E-01
       -1   -1    0    0    0  501  0.00000000000E+00  0.00000000000E+00  0.67710479837E+03  0.67710479838E+03  0.50400001928E-02 0. -1.
        1   -1    0    0  501    0  0.00000000000E+00  0.00000000000E+00 -0.72577997336E+03  0.72577997337E+03  0.50400001928E-02 0.  1.
    10030    2    1    2    0    0  0.00000000000E+00  0.00000000000E+00 -0.48675174990E+02  0.14028847718E+04  0.14020400886E+04 0.  0.
        3    1    3    3  502    0  0.32193698698E+03  0.53328237302E+03 -0.34608314193E+03  0.71260582673E+03  0.10100000352E+00 0.  1.
       -3    1    3    3    0  502 -0.32193698698E+03 -0.53328237302E+03  0.29740796694E+03  0.69027894503E+03  0.10100000352E+00 0. -1.
</event>
<event>
 5   0  0.9900839E-05  0.1399028E+04  0.7818609E-02  0.8954523E-01
        1   -1    0    0  501    0  0.00000000000E+00  0.00000000000E+00  0.92196370539E+03  0.92196370541E+03  0.50400001928E-02 0. -1.
       -1   -1    0    0    0  501  0.00000000000E+00  0.00000000000E+00 -0.53073621017E+03  0.53073621020E+03  0.50400001928E-02 0.  1.
    10030    2    1    2    0    0  0.00000000000E+00  0.00000000000E+00  0.39122749522E+03  0.14526999156E+04  0.13990275522E+04 0.  0.
        3    1    3    3  502    0 -0.18721014672E+02 -0.56507449544E+03  0.62331368273E+03  0.84153408670E+03  0.10100000352E+00 0.  1.
       -3    1    3    3    0  502  0.18721014672E+02  0.56507449544E+03 -0.23208618751E+03  0.61116582891E+03  0.10100000352E+00 0. -1.
</event>
<event>
 5   0  0.1794185E-04  0.1401595E+04  0.7818609E-02  0.8952665E-01
       -2   -1    0    0    0  501  0.00000000000E+00  0.00000000000E+00  0.34475904833E+03  0.34475904834E+03  0.25500000920E-02 0. -1.
        2   -1    0    0  501    0  0.00000000000E+00  0.00000000000E+00 -0.14245218507E+04  0.14245218507E+04  0.25500000920E-02 0.  1.
    10030    2    1    2    0    0  0.00000000000E+00  0.00000000000E+00 -0.10797628023E+04  0.17692808990E+04  0.14015945171E+04 0.  0.
        2    1    3    3  502    0  0.83973595240E+02  0.63191848601E+03 -0.17240492372E+03  0.66037564718E+03  0.25500000920E-02 0. -1.
       -2    1    3    3    0  502 -0.83973595240E+02 -0.63191848601E+03 -0.90735787860E+03  0.11089052518E+04  0.25500000920E-02 0.  1.
</event>
<event>
 5   0  0.1794185E-04  0.1396188E+04  0.7818609E-02  0.8956582E-01
        2   -1    0    0  501    0  0.00000000000E+00  0.00000000000E+00  0.16997083808E+04  0.16997083808E+04  0.25500000920E-02 0.  1.
       -2   -1    0    0    0  501  0.00000000000E+00  0.00000000000E+00 -0.28671712419E+03  0.28671712420E+03  0.25500000920E-02 0. -1.
    10030    2    1    2    0    0  0.00000000000E+00  0.00000000000E+00  0.14129912566E+04  0.19864255050E+04  0.13961883812E+04 0.  0.
        2    1    3    3  502    0  0.64753019017E+03 -0.58645834773E+02  0.10681113229E+04  0.12504385148E+04  0.25500000920E-02 0.  1.
       -2    1    3    3    0  502 -0.64753019017E+03  0.58645834773E+02  0.34487993370E+03  0.73598699023E+03  0.25500000920E-02 0. -1.
</event>
<event>
 5   0  0.9828111E-05  0.1398094E+04  0.7818609E-02  0.8955199E-01
        1   -1    0    0  501    0  0.00000000000E+00  0.00000000000E+00  0.75075776698E+03  0.75075776700E+03  0.50400001928E-02 0.  1.
       -1   -1    0    0    0  501  0.00000000000E+00  0.00000000000E+00 -0.65089826964E+03  0.65089826966E+03  0.50400001928E-02 0. -1.
    10030    2    1    2    0    0  0.00000000000E+00  0.00000000000E+00  0.99859497345E+02  0.14016560367E+04  0.13980943194E+04 0.  0.
        4    1    3    3  502    0  0.55940736356E+03  0.41684095800E+03  0.94453876431E+02  0.70400009258E+03  0.12699999809E+01 0. -1.
       -4    1    3    3    0  502 -0.55940736356E+03 -0.41684095800E+03  0.54056209145E+01  0.69765594408E+03  0.12699999809E+01 0.  1.
</event>
<event>
 5   0  0.1712327E-04  0.1399303E+04  0.7818609E-02  0.8954323E-01
        2   -1    0    0  501    0  0.00000000000E+00  0.00000000000E+00  0.77307016625E+03  0.77307016625E+03  0.25500000920E-02 0. -1.
       -2   -1    0    0    0  501  0.00000000000E+00  0.00000000000E+00 -0.63320519021E+03  0.63320519022E+03  0.25500000920E-02 0.  1.
    10030    2    1    2    0    0  0.00000000000E+00  0.00000000000E+00  0.13986497604E+03  0.14062753565E+04  0.13993027430E+04 0.  0.
        1    1    3    3  502    0 -0.13930268789E+03  0.21130527897E+03  0.72545325873E+03  0.76833429600E+03  0.50400001928E-02 0. -1.
       -1    1    3    3    0  502  0.13930268789E+03 -0.21130527897E+03 -0.58558828270E+03  0.63794106047E+03  0.50400001928E-02 0.  1.
</event>
<event>
 5   0  0.6671375E-05  0.1403262E+04  0.7818609E-02  0.8951461E-01
        1   -1    0    0  501    0  0.00000000000E+00  0.00000000000E+00  0.95800209646E+03  0.95800209647E+03  0.50400001928E-02 0. -1.
       -1   -1    0    0    0  501  0.00000000000E+00  0.00000000000E+00 -0.51386762889E+03  0.51386762892E+03  0.50400001928E-02 0.  1.
    10030    2    1    2    0    0  0.00000000000E+00  0.00000000000E+00  0.44413446756E+03  0.14718697254E+04  0.14032622931E+04 0.  0.
        5    1    3    3  502    0 -0.44349823787E+03 -0.34044276648E+03  0.66666878512E+03  0.87009270960E+03  0.46999998093E+01 0. -1.
       -5    1    3    3    0  502  0.44349823787E+03  0.34044276648E+03 -0.22253431756E+03  0.60177701579E+03  0.46999998093E+01 0.  1.
</event>
<event>
 5   0  0.1780171E-04  0.1400193E+04  0.7818609E-02  0.8953679E-01
        2   -1    0    0  501    0  0.00000000000E+00  0.00000000000E+00  0.75030819049E+03  0.75030819050E+03  0.25500000920E-02 0. -1.
       -2   -1    0    0    0  501  0.00000000000E+00  0.00000000000E+00 -0.65324512502E+03  0.65324512502E+03  0.25500000920E-02 0.  1.
    10030    2    1    2    0    0  0.00000000000E+00  0.00000000000E+00  0.97063065475E+02  0.14035533155E+04  0.14001930834E+04 0.  0.
        5    1    3    3  502    0  0.52981798163E+03  0.41696240021E+03  0.23752668053E+03  0.71484666244E+03  0.46999998093E+01 0. -1.
       -5    1    3    3    0  502 -0.52981798163E+03 -0.41696240021E+03 -0.14046361506E+03  0.68870665308E+03  0.46999998093E+01 0.  1.
</event>
<event>
 5   0  0.1780171E-04  0.1403430E+04  0.7818609E-02  0.8951340E-01
       -2   -1    0    0    0  501  0.00000000000E+00  0.00000000000E+00  0.53811900595E+03  0.53811900596E+03  0.25500000920E-02 0.  1.
        2   -1    0    0  501    0  0.00000000000E+00  0.00000000000E+00 -0.91504595695E+03  0.91504595696E+03  0.25500000920E-02 0. -1.
    10030    2    1    2    0    0  0.00000000000E+00  0.00000000000E+00 -0.37692695100E+03  0.14531649629E+04  0.14034295433E+04 0.  0.
        5    1    3    3  502    0 -0.13814777260E+03 -0.33823537061E+03 -0.80877112226E+03  0.88748002299E+03  0.46999998093E+01 0. -1.
       -5    1    3    3    0  502  0.13814777260E+03  0.33823537061E+03  0.43184417126E+03  0.56568493992E+03  0.46999998093E+01 0.  1.
</event>
<event>
 5   0  0.6671375E-05  0.1401895E+04  0.7818609E-02  0.8952448E-01
       -3   -1    0    0    0  501  0.00000000000E+00  0.00000000000E+00  0.76161887906E+03  0.76161888576E+03  0.10100000352E+00 0.  1.
        3   -1    0    0  501    0  0.00000000000E+00  0.00000000000E+00 -0.64510928614E+03  0.64510929405E+03  0.10100000352E+00 0. -1.
    10030    2    1    2    0    0  0.00000000000E+00  0.00000000000E+00  0.11650959291E+03  0.14067281798E+04  0.14018950341E+04 0.  0.
        2    1    3    3  502    0 -0.46440063702E+03  0.17595697449E+03 -0.43812082522E+03  0.66225272067E+03  0.25500000920E-02 0. -1.
       -2    1    3    3    0  502  0.46440063702E+03 -0.17595697449E+03  0.55463041813E+03  0.74447545914E+03  0.25500000920E-02 0.  1.
</event>
<event>
 5   0  0.1794185E-04  0.1401176E+04  0.7818609E-02  0.8952968E-01
        2   -1    0    0  501    0  0.00000000000E+00  0.00000000000E+00  0.15282625226E+04  0.15282625226E+04  0.25500000920E-02 0.  1.
       -2   -1    0    0    0  501  0.00000000000E+00  0.00000000000E+00 -0.32116431180E+03  0.32116431181E+03  0.25500000920E-02 0. -1.
    10030    2    1    2    0    0  0.00000000000E+00  0.00000000000E+00  0.12070982108E+04  0.18494268344E+04  0.14011757653E+04 0.  0.
        2    1    3    3  502    0  0.98718644743E+02 -0.18339529361E+03 -0.27935587732E+03  0.34845216420E+03  0.25500000920E-02 0. -1.
       -2    1    3    3    0  502 -0.98718644743E+02  0.18339529361E+03  0.14864540881E+04  0.15009746702E+04  0.25500000920E-02 0.  1.
</event>
<event>
 5   0  0.6671375E-05  0.1417890E+04  0.7818609E-02  0.8940970E-01
        1   -1    0    0  501    0  0.00000000000E+00  0.00000000000E+00  0.17852601263E+04  0.17852601263E+04  0.50400001928E-02 0.  1.
       -1   -1    0    0    0  501  0.00000000000E+00  0.00000000000E+00 -0.28152929476E+03  0.28152929480E+03  0.50400001928E-02 0. -1.
    10030    2    1    2    0    0  0.00000000000E+00  0.00000000000E+00  0.15037308315E+04  0.20667894211E+04  0.14178900160E+04 0.  0.
        5    1    3    3  502    0 -0.55813549382E+03  0.31905797563E+03  0.11873781819E+04  0.13502600705E+04  0.46999998093E+01 0.  1.
       -5    1    3    3    0  502  0.55813549382E+03 -0.31905797563E+03  0.31635264964E+03  0.71652935055E+03  0.46999998093E+01 0. -1.
</event>
<event>
 5   0  0.1766237E-04  0.1400994E+04  0.7818609E-02  0.8953099E-01
        2   -1    0    0  501    0  0.00000000000E+00  0.00000000000E+00  0.14406612504E+04  0.14406612504E+04  0.25500000920E-02 0. -1.
       -2   -1    0    0    0  501  0.00000000000E+00  0.00000000000E+00 -0.34060489668E+03  0.34060489669E+03  0.25500000920E-02 0.  1.
    10030    2    1    2    0    0  0.00000000000E+00  0.00000000000E+00  0.11000563537E+04  0.17812661471E+04  0.14009943274E+04 0.  0.
        3    1    3    3  502    0 -0.14438206741E+03  0.45077061450E+03 -0.10652221801E+03  0.48516731280E+03  0.10100000352E+00 0.  1.
       -3    1    3    3    0  502  0.14438206741E+03 -0.45077061450E+03  0.12065785717E+04  0.12960988343E+04  0.10100000352E+00 0. -1.
</event>
<event>
 5   0  0.9900839E-05  0.1401261E+04  0.7818609E-02  0.8952906E-01
       -1   -1    0    0    0  501  0.00000000000E+00  0.00000000000E+00  0.49802480326E+03  0.49802480328E+03  0.50400001928E-02 0. -1.
        1   -1    0    0  501    0  0.00000000000E+00  0.00000000000E+00 -0.98566037817E+03  0.98566037818E+03  0.50400001928E-02 0.  1.
    10030    2    1    2    0    0  0.00000000000E+00  0.00000000000E+00 -0.48763557491E+03  0.14836851815E+04  0.14012613117E+04 0.  0.
        3    1    3    3  502    0 -0.61694529269E+03  0.31712093131E+03 -0.34807875810E+03  0.77610953563E+03  0.10100000352E+00 0.  1.
       -3    1    3    3    0  502  0.61694529269E+03 -0.31712093131E+03 -0.13955681681E+03  0.70757564583E+03  0.10100000352E+00 0. -1.
</event>
<event>
 5   0  0.1833681E-04  0.1398103E+04  0.7818609E-02  0.8955193E-01
        2   -1    0    0  501    0  0.00000000000E+00  0.00000000000E+00  0.73291420530E+03  0.73291420530E+03  0.25500000920E-02 0. -1.
       -2   -1    0    0    0  501  0.00000000000E+00  0.00000000000E+00 -0.66675357389E+03  0.66675357390E+03  0.25500000920E-02 0.  1.
    10030    2    1    2    0    0  0.00000000000E+00  0.00000000000E+00  0.66160631408E+02  0.13996677792E+04  0.13981032376E+04 0.  0.
        4    1    3    3  502    0 -0.12076933807E+03 -0.39824915192E+03  0.59538842507E+03  0.72641352522E+03  0.12699999809E+01 0. -1.
       -4    1    3    3    0  502  0.12076933807E+03  0.39824915192E+03 -0.52922779366E+03  0.67325425398E+03  0.12699999809E+01 0.  1.
</event>
<event>
 5   0  0.9978422E-05  0.1401014E+04  0.7818609E-02  0.8953085E-01
        1   -1    0    0  501    0  0.00000000000E+00  0.00000000000E+00  0.11700066911E+04  0.11700066911E+04  0.50400001928E-02 0.  1.
       -1   -1    0    0    0  501  0.00000000000E+00  0.00000000000E+00 -0.41940804448E+03  0.41940804451E+03  0.50400001928E-02 0. -1.
    10030    2    1    2    0    0  0.00000000000E+00  0.00000000000E+00  0.75059864664E+03  0.15894147356E+04  0.14010142303E+04 0.  0.
        2    1    3    3  502    0  0.39392992532E+03 -0.34227874993E+03  0.90544575060E+03  0.10450681968E+04  0.25500000920E-02 0.  1.
       -2    1    3    3    0  502 -0.39392992532E+03  0.34227874993E+03 -0.15484710396E+03  0.54434653882E+03  0.25500000920E-02 0. -1.
</event>
<event>
 5   0  0.9260916E-05  0.1400148E+04  0.7818609E-02  0.8953711E-01
       -1   -1    0    0    0  501  0.00000000000E+00  0.00000000000E+00  0.44430838152E+03  0.44430838154E+03  0.50400001928E-02 0. -1.
        1   -1    0    0  501    0  0.00000000000E+00  0.00000000000E+00 -0.11030713174E+04  0.11030713174E+04  0.50400001928E-02 0.  1.
    10030    2    1    2    0    0  0.00000000000E+00  0.00000000000E+00 -0.65876293586E+03  0.15473796989E+04  0.14001483232E+04 0.  0.
        1    1    3    3  502    0 -0.31756127162E+03  0.16527820075E+03 -0.99425985108E+03  0.10567472244E+04  0.50400001928E-02 0.  1.
       -1    1    3    3    0  502  0.31756127162E+03 -0.16527820075E+03  0.33549691522E+03  0.49063247449E+03  0.50400001928E-02 0. -1.
</event>
<event>
 5   0  0.1780171E-04  0.1402599E+04  0.7818609E-02  0.8951939E-01
       -2   -1    0    0    0  501  0.00000000000E+00  0.00000000000E+00  0.40889492449E+03  0.40889492450E+03  0.25500000920E-02 0.  1.
        2   -1    0    0  501    0  0.00000000000E+00  0.00000000000E+00 -0.12028059778E+04  0.12028059778E+04  0.25500000920E-02 0. -1.
    10030    2    1    2    0    0  0.00000000000E+00  0.00000000000E+00 -0.79391105328E+03  0.16117009023E+04  0.14025993861E+04 0.  0.
        5    1    3    3  502    0  0.39829973392E+03 -0.80193295124E+02 -0.10537694311E+04  0.11293917596E+04  0.46999998093E+01 0. -1.
       -5    1    3    3    0  502 -0.39829973392E+03  0.80193295124E+02  0.25985837783E+03  0.48230914272E+03  0.46999998093E+01 0.  1.
</event>
<event>
 5   0  0.6671375E-05  0.1403234E+04  0.7818609E-02  0.8951481E-01
        1   -1    0    0  501    0  0.00000000000E+00  0.00000000000E+00  0.68535194208E+03  0.68535194210E+03  0.50400001928E-02 0.  1.
       -1   -1    0    0    0  501  0.00000000000E+00  0.00000000000E+00 -0.71826796554E+03  0.71826796556E+03  0.50400001928E-02 0. -1.
    10030    2    1    2    0    0  0.00000000000E+00  0.00000000000E+00 -0.32916023463E+02  0.14036199077E+04  0.14032339009E+04 0.  0.
        5    1    3    3  502    0  0.24683154331E+03  0.42214316549E+03  0.48678434162E+03  0.69000851313E+03  0.46999998093E+01 0.  1.
       -5    1    3    3    0  502 -0.24683154331E+03 -0.42214316549E+03 -0.51970036508E+03  0.71361139453E+03  0.46999998093E+01 0. -1.
</event>
<event>
 5   0  0.1766237E-04  0.1400009E+04  0.7818609E-02  0.8953812E-01
        2   -1    0    0  501    0  0.00000000000E+00  0.00000000000E+00  0.13489228521E+04  0.13489228521E+04  0.25500000920E-02 0. -1.
       -2   -1    0    0    0  501  0.00000000000E+00  0.00000000000E+00 -0.36325756411E+03  0.36325756412E+03  0.25500000920E-02 0.  1.
    10030    2    1    2    0    0  0.00000000000E+00  0.00000000000E+00  0.98566528796E+03  0.17121804162E+04  0.14000091849E+04 0.  0.
        3    1    3    3  502    0  0.60811839955E+03  0.81339707145E+02  0.80664959878E+02  0.61881417387E+03  0.10100000352E+00 0.  1.
       -3    1    3    3    0  502 -0.60811839955E+03 -0.81339707145E+02  0.90500032808E+03  0.10933662423E+04  0.10100000352E+00 0. -1.
</event>
<event>
 5   0  0.1712327E-04  0.1392374E+04  0.7818609E-02  0.8959358E-01
        2   -1    0    0  501    0  0.00000000000E+00  0.00000000000E+00  0.59008091764E+03  0.59008091764E+03  0.25500000920E-02 0. -1.
       -2   -1    0    0    0  501  0.00000000000E+00  0.00000000000E+00 -0.82137209185E+03  0.82137209186E+03  0.25500000920E-02 0.  1.
    10030    2    1    2    0    0  0.00000000000E+00  0.00000000000E+00 -0.23129117421E+03  0.14114530095E+04  0.13923735098E+04 0.  0.
        1    1    3    3  502    0 -0.32236478955E+03  0.36892784978E+03  0.38575236491E+03  0.62356371202E+03  0.50400001928E-02 0. -1.
       -1    1    3    3    0  502  0.32236478955E+03 -0.36892784978E+03 -0.61704353913E+03  0.78788929748E+03  0.50400001928E-02 0.  1.
</event>
<event>
 5   0  0.9978422E-05  0.1398984E+04  0.7818609E-02  0.8954554E-01
        1   -1    0    0  501    0  0.00000000000E+00  0.00000000000E+00  0.90956354252E+03  0.90956354253E+03  0.50400001928E-02 0. -1.
       -1   -1    0    0    0  501  0.00000000000E+00  0.00000000000E+00 -0.53793843910E+03  0.53793843912E+03  0.50400001928E-02 0.  1.
    10030    2    1    2    0    0  0.00000000000E+00  0.00000000000E+00  0.37162510342E+03  0.14475019817E+04  0.13989841920E+04 0.  0.
        2    1    3    3  502    0 -0.15047066783E+03  0.66115914930E+03  0.80510609083E+01  0.67811331071E+03  0.25500000920E-02 0.  1.
       -2    1    3    3    0  502  0.15047066783E+03 -0.66115914930E+03  0.36357404251E+03  0.76938867094E+03  0.25500000920E-02 0. -1.
</event>
<event>
 5   0  0.9978422E-05  0.1363809E+04  0.7818609E-02  0.8980440E-01
       -1   -1    0    0    0  501  0.00000000000E+00  0.00000000000E+00  0.67873826734E+03  0.67873826736E+03  0.50400001928E-02 0.  1.
        1   -1    0    0  501    0  0.00000000000E+00  0.00000000000E+00 -0.68508531712E+03  0.68508531714E+03  0.50400001928E-02 0. -1.
    10030    2    1    2    0    0  0.00000000000E+00  0.00000000000E+00 -0.63470497803E+01  0.13638235845E+04  0.13638088153E+04 0.  0.
        2    1    3    3  502    0  0.64533761802E+03 -0.58495795093E+02  0.20922280023E+03  0.68092332859E+03  0.25500000920E-02 0.  1.
       -2    1    3    3    0  502 -0.64533761802E+03  0.58495795093E+02 -0.21556985001E+03  0.68290025591E+03  0.25500000920E-02 0. -1.
</event>
<event>
 5   0  0.1766237E-04  0.1397826E+04  0.7818609E-02  0.8955394E-01
       -2   -1    0    0    0  501  0.00000000000E+00  0.00000000000E+00  0.95896487877E+03  0.95896487878E+03  0.25500000920E-02 0. -1.
        2   -1    0    0  501    0  0.00000000000E+00  0.00000000000E+00 -0.50938195189E+03  0.50938195190E+03  0.25500000920E-02 0.  1.
    10030    2    1    2    0    0  0.00000000000E+00  0.00000000000E+00  0.44958292688E+03  0.14683468307E+04  0.13978260289E+04 0.  0.
        3    1    3    3  502    0  0.58402668126E+03 -0.12746794645E+03 -0.15561683986E+03  0.61769883669E+03  0.10100000352E+00 0.  1.
       -3    1    3    3    0  502 -0.58402668126E+03  0.12746794645E+03  0.60519976674E+03  0.85064799398E+03  0.10100000352E+00 0. -1.
</event>
<event>
 5   0  0.1766237E-04  0.1398979E+04  0.7818609E-02  0.8954558E-01
        2   -1    0    0  501    0  0.00000000000E+00  0.00000000000E+00  0.99800408675E+03  0.99800408676E+03  0.25500000920E-02 0. -1.
       -2   -1    0    0    0  501  0.00000000000E+00  0.00000000000E+00 -0.49026437882E+03  0.49026437883E+03  0.25500000920E-02 0.  1.
    10030    2    1    2    0    0  0.00000000000E+00  0.00000000000E+00  0.50773970793E+03  0.14882684656E+04  0.13989794189E+04 0.  0.
        3    1    3    3  502    0 -0.11131541945E+03 -0.40242973397E+03  0.85088772858E+03  0.94781366852E+03  0.10100000352E+00 0. -1.
       -3    1    3    3    0  502  0.11131541945E+03  0.40242973397E+03 -0.34314802065E+03  0.54045479706E+03  0.10100000352E+00 0.  1.
</event>
<event>
 5   0  0.9828111E-05  0.1399001E+04  0.7818609E-02  0.8954542E-01
       -1   -1    0    0    0  501  0.00000000000E+00  0.00000000000E+00  0.32228589651E+03  0.32228589655E+03  0.50400001928E-02 0. -1.
        1   -1    0    0  501    0  0.00000000000E+00  0.00000000000E+00 -0.15182206602E+04  0.15182206602E+04  0.50400001928E-02 0.  1.
    10030    2    1    2    0    0  0.00000000000E+00  0.00000000000E+00 -0.11959347637E+04  0.18405065568E+04  0.13990012246E+04 0.  0.
        4    1    3    3  502    0 -0.66821380720E+03 -0.20366960394E+03 -0.55037853880E+03  0.88933073071E+03  0.12699999809E+01 0.  1.
       -4    1    3    3    0  502  0.66821380720E+03  0.20366960394E+03 -0.64555622491E+03  0.95117582608E+03  0.12699999809E+01 0. -1.
</event>
<event>
 5   0  0.9828111E-05  0.1400027E+04  0.7818609E-02  0.8953799E-01
       -1   -1    0    0    0  501  0.00000000000E+00  0.00000000000E+00  0.37872253329E+03  0.37872253332E+03  0.50400001928E-02 0.  1.
        1   -1    0    0  501    0  0.00000000000E+00  0.00000000000E+00 -0.12938732614E+04  0.12938732614E+04  0.50400001928E-02 0. -1.
    10030    2    1    2    0    0  0.00000000000E+00  0.00000000000E+00 -0.91515072807E+03  0.16725957947E+04  0.14000270845E+04 0.  0.
        4    1    3    3  502    0  0.60199848978E+03  0.32433566080E+03 -0.63646588122E+03  0.93417676776E+03  0.12699999809E+01 0. -1.
       -4    1    3    3    0  502 -0.60199848978E+03 -0.32433566080E+03 -0.27868484685E+03  0.73841902693E+03  0.12699999809E+01 0.  1.
</event>
<event>
 5   0  0.9260916E-05  0.1409316E+04  0.7818609E-02  0.8947103E-01
        1   -1    0    0  501    0  0.00000000000E+00  0.00000000000E+00  0.10627435463E+04  0.10627435463E+04  0.50400001928E-02 0. -1.
       -1   -1    0    0    0  501  0.00000000000E+00  0.00000000000E+00 -0.46722748581E+03  0.46722748583E+03  0.50400001928E-02 0.  1.
    10030    2    1    2    0    0  0.00000000000E+00  0.00000000000E+00  0.59551606050E+03  0.15299710321E+04  0.14093161394E+04 0.  0.
        1    1    3    3  502    0  0.28734611487E+03 -0.46411460130E+02  0.99443126036E+03  0.10361541126E+04  0.50400001928E-02 0. -1.
       -1    1    3    3    0  502 -0.28734611487E+03  0.46411460130E+02 -0.39891519987E+03  0.49381691959E+03  0.50400001928E-02 0.  1.
</event>
<event>
 5   0  0.9260916E-05  0.1398742E+04  0.7818609E-02  0.8954730E-01
       -1   -1    0    0    0  501  0.00000000000E+00  0.00000000000E+00  0.54791334622E+03  0.54791334624E+03  0.50400001928E-02 0.  1.
        1   -1    0    0  501    0  0.00000000000E+00  0.00000000000E+00 -0.89269514365E+03  0.89269514366E+03  0.50400001928E-02 0. -1.
    10030    2    1    2    0    0  0.00000000000E+00  0.00000000000E+00 -0.34478179743E+03  0.14406084899E+04  0.13987416964E+04 0.  0.
        1    1    3    3  502    0 -0.31818830857E+03 -0.19973012056E+03  0.43516728605E+03  0.57489693654E+03  0.50400001928E-02 0.  1.
       -1    1    3    3    0  502  0.31818830857E+03  0.19973012056E+03 -0.77994908348E+03  0.86571155336E+03  0.50400001928E-02 0. -1.
</event>
<event>
 5   0  0.9978422E-05  0.1398292E+04  0.7818609E-02  0.8955056E-01
       -1   -1    0    0    0  501  0.00000000000E+00  0.00000000000E+00  0.12964079920E+04  0.12964079920E+04  0.50400001928E-02 0. -1.
        1   -1    0    0  501    0  0.00000000000E+00  0.00000000000E+00 -0.37704551525E+03  0.37704551528E+03  0.50400001928E-02 0.  1.
    10030    2    1    2    0    0  0.00000000000E+00  0.00000000000E+00  0.91936247677E+03  0.16734535073E+04  0.13982915567E+04 0.  0.
        2    1    3    3  502    0 -0.38715754953E+03  0.29007974104E+03 -0.14438979327E+03  0.50486199770E+03  0.25500000920E-02 0.  1.
       -2    1    3    3    0  502  0.38715754953E+03 -0.29007974104E+03  0.10637522700E+04  0.11685915096E+04  0.25500000920E-02 0. -1.
</event>
<event>
 5   0  0.6671375E-05  0.1397032E+04  0.7818609E-02  0.8955970E-01
       -1   -1    0    0    0  501  0.00000000000E+00  0.00000000000E+00  0.46954504153E+03  0.46954504155E+03  0.50400001928E-02 0.  1.
        1   -1    0    0  501    0  0.00000000000E+00  0.00000000000E+00 -0.10391431628E+04  0.10391431628E+04  0.50400001928E-02 0. -1.
    10030    2    1    2    0    0  0.00000000000E+00  0.00000000000E+00 -0.56959812125E+03  0.15086882043E+04  0.13970318816E+04 0.  0.
        5    1    3    3  502    0 -0.50226921218E+03 -0.24046394616E+03 -0.74017004664E+03  0.92626727182E+03  0.46999998093E+01 0. -1.
       -5    1    3    3    0  502  0.50226921218E+03  0.24046394616E+03  0.17057192539E+03  0.58242093252E+03  0.46999998093E+01 0.  1.
</event>
<event>
 5   0  0.6671375E-05  0.1400487E+04  0.7818609E-02  0.8953466E-01
        3   -1    0    0  501    0  0.00000000000E+00  0.00000000000E+00  0.57832875132E+03  0.57832876014E+03  0.10100000352E+00 0. -1.
       -3   -1    0    0    0  501  0.00000000000E+00  0.00000000000E+00 -0.84785834863E+03  0.84785835465E+03  0.10100000352E+00 0.  1.
    10030    2    1    2    0    0  0.00000000000E+00  0.00000000000E+00 -0.26952959731E+03  0.14261871148E+04  0.14004868734E+04 0.  0.
        2    1    3    3  502    0 -0.59484441039E+03 -0.61349850500E+01 -0.51095328206E+03  0.78418796667E+03  0.25500000920E-02 0.  1.
       -2    1    3    3    0  502  0.59484441039E+03  0.61349850500E+01  0.24142368475E+03  0.64199914811E+03  0.25500000920E-02 0. -1.
</event>
<event>
 5   0  0.9978422E-05  0.1395235E+04  0.7818609E-02  0.8957275E-01
        1   -1    0    0  501    0  0.00000000000E+00  0.00000000000E+00  0.19332117922E+03  0.19332117928E+03  0.50400001928E-02 0.  1.
       -1   -1    0    0    0  501  0.00000000000E+00  0.00000000000E+00 -0.25174162475E+04  0.25174162475E+04  0.50400001928E-02 0. -1.
    10030    2    1    2    0    0  0.00000000000E+00  0.00000000000E+00 -0.23240950683E+04  0.27107374268E+04  0.13952345719E+04 0.  0.
        2    1    3    3  502    0  0.60314770077E+03  0.80915211557E+02 -0.49937911526E+03  0.78721910620E+03  0.25500000920E-02 0. -1.
       -2    1    3    3    0  502 -0.60314770077E+03 -0.80915211557E+02 -0.18247159531E+04  0.19235183206E+04  0.25500000920E-02 0.  1.
</event>
<event>
 5   0  0.1712327E-04  0.1399400E+04  0.7818609E-02  0.8954253E-01
        2   -1    0    0  501    0  0.00000000000E+00  0.00000000000E+00  0.11235371588E+04  0.11235371588E+04  0.25500000920E-02 0.  1.
       -2   -1    0    0    0  501  0.00000000000E+00  0.00000000000E+00 -0.43574873033E+03  0.43574873034E+03  0.25500000920E-02 0. -1.
    10030    2    1    2    0    0  0.00000000000E+00  0.00000000000E+00  0.68778842844E+03  0.15592858891E+04  0.13993997148E+04 0.  0.
        1    1    3    3  502    0  0.16475237267E+03  0.12500034476E+02  0.11014884448E+04  0.11138116489E+04  0.50400001928E-02 0.  1.
       -1    1    3    3    0  502 -0.16475237267E+03 -0.12500034476E+02 -0.41370001635E+03  0.44547424024E+03  0.50400001928E-02 0. -1.
</event>
<event>
 5   0  0.1712327E-04  0.1402546E+04  0.7818609E-02  0.8951978E-01
        2   -1    0    0  501    0  0.00000000000E+00  0.00000000000E+00  0.97944004872E+03  0.97944004872E+03  0.25500000920E-02 0. -1.
       -2   -1    0    0    0  501  0.00000000000E+00  0.00000000000E+00 -0.50210692438E+03  0.50210692438E+03  0.25500000920E-02 0.  1.
    10030    2    1    2    0    0  0.00000000000E+00  0.00000000000E+00  0.47733312434E+03  0.14815469731E+04  0.14025457290E+04 0.  0.
        1    1    3    3  502    0  0.43773683519E+03  0.38549623172E+03 -0.17257275774E+03  0.60827809289E+03  0.50400001928E-02 0.  1.
       -1    1    3    3    0  502 -0.43773683519E+03 -0.38549623172E+03  0.64990588208E+03  0.87326888021E+03  0.50400001928E-02 0. -1.
</event>
<event>
 5   0  0.1794185E-04  0.1404136E+04  0.7818609E-02  0.8950830E-01
        2   -1    0    0  501    0  0.00000000000E+00  0.00000000000E+00  0.69253356570E+03  0.69253356571E+03  0.25500000920E-02 0. -1.
       -2   -1    0    0    0  501  0.00000000000E+00  0.00000000000E+00 -0.71173331673E+03  0.71173331674E+03  0.25500000920E-02 0.  1.
    10030    2    1    2    0    0  0.00000000000E+00  0.00000000000E+00 -0.19199751032E+02  0.14042668824E+04  0.14041356226E+04 0.  0.
        2    1    3    3  502    0  0.19711246565E+03  0.26499636288E+03 -0.62919214367E+03  0.71060477772E+03  0.25500000920E-02 0.  1.
       -2    1    3    3    0  502 -0.19711246565E+03 -0.26499636288E+03  0.60999239264E+03  0.69366210473E+03  0.25500000920E-02 0. -1.
</event>
<event>
 5   0  0.9828111E-05  0.1399457E+04  0.7818609E-02  0.8954212E-01
       -1   -1    0    0    0  501  0.00000000000E+00  0.00000000000E+00  0.27121744924E+03  0.27121744929E+03  0.50400001928E-02 0. -1.
        1   -1    0    0  501    0  0.00000000000E+00  0.00000000000E+00 -0.18052674369E+04  0.18052674369E+04  0.50400001928E-02 0.  1.
    10030    2    1    2    0    0  0.00000000000E+00  0.00000000000E+00 -0.15340499877E+04  0.20764848862E+04  0.13994570797E+04 0.  0.
        4    1    3    3  502    0  0.27429347205E+03 -0.13279710468E+03 -0.17016248469E+04  0.17286991387E+04  0.12699999809E+01 0.  1.
       -4    1    3    3    0  502 -0.27429347205E+03  0.13279710468E+03  0.16757485920E+03  0.34778574749E+03  0.12699999809E+01 0. -1.
</event>
<event>
 5   0  0.9828111E-05  0.1400579E+04  0.7818609E-02  0.8953399E-01
       -1   -1    0    0    0  501  0.00000000000E+00  0.00000000000E+00  0.86863469369E+03  0.86863469370E+03  0.50400001928E-02 0. -1.
        1   -1    0    0  501    0  0.00000000000E+00  0.00000000000E+00 -0.56457073086E+03  0.56457073088E+03  0.50400001928E-02 0.  1.
    10030    2    1    2    0    0  0.00000000000E+00  0.00000000000E+00  0.30406396283E+03  0.14332054246E+04  0.14005794856E+04 0.  0.
        4    1    3    3  502    0 -0.22116221380E+03  0.65612398126E+03  0.44743520221E+02  0.69384075918E+03  0.12699999809E+01 0.  1.
       -4    1    3    3    0  502  0.22116221380E+03 -0.65612398126E+03  0.25932044261E+03  0.73936466541E+03  0.12699999809E+01 0. -1.
</event>
<event>
 5   0  0.9260916E-05  0.1399514E+04  0.7818609E-02  0.8954170E-01
        1   -1    0    0  501    0  0.00000000000E+00  0.00000000000E+00  0.86858043551E+03  0.86858043553E+03  0.50400001928E-02 0. -1.
       -1   -1    0    0    0  501  0.00000000000E+00  0.00000000000E+00 -0.56374723690E+03  0.56374723692E+03  0.50400001928E-02 0.  1.
    10030    2    1    2    0    0  0.00000000000E+00  0.00000000000E+00  0.30483319861E+03  0.14323276725E+04  0.13995139450E+04 0.  0.
        1    1    3    3  502    0 -0.25884637798E+03  0.47125265247E+03 -0.30594499313E+03  0.61861365059E+03  0.50400001928E-02 0. -1.
       -1    1    3    3    0  502  0.25884637798E+03 -0.47125265247E+03  0.61077819174E+03  0.81371402186E+03  0.50400001928E-02 0.  1.
</event>
<event>
 5   0  0.9978422E-05  0.1405701E+04  0.7818609E-02  0.8949702E-01
       -1   -1    0    0    0  501  0.00000000000E+00  0.00000000000E+00  0.39212194329E+03  0.39212194333E+03  0.50400001928E-02 0.  1.
        1   -1    0    0  501    0  0.00000000000E+00  0.00000000000E+00 -0.12598087060E+04  0.12598087060E+04  0.50400001928E-02 0. -1.
    10030    2    1    2    0    0  0.00000000000E+00  0.00000000000E+00 -0.86768676268E+03  0.16519306493E+04  0.14057007334E+04 0.  0.
        2    1    3    3  502    0 -0.40256257425E+03  0.22642574681E+03  0.18874292170E+03  0.49894802886E+03  0.25500000920E-02 0.  1.
       -2    1    3    3    0  502  0.40256257425E+03 -0.22642574681E+03 -0.10564296844E+04  0.11529826204E+04  0.25500000920E-02 0. -1.
</event>
<event>
 5   0  0.9978422E-05  0.1398898E+04  0.7818609E-02  0.8954617E-01
        1   -1    0    0  501    0  0.00000000000E+00  0.00000000000E+00  0.15457070775E+04  0.15457070775E+04  0.50400001928E-02 0.  1.
       -1   -1    0    0    0  501  0.00000000000E+00  0.00000000000E+00 -0.31650814288E+03  0.31650814292E+03  0.50400001928E-02 0. -1.
    10030    2    1    2    0    0  0.00000000000E+00  0.00000000000E+00  0.12291989347E+04  0.18622152205E+04  0.13988979614E+04 0.  0.
        2    1    3    3  502    0  0.52807914686E+03  0.18586902458E+03  0.11727746951E+04  0.12995442914E+04  0.25500000920E-02 0.  1.
       -2    1    3    3    0  502 -0.52807914686E+03 -0.18586902458E+03  0.56424239512E+02  0.56267092910E+03  0.25500000920E-02 0. -1.
</event>
<event>
 5   0  0.1766237E-04  0.1408381E+04  0.7818609E-02  0.8947774E-01
       -2   -1    0    0    0  501  0.00000000000E+00  0.00000000000E+00  0.37946693660E+03  0.37946693661E+03  0.25500000920E-02 0. -1.
        2   -1    0    0  501    0  0.00000000000E+00  0.00000000000E+00 -0.13067921811E+04  0.13067921811E+04  0.25500000920E-02 0.  1.
    10030    2    1    2    0    0  0.00000000000E+00  0.00000000000E+00 -0.92732524446E+03  0.16862591177E+04  0.14083812349E+04 0.  0.
        3    1    3    3  502    0 -0.14019168528E+02  0.59804083598E+03 -0.90849741563E+03  0.10877577593E+04  0.10100000352E+00 0.  1.
       -3    1    3    3    0  502  0.14019168528E+02 -0.59804083598E+03 -0.18827828828E+02  0.59850135833E+03  0.10100000352E+00 0. -1.
</event>
<event>
 5   0  0.1712327E-04  0.1400350E+04  0.7818609E-02  0.8953565E-01
        2   -1    0    0  501    0  0.00000000000E+00  0.00000000000E+00  0.64197624677E+03  0.64197624677E+03  0.25500000920E-02 0.  1.
       -2   -1    0    0    0  501  0.00000000000E+00  0.00000000000E+00 -0.76364993861E+03  0.76364993862E+03  0.25500000920E-02 0. -1.
    10030    2    1    2    0    0  0.00000000000E+00  0.00000000000E+00 -0.12167369185E+03  0.14056261854E+04  0.14003501297E+04 0.  0.
        1    1    3    3  502    0  0.38933186707E+03  0.50830293841E+03  0.22359262387E+03  0.67819233362E+03  0.50400001928E-02 0.  1.
       -1    1    3    3    0  502 -0.38933186707E+03 -0.50830293841E+03 -0.34526631571E+03  0.72743385177E+03  0.50400001928E-02 0. -1.
</event>
<event>
 5   0  0.1766237E-04  0.1400698E+04  0.7818609E-02  0.8953313E-01
       -2   -1    0    0    0  501  0.00000000000E+00  0.00000000000E+00  0.56733674491E+03  0.56733674492E+03  0.25500000920E-02 0.  1.
        2   -1    0    0  501    0  0.00000000000E+00  0.00000000000E+00 -0.86454607684E+03  0.86454607684E+03  0.25500000920E-02 0. -1.
    10030    2    1    2    0    0  0.00000000000E+00  0.00000000000E+00 -0.29720933192E+03  0.14318828218E+04  0.14006980504E+04 0.  0.
        3    1    3    3  502    0  0.58964166177E+03  0.37745938176E+03 -0.12986981249E+03  0.71205270351E+03  0.10100000352E+00 0. -1.
       -3    1    3    3    0  502 -0.58964166177E+03 -0.37745938176E+03 -0.16733951943E+03  0.71983011825E+03  0.10100000352E+00 0.  1.
</event>
<event>
 5   0  0.9260916E-05  0.1401009E+04  0.7818609E-02  0.8953088E-01
       -1   -1    0    0    0  501  0.00000000000E+00  0.00000000000E+00  0.55539551747E+03  0.55539551749E+03  0.50400001928E-02 0. -1.
        1   -1    0    0  501    0  0.00000000000E+00  0.00000000000E+00 -0.88352640450E+03  0.88352640451E+03  0.50400001928E-02 0.  1.
    10030    2    1    2    0    0  0.00000000000E+00  0.00000000000E+00 -0.32813088703E+03  0.14389219220E+04  0.14010090716E+04 0.  0.
        1    1    3    3  502    0  0.44903592198E+03  0.15222771291E+03  0.36554373926E+03  0.59868920246E+03  0.50400001928E-02 0. -1.
       -1    1    3    3    0  502 -0.44903592198E+03 -0.15222771291E+03 -0.69367462629E+03  0.84023271954E+03  0.50400001928E-02 0.  1.
</event>
<event>
 5   0  0.1794185E-04  0.1399459E+04  0.7818609E-02  0.8954210E-01
       -2   -1    0    0    0  501  0.00000000000E+00  0.00000000000E+00  0.89364592991E+03  0.89364592991E+03  0.25500000920E-02 0.  1.
        2   -1    0    0  501    0  0.00000000000E+00  0.00000000000E+00 -0.54789190673E+03  0.54789190673E+03  0.25500000920E-02 0. -1.
    10030    2    1    2    0    0  0.00000000000E+00  0.00000000000E+00  0.34575402318E+03  0.14415378366E+04  0.13994589990E+04 0.  0.
        2    1    3    3  502    0  0.11542607428E+03  0.35105147829E+03  0.78493246689E+03  0.86757091734E+03  0.25500000920E-02 0.  1.
       -2    1    3    3    0  502 -0.11542607428E+03 -0.35105147829E+03 -0.43917844371E+03  0.57396691930E+03  0.25500000920E-02 0. -1.
</event>
<event>
 5   0  0.1794185E-04  0.1404325E+04  0.7818609E-02  0.8950694E-01
        2   -1    0    0  501    0  0.00000000000E+00  0.00000000000E+00  0.19064481147E+04  0.19064481147E+04  0.25500000920E-02 0. -1.
       -2   -1    0    0    0  501  0.00000000000E+00  0.00000000000E+00 -0.25861280243E+03  0.25861280244E+03  0.25500000920E-02 0.  1.
    10030    2    1    2    0    0  0.00000000000E+00  0.00000000000E+00  0.16478353122E+04  0.21650609171E+04  0.14043245916E+04 0.  0.
        2    1    3    3  502    0 -0.37866958560E+03  0.59129128665E+03  0.81778000586E+03  0.10778590718E+04  0.25500000920E-02 0. -1.
       -2    1    3    3    0  502  0.37866958560E+03 -0.59129128665E+03  0.83005530637E+03  0.10872018453E+04  0.25500000920E-02 0.  1.
</event>
<event>
 5   0  0.9260916E-05  0.1401958E+04  0.7818609E-02  0.8952403E-01
        1   -1    0    0  501    0  0.00000000000E+00  0.00000000000E+00  0.13239567528E+04  0.13239567528E+04  0.50400001928E-02 0. -1.
       -1   -1    0    0    0  501  0.00000000000E+00  0.00000000000E+00 -0.37113852004E+03  0.37113852008E+03  0.50400001928E-02 0.  1.
    10030    2    1    2    0    0  0.00000000000E+00  0.00000000000E+00  0.95281823277E+03  0.16950952729E+04  0.14019577025E+04 0.  0.
        1    1    3    3  502    0 -0.34012608475E+03  0.95047128259E+02 -0.25571719936E+03  0.43601719713E+03  0.50400001928E-02 0.  1.
       -1    1    3    3    0  502  0.34012608475E+03 -0.95047128259E+02  0.12085354321E+04  0.12590780758E+04  0.50400001928E-02 0. -1.
</event>
<event>
 5   0  0.9828111E-05  0.1400848E+04  0.7818609E-02  0.8953205E-01
       -1   -1    0    0    0  501  0.00000000000E+00  0.00000000000E+00  0.21465264241E+03  0.21465264246E+03  0.50400001928E-02 0.  1.
        1   -1    0    0  501    0  0.00000000000E+00  0.00000000000E+00 -0.22855242426E+04  0.22855242426E+04  0.50400001928E-02 0. -1.
    10030    2    1    2    0    0  0.00000000000E+00  0.00000000000E+00 -0.20708716002E+04  0.25001768850E+04  0.14008480546E+04 0.  0.
        4    1    3    3  502    0  0.31759242682E+03 -0.51403909830E+03 -0.16676818139E+04  0.17737715155E+04  0.12699999809E+01 0. -1.
       -4    1    3    3    0  502 -0.31759242682E+03  0.51403909830E+03 -0.40318978629E+03  0.72640536949E+03  0.12699999809E+01 0.  1.
</event>
<event>
 5   0  0.6671375E-05  0.1391292E+04  0.7818609E-02  0.8960146E-01
        1   -1    0    0  501    0  0.00000000000E+00  0.00000000000E+00  0.12965130765E+04  0.12965130765E+04  0.50400001928E-02 0. -1.
       -1   -1    0    0    0  501  0.00000000000E+00  0.00000000000E+00 -0.37324982631E+03  0.37324982634E+03  0.50400001928E-02 0.  1.
    10030    2    1    2    0    0  0.00000000000E+00  0.00000000000E+00  0.92326325015E+03  0.16697629028E+04  0.13912918898E+04 0.  0.
        5    1    3    3  502    0 -0.55726031125E+03  0.14304897492E+03 -0.76559515080E+01  0.57539792085E+03  0.46999998093E+01 0.  1.
       -5    1    3    3    0  502  0.55726031125E+03 -0.14304897492E+03  0.93091920165E+03  0.10943649820E+04  0.46999998093E+01 0. -1.
</event>
<event>
 5   0  0.1833681E-04  0.1397352E+04  0.7818609E-02  0.8955738E-01
       -2   -1    0    0    0  501  0.00000000000E+00  0.00000000000E+00  0.38423288913E+03  0.38423288914E+03  0.25500000920E-02 0. -1.
        2   -1    0    0  501    0  0.00000000000E+00  0.00000000000E+00 -0.12704484665E+04  0.12704484665E+04  0.25500000920E-02 0.  1.
    10030    2    1    2    0    0  0.00000000000E+00  0.00000000000E+00 -0.88621557734E+03  0.16546813556E+04  0.13973519024E+04 0.  0.
        4    1    3    3  502    0 -0.10630500310E+02  0.31151041409E+03 -0.11835548822E+04  0.12239099304E+04  0.12699999809E+01 0.  1.
       -4    1    3    3    0  502  0.10630500310E+02 -0.31151041409E+03  0.29733930490E+03  0.43077142519E+03  0.12699999809E+01 0. -1.
</event>
<event>
 5   0  0.6671375E-05  0.1401842E+04  0.7818609E-02  0.8952487E-01
        1   -1    0    0  501    0  0.00000000000E+00  0.00000000000E+00  0.78607646107E+03  0.78607646109E+03  0.50400001928E-02 0. -1.
       -1   -1    0    0    0  501  0.00000000000E+00  0.00000000000E+00 -0.62499006801E+03  0.62499006803E+03  0.50400001928E-02 0.  1.
    10030    2    1    2    0    0  0.00000000000E+00  0.00000000000E+00  0.16108639306E+03  0.14110665291E+04  0.14018416186E+04 0.  0.
        5    1    3    3  502    0  0.13520166422E+03 -0.49143350872E+03  0.56483452399E+03  0.76081963237E+03  0.46999998093E+01 0. -1.
       -5    1    3    3    0  502 -0.13520166422E+03  0.49143350872E+03 -0.40374813093E+03  0.65024689675E+03  0.46999998093E+01 0.  1.
</event>
<event>
 5   0  0.1712327E-04  0.1404195E+04  0.7818609E-02  0.8950787E-01
        2   -1    0    0  501    0  0.00000000000E+00  0.00000000000E+00  0.76112567677E+03  0.76112567678E+03  0.25500000920E-02 0. -1.
       -2   -1    0    0    0  501  0.00000000000E+00  0.00000000000E+00 -0.64764758988E+03  0.64764758989E+03  0.25500000920E-02 0.  1.
    10030    2    1    2    0    0  0.00000000000E+00  0.00000000000E+00  0.11347808689E+03  0.14087732667E+04  0.14041954425E+04 0.  0.
        1    1    3    3  502    0 -0.90412735802E+02 -0.21738498490E+03  0.72034120278E+03  0.75784044686E+03  0.50400001928E-02 0. -1.
       -1    1    3    3    0  502  0.90412735802E+02  0.21738498490E+03 -0.60686311589E+03  0.65093281981E+03  0.50400001928E-02 0.  1.
</event>
<event>
 5   0  0.6671375E-05  0.1397340E+04  0.7818609E-02  0.8955746E-01
       -1   -1    0    0    0  501  0.00000000000E+00  0.00000000000E+00  0.64775378915E+03  0.64775378917E+03  0.50400001928E-02 0. -1.
        1   -1    0    0  501    0  0.00000000000E+00  0.00000000000E+00 -0.75358842939E+03  0.75358842940E+03  0.50400001928E-02 0.  1.
    10030    2    1    2    0    0  0.00000000000E+00  0.00000000000E+00 -0.10583464024E+03  0.14013422186E+04  0.13973399881E+04 0.  0.
        5    1    3    3  502    0  0.37550785774E+03  0.44766356292E+03  0.33120565225E+03  0.67166069623E+03  0.46999998093E+01 0. -1.
       -5    1    3    3    0  502 -0.37550785774E+03 -0.44766356292E+03 -0.43704029248E+03  0.72968152234E+03  0.46999998093E+01 0.  1.
</event>
<event>
 5   0  0.9900839E-05  0.1382881E+04  0.7818609E-02  0.8966304E-01
       -1   -1    0    0    0  501  0.00000000000E+00  0.00000000000E+00  0.56874604874E+03  0.56874604876E+03  0.50400001928E-02 0. -1.
        1   -1    0    0  501    0  0.00000000000E+00  0.00000000000E+00 -0.84060403731E+03  0.84060403733E+03  0.50400001928E-02 0.  1.
    10030    2    1    2    0    0  0.00000000000E+00  0.00000000000E+00 -0.27185798857E+03  0.14093500861E+04  0.13828813757E+04 0.  0.
        3    1    3    3  502    0  0.22883739325E+03  0.33869115938E+03 -0.70428768375E+03  0.81430915854E+03  0.10100000352E+00 0.  1.
       -3    1    3    3    0  502 -0.22883739325E+03 -0.33869115938E+03  0.43242969518E+03  0.59504092755E+03  0.10100000352E+00 0. -1.
</event>
<event>
 5   0  0.9900839E-05  0.1397865E+04  0.7818609E-02  0.8955365E-01
       -1   -1    0    0    0  501  0.00000000000E+00  0.00000000000E+00  0.85489903396E+03  0.85489903398E+03  0.50400001928E-02 0.  1.
        1   -1    0    0  501    0  0.00000000000E+00  0.00000000000E+00 -0.57142024381E+03  0.57142024383E+03  0.50400001928E-02 0. -1.
    10030    2    1    2    0    0  0.00000000000E+00  0.00000000000E+00  0.28347879015E+03  0.14263192778E+04  0.13978649641E+04 0.  0.
        3    1    3    3  502    0 -0.23624131474E+03  0.39254955275E+03 -0.39683196223E+03  0.60611939963E+03  0.10100000352E+00 0. -1.
       -3    1    3    3    0  502  0.23624131474E+03 -0.39254955275E+03  0.68031075238E+03  0.82019987818E+03  0.10100000352E+00 0.  1.
</event>
<event>
 5   0  0.6671375E-05  0.1396516E+04  0.7818609E-02  0.8956344E-01
       -1   -1    0    0    0  501  0.00000000000E+00  0.00000000000E+00  0.49508635989E+03  0.49508635992E+03  0.50400001928E-02 0. -1.
        1   -1    0    0  501    0  0.00000000000E+00  0.00000000000E+00 -0.98480635395E+03  0.98480635397E+03  0.50400001928E-02 0.  1.
    10030    2    1    2    0    0  0.00000000000E+00  0.00000000000E+00 -0.48971999406E+03  0.14798927139E+04  0.13965159405E+04 0.  0.
        5    1    3    3  502    0 -0.69567718466E+03 -0.55018736199E+02 -0.22004626759E+03  0.73173509992E+03  0.46999998093E+01 0. -1.
       -5    1    3    3    0  502  0.69567718466E+03  0.55018736199E+02 -0.26967372647E+03  0.74815761396E+03  0.46999998093E+01 0.  1.
</event>
<event>
 5   0  0.1833681E-04  0.1399692E+04  0.7818609E-02  0.8954041E-01
       -2   -1    0    0    0  501  0.00000000000E+00  0.00000000000E+00  0.17333074555E+04  0.17333074555E+04  0.25500000920E-02 0. -1.
        2   -1    0    0  501    0  0.00000000000E+00  0.00000000000E+00 -0.28257229134E+03  0.28257229135E+03  0.25500000920E-02 0.  1.
    10030    2    1    2    0    0  0.00000000000E+00  0.00000000000E+00  0.14507351642E+04  0.20158797469E+04  0.13996923367E+04 0.  0.
        4    1    3    3  502    0  0.12764358671E+03  0.14575060768E+03 -0.24317751369E+03  0.31092288583E+03  0.12699999809E+01 0.  1.
       -4    1    3    3    0  502 -0.12764358671E+03 -0.14575060768E+03  0.16939126779E+04  0.17049568610E+04  0.12699999809E+01 0. -1.
</event>
<event>
 5   0  0.1766237E-04  0.1398682E+04  0.7818609E-02  0.8954773E-01
        2   -1    0    0  501    0  0.00000000000E+00  0.00000000000E+00  0.69505413838E+03  0.69505413839E+03  0.25500000920E-02 0.  1.
       -2   -1    0    0    0  501  0.00000000000E+00  0.00000000000E+00 -0.70365418275E+03  0.70365418276E+03  0.25500000920E-02 0. -1.
    10030    2    1    2    0    0  0.00000000000E+00  0.00000000000E+00 -0.86000443688E+01  0.13987083211E+04  0.13986818819E+04 0.  0.
        3    1    3    3  502    0  0.43254142556E+03 -0.15556908752E+02 -0.55362237479E+03  0.70273170293E+03  0.10100000352E+00 0. -1.
       -3    1    3    3    0  502 -0.43254142556E+03  0.15556908752E+02  0.54502233042E+03  0.69597661821E+03  0.10100000352E+00 0.  1.
</event>
<event>
 5   0  0.1794185E-04  0.1400766E+04  0.7818609E-02  0.8953264E-01
       -2   -1    0    0    0  501  0.00000000000E+00  0.00000000000E+00  0.44646214362E+03  0.44646214362E+03  0.25500000920E-02 0. -1.
        2   -1    0    0  501    0  0.00000000000E+00  0.00000000000E+00 -0.10987186031E+04  0.10987186031E+04  0.25500000920E-02 0.  1.
    10030    2    1    2    0    0  0.00000000000E+00  0.00000000000E+00 -0.65225645947E+03  0.15451807467E+04  0.14007658802E+04 0.  0.
        2    1    3    3  502    0 -0.26332746948E+03 -0.47703836607E+03  0.15927121534E+03  0.56769206347E+03  0.25500000920E-02 0. -1.
       -2    1    3    3    0  502  0.26332746948E+03  0.47703836607E+03 -0.81152767481E+03  0.97748868325E+03  0.25500000920E-02 0.  1.
</event>
<event>
 5   0  0.1712327E-04  0.1399461E+04  0.7818609E-02  0.8954209E-01
       -2   -1    0    0    0  501  0.00000000000E+00  0.00000000000E+00  0.25764105863E+03  0.25764105865E+03  0.25500000920E-02 0. -1.
        2   -1    0    0  501    0  0.00000000000E+00  0.00000000000E+00 -0.19004058373E+04  0.19004058373E+04  0.25500000920E-02 0.  1.
    10030    2    1    2    0    0  0.00000000000E+00  0.00000000000E+00 -0.16427647786E+04  0.21580468959E+04  0.13994607129E+04 0.  0.
        1    1    3    3  502    0 -0.26548364849E+03 -0.18379508194E+03  0.13588594541E+03  0.35032440672E+03  0.50400001928E-02 0. -1.
       -1    1    3    3    0  502  0.26548364849E+03  0.18379508194E+03 -0.17786507241E+04  0.18077224892E+04  0.50400001928E-02 0.  1.
</event>
<event>
 5   0  0.1780171E-04  0.1403462E+04  0.7818609E-02  0.8951316E-01
        2   -1    0    0  501    0  0.00000000000E+00  0.00000000000E+00  0.23725481508E+04  0.23725481508E+04  0.25500000920E-02 0.  1.
       -2   -1    0    0    0  501  0.00000000000E+00  0.00000000000E+00 -0.20755172758E+03  0.20755172760E+03  0.25500000920E-02 0. -1.
    10030    2    1    2    0    0  0.00000000000E+00  0.00000000000E+00  0.21649964232E+04  0.25800998784E+04  0.14034621014E+04 0.  0.
        5    1    3    3  502    0  0.22556195963E+03  0.46593782369E+02  0.23010492211E+04  0.23125524396E+04  0.46999998093E+01 0.  1.
       -5    1    3    3    0  502 -0.22556195963E+03 -0.46593782369E+02 -0.13605279787E+03  0.26754743877E+03  0.46999998093E+01 0. -1.
</event>
<event>
 5   0  0.1766237E-04  0.1398335E+04  0.7818609E-02  0.8955025E-01
       -2   -1    0    0    0  501  0.00000000000E+00  0.00000000000E+00  0.24344363291E+03  0.24344363293E+03  0.25500000920E-02 0.  1.
        2   -1    0    0  501    0  0.00000000000E+00  0.00000000000E+00 -0.20080016425E+04  0.20080016425E+04  0.25500000920E-02 0. -1.
    10030    2    1    2    0    0  0.00000000000E+00  0.00000000000E+00 -0.17645580096E+04  0.22514452754E+04  0.13983350310E+04 0.  0.
        3    1    3    3  502    0  0.61525237055E+03  0.25170405045E+03 -0.53342486101E+03  0.85231009675E+03  0.10100000352E+00 0. -1.
       -3    1    3    3    0  502 -0.61525237055E+03 -0.25170405045E+03 -0.12311331486E+04  0.13991351787E+04  0.10100000352E+00 0.  1.
</event>
<event>
 5   0  0.9260916E-05  0.1399436E+04  0.7818609E-02  0.8954227E-01
        1   -1    0    0  501    0  0.00000000000E+00  0.00000000000E+00  0.72497702177E+03  0.72497702179E+03  0.50400001928E-02 0.  1.
       -1   -1    0    0    0  501  0.00000000000E+00  0.00000000000E+00 -0.67533928586E+03  0.67533928588E+03  0.50400001928E-02 0. -1.
    10030    2    1    2    0    0  0.00000000000E+00  0.00000000000E+00  0.49637735913E+02  0.14003163077E+04  0.13994362639E+04 0.  0.
        1    1    3    3  502    0 -0.27892176551E+03  0.46812102051E+02  0.66523442194E+03  0.72285929497E+03  0.50400001928E-02 0.  1.
       -1    1    3    3    0  502  0.27892176551E+03 -0.46812102051E+02 -0.61559668603E+03  0.67745701269E+03  0.50400001928E-02 0. -1.
</event>
<event>
 5   0  0.9900839E-05  0.1399870E+04  0.7818609E-02  0.8953912E-01
       -1   -1    0    0    0  501  0.00000000000E+00  0.00000000000E+00  0.38328871101E+03  0.38328871104E+03  0.50400001928E-02 0.  1.
        1   -1    0    0  501    0  0.00000000000E+00  0.00000000000E+00 -0.12781727443E+04  0.12781727443E+04  0.50400001928E-02 0. -1.
    10030    2    1    2    0    0  0.00000000000E+00  0.00000000000E+00 -0.89488403328E+03  0.16614614553E+04  0.13998702563E+04 0.  0.
        3    1    3    3  502    0 -0.81849911638E+02 -0.34499268633E+03 -0.11636948955E+04  0.12165135353E+04  0.10100000352E+00 0. -1.
       -3    1    3    3    0  502  0.81849911638E+02  0.34499268633E+03  0.26881086222E+03  0.44494791999E+03  0.10100000352E+00 0.  1.
</event>
<event>
 5   0  0.6671375E-05  0.1401110E+04  0.7818609E-02  0.8953015E-01
       -1   -1    0    0    0  501  0.00000000000E+00  0.00000000000E+00  0.55909898794E+03  0.55909898796E+03  0.50400001928E-02 0.  1.
        1   -1    0    0  501    0  0.00000000000E+00  0.00000000000E+00 -0.87780041957E+03  0.87780041959E+03  0.50400001928E-02 0. -1.
    10030    2    1    2    0    0  0.00000000000E+00  0.00000000000E+00 -0.31870143163E+03  0.14368994075E+04  0.14011100260E+04 0.  0.
        5    1    3    3  502    0 -0.62386593788E+03 -0.28875484405E+03 -0.29757926153E+03  0.74910852038E+03  0.46999998093E+01 0. -1.
       -5    1    3    3    0  502  0.62386593788E+03  0.28875484405E+03 -0.21122170104E+02  0.68779088717E+03  0.46999998093E+01 0.  1.
</event>
<event>
 5   0  0.9900839E-05  0.1400003E+04  0.7818609E-02  0.8953816E-01
       -1   -1    0    0    0  501  0.00000000000E+00  0.00000000000E+00  0.51325207800E+03  0.51325207803E+03  0.50400001928E-02 0.  1.
        1   -1    0    0  501    0  0.00000000000E+00  0.00000000000E+00 -0.95470066793E+03  0.95470066794E+03  0.50400001928E-02 0. -1.
    10030    2    1    2    0    0  0.00000000000E+00  0.00000000000E+00 -0.44144858993E+03  0.14679527460E+04  0.14000030024E+04 0.  0.
        3    1    3    3  502    0  0.56725026312E+03  0.26589542666E+03  0.10672922709E+03  0.63550324708E+03  0.10100000352E+00 0.  1.
       -3    1    3    3    0  502 -0.56725026312E+03 -0.26589542666E+03 -0.54817781701E+03  0.83244949889E+03  0.10100000352E+00 0. -1.
</event>
<event>
 5   0  0.1794185E-04  0.1397434E+04  0.7818609E-02  0.8955678E-01
        2   -1    0    0  501    0  0.00000000000E+00  0.00000000000E+00  0.11597981786E+04  0.11597981786E+04  0.25500000920E-02 0. -1.
       -2   -1    0    0    0  501  0.00000000000E+00  0.00000000000E+00 -0.42094021541E+03  0.42094021542E+03  0.25500000920E-02 0.  1.
    10030    2    1    2    0    0  0.00000000000E+00  0.00000000000E+00  0.73885796315E+03  0.15807383940E+04  0.13974343564E+04 0.  0.
        2    1    3    3  502    0  0.58045451509E+03 -0.87604812569E+01 -0.70423090787E+02  0.58477654010E+03  0.25500000920E-02 0.  1.
       -2    1    3    3    0  502 -0.58045451509E+03  0.87604812569E+01  0.80928105393E+03  0.99596185388E+03  0.25500000920E-02 0. -1.
</event>
<event>
 5   0  0.1766237E-04  0.1411100E+04  0.7818609E-02  0.8945823E-01
       -2   -1    0    0    0  501  0.00000000000E+00  0.00000000000E+00  0.47883908551E+03  0.47883908552E+03  0.25500000920E-02 0.  1.
        2   -1    0    0  501    0  0.00000000000E+00  0.00000000000E+00 -0.10395995725E+04  0.10395995725E+04  0.25500000920E-02 0. -1.
    10030    2    1    2    0    0  0.00000000000E+00  0.00000000000E+00 -0.56076048698E+03  0.15184386580E+04  0.14111001504E+04 0.  0.
        3    1    3    3  502    0 -0.24359482333E+03  0.12754600295E+02 -0.99278209653E+03  0.10223098450E+04  0.10100000352E+00 0. -1.
       -3    1    3    3    0  502  0.24359482333E+03 -0.12754600295E+02  0.43202160955E+03  0.49612881302E+03  0.10100000352E+00 0.  1.
</event>
<event>
 5   0  0.9900839E-05  0.1397805E+04  0.7818609E-02  0.8955409E-01
        1   -1    0    0  501    0  0.00000000000E+00  0.00000000000E+00  0.11341606406E+04  0.11341606406E+04  0.50400001928E-02 0. -1.
       -1   -1    0    0    0  501  0.00000000000E+00  0.00000000000E+00 -0.43068407066E+03  0.43068407069E+03  0.50400001928E-02 0.  1.
    10030    2    1    2    0    0  0.00000000000E+00  0.00000000000E+00  0.70347656991E+03  0.15648447113E+04  0.13978053105E+04 0.  0.
        3    1    3    3  502    0 -0.76705716115E+02  0.46610769412E+03 -0.22491324938E+03  0.52318842624E+03  0.10100000352E+00 0.  1.
       -3    1    3    3    0  502  0.76705716115E+02 -0.46610769412E+03  0.92838981929E+03  0.10416562850E+04  0.10100000352E+00 0. -1.
</event>
<event>
 5   0  0.9978422E-05  0.1399750E+04  0.7818609E-02  0.8954000E-01
       -1   -1    0    0    0  501  0.00000000000E+00  0.00000000000E+00  0.46570506159E+03  0.46570506162E+03  0.50400001928E-02 0. -1.
        1   -1    0    0  501    0  0.00000000000E+00  0.00000000000E+00 -0.10517916964E+04  0.10517916964E+04  0.50400001928E-02 0.  1.
    10030    2    1    2    0    0  0.00000000000E+00  0.00000000000E+00 -0.58608663480E+03  0.15174967580E+04  0.13997495730E+04 0.  0.
        2    1    3    3  502    0 -0.19090147318E+03 -0.64128226915E+03 -0.51558759227E+03  0.84469928761E+03  0.25500000920E-02 0.  1.
       -2    1    3    3    0  502  0.19090147318E+03  0.64128226915E+03 -0.70499042538E+02  0.67279747041E+03  0.25500000920E-02 0. -1.
</event>
<event>
 5   0  0.1794185E-04  0.1403896E+04  0.7818609E-02  0.8951003E-01
        2   -1    0    0  501    0  0.00000000000E+00  0.00000000000E+00  0.12674530896E+04  0.12674530896E+04  0.25500000920E-02 0.  1.
       -2   -1    0    0    0  501  0.00000000000E+00  0.00000000000E+00 -0.38875676379E+03  0.38875676380E+03  0.25500000920E-02 0. -1.
    10030    2    1    2    0    0  0.00000000000E+00  0.00000000000E+00  0.87869632578E+03  0.16562098534E+04  0.14038959525E+04 0.  0.
        2    1    3    3  502    0 -0.61196661537E+03  0.29077088279E+03  0.65585281683E+03  0.94297071108E+03  0.25500000920E-02 0.  1.
       -2    1    3    3    0  502  0.61196661537E+03 -0.29077088279E+03  0.22284350895E+03  0.71323914229E+03  0.25500000920E-02 0. -1.
</event>
<event>
 5   0  0.9828111E-05  0.1396540E+04  0.7818609E-02  0.8956327E-01
        1   -1    0    0  501    0  0.00000000000E+00  0.00000000000E+00  0.26372898676E+04  0.26372898676E+04  0.50400001928E-02 0. -1.
       -1   -1    0    0    0  501  0.00000000000E+00  0.00000000000E+00 -0.18487944858E+03  0.18487944865E+03  0.50400001928E-02 0.  1.
    10030    2    1    2    0    0  0.00000000000E+00  0.00000000000E+00  0.24524104191E+04  0.28221693163E+04  0.13965395756E+04 0.  0.
        4    1    3    3  502    0 -0.41013359939E+03 -0.52003435237E+03  0.16732326991E+04  0.17995428796E+04  0.12699999809E+01 0. -1.
       -4    1    3    3    0  502  0.41013359939E+03  0.52003435237E+03  0.77917771992E+03  0.10226264367E+04  0.12699999809E+01 0.  1.
</event>
<event>
 5   0  0.6671375E-05  0.1396521E+04  0.7818609E-02  0.8956340E-01
        1   -1    0    0  501    0  0.00000000000E+00  0.00000000000E+00  0.88671207981E+03  0.88671207983E+03  0.50400001928E-02 0.  1.
       -1   -1    0    0    0  501  0.00000000000E+00  0.00000000000E+00 -0.54986052406E+03  0.54986052409E+03  0.50400001928E-02 0. -1.
    10030    2    1    2    0    0  0.00000000000E+00  0.00000000000E+00  0.33685155575E+03  0.14365726039E+04  0.13965213481E+04 0.  0.
        5    1    3    3  502    0 -0.20655815491E+03  0.41695765422E+03 -0.36710620949E+03  0.59271326610E+03  0.46999998093E+01 0. -1.
       -5    1    3    3    0  502  0.20655815491E+03 -0.41695765422E+03  0.70395776524E+03  0.84385933781E+03  0.46999998093E+01 0.  1.
</event>
<event>
 5   0  0.1712327E-04  0.1399716E+04  0.7818609E-02  0.8954024E-01
        2   -1    0    0  501    0  0.00000000000E+00  0.00000000000E+00  0.15294178214E+04  0.15294178214E+04  0.25500000920E-02 0.  1.
       -2   -1    0    0    0  501  0.00000000000E+00  0.00000000000E+00 -0.32025337812E+03  0.32025337813E+03  0.25500000920E-02 0. -1.
    10030    2    1    2    0    0  0.00000000000E+00  0.00000000000E+00  0.12091644433E+04  0.18496711996E+04  0.13997160053E+04 0.  0.
        1    1    3    3  502    0  0.27114220206E+03 -0.24553798359E+03  0.13930357199E+04  0.14402623067E+04  0.50400001928E-02 0.  1.
       -1    1    3    3    0  502 -0.27114220206E+03  0.24553798359E+03 -0.18387127664E+03  0.40940889282E+03  0.50400001928E-02 0. -1.
</event>
<event>
 5   0  0.9828111E-05  0.1399371E+04  0.7818609E-02  0.8954274E-01
       -1   -1    0    0    0  501  0.00000000000E+00  0.00000000000E+00  0.89390719537E+03  0.89390719539E+03  0.50400001928E-02 0.  1.
        1   -1    0    0  501    0  0.00000000000E+00  0.00000000000E+00 -0.54766269349E+03  0.54766269351E+03  0.50400001928E-02 0. -1.
    10030    2    1    2    0    0  0.00000000000E+00  0.00000000000E+00  0.34624450188E+03  0.14415698889E+04  0.13993707477E+04 0.  0.
        4    1    3    3  502    0  0.25868377621E+03 -0.20637368688E+03  0.80819522402E+03  0.87332040382E+03  0.12699999809E+01 0.  1.
       -4    1    3    3    0  502 -0.25868377621E+03  0.20637368688E+03 -0.46195072214E+03  0.56824948508E+03  0.12699999809E+01 0. -1.
</event>
<event>
 5   0  0.9900839E-05  0.1397953E+04  0.7818609E-02  0.8955302E-01
        1   -1    0    0  501    0  0.00000000000E+00  0.00000000000E+00  0.12889830818E+04  0.12889830818E+04  0.50400001928E-02 0. -1.
       -1   -1    0    0    0  501  0.00000000000E+00  0.00000000000E+00 -0.37903352601E+03  0.37903352604E+03  0.50400001928E-02 0.  1.
    10030    2    1    2    0    0  0.00000000000E+00  0.00000000000E+00  0.90994955580E+03  0.16680166079E+04  0.13979525063E+04 0.  0.
        3    1    3    3  502    0  0.34024647545E+03 -0.55436680246E+02  0.11804932590E+04  0.12297988593E+04  0.10100000352E+00 0. -1.
       -3    1    3    3    0  502 -0.34024647545E+03  0.55436680246E+02 -0.27054370323E+03  0.43821774853E+03  0.10100000352E+00 0.  1.
</event>
<event>
 5   0  0.9978422E-05  0.1401081E+04  0.7818609E-02  0.8953036E-01
        1   -1    0    0  501    0  0.00000000000E+00  0.00000000000E+00  0.22216880332E+03  0.22216880338E+03  0.50400001928E-02 0.  1.
       -1   -1    0    0    0  501  0.00000000000E+00  0.00000000000E+00 -0.22089386838E+04  0.22089386838E+04  0.50400001928E-02 0. -1.
    10030    2    1    2    0    0  0.00000000000E+00  0.00000000000E+00 -0.19867698804E+04  0.24311074872E+04  0.14010813882E+04 0.  0.
        2    1    3    3  502    0  0.64794757894E+03 -0.22571381925E+03 -0.12386176730E+04  0.14159648771E+04  0.25500000920E-02 0.  1.
       -2    1    3    3    0  502 -0.64794757894E+03  0.22571381925E+03 -0.74815220740E+03  0.10151426100E+04  0.25500000920E-02 0. -1.
</event>
<event>
 5   0  0.1712327E-04  0.1400357E+04  0.7818609E-02  0.8953560E-01
       -2   -1    0    0    0  501  0.00000000000E+00  0.00000000000E+00  0.33435497304E+03  0.33435497305E+03  0.25500000920E-02 0. -1.
        2   -1    0    0  501    0  0.00000000000E+00  0.00000000000E+00 -0.14662555898E+04  0.14662555898E+04  0.25500000920E-02 0.  1.
    10030    2    1    2    0    0  0.00000000000E+00  0.00000000000E+00 -0.11319006168E+04  0.18006105629E+04  0.14003568805E+04 0.  0.
        1    1    3    3  502    0 -0.46099630813E+03  0.45297925394E+03 -0.21963158742E+03  0.68260225229E+03  0.50400001928E-02 0. -1.
       -1    1    3    3    0  502  0.46099630813E+03 -0.45297925394E+03 -0.91226902935E+03  0.11180083106E+04  0.50400001928E-02 0.  1.
</event>
<event>
 5   0  0.1780171E-04  0.1399824E+04  0.7818609E-02  0.8953946E-01
       -2   -1    0    0    0  501  0.00000000000E+00  0.00000000000E+00  0.64858870943E+03  0.64858870943E+03  0.25500000920E-02 0.  1.
        2   -1    0    0  501    0  0.00000000000E+00  0.00000000000E+00 -0.75529666004E+03  0.75529666005E+03  0.25500000920E-02 0. -1.
    10030    2    1    2    0    0  0.00000000000E+00  0.00000000000E+00 -0.10670795062E+03  0.14038853695E+04  0.13998241118E+04 0.  0.
        5    1    3    3  502    0  0.28163925943E+03  0.52700064714E+03 -0.41883470050E+03  0.72972251636E+03  0.46999998093E+01 0. -1.
       -5    1    3    3    0  502 -0.28163925943E+03 -0.52700064714E+03  0.31212674989E+03  0.67416285312E+03  0.46999998093E+01 0.  1.
</event>
<event>
 5   0  0.6671375E-05  0.1399753E+04  0.7818609E-02  0.8953998E-01
       -1   -1    0    0    0  501  0.00000000000E+00  0.00000000000E+00  0.42086804011E+03  0.42086804014E+03  0.50400001928E-02 0.  1.
        1   -1    0    0  501    0  0.00000000000E+00  0.00000000000E+00 -0.11638492356E+04  0.11638492357E+04  0.50400001928E-02 0. -1.
    10030    2    1    2    0    0  0.00000000000E+00  0.00000000000E+00 -0.74298119553E+03  0.15847172758E+04  0.13997527593E+04 0.  0.
        5    1    3    3  502    0 -0.61468126764E+03  0.33003298889E+03 -0.43401534801E+03  0.82167283443E+03  0.46999998093E+01 0. -1.
       -5    1    3    3    0  502  0.61468126764E+03 -0.33003298889E+03 -0.30896584753E+03  0.76304444135E+03  0.46999998093E+01 0.  1.
</event>
<event>
 5   0  0.1833681E-04  0.1400102E+04  0.7818609E-02  0.8953745E-01
       -2   -1    0    0    0  501  0.00000000000E+00  0.00000000000E+00  0.63506571240E+03  0.63506571241E+03  0.25500000920E-02 0.  1.
        2   -1    0    0  501    0  0.00000000000E+00  0.00000000000E+00 -0.77168607620E+03  0.77168607620E+03  0.25500000920E-02 0. -1.
    10030    2    1    2    0    0  0.00000000000E+00  0.00000000000E+00 -0.13662036380E+03  0.14067517886E+04  0.14001019502E+04 0.  0.
        4    1    3    3  502    0  0.25270636949E+02 -0.49723322420E+03 -0.56277587129E+03  0.75139721755E+03  0.12699999809E+01 0. -1.
       -4    1    3    3    0  502 -0.25270636949E+02  0.49723322420E+03  0.42615550749E+03  0.65535457106E+03  0.12699999809E+01 0.  1.
</event>
<event>
 5   0  0.9260916E-05  0.1401561E+04  0.7818609E-02  0.8952689E-01
       -1   -1    0    0    0  501  0.00000000000E+00  0.00000000000E+00  0.65777174113E+03  0.65777174115E+03  0.50400001928E-02 0.  1.
        1   -1    0    0  501    0  0.00000000000E+00  0.00000000000E+00 -0.74660127888E+03  0.74660127890E+03  0.50400001928E-02 0. -1.
    10030    2    1    2    0    0  0.00000000000E+00  0.00000000000E+00 -0.88829537748E+02  0.14043730200E+04  0.14015608773E+04 0.  0.
        1    1    3    3  502    0 -0.24547788461E+03 -0.25261870462E+03 -0.65145010060E+03  0.74058276739E+03  0.50400001928E-02 0. -1.
       -1    1    3    3    0  502  0.24547788461E+03  0.25261870462E+03  0.56262056285E+03  0.66379025266E+03  0.50400001928E-02 0.  1.
</event>
<event>
 5   0  0.6671375E-05  0.1400621E+04  0.7818609E-02  0.8953369E-01
        1   -1    0    0  501    0  0.00000000000E+00  0.00000000000E+00  0.34838097914E+03  0.34838097917E+03  0.50400001928E-02 0. -1.
       -1   -1    0    0    0  501  0.00000000000E+00  0.00000000000E+00 -0.14077534249E+04  0.14077534249E+04  0.50400001928E-02 0.  1.
    10030    2    1    2    0    0  0.00000000000E+00  0.00000000000E+00 -0.10593724458E+04  0.17561344041E+04  0.14006206004E+04 0.  0.
        5    1    3    3  502    0 -0.37786392698E+03 -0.46031354818E+03 -0.67735650308E+02  0.59939963153E+03  0.46999998093E+01 0. -1.
       -5    1    3    3    0  502  0.37786392698E+03  0.46031354818E+03 -0.99163679548E+03  0.11567347726E+04  0.46999998093E+01 0.  1.
</event>
<event>
 5   0  0.9978422E-05  0.1400217E+04  0.7818609E-02  0.8953662E-01
       -1   -1    0    0    0  501  0.00000000000E+00  0.00000000000E+00  0.42541987975E+03  0.42541987978E+03  0.50400001928E-02 0.  1.
        1   -1    0    0  501    0  0.00000000000E+00  0.00000000000E+00 -0.11521601796E+04  0.11521601797E+04  0.50400001928E-02 0. -1.
    10030    2    1    2    0    0  0.00000000000E+00  0.00000000000E+00 -0.72674029989E+03  0.15775800594E+04  0.14002169048E+04 0.  0.
        2    1    3    3  502    0 -0.54115493580E+03  0.28550458970E+03 -0.74675257450E+03  0.96540195919E+03  0.25500000920E-02 0.  1.
       -2    1    3    3    0  502  0.54115493580E+03 -0.28550458970E+03  0.20012274612E+02  0.61217810025E+03  0.25500000920E-02 0. -1.
</event>
<event>
 5   0  0.9978422E-05  0.1394105E+04  0.7818609E-02  0.8958097E-01
       -1   -1    0    0    0  501  0.00000000000E+00  0.00000000000E+00  0.43033268184E+03  0.43033268187E+03  0.50400001928E-02 0. -1.
        1   -1    0    0  501    0  0.00000000000E+00  0.00000000000E+00 -0.11290851268E+04  0.11290851268E+04  0.50400001928E-02 0.  1.
    10030    2    1    2    0    0  0.00000000000E+00  0.00000000000E+00 -0.69875244496E+03  0.15594178087E+04  0.13941050616E+04 0.  0.
        2    1    3    3  502    0 -0.13738649024E+03 -0.58626463379E+03 -0.74215699351E+03  0.95570825651E+03  0.25500000920E-02 0.  1.
       -2    1    3    3    0  502  0.13738649024E+03  0.58626463379E+03  0.43404548556E+02  0.60370955217E+03  0.25500000920E-02 0. -1.
</event>
<event>
 5   0  0.6671375E-05  0.1399626E+04  0.7818609E-02  0.8954089E-01
       -1   -1    0    0    0  501  0.00000000000E+00  0.00000000000E+00  0.34877585984E+03  0.34877585988E+03  0.50400001928E-02 0.  1.
        1   -1    0    0  501    0  0.00000000000E+00  0.00000000000E+00 -0.14041630776E+04  0.14041630776E+04  0.50400001928E-02 0. -1.
    10030    2    1    2    0    0  0.00000000000E+00  0.00000000000E+00 -0.10553872177E+04  0.17529389375E+04  0.13996259283E+04 0.  0.
        5    1    3    3  502    0 -0.38914280618E+03 -0.57273952126E+03 -0.40087323991E+03  0.80011507127E+03  0.46999998093E+01 0.  1.
       -5    1    3    3    0  502  0.38914280618E+03  0.57273952126E+03 -0.65451397783E+03  0.95282386619E+03  0.46999998093E+01 0. -1.
</event>
<event>
 5   0  0.6671375E-05  0.1401874E+04  0.7818609E-02  0.8952463E-01
        1   -1    0    0  501    0  0.00000000000E+00  0.00000000000E+00  0.53562228646E+03  0.53562228648E+03  0.50400001928E-02 0.  1.
       -1   -1    0    0    0  501  0.00000000000E+00  0.00000000000E+00 -0.91727480049E+03  0.91727480051E+03  0.50400001928E-02 0. -1.
    10030    2    1    2    0    0  0.00000000000E+00  0.00000000000E+00 -0.38165251404E+03  0.14528970870E+04  0.14018742112E+04 0.  0.
        5    1    3    3  502    0  0.84386749194E+02  0.27411059794E+03  0.47200804653E+03  0.55233271615E+03  0.46999998093E+01 0.  1.
       -5    1    3    3    0  502 -0.84386749194E+02 -0.27411059794E+03 -0.85366056057E+03  0.90056437083E+03  0.46999998093E+01 0. -1.
</event>
<event>
 5   0  0.9978422E-05  0.1401469E+04  0.7818609E-02  0.8952756E-01
        1   -1    0    0  501    0  0.00000000000E+00  0.00000000000E+00  0.22360800430E+03  0.22360800436E+03  0.50400001928E-02 0. -1.
       -1   -1    0    0    0  501  0.00000000000E+00  0.00000000000E+00 -0.21959350828E+04  0.21959350828E+04  0.50400001928E-02 0.  1.
    10030    2    1    2    0    0  0.00000000000E+00  0.00000000000E+00 -0.19723270785E+04  0.24195430871E+04  0.14014687460E+04 0.  0.
        2    1    3    3  502    0 -0.40308066184E+03  0.56842092098E+03 -0.85868421822E+03  0.11058548503E+04  0.25500000920E-02 0.  1.
       -2    1    3    3    0  502  0.40308066184E+03 -0.56842092098E+03 -0.11136428603E+04  0.13136882368E+04  0.25500000920E-02 0. -1.
</event>
<event>
 5   0  0.9978422E-05  0.1401282E+04  0.7818609E-02  0.8952891E-01
       -1   -1    0    0    0  501  0.00000000000E+00  0.00000000000E+00  0.45750409804E+03  0.45750409807E+03  0.50400001928E-02 0. -1.
        1   -1    0    0  501    0  0.00000000000E+00  0.00000000000E+00 -0.10729916581E+04  0.10729916581E+04  0.50400001928E-02 0.  1.
    10030    2    1    2    0    0  0.00000000000E+00  0.00000000000E+00 -0.61548756004E+03  0.15304957562E+04  0.14012823852E+04 0.  0.
        2    1    3    3  502    0  0.32923711864E+03 -0.30480869621E+03  0.28001651033E+03  0.52888057975E+03  0.25500000920E-02 0. -1.
       -2    1    3    3    0  502 -0.32923711864E+03  0.30480869621E+03 -0.89550407037E+03  0.10016151764E+04  0.25500000920E-02 0.  1.
</event>
<event>
 5   0  0.6671375E-05  0.1402548E+04  0.7818609E-02  0.8951976E-01
        3   -1    0    0  501    0  0.00000000000E+00  0.00000000000E+00  0.52810025653E+03  0.52810026619E+03  0.10100000352E+00 0.  1.
       -3   -1    0    0    0  501  0.00000000000E+00  0.00000000000E+00 -0.93123444255E+03  0.93123444803E+03  0.10100000352E+00 0. -1.
    10030    2    1    2    0    0  0.00000000000E+00  0.00000000000E+00 -0.40313418602E+03  0.14593347142E+04  0.14025479087E+04 0.  0.
        3    1    3    3  502    0 -0.21338505670E+01  0.45376422943E+03  0.35475722820E+03  0.57598544287E+03  0.10100000352E+00 0.  1.
       -3    1    3    3    0  502  0.21338505670E+01 -0.45376422943E+03 -0.75789141423E+03  0.88334927135E+03  0.10100000352E+00 0. -1.
</event>
<event>
 5   0  0.6671375E-05  0.1400364E+04  0.7818609E-02  0.8953555E-01
       -4   -1    0    0    0  501  0.00000000000E+00  0.00000000000E+00  0.48455966731E+03  0.48456133160E+03  0.12699999809E+01 0. -1.
        4   -1    0    0  501    0  0.00000000000E+00  0.00000000000E+00 -0.10117491843E+04  0.10117499813E+04  0.12699999809E+01 0.  1.
    10030    2    1    2    0    0  0.00000000000E+00  0.00000000000E+00 -0.52718951694E+03  0.14963113129E+04  0.14003637950E+04 0.  0.
        3    1    3    3  502    0  0.15986937681E+03 -0.55520367750E+03  0.15903726272E+03  0.59925136820E+03  0.10100000352E+00 0. -1.
       -3    1    3    3    0  502 -0.15986937681E+03  0.55520367750E+03 -0.68622677966E+03  0.89705994475E+03  0.10100000352E+00 0.  1.
</event>
<event>
 5   0  0.1712327E-04  0.1395679E+04  0.7818609E-02  0.8956953E-01
       -2   -1    0    0    0  501  0.00000000000E+00  0.00000000000E+00  0.72058532067E+03  0.72058532068E+03  0.25500000920E-02 0.  1.
        2   -1    0    0  501    0  0.00000000000E+00  0.00000000000E+00 -0.67581119218E+03  0.67581119218E+03  0.25500000920E-02 0. -1.
    10030    2    1    2    0    0  0.00000000000E+00  0.00000000000E+00  0.44774128497E+02  0.13963965129E+04  0.13956785083E+04 0.  0.
        1    1    3    3  502    0 -0.68916090202E+02  0.59438938925E+03 -0.33686791810E+03  0.68667908648E+03  0.50400001928E-02 0. -1.
       -1    1    3    3    0  502  0.68916090202E+02 -0.59438938925E+03  0.38164204660E+03  0.70971742638E+03  0.50400001928E-02 0.  1.
</event>
<event>
 5   0  0.6671375E-05  0.1395230E+04  0.7818609E-02  0.8957279E-01
       -1   -1    0    0    0  501  0.00000000000E+00  0.00000000000E+00  0.77819524343E+03  0.77819524345E+03  0.50400001928E-02 0.  1.
        1   -1    0    0  501    0  0.00000000000E+00  0.00000000000E+00 -0.62537840152E+03  0.62537840154E+03  0.50400001928E-02 0. -1.
    10030    2    1    2    0    0  0.00000000000E+00  0.00000000000E+00  0.15281684192E+03  0.14035736450E+04  0.13952297265E+04 0.  0.
        5    1    3    3  502    0 -0.59768746187E+03 -0.13782912284E+03 -0.25786967852E+03  0.66539163677E+03  0.46999998093E+01 0.  1.
       -5    1    3    3    0  502  0.59768746187E+03  0.13782912284E+03  0.41068652044E+03  0.73818200822E+03  0.46999998093E+01 0. -1.
</event>
<event>
 5   0  0.9978422E-05  0.1398800E+04  0.7818609E-02  0.8954687E-01
        1   -1    0    0  501    0  0.00000000000E+00  0.00000000000E+00  0.82492405261E+03  0.82492405262E+03  0.50400001928E-02 0.  1.
       -1   -1    0    0    0  501  0.00000000000E+00  0.00000000000E+00 -0.59297665325E+03  0.59297665327E+03  0.50400001928E-02 0. -1.
    10030    2    1    2    0    0  0.00000000000E+00  0.00000000000E+00  0.23194739935E+03  0.14179007059E+04  0.13988004917E+04 0.  0.
        2    1    3    3  502    0  0.28356986941E+03  0.61068424765E+02  0.76107512076E+03  0.81447932004E+03  0.25500000920E-02 0.  1.
       -2    1    3    3    0  502 -0.28356986941E+03 -0.61068424765E+02 -0.52912772140E+03  0.60342138585E+03  0.25500000920E-02 0. -1.
</event>
<event>
 5   0  0.9260916E-05  0.1397093E+04  0.7818609E-02  0.8955925E-01
       -1   -1    0    0    0  501  0.00000000000E+00  0.00000000000E+00  0.67644575684E+03  0.67644575686E+03  0.50400001928E-02 0. -1.
        1   -1    0    0  501    0  0.00000000000E+00  0.00000000000E+00 -0.72136952710E+03  0.72136952712E+03  0.50400001928E-02 0.  1.
    10030    2    1    2    0    0  0.00000000000E+00  0.00000000000E+00 -0.44923770253E+02  0.13978152840E+04  0.13970932048E+04 0.  0.
        1    1    3    3  502    0  0.74446754336E+02  0.21389165215E+03  0.63869384565E+03  0.67765904892E+03  0.50400001928E-02 0. -1.
       -1    1    3    3    0  502 -0.74446754336E+02 -0.21389165215E+03 -0.68361761590E+03  0.72015623506E+03  0.50400001928E-02 0.  1.
</event>
<event>
 5   0  0.1780171E-04  0.1399430E+04  0.7818609E-02  0.8954231E-01
       -2   -1    0    0    0  501  0.00000000000E+00  0.00000000000E+00  0.85767622606E+03  0.85767622607E+03  0.25500000920E-02 0. -1.
        2   -1    0    0  501    0  0.00000000000E+00  0.00000000000E+00 -0.57084636683E+03  0.57084636684E+03  0.25500000920E-02 0.  1.
    10030    2    1    2    0    0  0.00000000000E+00  0.00000000000E+00  0.28682985923E+03  0.14285225929E+04  0.13994303949E+04 0.  0.
        5    1    3    3  502    0 -0.56001261559E+03 -0.24158219191E+03 -0.20664737555E+03  0.64397306845E+03  0.46999998093E+01 0.  1.
       -5    1    3    3    0  502  0.56001261559E+03  0.24158219191E+03  0.49347723478E+03  0.78454952445E+03  0.46999998093E+01 0. -1.
</event>
<event>
 5   0  0.1780171E-04  0.1400131E+04  0.7818609E-02  0.8953724E-01
       -2   -1    0    0    0  501  0.00000000000E+00  0.00000000000E+00  0.23625073938E+03  0.23625073939E+03  0.25500000920E-02 0.  1.
        2   -1    0    0  501    0  0.00000000000E+00  0.00000000000E+00 -0.20744547596E+04  0.20744547596E+04  0.25500000920E-02 0. -1.
    10030    2    1    2    0    0  0.00000000000E+00  0.00000000000E+00 -0.18382040202E+04  0.23107054990E+04  0.14001306664E+04 0.  0.
        5    1    3    3  502    0 -0.65685669161E+03 -0.21153790179E+03 -0.72480610200E+03  0.10007871765E+04  0.46999998093E+01 0.  1.
       -5    1    3    3    0  502  0.65685669161E+03  0.21153790179E+03 -0.11133979182E+04  0.13099183224E+04  0.46999998093E+01 0. -1.
</event>
<event>
 5   0  0.1833681E-04  0.1400348E+04  0.7818609E-02  0.8953567E-01
       -2   -1    0    0    0  501  0.00000000000E+00  0.00000000000E+00  0.67586710292E+03  0.67586710292E+03  0.25500000920E-02 0.  1.
        2   -1    0    0  501    0  0.00000000000E+00  0.00000000000E+00 -0.72535492671E+03  0.72535492671E+03  0.25500000920E-02 0. -1.
    10030    2    1    2    0    0  0.00000000000E+00  0.00000000000E+00 -0.49487823791E+02  0.14012220296E+04  0.14003478609E+04 0.  0.
        4    1    3    3  502    0 -0.55520312841E+03 -0.23805903678E+03  0.32948173863E+03  0.68810060876E+03  0.12699999809E+01 0.  1.
       -4    1    3    3    0  502  0.55520312841E+03  0.23805903678E+03 -0.37896956242E+03  0.71312142088E+03  0.12699999809E+01 0. -1.
</event>
<event>
 5   0  0.6671375E-05  0.1397500E+04  0.7818609E-02  0.8955630E-01
        1   -1    0    0  501    0  0.00000000000E+00  0.00000000000E+00  0.65691955142E+03  0.65691955144E+03  0.50400001928E-02 0.  1.
       -1   -1    0    0    0  501  0.00000000000E+00  0.00000000000E+00 -0.74324398762E+03  0.74324398764E+03  0.50400001928E-02 0. -1.
    10030    2    1    2    0    0  0.00000000000E+00  0.00000000000E+00 -0.86324436201E+02  0.14001635391E+04  0.13974999205E+04 0.  0.
        5    1    3    3  502    0  0.64548701664E+03 -0.25318894975E+03  0.43439118754E+02  0.69474252782E+03  0.46999998093E+01 0. -1.
       -5    1    3    3    0  502 -0.64548701664E+03  0.25318894975E+03 -0.12976355495E+03  0.70542101125E+03  0.46999998093E+01 0.  1.
</event>
<event>
 5   0  0.1794185E-04  0.1402759E+04  0.7818609E-02  0.8951824E-01
        2   -1    0    0  501    0  0.00000000000E+00  0.00000000000E+00  0.16212835900E+04  0.16212835900E+04  0.25500000920E-02 0.  1.
       -2   -1    0    0    0  501  0.00000000000E+00  0.00000000000E+00 -0.30342197762E+03  0.30342197763E+03  0.25500000920E-02 0. -1.
    10030    2    1    2    0    0  0.00000000000E+00  0.00000000000E+00  0.13178616124E+04  0.19247055676E+04  0.14027588149E+04 0.  0.
        2    1    3    3  502    0 -0.52679118497E+03 -0.60091766359E+01  0.23626874461E+02  0.52735499616E+03  0.25500000920E-02 0. -1.
       -2    1    3    3    0  502  0.52679118497E+03  0.60091766359E+01  0.12942347379E+04  0.13973505715E+04  0.25500000920E-02 0.  1.
</event>
<event>
 5   0  0.9978422E-05  0.1399813E+04  0.7818609E-02  0.8953954E-01
        1   -1    0    0  501    0  0.00000000000E+00  0.00000000000E+00  0.87244770541E+03  0.87244770543E+03  0.50400001928E-02 0. -1.
       -1   -1    0    0    0  501  0.00000000000E+00  0.00000000000E+00 -0.56148843786E+03  0.56148843788E+03  0.50400001928E-02 0.  1.
    10030    2    1    2    0    0  0.00000000000E+00  0.00000000000E+00  0.31095926755E+03  0.14339361433E+04  0.13998132722E+04 0.  0.
        2    1    3    3  502    0 -0.56623618367E+03  0.40786347883E+03  0.21057992578E+03  0.72891696249E+03  0.25500000920E-02 0. -1.
       -2    1    3    3    0  502  0.56623618367E+03 -0.40786347883E+03  0.10037934177E+03  0.70501918082E+03  0.25500000920E-02 0.  1.
</event>
<event>
 5   0  0.1794185E-04  0.1398053E+04  0.7818609E-02  0.8955229E-01
       -2   -1    0    0    0  501  0.00000000000E+00  0.00000000000E+00  0.75009376695E+03  0.75009376696E+03  0.25500000920E-02 0.  1.
        2   -1    0    0  501    0  0.00000000000E+00  0.00000000000E+00 -0.65143551605E+03  0.65143551606E+03  0.25500000920E-02 0. -1.
    10030    2    1    2    0    0  0.00000000000E+00  0.00000000000E+00  0.98658250901E+02  0.14015292830E+04  0.13980525314E+04 0.  0.
        2    1    3    3  502    0 -0.44415804456E+03 -0.21134568485E+03 -0.44858940615E+03  0.66571452018E+03  0.25500000920E-02 0. -1.
       -2    1    3    3    0  502  0.44415804456E+03  0.21134568485E+03  0.54724765706E+03  0.73581476284E+03  0.25500000920E-02 0.  1.
</event>
<event>
 5   0  0.6671375E-05  0.1397878E+04  0.7818609E-02  0.8955356E-01
        1   -1    0    0  501    0  0.00000000000E+00  0.00000000000E+00  0.79221466257E+03  0.79221466259E+03  0.50400001928E-02 0. -1.
       -1   -1    0    0    0  501  0.00000000000E+00  0.00000000000E+00 -0.61664585547E+03  0.61664585549E+03  0.50400001928E-02 0.  1.
    10030    2    1    2    0    0  0.00000000000E+00  0.00000000000E+00  0.17556880710E+03  0.14088605181E+04  0.13978782327E+04 0.  0.
        5    1    3    3  502    0  0.62849544433E+03 -0.58679675882E+02  0.39021517325E+03  0.74211845371E+03  0.46999998093E+01 0.  1.
       -5    1    3    3    0  502 -0.62849544433E+03  0.58679675882E+02 -0.21464636615E+03  0.66674206437E+03  0.46999998093E+01 0. -1.
</event>
<event>
 5   0  0.1833681E-04  0.1397135E+04  0.7818609E-02  0.8955895E-01
       -2   -1    0    0    0  501  0.00000000000E+00  0.00000000000E+00  0.44448005360E+03  0.44448005361E+03  0.25500000920E-02 0.  1.
        2   -1    0    0  501    0  0.00000000000E+00  0.00000000000E+00 -0.10979040477E+04  0.10979040477E+04  0.25500000920E-02 0. -1.
    10030    2    1    2    0    0  0.00000000000E+00  0.00000000000E+00 -0.65342399408E+03  0.15423841013E+04  0.13971348539E+04 0.  0.
        4    1    3    3  502    0  0.34175777434E+03 -0.49798146167E+03  0.60794350826E+02  0.60702675269E+03  0.12699999809E+01 0.  1.
       -4    1    3    3    0  502 -0.34175777434E+03  0.49798146167E+03 -0.71421834491E+03  0.93535734861E+03  0.12699999809E+01 0. -1.
</event>
<event>
 5   0  0.9260916E-05  0.1399091E+04  0.7818609E-02  0.8954477E-01
        1   -1    0    0  501    0  0.00000000000E+00  0.00000000000E+00  0.54306916029E+03  0.54306916032E+03  0.50400001928E-02 0. -1.
       -1   -1    0    0    0  501  0.00000000000E+00  0.00000000000E+00 -0.90110828427E+03  0.90110828428E+03  0.50400001928E-02 0.  1.
    10030    2    1    2    0    0  0.00000000000E+00  0.00000000000E+00 -0.35803912397E+03  0.14441774446E+04  0.13990913041E+04 0.  0.
        1    1    3    3  502    0  0.56077128870E+03 -0.39482667308E+03 -0.32134535028E+03  0.75737399887E+03  0.50400001928E-02 0.  1.
       -1    1    3    3    0  502 -0.56077128870E+03  0.39482667308E+03 -0.36693773697E+02  0.68680344572E+03  0.50400001928E-02 0. -1.
</event>
<event>
 5   0  0.6671375E-05  0.1396527E+04  0.7818609E-02  0.8956336E-01
        1   -1    0    0  501    0  0.00000000000E+00  0.00000000000E+00  0.57412345799E+03  0.57412345801E+03  0.50400001928E-02 0. -1.
       -1   -1    0    0    0  501  0.00000000000E+00  0.00000000000E+00 -0.84924587905E+03  0.84924587907E+03  0.50400001928E-02 0.  1.
    10030    2    1    2    0    0  0.00000000000E+00  0.00000000000E+00 -0.27512242106E+03  0.14233693371E+04  0.13965270936E+04 0.  0.
        5    1    3    3  502    0  0.45124358268E+03  0.18107183289E+03 -0.64833430291E+03  0.81041177058E+03  0.46999998093E+01 0.  1.
       -5    1    3    3    0  502 -0.45124358268E+03 -0.18107183289E+03  0.37321188184E+03  0.61295756649E+03  0.46999998093E+01 0. -1.
</event>
<event>
 5   0  0.9260916E-05  0.1399496E+04  0.7818609E-02  0.8954183E-01
       -1   -1    0    0    0  501  0.00000000000E+00  0.00000000000E+00  0.56947421641E+03  0.56947421643E+03  0.50400001928E-02 0. -1.
        1   -1    0    0  501    0  0.00000000000E+00  0.00000000000E+00 -0.85982391051E+03  0.85982391052E+03  0.50400001928E-02 0.  1.
    10030    2    1    2    0    0  0.00000000000E+00  0.00000000000E+00 -0.29034969410E+03  0.14292981270E+04  0.13994964062E+04 0.  0.
        1    1    3    3  502    0  0.11654959765E+03  0.31334213469E+03 -0.77298487221E+03  0.84218330236E+03  0.50400001928E-02 0.  1.
       -1    1    3    3    0  502 -0.11654959765E+03 -0.31334213469E+03  0.48263517811E+03  0.58711482459E+03  0.50400001928E-02 0. -1.
</event>
<event>
 5   0  0.1794185E-04  0.1388210E+04  0.7818609E-02  0.8962397E-01
        2   -1    0    0  501    0  0.00000000000E+00  0.00000000000E+00  0.12025897792E+04  0.12025897792E+04  0.25500000920E-02 0. -1.
       -2   -1    0    0    0  501  0.00000000000E+00  0.00000000000E+00 -0.40062035452E+03  0.40062035453E+03  0.25500000920E-02 0.  1.
    10030    2    1    2    0    0  0.00000000000E+00  0.00000000000E+00  0.80196942470E+03  0.16032101338E+04  0.13882102776E+04 0.  0.
        2    1    3    3  502    0  0.29586035258E+03 -0.42864886088E+03  0.93085585704E+03  0.10666610618E+04  0.25500000920E-02 0. -1.
       -2    1    3    3    0  502 -0.29586035258E+03  0.42864886088E+03 -0.12888643234E+03  0.53654907195E+03  0.25500000920E-02 0.  1.
</event>
<event>
 5   0  0.1766237E-04  0.1401744E+04  0.7818609E-02  0.8952557E-01
        2   -1    0    0  501    0  0.00000000000E+00  0.00000000000E+00  0.88899920701E+03  0.88899920701E+03  0.25500000920E-02 0. -1.
       -2   -1    0    0    0  501  0.00000000000E+00  0.00000000000E+00 -0.55255563319E+03  0.55255563319E+03  0.25500000920E-02 0.  1.
    10030    2    1    2    0    0  0.00000000000E+00  0.00000000000E+00  0.33644357382E+03  0.14415548402E+04  0.14017439420E+04 0.  0.
        3    1    3    3  502    0  0.60739585590E+03 -0.73757745165E+02  0.51976585417E+03  0.80282406796E+03  0.10100000352E+00 0. -1.
       -3    1    3    3    0  502 -0.60739585590E+03  0.73757745165E+02 -0.18332228034E+03  0.63873077224E+03  0.10100000352E+00 0.  1.
</event>
<event>
 5   0  0.6671375E-05  0.1399498E+04  0.7818609E-02  0.8954182E-01
        1   -1    0    0  501    0  0.00000000000E+00  0.00000000000E+00  0.67239449151E+03  0.67239449153E+03  0.50400001928E-02 0.  1.
       -1   -1    0    0    0  501  0.00000000000E+00  0.00000000000E+00 -0.72821597199E+03  0.72821597201E+03  0.50400001928E-02 0. -1.
    10030    2    1    2    0    0  0.00000000000E+00  0.00000000000E+00 -0.55821480481E+02  0.14006104635E+04  0.13994976359E+04 0.  0.
        5    1    3    3  502    0 -0.33488356800E+03 -0.39201316663E+03  0.44554575760E+03  0.68143557219E+03  0.46999998093E+01 0.  1.
       -5    1    3    3    0  502  0.33488356800E+03  0.39201316663E+03 -0.50136723808E+03  0.71917489135E+03  0.46999998093E+01 0. -1.
</event>
<event>
 5   0  0.1780171E-04  0.1400081E+04  0.7818609E-02  0.8953760E-01
        2   -1    0    0  501    0  0.00000000000E+00  0.00000000000E+00  0.21130528571E+04  0.21130528571E+04  0.25500000920E-02 0.  1.
       -2   -1    0    0    0  501  0.00000000000E+00  0.00000000000E+00 -0.23191886336E+03  0.23191886338E+03  0.25500000920E-02 0. -1.
    10030    2    1    2    0    0  0.00000000000E+00  0.00000000000E+00  0.18811339938E+04  0.23449717205E+04  0.14000811646E+04 0.  0.
        5    1    3    3  502    0  0.71825120415E+02 -0.48229547933E+03  0.17817966527E+04  0.18473194578E+04  0.46999998093E+01 0.  1.
       -5    1    3    3    0  502 -0.71825120415E+02  0.48229547933E+03  0.99337341027E+02  0.49765226275E+03  0.46999998093E+01 0. -1.
</event>
<event>
 5   0  0.1780171E-04  0.1400803E+04  0.7818609E-02  0.8953238E-01
       -2   -1    0    0    0  501  0.00000000000E+00  0.00000000000E+00  0.25898324692E+03  0.25898324693E+03  0.25500000920E-02 0. -1.
        2   -1    0    0  501    0  0.00000000000E+00  0.00000000000E+00 -0.18941850873E+04  0.18941850873E+04  0.25500000920E-02 0.  1.
    10030    2    1    2    0    0  0.00000000000E+00  0.00000000000E+00 -0.16352018404E+04  0.21531683343E+04  0.14008029186E+04 0.  0.
        5    1    3    3  502    0 -0.38511693507E+03  0.58487964459E+03 -0.83584397973E+03  0.10904386736E+04  0.46999998093E+01 0. -1.
       -5    1    3    3    0  502  0.38511693507E+03 -0.58487964459E+03 -0.79935786069E+03  0.10627296607E+04  0.46999998093E+01 0.  1.
</event>
<event>
 5   0  0.1780171E-04  0.1401496E+04  0.7818609E-02  0.8952737E-01
        2   -1    0    0  501    0  0.00000000000E+00  0.00000000000E+00  0.10773509177E+04  0.10773509177E+04  0.25500000920E-02 0.  1.
       -2   -1    0    0    0  501  0.00000000000E+00  0.00000000000E+00 -0.45579155235E+03  0.45579155235E+03  0.25500000920E-02 0. -1.
    10030    2    1    2    0    0  0.00000000000E+00  0.00000000000E+00  0.62155936532E+03  0.15331424700E+04  0.14014955543E+04 0.  0.
        5    1    3    3  502    0  0.51941733065E+03 -0.43909275158E+03  0.12633415072E+03  0.69179420025E+03  0.46999998093E+01 0.  1.
       -5    1    3    3    0  502 -0.51941733065E+03  0.43909275158E+03  0.49522521460E+03  0.84134826977E+03  0.46999998093E+01 0. -1.
</event>
<event>
 5   0  0.9260916E-05  0.1413001E+04  0.7818609E-02  0.8944461E-01
       -1   -1    0    0    0  501  0.00000000000E+00  0.00000000000E+00  0.91038810692E+03  0.91038810694E+03  0.50400001928E-02 0. -1.
        1   -1    0    0  501    0  0.00000000000E+00  0.00000000000E+00 -0.54827489800E+03  0.54827489803E+03  0.50400001928E-02 0.  1.
    10030    2    1    2    0    0  0.00000000000E+00  0.00000000000E+00  0.36211320892E+03  0.14586630050E+04  0.14130009858E+04 0.  0.
        1    1    3    3  502    0  0.63745347579E+03 -0.15771966043E+03 -0.87981013463E+02  0.66254289208E+03  0.50400001928E-02 0.  1.
       -1    1    3    3    0  502 -0.63745347579E+03  0.15771966043E+03  0.45009422238E+03  0.79612011288E+03  0.50400001928E-02 0. -1.
</event>
<event>
 5   0  0.1833681E-04  0.1401455E+04  0.7818609E-02  0.8952766E-01
        2   -1    0    0  501    0  0.00000000000E+00  0.00000000000E+00  0.58405756811E+03  0.58405756812E+03  0.25500000920E-02 0.  1.
       -2   -1    0    0    0  501  0.00000000000E+00  0.00000000000E+00 -0.84070320010E+03  0.84070320011E+03  0.25500000920E-02 0. -1.
    10030    2    1    2    0    0  0.00000000000E+00  0.00000000000E+00 -0.25664563199E+03  0.14247607682E+04  0.14014550532E+04 0.  0.
        4    1    3    3  502    0 -0.39578483892E+03 -0.57814427877E+03 -0.11713952621E+03  0.71036591085E+03  0.12699999809E+01 0.  1.
       -4    1    3    3    0  502  0.39578483892E+03  0.57814427877E+03 -0.13950610578E+03  0.71439485737E+03  0.12699999809E+01 0. -1.
</event>
<event>
 5   0  0.9260916E-05  0.1437594E+04  0.7818609E-02  0.8927047E-01
        1   -1    0    0  501    0  0.00000000000E+00  0.00000000000E+00  0.78126426107E+03  0.78126426109E+03  0.50400001928E-02 0. -1.
       -1   -1    0    0    0  501  0.00000000000E+00  0.00000000000E+00 -0.66132429192E+03  0.66132429194E+03  0.50400001928E-02 0.  1.
    10030    2    1    2    0    0  0.00000000000E+00  0.00000000000E+00  0.11993996915E+03  0.14425885530E+04  0.14375938707E+04 0.  0.
        1    1    3    3  502    0  0.12156975204E+03 -0.62066269761E+03 -0.28278318995E+03  0.69279702753E+03  0.50400001928E-02 0.  1.
       -1    1    3    3    0  502 -0.12156975204E+03  0.62066269761E+03  0.40272315910E+03  0.74979152550E+03  0.50400001928E-02 0. -1.
</event>
<event>
 5   0  0.6671375E-05  0.1401168E+04  0.7818609E-02  0.8952974E-01
       -1   -1    0    0    0  501  0.00000000000E+00  0.00000000000E+00  0.26060670803E+03  0.26060670808E+03  0.50400001928E-02 0. -1.
        1   -1    0    0  501    0  0.00000000000E+00  0.00000000000E+00 -0.18833652169E+04  0.18833652169E+04  0.50400001928E-02 0.  1.
    10030    2    1    2    0    0  0.00000000000E+00  0.00000000000E+00 -0.16227585089E+04  0.21439719250E+04  0.14011675264E+04 0.  0.
        5    1    3    3  502    0 -0.17732585918E+03  0.64221234813E+01  0.22562823663E+03  0.28708168727E+03  0.46999998093E+01 0. -1.
       -5    1    3    3    0  502  0.17732585918E+03 -0.64221234813E+01 -0.18483867455E+04  0.18568902377E+04  0.46999998093E+01 0.  1.
</event>
<event>
 5   0  0.9260916E-05  0.1398853E+04  0.7818609E-02  0.8954649E-01
       -1   -1    0    0    0  501  0.00000000000E+00  0.00000000000E+00  0.72102960542E+03  0.72102960544E+03  0.50400001928E-02 0. -1.
        1   -1    0    0  501    0  0.00000000000E+00  0.00000000000E+00 -0.67847041842E+03  0.67847041844E+03  0.50400001928E-02 0.  1.
    10030    2    1    2    0    0  0.00000000000E+00  0.00000000000E+00  0.42559187002E+02  0.13995000239E+04  0.13988527558E+04 0.  0.
        1    1    3    3  502    0 -0.17065546347E+03 -0.23882043427E+03 -0.61386750781E+03  0.68043501101E+03  0.50400001928E-02 0.  1.
       -1    1    3    3    0  502  0.17065546347E+03  0.23882043427E+03  0.65642669481E+03  0.71906501286E+03  0.50400001928E-02 0. -1.
</event>
<event>
 5   0  0.9978422E-05  0.1401414E+04  0.7818609E-02  0.8952796E-01
       -1   -1    0    0    0  501  0.00000000000E+00  0.00000000000E+00  0.85251436912E+03  0.85251436913E+03  0.50400001928E-02 0. -1.
        1   -1    0    0  501    0  0.00000000000E+00  0.00000000000E+00 -0.57593212837E+03  0.57593212839E+03  0.50400001928E-02 0.  1.
    10030    2    1    2    0    0  0.00000000000E+00  0.00000000000E+00  0.27658224075E+03  0.14284464975E+04  0.14014141645E+04 0.  0.
        2    1    3    3  502    0 -0.71814428788E+02  0.41330450989E+03 -0.43379493132E+03  0.60345337229E+03  0.25500000920E-02 0.  1.
       -2    1    3    3    0  502  0.71814428788E+02 -0.41330450989E+03  0.71037717207E+03  0.82499312524E+03  0.25500000920E-02 0. -1.
</event>
<event>
 5   0  0.1833681E-04  0.1400129E+04  0.7818609E-02  0.8953725E-01
        2   -1    0    0  501    0  0.00000000000E+00  0.00000000000E+00  0.88210569668E+03  0.88210569668E+03  0.25500000920E-02 0.  1.
       -2   -1    0    0    0  501  0.00000000000E+00  0.00000000000E+00 -0.55559163078E+03  0.55559163078E+03  0.25500000920E-02 0. -1.
    10030    2    1    2    0    0  0.00000000000E+00  0.00000000000E+00  0.32651406590E+03  0.14376973275E+04  0.14001293405E+04 0.  0.
        4    1    3    3  502    0 -0.12054028938E+03  0.26501648891E+03 -0.49047704894E+03  0.57037974122E+03  0.12699999809E+01 0. -1.
       -4    1    3    3    0  502  0.12054028938E+03 -0.26501648891E+03  0.81699111484E+03  0.86731758624E+03  0.12699999809E+01 0.  1.
</event>
<event>
 5   0  0.9828111E-05  0.1403472E+04  0.7818609E-02  0.8951309E-01
       -1   -1    0    0    0  501  0.00000000000E+00  0.00000000000E+00  0.11172718273E+04  0.11172718273E+04  0.50400001928E-02 0. -1.
        1   -1    0    0  501    0  0.00000000000E+00  0.00000000000E+00 -0.44074606421E+03  0.44074606423E+03  0.50400001928E-02 0.  1.
    10030    2    1    2    0    0  0.00000000000E+00  0.00000000000E+00  0.67652576307E+03  0.15580178915E+04  0.14034716393E+04 0.  0.
        4    1    3    3  502    0  0.47156958588E+03 -0.51464528703E+03  0.41826761251E+03  0.81374876612E+03  0.12699999809E+01 0. -1.
       -4    1    3    3    0  502 -0.47156958588E+03  0.51464528703E+03  0.25825815056E+03  0.74426912540E+03  0.12699999809E+01 0.  1.
</event>
<event>
 5   0  0.9900839E-05  0.1399104E+04  0.7818609E-02  0.8954467E-01
        1   -1    0    0  501    0  0.00000000000E+00  0.00000000000E+00  0.11747794312E+04  0.11747794312E+04  0.50400001928E-02 0. -1.
       -1   -1    0    0    0  501  0.00000000000E+00  0.00000000000E+00 -0.41656602510E+03  0.41656602513E+03  0.50400001928E-02 0.  1.
    10030    2    1    2    0    0  0.00000000000E+00  0.00000000000E+00  0.75821340608E+03  0.15913454563E+04  0.13991042821E+04 0.  0.
        3    1    3    3  502    0 -0.94729469832E+01  0.94830252863E+02 -0.40914779872E+03  0.42010051771E+03  0.10100000352E+00 0.  1.
       -3    1    3    3    0  502  0.94729469832E+01 -0.94830252863E+02  0.11673612048E+04  0.11712449386E+04  0.10100000352E+00 0. -1.
</event>
<event>
 5   0  0.1712327E-04  0.1403353E+04  0.7818609E-02  0.8951395E-01
        2   -1    0    0  501    0  0.00000000000E+00  0.00000000000E+00  0.17722583894E+04  0.17722583894E+04  0.25500000920E-02 0. -1.
       -2   -1    0    0    0  501  0.00000000000E+00  0.00000000000E+00 -0.27780928922E+03  0.27780928923E+03  0.25500000920E-02 0.  1.
    10030    2    1    2    0    0  0.00000000000E+00  0.00000000000E+00  0.14944491002E+04  0.20500676787E+04  0.14033529043E+04 0.  0.
        1    1    3    3  502    0  0.34065284448E+02 -0.54860631267E+03  0.11009173199E+03  0.56057962805E+03  0.50400001928E-02 0.  1.
       -1    1    3    3    0  502 -0.34065284448E+02  0.54860631267E+03  0.13843573682E+04  0.14894880506E+04  0.50400001928E-02 0. -1.
</event>
<event>
 5   0  0.6671375E-05  0.1399823E+04  0.7818609E-02  0.8953946E-01
        3   -1    0    0  501    0  0.00000000000E+00  0.00000000000E+00  0.34649987446E+03  0.34649988918E+03  0.10100000352E+00 0.  1.
       -3   -1    0    0    0  501  0.00000000000E+00  0.00000000000E+00 -0.14137849197E+04  0.14137849233E+04  0.10100000352E+00 0. -1.
    10030    2    1    2    0    0  0.00000000000E+00  0.00000000000E+00 -0.10672850452E+04  0.17602848125E+04  0.13998232936E+04 0.  0.
        5    1    3    3  502    0 -0.13349351438E+03  0.18895366959E+03  0.29700614017E+03  0.37650862530E+03  0.46999998093E+01 0.  1.
       -5    1    3    3    0  502  0.13349351438E+03 -0.18895366959E+03 -0.13642911854E+04  0.13837761872E+04  0.46999998093E+01 0. -1.
</event>
<event>
 5   0  0.1780171E-04  0.1399392E+04  0.7818609E-02  0.8954259E-01
        2   -1    0    0  501    0  0.00000000000E+00  0.00000000000E+00  0.10538144667E+04  0.10538144667E+04  0.25500000920E-02 0.  1.
       -2   -1    0    0    0  501  0.00000000000E+00  0.00000000000E+00 -0.46457360950E+03  0.46457360951E+03  0.25500000920E-02 0. -1.
    10030    2    1    2    0    0  0.00000000000E+00  0.00000000000E+00  0.58924085716E+03  0.15183880762E+04  0.13993918544E+04 0.  0.
        5    1    3    3  502    0  0.73673488901E+02  0.59422575555E+03 -0.98126399593E+02  0.60678077740E+03  0.46999998093E+01 0. -1.
       -5    1    3    3    0  502 -0.73673488901E+02 -0.59422575555E+03  0.68736725675E+03  0.91160729877E+03  0.46999998093E+01 0.  1.
</event>
<event>
 5   0  0.9828111E-05  0.1402361E+04  0.7818609E-02  0.8952111E-01
       -1   -1    0    0    0  501  0.00000000000E+00  0.00000000000E+00  0.51711035347E+03  0.51711035349E+03  0.50400001928E-02 0. -1.
        1   -1    0    0  501    0  0.00000000000E+00  0.00000000000E+00 -0.95077213961E+03  0.95077213962E+03  0.50400001928E-02 0.  1.
    10030    2    1    2    0    0  0.00000000000E+00  0.00000000000E+00 -0.43366178614E+03  0.14678824931E+04  0.14023610337E+04 0.  0.
        4    1    3    3  502    0  0.59682588435E+03 -0.25257019445E+03  0.63369565435E+02  0.65116062080E+03  0.12699999809E+01 0. -1.
       -4    1    3    3    0  502 -0.59682588435E+03  0.25257019445E+03 -0.49703135158E+03  0.81672187231E+03  0.12699999809E+01 0.  1.
</event>
<event>
 5   0  0.1833681E-04  0.1391950E+04  0.7818609E-02  0.8959666E-01
        2   -1    0    0  501    0  0.00000000000E+00  0.00000000000E+00  0.71193812121E+03  0.71193812122E+03  0.25500000920E-02 0. -1.
       -2   -1    0    0    0  501  0.00000000000E+00  0.00000000000E+00 -0.68036961543E+03  0.68036961544E+03  0.25500000920E-02 0.  1.
    10030    2    1    2    0    0  0.00000000000E+00  0.00000000000E+00  0.31568505781E+02  0.13923077367E+04  0.13919498062E+04 0.  0.
        4    1    3    3  502    0 -0.19849437540E+03 -0.24988650331E+03 -0.60286987480E+03  0.68212680671E+03  0.12699999809E+01 0.  1.
       -4    1    3    3    0  502  0.19849437540E+03  0.24988650331E+03  0.63443838058E+03  0.71018092994E+03  0.12699999809E+01 0. -1.
</event>
<event>
 5   0  0.1794185E-04  0.1399879E+04  0.7818609E-02  0.8953906E-01
       -2   -1    0    0    0  501  0.00000000000E+00  0.00000000000E+00  0.21490223241E+03  0.21490223242E+03  0.25500000920E-02 0.  1.
        2   -1    0    0  501    0  0.00000000000E+00  0.00000000000E+00 -0.22797128788E+04  0.22797128788E+04  0.25500000920E-02 0. -1.
    10030    2    1    2    0    0  0.00000000000E+00  0.00000000000E+00 -0.20648106464E+04  0.24946151113E+04  0.13998791190E+04 0.  0.
        2    1    3    3  502    0  0.17947875933E+03 -0.44290931496E+03 -0.12107215915E+03  0.49299062268E+03  0.25500000920E-02 0.  1.
       -2    1    3    3    0  502 -0.17947875933E+03  0.44290931496E+03 -0.19437384873E+04  0.20016244886E+04  0.25500000920E-02 0. -1.
</event>
<event>
 5   0  0.9260916E-05  0.1406378E+04  0.7818609E-02  0.8949215E-01
        1   -1    0    0  501    0  0.00000000000E+00  0.00000000000E+00  0.53620542639E+03  0.53620542642E+03  0.50400001928E-02 0. -1.
       -1   -1    0    0    0  501  0.00000000000E+00  0.00000000000E+00 -0.92217364649E+03  0.92217364650E+03  0.50400001928E-02 0.  1.
    10030    2    1    2    0    0  0.00000000000E+00  0.00000000000E+00 -0.38596822010E+03  0.14583790729E+04  0.14063776354E+04 0.  0.
        1    1    3    3  502    0 -0.59032035885E+03  0.20365062079E+03 -0.52823814586E+03  0.81791640171E+03  0.50400001928E-02 0.  1.
       -1    1    3    3    0  502  0.59032035885E+03 -0.20365062079E+03  0.14226992576E+03  0.64046267121E+03  0.50400001928E-02 0. -1.
</event>
<event>
 5   0  0.1794185E-04  0.1400931E+04  0.7818609E-02  0.8953145E-01
        2   -1    0    0  501    0  0.00000000000E+00  0.00000000000E+00  0.10126523561E+04  0.10126523561E+04  0.25500000920E-02 0. -1.
       -2   -1    0    0    0  501  0.00000000000E+00  0.00000000000E+00 -0.48452128548E+03  0.48452128548E+03  0.25500000920E-02 0.  1.
    10030    2    1    2    0    0  0.00000000000E+00  0.00000000000E+00  0.52813107060E+03  0.14971736416E+04  0.14009305783E+04 0.  0.
        2    1    3    3  502    0  0.39418446734E+03  0.53050649499E+03  0.16106353159E+02  0.66111871108E+03  0.25500000920E-02 0. -1.
       -2    1    3    3    0  502 -0.39418446734E+03 -0.53050649499E+03  0.51202471744E+03  0.83605493049E+03  0.25500000920E-02 0.  1.
</event>
<event>
 5   0  0.9978422E-05  0.1403616E+04  0.7818609E-02  0.8951206E-01
       -1   -1    0    0    0  501  0.00000000000E+00  0.00000000000E+00  0.47060987409E+03  0.47060987411E+03  0.50400001928E-02 0. -1.
        1   -1    0    0  501    0  0.00000000000E+00  0.00000000000E+00 -0.10465869961E+04  0.10465869961E+04  0.50400001928E-02 0.  1.
    10030    2    1    2    0    0  0.00000000000E+00  0.00000000000E+00 -0.57597712202E+03  0.15171968702E+04  0.14036155806E+04 0.  0.
        2    1    3    3  502    0 -0.45054306741E+03  0.31629806661E+03  0.18255421682E+03  0.57996514086E+03  0.25500000920E-02 0. -1.
       -2    1    3    3    0  502  0.45054306741E+03 -0.31629806661E+03 -0.75853133884E+03  0.93723172937E+03  0.25500000920E-02 0.  1.
</event>
<event>
 5   0  0.9828111E-05  0.1398401E+04  0.7818609E-02  0.8954977E-01
       -1   -1    0    0    0  501  0.00000000000E+00  0.00000000000E+00  0.13757659542E+04  0.13757659542E+04  0.50400001928E-02 0.  1.
        1   -1    0    0  501    0  0.00000000000E+00  0.00000000000E+00 -0.35535217495E+03  0.35535217499E+03  0.50400001928E-02 0. -1.
    10030    2    1    2    0    0  0.00000000000E+00  0.00000000000E+00  0.10204137793E+04  0.17311181292E+04  0.13984011214E+04 0.  0.
        4    1    3    3  502    0 -0.55699715631E+03  0.37527963132E+03  0.75088473517E+03  0.10074274824E+04  0.12699999809E+01 0.  1.
       -4    1    3    3    0  502  0.55699715631E+03 -0.37527963132E+03  0.26952904409E+03  0.72369064684E+03  0.12699999809E+01 0. -1.
</event>
<event>
 5   0  0.1712327E-04  0.1398193E+04  0.7818609E-02  0.8955127E-01
        2   -1    0    0  501    0  0.00000000000E+00  0.00000000000E+00  0.10109564447E+04  0.10109564447E+04  0.25500000920E-02 0. -1.
       -2   -1    0    0    0  501  0.00000000000E+00  0.00000000000E+00 -0.48343937278E+03  0.48343937278E+03  0.25500000920E-02 0.  1.
    10030    2    1    2    0    0  0.00000000000E+00  0.00000000000E+00  0.52751707190E+03  0.14943958175E+04  0.13981933336E+04 0.  0.
        1    1    3    3  502    0 -0.63573266368E+02  0.15427170642E+03 -0.46184490650E+03  0.49106215216E+03  0.50400001928E-02 0.  1.
       -1    1    3    3    0  502  0.63573266368E+02 -0.15427170642E+03  0.98936197840E+03  0.10033336653E+04  0.50400001928E-02 0. -1.
</event>
<event>
 5   0  0.1794185E-04  0.1407217E+04  0.7818609E-02  0.8948611E-01
        2   -1    0    0  501    0  0.00000000000E+00  0.00000000000E+00  0.10424548796E+04  0.10424548796E+04  0.25500000920E-02 0.  1.
       -2   -1    0    0    0  501  0.00000000000E+00  0.00000000000E+00 -0.47490279732E+03  0.47490279733E+03  0.25500000920E-02 0. -1.
    10030    2    1    2    0    0  0.00000000000E+00  0.00000000000E+00  0.56755208225E+03  0.15173576769E+04  0.14072167401E+04 0.  0.
        2    1    3    3  502    0 -0.24840390073E+03 -0.32505321884E+03  0.90103246992E+03  0.98955727718E+03  0.25500000920E-02 0.  1.
       -2    1    3    3    0  502  0.24840390073E+03  0.32505321884E+03 -0.33348038767E+03  0.52780039972E+03  0.25500000920E-02 0. -1.
</event>
<event>
 5   0  0.9260916E-05  0.1404409E+04  0.7818609E-02  0.8950633E-01
       -1   -1    0    0    0  501  0.00000000000E+00  0.00000000000E+00  0.73147912734E+03  0.73147912736E+03  0.50400001928E-02 0. -1.
        1   -1    0    0  501    0  0.00000000000E+00  0.00000000000E+00 -0.67410152702E+03  0.67410152704E+03  0.50400001928E-02 0.  1.
    10030    2    1    2    0    0  0.00000000000E+00  0.00000000000E+00  0.57377600323E+02  0.14055806544E+04  0.14044090526E+04 0.  0.
        1    1    3    3  502    0  0.14006926885E+03  0.17318848401E+03  0.69518544672E+03  0.72999757289E+03  0.50400001928E-02 0. -1.
       -1    1    3    3    0  502 -0.14006926885E+03 -0.17318848401E+03 -0.63780784640E+03  0.67558308151E+03  0.50400001928E-02 0.  1.
</event>
<event>
 5   0  0.9978422E-05  0.1399337E+04  0.7818609E-02  0.8954299E-01
       -1   -1    0    0    0  501  0.00000000000E+00  0.00000000000E+00  0.61731475091E+03  0.61731475093E+03  0.50400001928E-02 0.  1.
        1   -1    0    0  501    0  0.00000000000E+00  0.00000000000E+00 -0.79300871913E+03  0.79300871915E+03  0.50400001928E-02 0. -1.
    10030    2    1    2    0    0  0.00000000000E+00  0.00000000000E+00 -0.17569396823E+03  0.14103234701E+04  0.13993369572E+04 0.  0.
        2    1    3    3  502    0 -0.22296921158E+03  0.65238199440E+03 -0.20802429039E+03  0.72013307195E+03  0.25500000920E-02 0.  1.
       -2    1    3    3    0  502  0.22296921158E+03 -0.65238199440E+03  0.32330322166E+02  0.69019039812E+03  0.25500000920E-02 0. -1.
</event>
<event>
 5   0  0.1712327E-04  0.1397680E+04  0.7818609E-02  0.8955500E-01
       -2   -1    0    0    0  501  0.00000000000E+00  0.00000000000E+00  0.79702623629E+03  0.79702623629E+03  0.25500000920E-02 0. -1.
        2   -1    0    0  501    0  0.00000000000E+00  0.00000000000E+00 -0.61274929104E+03  0.61274929104E+03  0.25500000920E-02 0.  1.
    10030    2    1    2    0    0  0.00000000000E+00  0.00000000000E+00  0.18427694525E+03  0.14097755273E+04  0.13976798793E+04 0.  0.
        1    1    3    3  502    0  0.26803570352E+03 -0.58711220258E+03 -0.17819848281E+03  0.66955102575E+03  0.50400001928E-02 0.  1.
       -1    1    3    3    0  502 -0.26803570352E+03  0.58711220258E+03  0.36247542806E+03  0.74022450159E+03  0.50400001928E-02 0. -1.
</event>
<event>
 5   0  0.9978422E-05  0.1397833E+04  0.7818609E-02  0.8955388E-01
        1   -1    0    0  501    0  0.00000000000E+00  0.00000000000E+00  0.25155354340E+04  0.25155354341E+04  0.50400001928E-02 0.  1.
       -1   -1    0    0    0  501  0.00000000000E+00  0.00000000000E+00 -0.19418710195E+03  0.19418710202E+03  0.50400001928E-02 0. -1.
    10030    2    1    2    0    0  0.00000000000E+00  0.00000000000E+00  0.23213483321E+04  0.27097225361E+04  0.13978333747E+04 0.  0.
        2    1    3    3  502    0  0.23603897742E+03 -0.51450512609E+03  0.19553584711E+04  0.20356465003E+04  0.25500000920E-02 0.  1.
       -2    1    3    3    0  502 -0.23603897742E+03  0.51450512609E+03  0.36598986096E+03  0.67407603574E+03  0.25500000920E-02 0. -1.
</event>
<event>
 5   0  0.9900839E-05  0.1402655E+04  0.7818609E-02  0.8951899E-01
        1   -1    0    0  501    0  0.00000000000E+00  0.00000000000E+00  0.21862717170E+04  0.21862717170E+04  0.50400001928E-02 0.  1.
       -1   -1    0    0    0  501  0.00000000000E+00  0.00000000000E+00 -0.22497667806E+03  0.22497667812E+03  0.50400001928E-02 0. -1.
    10030    2    1    2    0    0  0.00000000000E+00  0.00000000000E+00  0.19612950389E+04  0.24112483951E+04  0.14026548375E+04 0.  0.
        3    1    3    3  502    0 -0.33744616240E+03  0.15889298006E+03 -0.40340136896E+02  0.37515893762E+03  0.10100000352E+00 0. -1.
       -3    1    3    3    0  502  0.33744616240E+03 -0.15889298006E+03  0.20016351758E+04  0.20360894575E+04  0.10100000352E+00 0.  1.
</event>
<event>
 5   0  0.6671375E-05  0.1402079E+04  0.7818609E-02  0.8952315E-01
        3   -1    0    0  501    0  0.00000000000E+00  0.00000000000E+00  0.95369015914E+03  0.95369016449E+03  0.10100000352E+00 0.  1.
       -3   -1    0    0    0  501  0.00000000000E+00  0.00000000000E+00 -0.51532062932E+03  0.51532063921E+03  0.10100000352E+00 0. -1.
    10030    2    1    2    0    0  0.00000000000E+00  0.00000000000E+00  0.43836952982E+03  0.14690108037E+04  0.14020787769E+04 0.  0.
        3    1    3    3  502    0 -0.55682824237E+03 -0.25308827276E+03 -0.13972443347E+03  0.62740281544E+03  0.10100000352E+00 0. -1.
       -3    1    3    3    0  502  0.55682824237E+03  0.25308827276E+03  0.57809396330E+03  0.84160798826E+03  0.10100000352E+00 0.  1.
</event>
<event>
 5   0  0.1712327E-04  0.1400850E+04  0.7818609E-02  0.8953204E-01
       -2   -1    0    0    0  501  0.00000000000E+00  0.00000000000E+00  0.77550550472E+03  0.77550550473E+03  0.25500000920E-02 0. -1.
        2   -1    0    0  501    0  0.00000000000E+00  0.00000000000E+00 -0.63261316910E+03  0.63261316911E+03  0.25500000920E-02 0.  1.
    10030    2    1    2    0    0  0.00000000000E+00  0.00000000000E+00  0.14289233562E+03  0.14081186738E+04  0.14008497350E+04 0.  0.
        1    1    3    3  502    0 -0.61094773202E+03  0.32768756083E+03  0.17175740844E+03  0.71423866891E+03  0.50400001928E-02 0.  1.
       -1    1    3    3    0  502  0.61094773202E+03 -0.32768756083E+03 -0.28865072818E+02  0.69388000493E+03  0.50400001928E-02 0. -1.
</event>
<event>
 5   0  0.1833681E-04  0.1398632E+04  0.7818609E-02  0.8954810E-01
        2   -1    0    0  501    0  0.00000000000E+00  0.00000000000E+00  0.18152988859E+04  0.18152988859E+04  0.25500000920E-02 0. -1.
       -2   -1    0    0    0  501  0.00000000000E+00  0.00000000000E+00 -0.26940061103E+03  0.26940061104E+03  0.25500000920E-02 0.  1.
    10030    2    1    2    0    0  0.00000000000E+00  0.00000000000E+00  0.15458982749E+04  0.20846994970E+04  0.13986316586E+04 0.  0.
        4    1    3    3  502    0 -0.22762899584E+03  0.55347754119E+03  0.23369792413E+03  0.64247076275E+03  0.12699999809E+01 0.  1.
       -4    1    3    3    0  502  0.22762899584E+03 -0.55347754119E+03  0.13122003508E+04  0.14422287342E+04  0.12699999809E+01 0. -1.
</event>
<event>
 5   0  0.1833681E-04  0.1400785E+04  0.7818609E-02  0.8953250E-01
       -2   -1    0    0    0  501  0.00000000000E+00  0.00000000000E+00  0.45594186309E+03  0.45594186309E+03  0.25500000920E-02 0.  1.
        2   -1    0    0  501    0  0.00000000000E+00  0.00000000000E+00 -0.10759044860E+04  0.10759044860E+04  0.25500000920E-02 0. -1.
    10030    2    1    2    0    0  0.00000000000E+00  0.00000000000E+00 -0.61996262289E+03  0.15318463491E+04  0.14007853452E+04 0.  0.
        4    1    3    3  502    0  0.25171456779E+02 -0.43654332041E+03  0.28833292634E+03  0.52377587014E+03  0.12699999809E+01 0.  1.
       -4    1    3    3    0  502 -0.25171456779E+02  0.43654332041E+03 -0.90829554923E+03  0.10080704789E+04  0.12699999809E+01 0. -1.
</event>
<event>
 5   0  0.1766237E-04  0.1400330E+04  0.7818609E-02  0.8953579E-01
        2   -1    0    0  501    0  0.00000000000E+00  0.00000000000E+00  0.11683943656E+04  0.11683943656E+04  0.25500000920E-02 0.  1.
       -2   -1    0    0    0  501  0.00000000000E+00  0.00000000000E+00 -0.41957694986E+03  0.41957694987E+03  0.25500000920E-02 0. -1.
    10030    2    1    2    0    0  0.00000000000E+00  0.00000000000E+00  0.74881741571E+03  0.15879713154E+04  0.14003304526E+04 0.  0.
        3    1    3    3  502    0  0.62095059594E+02 -0.24065610134E+03 -0.36787059632E+03  0.44395939158E+03  0.10100000352E+00 0. -1.
       -3    1    3    3    0  502 -0.62095059594E+02  0.24065610134E+03  0.11166880120E+04  0.11440119239E+04  0.10100000352E+00 0.  1.
</event>
<event>
 5   0  0.9260916E-05  0.1398482E+04  0.7818609E-02  0.8954918E-01
        1   -1    0    0  501    0  0.00000000000E+00  0.00000000000E+00  0.10712482911E+04  0.10712482911E+04  0.50400001928E-02 0. -1.
       -1   -1    0    0    0  501  0.00000000000E+00  0.00000000000E+00 -0.45641858952E+03  0.45641858954E+03  0.50400001928E-02 0.  1.
    10030    2    1    2    0    0  0.00000000000E+00  0.00000000000E+00  0.61482970161E+03  0.15276668807E+04  0.13984815109E+04 0.  0.
        1    1    3    3  502    0  0.23066110234E+03  0.61811974060E+03  0.54367599844E+02  0.66199123392E+03  0.50400001928E-02 0.  1.
       -1    1    3    3    0  502 -0.23066110234E+03 -0.61811974060E+03  0.56046210176E+03  0.86567564676E+03  0.50400001928E-02 0. -1.
</event>
<event>
 5   0  0.1794185E-04  0.1408378E+04  0.7818609E-02  0.8947776E-01
        2   -1    0    0  501    0  0.00000000000E+00  0.00000000000E+00  0.71443771248E+03  0.71443771248E+03  0.25500000920E-02 0.  1.
       -2   -1    0    0    0  501  0.00000000000E+00  0.00000000000E+00 -0.69408777946E+03  0.69408777947E+03  0.25500000920E-02 0. -1.
    10030    2    1    2    0    0  0.00000000000E+00  0.00000000000E+00  0.20349933016E+02  0.14085254920E+04  0.14083784796E+04 0.  0.
        2    1    3    3  502    0 -0.48844662075E+03 -0.94576510287E+02 -0.48823201550E+03  0.69706191876E+03  0.25500000920E-02 0. -1.
       -2    1    3    3    0  502  0.48844662075E+03  0.94576510287E+02  0.50858194852E+03  0.71146357319E+03  0.25500000920E-02 0.  1.
</event>
<event>
 5   0  0.1712327E-04  0.1398105E+04  0.7818609E-02  0.8955191E-01
       -2   -1    0    0    0  501  0.00000000000E+00  0.00000000000E+00  0.50864468114E+03  0.50864468115E+03  0.25500000920E-02 0. -1.
        2   -1    0    0  501    0  0.00000000000E+00  0.00000000000E+00 -0.96073884530E+03  0.96073884530E+03  0.25500000920E-02 0.  1.
    10030    2    1    2    0    0  0.00000000000E+00  0.00000000000E+00 -0.45209416415E+03  0.14693835265E+04  0.13981054376E+04 0.  0.
        1    1    3    3  502    0  0.28056186415E+02 -0.25647185697E+03  0.45677558378E+03  0.52460356173E+03  0.50400001928E-02 0. -1.
       -1    1    3    3    0  502 -0.28056186415E+02  0.25647185697E+03 -0.90886974793E+03  0.94477996473E+03  0.50400001928E-02 0.  1.
</event>
<event>
 5   0  0.9978422E-05  0.1409368E+04  0.7818609E-02  0.8947065E-01
        1   -1    0    0  501    0  0.00000000000E+00  0.00000000000E+00  0.10661451751E+04  0.10661451751E+04  0.50400001928E-02 0.  1.
       -1   -1    0    0    0  501  0.00000000000E+00  0.00000000000E+00 -0.46577131016E+03  0.46577131019E+03  0.50400001928E-02 0. -1.
    10030    2    1    2    0    0  0.00000000000E+00  0.00000000000E+00  0.60037386491E+03  0.15319164853E+04  0.14093684189E+04 0.  0.
        2    1    3    3  502    0  0.35908460189E+03  0.41779264123E+03 -0.17743857617E+03  0.57877188140E+03  0.25500000920E-02 0. -1.
       -2    1    3    3    0  502 -0.35908460189E+03 -0.41779264123E+03  0.77781244108E+03  0.95314460387E+03  0.25500000920E-02 0.  1.
</event>
<event>
 5   0  0.9978422E-05  0.1400145E+04  0.7818609E-02  0.8953714E-01
       -1   -1    0    0    0  501  0.00000000000E+00  0.00000000000E+00  0.85512930391E+03  0.85512930392E+03  0.50400001928E-02 0.  1.
        1   -1    0    0  501    0  0.00000000000E+00  0.00000000000E+00 -0.57313113399E+03  0.57313113401E+03  0.50400001928E-02 0. -1.
    10030    2    1    2    0    0  0.00000000000E+00  0.00000000000E+00  0.28199816992E+03  0.14282604379E+04  0.14001446035E+04 0.  0.
        2    1    3    3  502    0  0.63980593603E+03 -0.11279576138E+03 -0.12505764165E+03  0.66159952638E+03  0.25500000920E-02 0. -1.
       -2    1    3    3    0  502 -0.63980593603E+03  0.11279576138E+03  0.40705581157E+03  0.76666091155E+03  0.25500000920E-02 0.  1.
</event>
<event>
 5   0  0.1712327E-04  0.1399289E+04  0.7818609E-02  0.8954333E-01
       -2   -1    0    0    0  501  0.00000000000E+00  0.00000000000E+00  0.39755325545E+03  0.39755325545E+03  0.25500000920E-02 0.  1.
        2   -1    0    0  501    0  0.00000000000E+00  0.00000000000E+00 -0.12312875357E+04  0.12312875357E+04  0.25500000920E-02 0. -1.
    10030    2    1    2    0    0  0.00000000000E+00  0.00000000000E+00 -0.83373428024E+03  0.16288407911E+04  0.13992889169E+04 0.  0.
        1    1    3    3  502    0 -0.63726767697E+03 -0.18559303466E+03 -0.15933199347E+03  0.68259911427E+03  0.50400001928E-02 0.  1.
       -1    1    3    3    0  502  0.63726767697E+03  0.18559303466E+03 -0.67440228677E+03  0.94624167687E+03  0.50400001928E-02 0. -1.
</event>
<event>
 5   0  0.1833681E-04  0.1400793E+04  0.7818609E-02  0.8953245E-01
        2   -1    0    0  501    0  0.00000000000E+00  0.00000000000E+00  0.76643524696E+03  0.76643524696E+03  0.25500000920E-02 0.  1.
       -2   -1    0    0    0  501  0.00000000000E+00  0.00000000000E+00 -0.64004815616E+03  0.64004815616E+03  0.25500000920E-02 0. -1.
    10030    2    1    2    0    0  0.00000000000E+00  0.00000000000E+00  0.12638709080E+03  0.14064834031E+04  0.14007932990E+04 0.  0.
        4    1    3    3  502    0  0.47049793059E+03 -0.23743627161E+03  0.52638029949E+03  0.74486382538E+03  0.12699999809E+01 0.  1.
       -4    1    3    3    0  502 -0.47049793059E+03  0.23743627161E+03 -0.39999320869E+03  0.66161957775E+03  0.12699999809E+01 0. -1.
</event>
<event>
 5   0  0.1833681E-04  0.1396496E+04  0.7818609E-02  0.8956359E-01
        2   -1    0    0  501    0  0.00000000000E+00  0.00000000000E+00  0.18150628929E+04  0.18150628929E+04  0.25500000920E-02 0.  1.
       -2   -1    0    0    0  501  0.00000000000E+00  0.00000000000E+00 -0.26861359353E+03  0.26861359354E+03  0.25500000920E-02 0. -1.
    10030    2    1    2    0    0  0.00000000000E+00  0.00000000000E+00  0.15464492994E+04  0.20836764865E+04  0.13964964249E+04 0.  0.
        4    1    3    3  502    0 -0.61430950294E+03 -0.28620124287E+03  0.10240602158E+04  0.12280017326E+04  0.12699999809E+01 0.  1.
       -4    1    3    3    0  502  0.61430950294E+03  0.28620124287E+03  0.52238908362E+03  0.85567475387E+03  0.12699999809E+01 0. -1.
</event>
<event>
 5   0  0.9900839E-05  0.1402202E+04  0.7818609E-02  0.8952226E-01
       -1   -1    0    0    0  501  0.00000000000E+00  0.00000000000E+00  0.14650352949E+04  0.14650352950E+04  0.50400001928E-02 0. -1.
        1   -1    0    0  501    0  0.00000000000E+00  0.00000000000E+00 -0.33551574379E+03  0.33551574383E+03  0.50400001928E-02 0.  1.
    10030    2    1    2    0    0  0.00000000000E+00  0.00000000000E+00  0.11295195511E+04  0.18005510388E+04  0.14022017069E+04 0.  0.
        3    1    3    3  502    0  0.11495441982E+03 -0.50100849196E+02 -0.32099862420E+03  0.34462260615E+03  0.10100000352E+00 0.  1.
       -3    1    3    3    0  502 -0.11495441982E+03  0.50100849196E+02  0.14505181754E+04  0.14559284326E+04  0.10100000352E+00 0. -1.
</event>
<event>
 5   0  0.6671375E-05  0.1400412E+04  0.7818609E-02  0.8953521E-01
       -1   -1    0    0    0  501  0.00000000000E+00  0.00000000000E+00  0.72370980404E+03  0.72370980406E+03  0.50400001928E-02 0.  1.
        1   -1    0    0  501    0  0.00000000000E+00  0.00000000000E+00 -0.67746513751E+03  0.67746513753E+03  0.50400001928E-02 0. -1.
    10030    2    1    2    0    0  0.00000000000E+00  0.00000000000E+00  0.46244666533E+02  0.14011749416E+04  0.14004115994E+04 0.  0.
        5    1    3    3  502    0 -0.36330153953E+03 -0.45975195633E+03 -0.36037003706E+03  0.68793060957E+03  0.46999998093E+01 0. -1.
       -5    1    3    3    0  502  0.36330153953E+03  0.45975195633E+03  0.40661470359E+03  0.71324433201E+03  0.46999998093E+01 0.  1.
</event>
<event>
 5   0  0.6671375E-05  0.1401570E+04  0.7818609E-02  0.8952683E-01
        1   -1    0    0  501    0  0.00000000000E+00  0.00000000000E+00  0.58419694488E+03  0.58419694490E+03  0.50400001928E-02 0. -1.
       -1   -1    0    0    0  501  0.00000000000E+00  0.00000000000E+00 -0.84064019173E+03  0.84064019175E+03  0.50400001928E-02 0.  1.
    10030    2    1    2    0    0  0.00000000000E+00  0.00000000000E+00 -0.25644324685E+03  0.14248371367E+04  0.14015697368E+04 0.  0.
        5    1    3    3  502    0  0.14036617641E+03 -0.39608405065E+03 -0.69832732831E+03  0.81502661682E+03  0.46999998093E+01 0.  1.
       -5    1    3    3    0  502 -0.14036617641E+03  0.39608405065E+03  0.44188408146E+03  0.60981051984E+03  0.46999998093E+01 0. -1.
</event>
<event>
 5   0  0.1794185E-04  0.1403011E+04  0.7818609E-02  0.8951642E-01
       -2   -1    0    0    0  501  0.00000000000E+00  0.00000000000E+00  0.60416710297E+03  0.60416710297E+03  0.25500000920E-02 0.  1.
        2   -1    0    0  501    0  0.00000000000E+00  0.00000000000E+00 -0.81452569594E+03  0.81452569594E+03  0.25500000920E-02 0. -1.
    10030    2    1    2    0    0  0.00000000000E+00  0.00000000000E+00 -0.21035859297E+03  0.14186927989E+04  0.14030105203E+04 0.  0.
        2    1    3    3  502    0 -0.19543691203E+03 -0.12902129484E+03  0.56347410899E+03  0.61020091168E+03  0.25500000920E-02 0.  1.
       -2    1    3    3    0  502  0.19543691203E+03  0.12902129484E+03 -0.77383270196E+03  0.80849188724E+03  0.25500000920E-02 0. -1.
</event>
<event>
 5   0  0.9978422E-05  0.1403499E+04  0.7818609E-02  0.8951289E-01
       -1   -1    0    0    0  501  0.00000000000E+00  0.00000000000E+00  0.63739866795E+03  0.63739866797E+03  0.50400001928E-02 0. -1.
        1   -1    0    0  501    0  0.00000000000E+00  0.00000000000E+00 -0.77259755524E+03  0.77259755526E+03  0.50400001928E-02 0.  1.
    10030    2    1    2    0    0  0.00000000000E+00  0.00000000000E+00 -0.13519888729E+03  0.14099962232E+04  0.14034994159E+04 0.  0.
        2    1    3    3  502    0 -0.47648597062E+03  0.16170562033E+03  0.42381210540E+03  0.65787862751E+03  0.25500000920E-02 0. -1.
       -2    1    3    3    0  502  0.47648597062E+03 -0.16170562033E+03 -0.55901099269E+03  0.75211759572E+03  0.25500000920E-02 0.  1.
</event>
<event>
 5   0  0.9978422E-05  0.1400713E+04  0.7818609E-02  0.8953303E-01
        1   -1    0    0  501    0  0.00000000000E+00  0.00000000000E+00  0.13190755906E+04  0.13190755906E+04  0.50400001928E-02 0.  1.
       -1   -1    0    0    0  501  0.00000000000E+00  0.00000000000E+00 -0.37185074627E+03  0.37185074630E+03  0.50400001928E-02 0. -1.
    10030    2    1    2    0    0  0.00000000000E+00  0.00000000000E+00  0.94722484434E+03  0.16909263369E+04  0.14007130224E+04 0.  0.
        2    1    3    3  502    0  0.14452066433E+03 -0.63830984638E+02 -0.35005783215E+03  0.38405872321E+03  0.25500000920E-02 0. -1.
       -2    1    3    3    0  502 -0.14452066433E+03  0.63830984638E+02  0.12972826765E+04  0.13068676137E+04  0.25500000920E-02 0.  1.
</event>
<event>
 5   0  0.9260916E-05  0.1401484E+04  0.7818609E-02  0.8952745E-01
       -1   -1    0    0    0  501  0.00000000000E+00  0.00000000000E+00  0.30853186330E+03  0.30853186334E+03  0.50400001928E-02 0. -1.
        1   -1    0    0  501    0  0.00000000000E+00  0.00000000000E+00 -0.15915354644E+04  0.15915354644E+04  0.50400001928E-02 0.  1.
    10030    2    1    2    0    0  0.00000000000E+00  0.00000000000E+00 -0.12830036011E+04  0.19000673278E+04  0.14014840740E+04 0.  0.
        1    1    3    3  502    0 -0.24721061522E+03 -0.11721879668E+03  0.23312864746E+03  0.35944721568E+03  0.50400001928E-02 0. -1.
       -1    1    3    3    0  502  0.24721061522E+03  0.11721879668E+03 -0.15161322486E+04  0.15406201121E+04  0.50400001928E-02 0.  1.
</event>
<event>
 5   0  0.1794185E-04  0.1402150E+04  0.7818609E-02  0.8952264E-01
        2   -1    0    0  501    0  0.00000000000E+00  0.00000000000E+00  0.18379684111E+04  0.18379684111E+04  0.25500000920E-02 0. -1.
       -2   -1    0    0    0  501  0.00000000000E+00  0.00000000000E+00 -0.26741821544E+03  0.26741821546E+03  0.25500000920E-02 0.  1.
    10030    2    1    2    0    0  0.00000000000E+00  0.00000000000E+00  0.15705501956E+04  0.21053866265E+04  0.14021501097E+04 0.  0.
        2    1    3    3  502    0 -0.91309900864E+02 -0.68098341834E+03  0.99457899238E+03  0.12088272358E+04  0.25500000920E-02 0. -1.
       -2    1    3    3    0  502  0.91309900864E+02  0.68098341834E+03  0.57597120327E+03  0.89655939070E+03  0.25500000920E-02 0.  1.
</event>
<event>
 5   0  0.1833681E-04  0.1400604E+04  0.7818609E-02  0.8953381E-01
        2   -1    0    0  501    0  0.00000000000E+00  0.00000000000E+00  0.79503190280E+03  0.79503190281E+03  0.25500000920E-02 0. -1.
       -2   -1    0    0    0  501  0.00000000000E+00  0.00000000000E+00 -0.61685961041E+03  0.61685961041E+03  0.25500000920E-02 0.  1.
    10030    2    1    2    0    0  0.00000000000E+00  0.00000000000E+00  0.17817229240E+03  0.14118915132E+04  0.14006042551E+04 0.  0.
        4    1    3    3  502    0  0.12009059911E+03 -0.39727459166E+03  0.65769979131E+03  0.77770140900E+03  0.12699999809E+01 0. -1.
       -4    1    3    3    0  502 -0.12009059911E+03  0.39727459166E+03 -0.47952749891E+03  0.63419010422E+03  0.12699999809E+01 0.  1.
</event>
<event>
 5   0  0.9260916E-05  0.1378473E+04  0.7818609E-02  0.8969550E-01
       -1   -1    0    0    0  501  0.00000000000E+00  0.00000000000E+00  0.87746905055E+03  0.87746905056E+03  0.50400001928E-02 0.  1.
        1   -1    0    0  501    0  0.00000000000E+00  0.00000000000E+00 -0.54138322591E+03  0.54138322593E+03  0.50400001928E-02 0. -1.
    10030    2    1    2    0    0  0.00000000000E+00  0.00000000000E+00  0.33608582464E+03  0.14188522765E+04  0.13784731049E+04 0.  0.
        1    1    3    3  502    0  0.48412425188E+03 -0.48431540981E+03  0.87591209178E+02  0.69036941371E+03  0.50400001928E-02 0.  1.
       -1    1    3    3    0  502 -0.48412425188E+03  0.48431540981E+03  0.24849461546E+03  0.72848286279E+03  0.50400001928E-02 0. -1.
</event>
<event>
 5   0  0.1712327E-04  0.1399028E+04  0.7818609E-02  0.8954522E-01
        2   -1    0    0  501    0  0.00000000000E+00  0.00000000000E+00  0.88609923039E+03  0.88609923040E+03  0.25500000920E-02 0. -1.
       -2   -1    0    0    0  501  0.00000000000E+00  0.00000000000E+00 -0.55221800879E+03  0.55221800879E+03  0.25500000920E-02 0.  1.
    10030    2    1    2    0    0  0.00000000000E+00  0.00000000000E+00  0.33388122160E+03  0.14383172392E+04  0.13990281664E+04 0.  0.
        1    1    3    3  502    0  0.63299533376E+02 -0.29996221832E+03 -0.47947419288E+03  0.56910426550E+03  0.50400001928E-02 0.  1.
       -1    1    3    3    0  502 -0.63299533376E+02  0.29996221832E+03  0.81335541448E+03  0.86921297369E+03  0.50400001928E-02 0. -1.
</event>
<event>
 5   0  0.9978422E-05  0.1399197E+04  0.7818609E-02  0.8954400E-01
        1   -1    0    0  501    0  0.00000000000E+00  0.00000000000E+00  0.19541719696E+04  0.19541719696E+04  0.50400001928E-02 0. -1.
       -1   -1    0    0    0  501  0.00000000000E+00  0.00000000000E+00 -0.25045809712E+03  0.25045809717E+03  0.50400001928E-02 0.  1.
    10030    2    1    2    0    0  0.00000000000E+00  0.00000000000E+00  0.17037138725E+04  0.22046300668E+04  0.13991971884E+04 0.  0.
        2    1    3    3  502    0 -0.39881365733E+03 -0.97552985341E+02 -0.40669047904E+02  0.41258076747E+03  0.25500000920E-02 0.  1.
       -2    1    3    3    0  502  0.39881365733E+03  0.97552985341E+02  0.17443829204E+04  0.17920492994E+04  0.25500000920E-02 0. -1.
</event>
<event>
 5   0  0.9260916E-05  0.1398910E+04  0.7818609E-02  0.8954608E-01
        1   -1    0    0  501    0  0.00000000000E+00  0.00000000000E+00  0.14801524995E+04  0.14801524995E+04  0.50400001928E-02 0. -1.
       -1   -1    0    0    0  501  0.00000000000E+00  0.00000000000E+00 -0.33053172800E+03  0.33053172803E+03  0.50400001928E-02 0.  1.
    10030    2    1    2    0    0  0.00000000000E+00  0.00000000000E+00  0.11496207715E+04  0.18106842276E+04  0.13989100949E+04 0.  0.
        1    1    3    3  502    0 -0.50901168876E+03 -0.47480593937E+03  0.66358250767E+03  0.96170438487E+03  0.50400001928E-02 0.  1.
       -1    1    3    3    0  502  0.50901168876E+03  0.47480593937E+03  0.48603826385E+03  0.84897984270E+03  0.50400001928E-02 0. -1.
</event>
<event>
 5   0  0.9260916E-05  0.1397746E+04  0.7818609E-02  0.8955452E-01
       -1   -1    0    0    0  501  0.00000000000E+00  0.00000000000E+00  0.15861461755E+04  0.15861461755E+04  0.50400001928E-02 0.  1.
        1   -1    0    0  501    0  0.00000000000E+00  0.00000000000E+00 -0.30793086404E+03  0.30793086408E+03  0.50400001928E-02 0. -1.
    10030    2    1    2    0    0  0.00000000000E+00  0.00000000000E+00  0.12782153115E+04  0.18940770396E+04  0.13977458458E+04 0.  0.
        1    1    3    3  502    0 -0.83578007777E+02 -0.24621071612E+03 -0.23994880508E+03  0.35380846401E+03  0.50400001928E-02 0. -1.
       -1    1    3    3    0  502  0.83578007777E+02  0.24621071612E+03  0.15181641166E+04  0.15402685756E+04  0.50400001928E-02 0.  1.
</event>
<event>
 5   0  0.9260916E-05  0.1393647E+04  0.7818609E-02  0.8958430E-01
        1   -1    0    0  501    0  0.00000000000E+00  0.00000000000E+00  0.82083552542E+03  0.82083552544E+03  0.50400001928E-02 0.  1.
       -1   -1    0    0    0  501  0.00000000000E+00  0.00000000000E+00 -0.59154686949E+03  0.59154686951E+03  0.50400001928E-02 0. -1.
    10030    2    1    2    0    0  0.00000000000E+00  0.00000000000E+00  0.22928865593E+03  0.14123823950E+04  0.13936465627E+04 0.  0.
        1    1    3    3  502    0  0.84371379724E+02  0.53008079072E+03 -0.33569261612E+03  0.63308270151E+03  0.50400001928E-02 0. -1.
       -1    1    3    3    0  502 -0.84371379724E+02 -0.53008079072E+03  0.56498127205E+03  0.77929969344E+03  0.50400001928E-02 0.  1.
</event>
<event>
 5   0  0.9260916E-05  0.1402141E+04  0.7818609E-02  0.8952270E-01
        1   -1    0    0  501    0  0.00000000000E+00  0.00000000000E+00  0.58477181997E+03  0.58477181999E+03  0.50400001928E-02 0.  1.
       -1   -1    0    0    0  501  0.00000000000E+00  0.00000000000E+00 -0.84049820632E+03  0.84049820633E+03  0.50400001928E-02 0. -1.
    10030    2    1    2    0    0  0.00000000000E+00  0.00000000000E+00 -0.25572638635E+03  0.14252700263E+04  0.14021407430E+04 0.  0.
        1    1    3    3  502    0  0.17731761572E+03  0.10039596814E+03 -0.80973315505E+03  0.83497824503E+03  0.50400001928E-02 0. -1.
       -1    1    3    3    0  502 -0.17731761572E+03 -0.10039596814E+03  0.55400676870E+03  0.59029178129E+03  0.50400001928E-02 0.  1.
</event>
<event>
 5   0  0.6671375E-05  0.1399413E+04  0.7818609E-02  0.8954244E-01
       -3   -1    0    0    0  501  0.00000000000E+00  0.00000000000E+00  0.81640519227E+03  0.81640519851E+03  0.10100000352E+00 0. -1.
        3   -1    0    0  501    0  0.00000000000E+00  0.00000000000E+00 -0.59968866395E+03  0.59968867246E+03  0.10100000352E+00 0.  1.
    10030    2    1    2    0    0  0.00000000000E+00  0.00000000000E+00  0.21671652831E+03  0.14160938710E+04  0.13994126617E+04 0.  0.
        3    1    3    3  502    0 -0.59008224017E+02 -0.54013210661E+03  0.55448111285E+03  0.77632079568E+03  0.10100000352E+00 0. -1.
       -3    1    3    3    0  502  0.59008224017E+02  0.54013210661E+03 -0.33776458454E+03  0.63977307529E+03  0.10100000352E+00 0.  1.
</event>
<event>
 5   0  0.9978422E-05  0.1406105E+04  0.7818609E-02  0.8949412E-01
        1   -1    0    0  501    0  0.00000000000E+00  0.00000000000E+00  0.19207973889E+04  0.19207973889E+04  0.50400001928E-02 0.  1.
       -1   -1    0    0    0  501  0.00000000000E+00  0.00000000000E+00 -0.25733196927E+03  0.25733196932E+03  0.50400001928E-02 0. -1.
    10030    2    1    2    0    0  0.00000000000E+00  0.00000000000E+00  0.16634654196E+04  0.21781293582E+04  0.14061046543E+04 0.  0.
        2    1    3    3  502    0  0.37373102481E+03 -0.67016083075E+02 -0.84851428037E+02  0.38905757818E+03  0.25500000920E-02 0. -1.
       -2    1    3    3    0  502 -0.37373102481E+03  0.67016083075E+02  0.17483168477E+04  0.17890717800E+04  0.25500000920E-02 0.  1.
</event>
<event>
 5   0  0.9260916E-05  0.1400518E+04  0.7818609E-02  0.8953444E-01
       -1   -1    0    0    0  501  0.00000000000E+00  0.00000000000E+00  0.98071102210E+03  0.98071102211E+03  0.50400001928E-02 0.  1.
        1   -1    0    0  501    0  0.00000000000E+00  0.00000000000E+00 -0.50000742325E+03  0.50000742328E+03  0.50400001928E-02 0. -1.
    10030    2    1    2    0    0  0.00000000000E+00  0.00000000000E+00  0.48070359885E+03  0.14807184454E+04  0.14005181772E+04 0.  0.
        1    1    3    3  502    0  0.26959773252E+03 -0.15195444572E+01  0.92364059643E+03  0.96218355722E+03  0.50400001928E-02 0.  1.
       -1    1    3    3    0  502 -0.26959773252E+03  0.15195444572E+01 -0.44293699758E+03  0.51853488817E+03  0.50400001928E-02 0. -1.
</event>
<event>
 5   0  0.1794185E-04  0.1398823E+04  0.7818609E-02  0.8954671E-01
        2   -1    0    0  501    0  0.00000000000E+00  0.00000000000E+00  0.16227020318E+04  0.16227020318E+04  0.25500000920E-02 0. -1.
       -2   -1    0    0    0  501  0.00000000000E+00  0.00000000000E+00 -0.30145802992E+03  0.30145802993E+03  0.25500000920E-02 0.  1.
    10030    2    1    2    0    0  0.00000000000E+00  0.00000000000E+00  0.13212440019E+04  0.19241600618E+04  0.13988231592E+04 0.  0.
        2    1    3    3  502    0 -0.56186253865E+03 -0.40569268152E+03  0.79039532407E+03  0.10511901981E+04  0.25500000920E-02 0. -1.
       -2    1    3    3    0  502  0.56186253865E+03  0.40569268152E+03  0.53084867784E+03  0.87296986371E+03  0.25500000920E-02 0.  1.
</event>
<event>
 5   0  0.9978422E-05  0.1395474E+04  0.7818609E-02  0.8957101E-01
        1   -1    0    0  501    0  0.00000000000E+00  0.00000000000E+00  0.68540104392E+03  0.68540104394E+03  0.50400001928E-02 0. -1.
       -1   -1    0    0    0  501  0.00000000000E+00  0.00000000000E+00 -0.71029473422E+03  0.71029473424E+03  0.50400001928E-02 0.  1.
    10030    2    1    2    0    0  0.00000000000E+00  0.00000000000E+00 -0.24893690301E+02  0.13956957782E+04  0.13954737581E+04 0.  0.
        2    1    3    3  502    0  0.15251095003E+03  0.17025215960E+03  0.64689347877E+03  0.68608786654E+03  0.25500000920E-02 0. -1.
       -2    1    3    3    0  502 -0.15251095003E+03 -0.17025215960E+03 -0.67178716907E+03  0.70960791164E+03  0.25500000920E-02 0.  1.
</event>
<event>
 5   0  0.6671375E-05  0.1400675E+04  0.7818609E-02  0.8953330E-01
        1   -1    0    0  501    0  0.00000000000E+00  0.00000000000E+00  0.12417365806E+04  0.12417365806E+04  0.50400001928E-02 0. -1.
       -1   -1    0    0    0  501  0.00000000000E+00  0.00000000000E+00 -0.39498938987E+03  0.39498938990E+03  0.50400001928E-02 0.  1.
    10030    2    1    2    0    0  0.00000000000E+00  0.00000000000E+00  0.84674719076E+03  0.16367259705E+04  0.14006752292E+04 0.  0.
        5    1    3    3  502    0  0.27625689602E+03  0.25502763032E+03 -0.26704033128E+03  0.46118281988E+03  0.46999998093E+01 0.  1.
       -5    1    3    3    0  502 -0.27625689602E+03 -0.25502763032E+03  0.11137875220E+04  0.11755431507E+04  0.46999998093E+01 0. -1.
</event>
<event>
 5   0  0.1712327E-04  0.1404418E+04  0.7818609E-02  0.8950627E-01
       -2   -1    0    0    0  501  0.00000000000E+00  0.00000000000E+00  0.38693032047E+03  0.38693032048E+03  0.25500000920E-02 0.  1.
        2   -1    0    0  501    0  0.00000000000E+00  0.00000000000E+00 -0.12743824364E+04  0.12743824364E+04  0.25500000920E-02 0. -1.
    10030    2    1    2    0    0  0.00000000000E+00  0.00000000000E+00 -0.88745211593E+03  0.16613127569E+04  0.14044176082E+04 0.  0.
        1    1    3    3  502    0 -0.78672648725E+02 -0.66079500719E+02  0.37799116035E+03  0.39170550596E+03  0.50400001928E-02 0.  1.
       -1    1    3    3    0  502  0.78672648725E+02  0.66079500719E+02 -0.12654432763E+04  0.12696072509E+04  0.50400001928E-02 0. -1.
</event>
<event>
 5   0  0.1712327E-04  0.1402138E+04  0.7818609E-02  0.8952272E-01
        2   -1    0    0  501    0  0.00000000000E+00  0.00000000000E+00  0.81336774021E+03  0.81336774022E+03  0.25500000920E-02 0. -1.
       -2   -1    0    0    0  501  0.00000000000E+00  0.00000000000E+00 -0.60427517815E+03  0.60427517815E+03  0.25500000920E-02 0.  1.
    10030    2    1    2    0    0  0.00000000000E+00  0.00000000000E+00  0.20909256206E+03  0.14176429184E+04  0.14021382758E+04 0.  0.
        1    1    3    3  502    0 -0.18111121813E+02 -0.62203549270E+03 -0.22188885239E+03  0.66067452634E+03  0.50400001928E-02 0.  1.
       -1    1    3    3    0  502  0.18111121813E+02  0.62203549270E+03  0.43098141446E+03  0.75696839203E+03  0.50400001928E-02 0. -1.
</event>
<event>
 5   0  0.1794185E-04  0.1399899E+04  0.7818609E-02  0.8953892E-01
        2   -1    0    0  501    0  0.00000000000E+00  0.00000000000E+00  0.69168934353E+03  0.69168934354E+03  0.25500000920E-02 0.  1.
       -2   -1    0    0    0  501  0.00000000000E+00  0.00000000000E+00 -0.70830796219E+03  0.70830796220E+03  0.25500000920E-02 0. -1.
    10030    2    1    2    0    0  0.00000000000E+00  0.00000000000E+00 -0.16618618661E+02  0.13999973057E+04  0.13998986669E+04 0.  0.
        2    1    3    3  502    0  0.12653939825E+03 -0.68838102433E+03 -0.15267918763E+02  0.70008125480E+03  0.25500000920E-02 0.  1.
       -2    1    3    3    0  502 -0.12653939825E+03  0.68838102433E+03 -0.13506998974E+01  0.69991605094E+03  0.25500000920E-02 0. -1.
</event>
<event>
 5   0  0.1780171E-04  0.1397797E+04  0.7818609E-02  0.8955414E-01
        2   -1    0    0  501    0  0.00000000000E+00  0.00000000000E+00  0.35999608842E+03  0.35999608843E+03  0.25500000920E-02 0.  1.
       -2   -1    0    0    0  501  0.00000000000E+00  0.00000000000E+00 -0.13568465655E+04  0.13568465655E+04  0.25500000920E-02 0. -1.
    10030    2    1    2    0    0  0.00000000000E+00  0.00000000000E+00 -0.99685047709E+03  0.17168426539E+04  0.13977974906E+04 0.  0.
        5    1    3    3  502    0  0.32897276165E+02 -0.59063507337E+03 -0.41316519159E+02  0.59301025744E+03  0.46999998093E+01 0.  1.
       -5    1    3    3    0  502 -0.32897276165E+02  0.59063507337E+03 -0.95553395794E+03  0.11238323965E+04  0.46999998093E+01 0. -1.
</event>
<event>
 5   0  0.9828111E-05  0.1399240E+04  0.7818609E-02  0.8954369E-01
        1   -1    0    0  501    0  0.00000000000E+00  0.00000000000E+00  0.12722707767E+04  0.12722707767E+04  0.50400001928E-02 0. -1.
       -1   -1    0    0    0  501  0.00000000000E+00  0.00000000000E+00 -0.38472012530E+03  0.38472012533E+03  0.50400001928E-02 0.  1.
    10030    2    1    2    0    0  0.00000000000E+00  0.00000000000E+00  0.88755065143E+03  0.16569909021E+04  0.13992400404E+04 0.  0.
        4    1    3    3  502    0 -0.50322961588E+03 -0.48217849029E+03  0.37144730358E+03  0.78975366731E+03  0.12699999809E+01 0. -1.
       -4    1    3    3    0  502  0.50322961588E+03  0.48217849029E+03  0.51610334784E+03  0.86723723475E+03  0.12699999809E+01 0.  1.
</event>
<event>
 5   0  0.1712327E-04  0.1399690E+04  0.7818609E-02  0.8954043E-01
       -2   -1    0    0    0  501  0.00000000000E+00  0.00000000000E+00  0.46929126169E+03  0.46929126169E+03  0.25500000920E-02 0. -1.
        2   -1    0    0  501    0  0.00000000000E+00  0.00000000000E+00 -0.10436651026E+04  0.10436651026E+04  0.25500000920E-02 0.  1.
    10030    2    1    2    0    0  0.00000000000E+00  0.00000000000E+00 -0.57437384093E+03  0.15129563643E+04  0.13996898411E+04 0.  0.
        1    1    3    3  502    0  0.43873617181E+03  0.20590161371E+03 -0.83291690257E+03  0.96365734034E+03  0.50400001928E-02 0.  1.
       -1    1    3    3    0  502 -0.43873617181E+03 -0.20590161371E+03  0.25854306164E+03  0.54929902397E+03  0.50400001928E-02 0. -1.
</event>
<event>
 5   0  0.9260916E-05  0.1395669E+04  0.7818609E-02  0.8956959E-01
        1   -1    0    0  501    0  0.00000000000E+00  0.00000000000E+00  0.77235464561E+03  0.77235464562E+03  0.50400001928E-02 0. -1.
       -1   -1    0    0    0  501  0.00000000000E+00  0.00000000000E+00 -0.63050482023E+03  0.63050482025E+03  0.50400001928E-02 0.  1.
    10030    2    1    2    0    0  0.00000000000E+00  0.00000000000E+00  0.14184982538E+03  0.14028594659E+04  0.13956694838E+04 0.  0.
        1    1    3    3  502    0  0.85031325916E+02 -0.29425873077E+03 -0.55932584327E+03  0.63770206680E+03  0.50400001928E-02 0.  1.
       -1    1    3    3    0  502 -0.85031325916E+02  0.29425873077E+03  0.70117566865E+03  0.76515739907E+03  0.50400001928E-02 0. -1.
</event>
<event>
 5   0  0.9978422E-05  0.1414471E+04  0.7818609E-02  0.8943410E-01
        1   -1    0    0  501    0  0.00000000000E+00  0.00000000000E+00  0.52739965529E+03  0.52739965532E+03  0.50400001928E-02 0. -1.
       -1   -1    0    0    0  501  0.00000000000E+00  0.00000000000E+00 -0.94839234290E+03  0.94839234292E+03  0.50400001928E-02 0.  1.
    10030    2    1    2    0    0  0.00000000000E+00  0.00000000000E+00 -0.42099268761E+03  0.14757919982E+04  0.14144706356E+04 0.  0.
        2    1    3    3  502    0 -0.49172466802E+03  0.11314579033E+03 -0.72754762142E+03  0.88539294127E+03  0.25500000920E-02 0.  1.
       -2    1    3    3    0  502  0.49172466802E+03 -0.11314579033E+03  0.30655493381E+03  0.59039905696E+03  0.25500000920E-02 0. -1.
</event>
<event>
 5   0  0.9260916E-05  0.1399315E+04  0.7818609E-02  0.8954315E-01
       -1   -1    0    0    0  501  0.00000000000E+00  0.00000000000E+00  0.42878958802E+03  0.42878958805E+03  0.50400001928E-02 0.  1.
        1   -1    0    0  501    0  0.00000000000E+00  0.00000000000E+00 -0.11416335884E+04  0.11416335884E+04  0.50400001928E-02 0. -1.
    10030    2    1    2    0    0  0.00000000000E+00  0.00000000000E+00 -0.71284400040E+03  0.15704231765E+04  0.13993149697E+04 0.  0.
        1    1    3    3  502    0 -0.64819438418E+03  0.47499605310E+02 -0.64715192457E+03  0.91717925493E+03  0.50400001928E-02 0. -1.
       -1    1    3    3    0  502  0.64819438418E+03 -0.47499605310E+02 -0.65692075839E+02  0.65324392155E+03  0.50400001928E-02 0.  1.
</event>
<event>
 5   0  0.6671375E-05  0.1399482E+04  0.7818609E-02  0.8954194E-01
        1   -1    0    0  501    0  0.00000000000E+00  0.00000000000E+00  0.17707253953E+04  0.17707253953E+04  0.50400001928E-02 0. -1.
       -1   -1    0    0    0  501  0.00000000000E+00  0.00000000000E+00 -0.27651786472E+03  0.27651786477E+03  0.50400001928E-02 0.  1.
    10030    2    1    2    0    0  0.00000000000E+00  0.00000000000E+00  0.14942075306E+04  0.20472432601E+04  0.13994816260E+04 0.  0.
        5    1    3    3  502    0  0.45234306856E+01 -0.61981095008E+03  0.27211605240E+03  0.67694557479E+03  0.46999998093E+01 0. -1.
       -5    1    3    3    0  502 -0.45234306856E+01  0.61981095008E+03  0.12220914782E+04  0.13702976853E+04  0.46999998093E+01 0.  1.
</event>
<event>
 5   0  0.9978422E-05  0.1396504E+04  0.7818609E-02  0.8956353E-01
        1   -1    0    0  501    0  0.00000000000E+00  0.00000000000E+00  0.11780580876E+04  0.11780580876E+04  0.50400001928E-02 0.  1.
       -1   -1    0    0    0  501  0.00000000000E+00  0.00000000000E+00 -0.41386421328E+03  0.41386421331E+03  0.50400001928E-02 0. -1.
    10030    2    1    2    0    0  0.00000000000E+00  0.00000000000E+00  0.76419387430E+03  0.15919223009E+04  0.13965043267E+04 0.  0.
        2    1    3    3  502    0  0.81202039313E+02  0.13035335576E+03 -0.39437305912E+03  0.42322083870E+03  0.25500000920E-02 0. -1.
       -2    1    3    3    0  502 -0.81202039313E+02 -0.13035335576E+03  0.11585669334E+04  0.11687014622E+04  0.25500000920E-02 0.  1.
</event>
<event>
 5   0  0.1712327E-04  0.1401060E+04  0.7818609E-02  0.8953052E-01
        2   -1    0    0  501    0  0.00000000000E+00  0.00000000000E+00  0.13727046052E+04  0.13727046052E+04  0.25500000920E-02 0. -1.
       -2   -1    0    0    0  501  0.00000000000E+00  0.00000000000E+00 -0.35750009643E+03  0.35750009644E+03  0.25500000920E-02 0.  1.
    10030    2    1    2    0    0  0.00000000000E+00  0.00000000000E+00  0.10152045087E+04  0.17302047016E+04  0.14010596400E+04 0.  0.
        1    1    3    3  502    0 -0.10078940876E+03  0.58782776129E+03  0.96141362277E+03  0.11313779810E+04  0.50400001928E-02 0. -1.
       -1    1    3    3    0  502  0.10078940876E+03 -0.58782776129E+03  0.53790885958E+02  0.59882672059E+03  0.50400001928E-02 0.  1.
</event>
<event>
 5   0  0.1766237E-04  0.1400302E+04  0.7818609E-02  0.8953600E-01
        2   -1    0    0  501    0  0.00000000000E+00  0.00000000000E+00  0.10692800518E+04  0.10692800518E+04  0.25500000920E-02 0. -1.
       -2   -1    0    0    0  501  0.00000000000E+00  0.00000000000E+00 -0.45845006112E+03  0.45845006112E+03  0.25500000920E-02 0.  1.
    10030    2    1    2    0    0  0.00000000000E+00  0.00000000000E+00  0.61082999066E+03  0.15277301129E+04  0.14003021175E+04 0.  0.
        3    1    3    3  502    0 -0.66878382435E+03  0.10285599465E+03  0.50167481776E+03  0.84233532060E+03  0.10100000352E+00 0. -1.
       -3    1    3    3    0  502  0.66878382435E+03 -0.10285599465E+03  0.10915517290E+03  0.68539479230E+03  0.10100000352E+00 0.  1.
</event>
<event>
 5   0  0.9260916E-05  0.1402009E+04  0.7818609E-02  0.8952366E-01
       -1   -1    0    0    0  501  0.00000000000E+00  0.00000000000E+00  0.85658086208E+03  0.85658086210E+03  0.50400001928E-02 0.  1.
        1   -1    0    0  501    0  0.00000000000E+00  0.00000000000E+00 -0.57368453738E+03  0.57368453741E+03  0.50400001928E-02 0. -1.
    10030    2    1    2    0    0  0.00000000000E+00  0.00000000000E+00  0.28289632470E+03  0.14302653995E+04  0.14020088382E+04 0.  0.
        1    1    3    3  502    0 -0.67476892963E+03 -0.18925066853E+03  0.12443048162E+03  0.71176672352E+03  0.50400001928E-02 0. -1.
       -1    1    3    3    0  502  0.67476892963E+03  0.18925066853E+03  0.15846584308E+03  0.71849867598E+03  0.50400001928E-02 0.  1.
</event>
<event>
 5   0  0.9978422E-05  0.1399266E+04  0.7818609E-02  0.8954350E-01
       -1   -1    0    0    0  501  0.00000000000E+00  0.00000000000E+00  0.39854651819E+03  0.39854651822E+03  0.50400001928E-02 0. -1.
        1   -1    0    0  501    0  0.00000000000E+00  0.00000000000E+00 -0.12281787965E+04  0.12281787965E+04  0.50400001928E-02 0.  1.
    10030    2    1    2    0    0  0.00000000000E+00  0.00000000000E+00 -0.82963227832E+03  0.16267253147E+04  0.13992660692E+04 0.  0.
        2    1    3    3  502    0 -0.81709561520E+02 -0.65139608317E+03 -0.13364797653E+03  0.66996648517E+03  0.25500000920E-02 0. -1.
       -2    1    3    3    0  502  0.81709561520E+02  0.65139608317E+03 -0.69598430178E+03  0.95675882956E+03  0.25500000920E-02 0.  1.
</event>
<event>
 5   0  0.6671375E-05  0.1392654E+04  0.7818609E-02  0.8959153E-01
        1   -1    0    0  501    0  0.00000000000E+00  0.00000000000E+00  0.78061726054E+03  0.78061726055E+03  0.50400001928E-02 0. -1.
       -1   -1    0    0    0  501  0.00000000000E+00  0.00000000000E+00 -0.62113866056E+03  0.62113866058E+03  0.50400001928E-02 0.  1.
    10030    2    1    2    0    0  0.00000000000E+00  0.00000000000E+00  0.15947859998E+03  0.14017559211E+04  0.13926543859E+04 0.  0.
        5    1    3    3  502    0  0.58190029976E+03  0.13474338446E+03  0.43996892322E+03  0.74186149780E+03  0.46999998093E+01 0. -1.
       -5    1    3    3    0  502 -0.58190029976E+03 -0.13474338446E+03 -0.28049032324E+03  0.65989442333E+03  0.46999998093E+01 0.  1.
</event>
<event>
 5   0  0.9260916E-05  0.1402177E+04  0.7818609E-02  0.8952244E-01
        1   -1    0    0  501    0  0.00000000000E+00  0.00000000000E+00  0.39630641222E+03  0.39630641225E+03  0.50400001928E-02 0.  1.
       -1   -1    0    0    0  501  0.00000000000E+00  0.00000000000E+00 -0.12402656331E+04  0.12402656331E+04  0.50400001928E-02 0. -1.
    10030    2    1    2    0    0  0.00000000000E+00  0.00000000000E+00 -0.84395922087E+03  0.16365720454E+04  0.14021771975E+04 0.  0.
        1    1    3    3  502    0 -0.32408200690E+03 -0.23881174285E+03 -0.10919211224E+04  0.11637662709E+04  0.50400001928E-02 0. -1.
       -1    1    3    3    0  502  0.32408200690E+03  0.23881174285E+03  0.24796190153E+03  0.47280577445E+03  0.50400001928E-02 0.  1.
</event>
<event>
 5   0  0.9978422E-05  0.1395821E+04  0.7818609E-02  0.8956849E-01
       -1   -1    0    0    0  501  0.00000000000E+00  0.00000000000E+00  0.52982656721E+03  0.52982656723E+03  0.50400001928E-02 0. -1.
        1   -1    0    0  501    0  0.00000000000E+00  0.00000000000E+00 -0.91931833210E+03  0.91931833212E+03  0.50400001928E-02 0.  1.
    10030    2    1    2    0    0  0.00000000000E+00  0.00000000000E+00 -0.38949176490E+03  0.14491448993E+04  0.13958213010E+04 0.  0.
        2    1    3    3  502    0  0.55729826260E+03  0.89130280681E+02 -0.62098289210E+03  0.83913366797E+03  0.25500000920E-02 0.  1.
       -2    1    3    3    0  502 -0.55729826260E+03 -0.89130280681E+02  0.23149112721E+03  0.61001123138E+03  0.25500000920E-02 0. -1.
</event>
<event>
 5   0  0.9900839E-05  0.1399774E+04  0.7818609E-02  0.8953982E-01
       -1   -1    0    0    0  501  0.00000000000E+00  0.00000000000E+00  0.70784206522E+03  0.70784206524E+03  0.50400001928E-02 0. -1.
        1   -1    0    0  501    0  0.00000000000E+00  0.00000000000E+00 -0.69202181012E+03  0.69202181014E+03  0.50400001928E-02 0.  1.
    10030    2    1    2    0    0  0.00000000000E+00  0.00000000000E+00  0.15820255098E+02  0.13998638754E+04  0.13997744779E+04 0.  0.
        3    1    3    3  502    0 -0.10588850853E+03  0.41300510083E+03  0.56297399523E+03  0.70620487046E+03  0.10100000352E+00 0. -1.
       -3    1    3    3    0  502  0.10588850853E+03 -0.41300510083E+03 -0.54715374014E+03  0.69365900491E+03  0.10100000352E+00 0.  1.
</event>
<event>
 5   0  0.1712327E-04  0.1398493E+04  0.7818609E-02  0.8954910E-01
        2   -1    0    0  501    0  0.00000000000E+00  0.00000000000E+00  0.10424287614E+04  0.10424287614E+04  0.25500000920E-02 0.  1.
       -2   -1    0    0    0  501  0.00000000000E+00  0.00000000000E+00 -0.46904471854E+03  0.46904471855E+03  0.25500000920E-02 0. -1.
    10030    2    1    2    0    0  0.00000000000E+00  0.00000000000E+00  0.57338404290E+03  0.15114734800E+04  0.13984930533E+04 0.  0.
        1    1    3    3  502    0 -0.20066205803E+03 -0.51436225812E+03 -0.17705502947E+03  0.57981227790E+03  0.50400001928E-02 0. -1.
       -1    1    3    3    0  502  0.20066205803E+03  0.51436225812E+03  0.75043907237E+03  0.93166120209E+03  0.50400001928E-02 0.  1.
</event>
<event>
 5   0  0.6671375E-05  0.1399623E+04  0.7818609E-02  0.8954092E-01
       -1   -1    0    0    0  501  0.00000000000E+00  0.00000000000E+00  0.45972178718E+03  0.45972178721E+03  0.50400001928E-02 0.  1.
        1   -1    0    0  501    0  0.00000000000E+00  0.00000000000E+00 -0.10652876947E+04  0.10652876947E+04  0.50400001928E-02 0. -1.
    10030    2    1    2    0    0  0.00000000000E+00  0.00000000000E+00 -0.60556590755E+03  0.15250094820E+04  0.13996227533E+04 0.  0.
        5    1    3    3  502    0 -0.45059429197E+03  0.39239471046E+03 -0.69970504596E+03  0.92011850655E+03  0.46999998093E+01 0. -1.
       -5    1    3    3    0  502  0.45059429197E+03 -0.39239471046E+03  0.94139138407E+02  0.60489097541E+03  0.46999998093E+01 0.  1.
</event>
<event>
 5   0  0.1794185E-04  0.1401786E+04  0.7818609E-02  0.8952527E-01
        2   -1    0    0  501    0  0.00000000000E+00  0.00000000000E+00  0.99901405209E+03  0.99901405210E+03  0.25500000920E-02 0. -1.
       -2   -1    0    0    0  501  0.00000000000E+00  0.00000000000E+00 -0.49173553526E+03  0.49173553527E+03  0.25500000920E-02 0.  1.
    10030    2    1    2    0    0  0.00000000000E+00  0.00000000000E+00  0.50727851683E+03  0.14907495874E+04  0.14017855894E+04 0.  0.
        2    1    3    3  502    0 -0.68366217936E+03  0.15185271022E+03  0.22360718378E+03  0.73515535347E+03  0.25500000920E-02 0.  1.
       -2    1    3    3    0  502  0.68366217936E+03 -0.15185271022E+03  0.28367133306E+03  0.75559423390E+03  0.25500000920E-02 0. -1.
</event>
<event>
 5   0  0.9978422E-05  0.1398147E+04  0.7818609E-02  0.8955161E-01
        1   -1    0    0  501    0  0.00000000000E+00  0.00000000000E+00  0.75907918214E+03  0.75907918216E+03  0.50400001928E-02 0. -1.
       -1   -1    0    0    0  501  0.00000000000E+00  0.00000000000E+00 -0.64381159105E+03  0.64381159107E+03  0.50400001928E-02 0.  1.
    10030    2    1    2    0    0  0.00000000000E+00  0.00000000000E+00  0.11526759109E+03  0.14028907732E+04  0.13981473113E+04 0.  0.
        2    1    3    3  502    0 -0.30178369284E+03  0.62360992507E+03 -0.36178000688E+02  0.69373740252E+03  0.25500000920E-02 0. -1.
       -2    1    3    3    0  502  0.30178369284E+03 -0.62360992507E+03  0.15144559178E+03  0.70915337071E+03  0.25500000920E-02 0.  1.
</event>
<event>
 5   0  0.1766237E-04  0.1398632E+04  0.7818609E-02  0.8954810E-01
        2   -1    0    0  501    0  0.00000000000E+00  0.00000000000E+00  0.51546409490E+03  0.51546409491E+03  0.25500000920E-02 0. -1.
       -2   -1    0    0    0  501  0.00000000000E+00  0.00000000000E+00 -0.94874242825E+03  0.94874242825E+03  0.25500000920E-02 0.  1.
    10030    2    1    2    0    0  0.00000000000E+00  0.00000000000E+00 -0.43327833334E+03  0.14642065232E+04  0.13986316986E+04 0.  0.
        3    1    3    3  502    0 -0.21945589778E+03 -0.59759214773E+03 -0.51963123098E+03  0.82176267407E+03  0.10100000352E+00 0.  1.
       -3    1    3    3    0  502  0.21945589778E+03  0.59759214773E+03  0.86352897632E+02  0.64244384908E+03  0.10100000352E+00 0. -1.
</event>
<event>
 5   0  0.9260916E-05  0.1396355E+04  0.7818609E-02  0.8956461E-01
       -1   -1    0    0    0  501  0.00000000000E+00  0.00000000000E+00  0.42358225102E+03  0.42358225105E+03  0.50400001928E-02 0. -1.
        1   -1    0    0  501    0  0.00000000000E+00  0.00000000000E+00 -0.11507849921E+04  0.11507849922E+04  0.50400001928E-02 0.  1.
    10030    2    1    2    0    0  0.00000000000E+00  0.00000000000E+00 -0.72720274113E+03  0.15743672432E+04  0.13963553952E+04 0.  0.
        1    1    3    3  502    0  0.50096252537E+03  0.25037740524E+03 -0.83364125906E+03  0.10042957959E+04  0.50400001928E-02 0.  1.
       -1    1    3    3    0  502 -0.50096252537E+03 -0.25037740524E+03  0.10643851793E+03  0.57007144728E+03  0.50400001928E-02 0. -1.
</event>
<event>
 5   0  0.1766237E-04  0.1400000E+04  0.7818609E-02  0.8953819E-01
        2   -1    0    0  501    0  0.00000000000E+00  0.00000000000E+00  0.17734071616E+04  0.17734071616E+04  0.25500000920E-02 0.  1.
       -2   -1    0    0    0  501  0.00000000000E+00  0.00000000000E+00 -0.27630428974E+03  0.27630428975E+03  0.25500000920E-02 0. -1.
    10030    2    1    2    0    0  0.00000000000E+00  0.00000000000E+00  0.14971028718E+04  0.20497114513E+04  0.14000000089E+04 0.  0.
        3    1    3    3  502    0  0.17341745630E+03  0.35011832757E+03  0.15989076448E+04  0.16459532570E+04  0.10100000352E+00 0.  1.
       -3    1    3    3    0  502 -0.17341745630E+03 -0.35011832757E+03 -0.10180477299E+03  0.40375819428E+03  0.10100000352E+00 0. -1.
</event>
<event>
 5   0  0.9900839E-05  0.1400864E+04  0.7818609E-02  0.8953194E-01
        1   -1    0    0  501    0  0.00000000000E+00  0.00000000000E+00  0.60659757537E+03  0.60659757539E+03  0.50400001928E-02 0.  1.
       -1   -1    0    0    0  501  0.00000000000E+00  0.00000000000E+00 -0.80878118660E+03  0.80878118661E+03  0.50400001928E-02 0. -1.
    10030    2    1    2    0    0  0.00000000000E+00  0.00000000000E+00 -0.20218361123E+03  0.14153787620E+04  0.14008636005E+04 0.  0.
        3    1    3    3  502    0  0.72917793438E+02 -0.31093423303E+03 -0.73093503580E+03  0.79766104244E+03  0.10100000352E+00 0. -1.
       -3    1    3    3    0  502 -0.72917793438E+02  0.31093423303E+03  0.52875142457E+03  0.61771771956E+03  0.10100000352E+00 0.  1.
</event>
<event>
 5   0  0.6671375E-05  0.1401259E+04  0.7818609E-02  0.8952908E-01
        1   -1    0    0  501    0  0.00000000000E+00  0.00000000000E+00  0.64106394400E+03  0.64106394402E+03  0.50400001928E-02 0.  1.
       -1   -1    0    0    0  501  0.00000000000E+00  0.00000000000E+00 -0.76572976926E+03  0.76572976927E+03  0.50400001928E-02 0. -1.
    10030    2    1    2    0    0  0.00000000000E+00  0.00000000000E+00 -0.12466582526E+03  0.14067937133E+04  0.14012590709E+04 0.  0.
        5    1    3    3  502    0  0.13318617208E+02 -0.58442592750E+03 -0.45002993054E+03  0.73775339963E+03  0.46999998093E+01 0. -1.
       -5    1    3    3    0  502 -0.13318617208E+02  0.58442592750E+03  0.32536410528E+03  0.66904031365E+03  0.46999998093E+01 0.  1.
</event>
<event>
 5   0  0.9900839E-05  0.1400863E+04  0.7818609E-02  0.8953194E-01
       -1   -1    0    0    0  501  0.00000000000E+00  0.00000000000E+00  0.84060014103E+03  0.84060014104E+03  0.50400001928E-02 0.  1.
        1   -1    0    0  501    0  0.00000000000E+00  0.00000000000E+00 -0.58363605890E+03  0.58363605892E+03  0.50400001928E-02 0. -1.
    10030    2    1    2    0    0  0.00000000000E+00  0.00000000000E+00  0.25696408213E+03  0.14242362000E+04  0.14008633816E+04 0.  0.
        3    1    3    3  502    0 -0.35228813898E+03 -0.47632229944E+03 -0.25140263547E+03  0.64357840325E+03  0.10100000352E+00 0. -1.
       -3    1    3    3    0  502  0.35228813898E+03  0.47632229944E+03  0.50836671760E+03  0.78065779671E+03  0.10100000352E+00 0.  1.
</event>
<event>
 5   0  0.1780171E-04  0.1399686E+04  0.7818609E-02  0.8954046E-01
       -2   -1    0    0    0  501  0.00000000000E+00  0.00000000000E+00  0.40123228258E+03  0.40123228259E+03  0.25500000920E-02 0.  1.
        2   -1    0    0  501    0  0.00000000000E+00  0.00000000000E+00 -0.12206903845E+04  0.12206903845E+04  0.25500000920E-02 0. -1.
    10030    2    1    2    0    0  0.00000000000E+00  0.00000000000E+00 -0.81945810188E+03  0.16219226671E+04  0.13996862353E+04 0.  0.
        5    1    3    3  502    0 -0.10272477237E+02  0.30821985662E+03 -0.11376887192E+04  0.11787547309E+04  0.46999998093E+01 0. -1.
       -5    1    3    3    0  502  0.10272477237E+02 -0.30821985662E+03  0.31823061735E+03  0.44316793613E+03  0.46999998093E+01 0.  1.
</event>
<event>
 5   0  0.1712327E-04  0.1392746E+04  0.7818609E-02  0.8959086E-01
       -2   -1    0    0    0  501  0.00000000000E+00  0.00000000000E+00  0.33524292610E+03  0.33524292611E+03  0.25500000920E-02 0.  1.
        2   -1    0    0  501    0  0.00000000000E+00  0.00000000000E+00 -0.14465202377E+04  0.14465202377E+04  0.25500000920E-02 0. -1.
    10030    2    1    2    0    0  0.00000000000E+00  0.00000000000E+00 -0.11112773116E+04  0.17817631638E+04  0.13927464624E+04 0.  0.
        1    1    3    3  502    0  0.68593475020E+03  0.14168748657E+02 -0.40303793388E+03  0.79570522880E+03  0.50400001928E-02 0.  1.
       -1    1    3    3    0  502 -0.68593475020E+03 -0.14168748657E+02 -0.70823937768E+03  0.98605793496E+03  0.50400001928E-02 0. -1.
</event>
<event>
 5   0  0.1712327E-04  0.1399397E+04  0.7818609E-02  0.8954255E-01
       -2   -1    0    0    0  501  0.00000000000E+00  0.00000000000E+00  0.92595694286E+03  0.92595694286E+03  0.25500000920E-02 0. -1.
        2   -1    0    0  501    0  0.00000000000E+00  0.00000000000E+00 -0.52872669385E+03  0.52872669386E+03  0.25500000920E-02 0.  1.
    10030    2    1    2    0    0  0.00000000000E+00  0.00000000000E+00  0.39723024901E+03  0.14546836367E+04  0.13993972317E+04 0.  0.
        1    1    3    3  502    0 -0.63289670342E+03  0.53011806768E+02  0.50382987593E+03  0.81068676612E+03  0.50400001928E-02 0. -1.
       -1    1    3    3    0  502  0.63289670342E+03 -0.53011806768E+02 -0.10659962692E+03  0.64399687060E+03  0.50400001928E-02 0.  1.
</event>
<event>
 5   0  0.9978422E-05  0.1401688E+04  0.7818609E-02  0.8952598E-01
        1   -1    0    0  501    0  0.00000000000E+00  0.00000000000E+00  0.14775681838E+04  0.14775681838E+04  0.50400001928E-02 0.  1.
       -1   -1    0    0    0  501  0.00000000000E+00  0.00000000000E+00 -0.33242616096E+03  0.33242616100E+03  0.50400001928E-02 0. -1.
    10030    2    1    2    0    0  0.00000000000E+00  0.00000000000E+00  0.11451420228E+04  0.18099943448E+04  0.14016880094E+04 0.  0.
        2    1    3    3  502    0  0.56714091163E+03  0.32179736866E+03  0.24088139221E+03  0.69514473690E+03  0.25500000920E-02 0. -1.
       -2    1    3    3    0  502 -0.56714091163E+03 -0.32179736866E+03  0.90426063062E+03  0.11148496079E+04  0.25500000920E-02 0.  1.
</event>
<event>
 5   0  0.6671375E-05  0.1412204E+04  0.7818609E-02  0.8945032E-01
       -4   -1    0    0    0  501  0.00000000000E+00  0.00000000000E+00  0.58499041009E+03  0.58499178866E+03  0.12699999809E+01 0.  1.
        4   -1    0    0  501    0  0.00000000000E+00  0.00000000000E+00 -0.85228416502E+03  0.85228511124E+03  0.12699999809E+01 0. -1.
    10030    2    1    2    0    0  0.00000000000E+00  0.00000000000E+00 -0.26729375493E+03  0.14372768999E+04  0.14122035744E+04 0.  0.
        4    1    3    3  502    0 -0.36747061920E+03  0.35522832283E+03  0.36219536644E+03  0.62642550529E+03  0.12699999809E+01 0.  1.
       -4    1    3    3    0  502  0.36747061920E+03 -0.35522832283E+03 -0.62948912137E+03  0.81085139461E+03  0.12699999809E+01 0. -1.
</event>
<event>
 5   0  0.1794185E-04  0.1397396E+04  0.7818609E-02  0.8955706E-01
        2   -1    0    0  501    0  0.00000000000E+00  0.00000000000E+00  0.34958642381E+03  0.34958642382E+03  0.25500000920E-02 0. -1.
       -2   -1    0    0    0  501  0.00000000000E+00  0.00000000000E+00 -0.13964467913E+04  0.13964467913E+04  0.25500000920E-02 0.  1.
    10030    2    1    2    0    0  0.00000000000E+00  0.00000000000E+00 -0.10468603674E+04  0.17460332151E+04  0.13973959207E+04 0.  0.
        2    1    3    3  502    0 -0.12414222491E+03  0.13562993187E+03  0.31881559600E+03  0.36803553454E+03  0.25500000920E-02 0. -1.
       -2    1    3    3    0  502  0.12414222491E+03 -0.13562993187E+03 -0.13656759634E+04  0.13779976805E+04  0.25500000920E-02 0.  1.
</event>
<event>
 5   0  0.6671375E-05  0.1395140E+04  0.7818609E-02  0.8957344E-01
       -1   -1    0    0    0  501  0.00000000000E+00  0.00000000000E+00  0.77087155904E+03  0.77087155905E+03  0.50400001928E-02 0.  1.
        1   -1    0    0  501    0  0.00000000000E+00  0.00000000000E+00 -0.63123899198E+03  0.63123899200E+03  0.50400001928E-02 0. -1.
    10030    2    1    2    0    0  0.00000000000E+00  0.00000000000E+00  0.13963256706E+03  0.14021105510E+04  0.13951404028E+04 0.  0.
        5    1    3    3  502    0  0.54052728900E+03  0.42013969784E+03 -0.64624164401E+02  0.68766669868E+03  0.46999998093E+01 0. -1.
       -5    1    3    3    0  502 -0.54052728900E+03 -0.42013969784E+03  0.20425673146E+03  0.71444385237E+03  0.46999998093E+01 0.  1.
</event>
<event>
 5   0  0.9828111E-05  0.1398633E+04  0.7818609E-02  0.8954809E-01
        1   -1    0    0  501    0  0.00000000000E+00  0.00000000000E+00  0.62614417294E+03  0.62614417296E+03  0.50400001928E-02 0. -1.
       -1   -1    0    0    0  501  0.00000000000E+00  0.00000000000E+00 -0.78104007418E+03  0.78104007420E+03  0.50400001928E-02 0.  1.
    10030    2    1    2    0    0  0.00000000000E+00  0.00000000000E+00 -0.15489590124E+03  0.14071842472E+04  0.13986331775E+04 0.  0.
        4    1    3    3  502    0  0.50673826532E+03  0.46785518027E+03  0.38887440529E+02  0.69078649753E+03  0.12699999809E+01 0.  1.
       -4    1    3    3    0  502 -0.50673826532E+03 -0.46785518027E+03 -0.19378334177E+03  0.71639774964E+03  0.12699999809E+01 0. -1.
</event>
<event>
 5   0  0.9900839E-05  0.1399418E+04  0.7818609E-02  0.8954240E-01
       -1   -1    0    0    0  501  0.00000000000E+00  0.00000000000E+00  0.11189471151E+04  0.11189471151E+04  0.50400001928E-02 0.  1.
        1   -1    0    0  501    0  0.00000000000E+00  0.00000000000E+00 -0.43754779028E+03  0.43754779031E+03  0.50400001928E-02 0. -1.
    10030    2    1    2    0    0  0.00000000000E+00  0.00000000000E+00  0.68139932483E+03  0.15564949054E+04  0.13994182187E+04 0.  0.
        3    1    3    3  502    0 -0.80196626900E+01  0.45303242416E+03 -0.25233636095E+03  0.51862929110E+03  0.10100000352E+00 0. -1.
       -3    1    3    3    0  502  0.80196626900E+01 -0.45303242416E+03  0.93373568578E+03  0.10378656143E+04  0.10100000352E+00 0.  1.
</event>
<event>
 5   0  0.6671375E-05  0.1398306E+04  0.7818609E-02  0.8955046E-01
        1   -1    0    0  501    0  0.00000000000E+00  0.00000000000E+00  0.59902241238E+03  0.59902241240E+03  0.50400001928E-02 0. -1.
       -1   -1    0    0    0  501  0.00000000000E+00  0.00000000000E+00 -0.81602077484E+03  0.81602077486E+03  0.50400001928E-02 0.  1.
    10030    2    1    2    0    0  0.00000000000E+00  0.00000000000E+00 -0.21699836246E+03  0.14150431873E+04  0.13983057364E+04 0.  0.
        5    1    3    3  502    0 -0.50757568267E+03  0.41030281708E+03 -0.36212063606E+03  0.74641471073E+03  0.46999998093E+01 0.  1.
       -5    1    3    3    0  502  0.50757568267E+03 -0.41030281708E+03  0.14512227360E+03  0.66862847653E+03  0.46999998093E+01 0. -1.
</event>
<event>
 5   0  0.1794185E-04  0.1400075E+04  0.7818609E-02  0.8953764E-01
       -2   -1    0    0    0  501  0.00000000000E+00  0.00000000000E+00  0.32244957683E+03  0.32244957684E+03  0.25500000920E-02 0.  1.
        2   -1    0    0  501    0  0.00000000000E+00  0.00000000000E+00 -0.15197799708E+04  0.15197799708E+04  0.25500000920E-02 0. -1.
    10030    2    1    2    0    0  0.00000000000E+00  0.00000000000E+00 -0.11973303939E+04  0.18422295476E+04  0.14000748672E+04 0.  0.
        2    1    3    3  502    0  0.29084469375E+02  0.62286297650E+03 -0.10173490102E+04  0.11932322500E+04  0.25500000920E-02 0. -1.
       -2    1    3    3    0  502 -0.29084469375E+02 -0.62286297650E+03 -0.17998138377E+03  0.64899729766E+03  0.25500000920E-02 0.  1.
</event>
<event>
 5   0  0.1794185E-04  0.1401948E+04  0.7818609E-02  0.8952410E-01
        2   -1    0    0  501    0  0.00000000000E+00  0.00000000000E+00  0.10145253739E+04  0.10145253739E+04  0.25500000920E-02 0. -1.
       -2   -1    0    0    0  501  0.00000000000E+00  0.00000000000E+00 -0.48432926868E+03  0.48432926868E+03  0.25500000920E-02 0.  1.
    10030    2    1    2    0    0  0.00000000000E+00  0.00000000000E+00  0.53019610519E+03  0.14988546426E+04  0.14019476914E+04 0.  0.
        2    1    3    3  502    0 -0.62353860876E+03 -0.16197532607E+03 -0.30274032296E+02  0.64494412154E+03  0.25500000920E-02 0.  1.
       -2    1    3    3    0  502  0.62353860876E+03  0.16197532607E+03  0.56047013749E+03  0.85391052101E+03  0.25500000920E-02 0. -1.
</event>
<event>
 5   0  0.9828111E-05  0.1393756E+04  0.7818609E-02  0.8958351E-01
       -1   -1    0    0    0  501  0.00000000000E+00  0.00000000000E+00  0.49479736711E+03  0.49479736713E+03  0.50400001928E-02 0.  1.
        1   -1    0    0  501    0  0.00000000000E+00  0.00000000000E+00 -0.98149032474E+03  0.98149032476E+03  0.50400001928E-02 0. -1.
    10030    2    1    2    0    0  0.00000000000E+00  0.00000000000E+00 -0.48669295764E+03  0.14762876919E+04  0.13937558302E+04 0.  0.
        4    1    3    3  502    0 -0.42785844525E+03 -0.51771662319E+03 -0.44021204625E+03  0.80304521022E+03  0.12699999809E+01 0. -1.
       -4    1    3    3    0  502  0.42785844525E+03  0.51771662319E+03 -0.46480911392E+02  0.67324248167E+03  0.12699999809E+01 0.  1.
</event>
<event>
 5   0  0.9260916E-05  0.1398504E+04  0.7818609E-02  0.8954902E-01
        1   -1    0    0  501    0  0.00000000000E+00  0.00000000000E+00  0.85348573319E+03  0.85348573320E+03  0.50400001928E-02 0. -1.
       -1   -1    0    0    0  501  0.00000000000E+00  0.00000000000E+00 -0.57288983155E+03  0.57288983157E+03  0.50400001928E-02 0.  1.
    10030    2    1    2    0    0  0.00000000000E+00  0.00000000000E+00  0.28059590164E+03  0.14263755648E+04  0.13985039120E+04 0.  0.
        1    1    3    3  502    0  0.95851034454E+02  0.69133582273E+03  0.96778409406E+02  0.70462663954E+03  0.50400001928E-02 0. -1.
       -1    1    3    3    0  502 -0.95851034454E+02 -0.69133582273E+03  0.18381749223E+03  0.72174892523E+03  0.50400001928E-02 0.  1.
</event>
<event>
 5   0  0.9260916E-05  0.1399382E+04  0.7818609E-02  0.8954266E-01
        1   -1    0    0  501    0  0.00000000000E+00  0.00000000000E+00  0.11339839851E+04  0.11339839851E+04  0.50400001928E-02 0.  1.
       -1   -1    0    0    0  501  0.00000000000E+00  0.00000000000E+00 -0.43172330717E+03  0.43172330720E+03  0.50400001928E-02 0. -1.
    10030    2    1    2    0    0  0.00000000000E+00  0.00000000000E+00  0.70226067793E+03  0.15657072923E+04  0.13993817440E+04 0.  0.
        1    1    3    3  502    0  0.29722494517E+03 -0.20461396890E+03 -0.31958446385E+03  0.48202051186E+03  0.50400001928E-02 0. -1.
       -1    1    3    3    0  502 -0.29722494517E+03  0.20461396890E+03  0.10218451418E+04  0.10836867804E+04  0.50400001928E-02 0.  1.
</event>
<event>
 5   0  0.6671375E-05  0.1395339E+04  0.7818609E-02  0.8957199E-01
        3   -1    0    0  501    0  0.00000000000E+00  0.00000000000E+00  0.41631554516E+03  0.41631555741E+03  0.10100000352E+00 0.  1.
       -3   -1    0    0    0  501  0.00000000000E+00  0.00000000000E+00 -0.11691678969E+04  0.11691679012E+04  0.10100000352E+00 0. -1.
    10030    2    1    2    0    0  0.00000000000E+00  0.00000000000E+00 -0.75285235171E+03  0.15854834586E+04  0.13953390750E+04 0.  0.
        4    1    3    3  502    0 -0.39980495067E+03  0.32836859317E+03 -0.90825839181E+03  0.10452774037E+04  0.12699999809E+01 0. -1.
       -4    1    3    3    0  502  0.39980495067E+03 -0.32836859317E+03  0.15540604010E+03  0.54020605491E+03  0.12699999809E+01 0.  1.
</event>
<event>
 5   0  0.6671375E-05  0.1410946E+04  0.7818609E-02  0.8945933E-01
       -1   -1    0    0    0  501  0.00000000000E+00  0.00000000000E+00  0.43214815835E+03  0.43214815837E+03  0.50400001928E-02 0.  1.
        1   -1    0    0  501    0  0.00000000000E+00  0.00000000000E+00 -0.11516699781E+04  0.11516699782E+04  0.50400001928E-02 0. -1.
    10030    2    1    2    0    0  0.00000000000E+00  0.00000000000E+00 -0.71952181980E+03  0.15838181365E+04  0.14109458673E+04 0.  0.
        5    1    3    3  502    0 -0.40551300294E+03 -0.28149713040E+03 -0.92548154588E+03  0.10489135387E+04  0.46999998093E+01 0. -1.
       -5    1    3    3    0  502  0.40551300294E+03  0.28149713040E+03  0.20595972608E+03  0.53490459780E+03  0.46999998093E+01 0.  1.
</event>
<event>
 5   0  0.6671375E-05  0.1399583E+04  0.7818609E-02  0.8954120E-01
        1   -1    0    0  501    0  0.00000000000E+00  0.00000000000E+00  0.11706966567E+04  0.11706966567E+04  0.50400001928E-02 0.  1.
       -1   -1    0    0    0  501  0.00000000000E+00  0.00000000000E+00 -0.41830519327E+03  0.41830519330E+03  0.50400001928E-02 0. -1.
    10030    2    1    2    0    0  0.00000000000E+00  0.00000000000E+00  0.75239146345E+03  0.15890018500E+04  0.13995834970E+04 0.  0.
        5    1    3    3  502    0 -0.51625047557E+03  0.60383738638E+02  0.90814256477E+03  0.10463774450E+04  0.46999998093E+01 0.  1.
       -5    1    3    3    0  502  0.51625047557E+03 -0.60383738638E+02 -0.15575110131E+03  0.54262440507E+03  0.46999998093E+01 0. -1.
</event>
<event>
 5   0  0.1712327E-04  0.1405091E+04  0.7818609E-02  0.8950142E-01
        2   -1    0    0  501    0  0.00000000000E+00  0.00000000000E+00  0.52509603034E+03  0.52509603035E+03  0.25500000920E-02 0.  1.
       -2   -1    0    0    0  501  0.00000000000E+00  0.00000000000E+00 -0.93996168499E+03  0.93996168499E+03  0.25500000920E-02 0. -1.
    10030    2    1    2    0    0  0.00000000000E+00  0.00000000000E+00 -0.41486565465E+03  0.14650577153E+04  0.14050909572E+04 0.  0.
        1    1    3    3  502    0 -0.71528314996E+01  0.52565870253E+03 -0.69337223502E+03  0.87013406488E+03  0.50400001928E-02 0. -1.
       -1    1    3    3    0  502  0.71528314996E+01 -0.52565870253E+03  0.27850658037E+03  0.59492365046E+03  0.50400001928E-02 0.  1.
</event>
<event>
 5   0  0.1766237E-04  0.1401074E+04  0.7818609E-02  0.8953042E-01
       -2   -1    0    0    0  501  0.00000000000E+00  0.00000000000E+00  0.59856698825E+03  0.59856698826E+03  0.25500000920E-02 0. -1.
        2   -1    0    0  501    0  0.00000000000E+00  0.00000000000E+00 -0.81987799974E+03  0.81987799975E+03  0.25500000920E-02 0.  1.
    10030    2    1    2    0    0  0.00000000000E+00  0.00000000000E+00 -0.22131101149E+03  0.14184449880E+04  0.14010737383E+04 0.  0.
        3    1    3    3  502    0  0.33367072917E+02 -0.31466149840E+03 -0.74340594111E+03  0.80794654749E+03  0.10100000352E+00 0.  1.
       -3    1    3    3    0  502 -0.33367072917E+02  0.31466149840E+03  0.52209492962E+03  0.61049844051E+03  0.10100000352E+00 0. -1.
</event>
<event>
 5   0  0.1712327E-04  0.1399086E+04  0.7818609E-02  0.8954480E-01
       -2   -1    0    0    0  501  0.00000000000E+00  0.00000000000E+00  0.77722996713E+03  0.77722996714E+03  0.25500000920E-02 0. -1.
        2   -1    0    0  501    0  0.00000000000E+00  0.00000000000E+00 -0.62962115412E+03  0.62962115413E+03  0.25500000920E-02 0.  1.
    10030    2    1    2    0    0  0.00000000000E+00  0.00000000000E+00  0.14760881301E+03  0.14068511213E+04  0.13990860287E+04 0.  0.
        1    1    3    3  502    0 -0.27014580667E+03 -0.29614536019E+03  0.65029217166E+03  0.76391147378E+03  0.50400001928E-02 0. -1.
       -1    1    3    3    0  502  0.27014580667E+03  0.29614536019E+03 -0.50268335865E+03  0.64293964749E+03  0.50400001928E-02 0.  1.
</event>
<event>
 5   0  0.6671375E-05  0.1398474E+04  0.7818609E-02  0.8954924E-01
        3   -1    0    0  501    0  0.00000000000E+00  0.00000000000E+00  0.80061356568E+03  0.80061357205E+03  0.10100000352E+00 0. -1.
       -3   -1    0    0    0  501  0.00000000000E+00  0.00000000000E+00 -0.61069749916E+03  0.61069750751E+03  0.10100000352E+00 0.  1.
    10030    2    1    2    0    0  0.00000000000E+00  0.00000000000E+00  0.18991606652E+03  0.14113110796E+04  0.13984744728E+04 0.  0.
        2    1    3    3  502    0 -0.20425405777E+02  0.36991428871E+03  0.69342665539E+03  0.78618973830E+03  0.25500000920E-02 0. -1.
       -2    1    3    3    0  502  0.20425405777E+02 -0.36991428871E+03 -0.50351058887E+03  0.62512134126E+03  0.25500000920E-02 0.  1.
</event>
<event>
 5   0  0.1766237E-04  0.1398462E+04  0.7818609E-02  0.8954933E-01
        2   -1    0    0  501    0  0.00000000000E+00  0.00000000000E+00  0.91129257283E+03  0.91129257283E+03  0.25500000920E-02 0.  1.
       -2   -1    0    0    0  501  0.00000000000E+00  0.00000000000E+00 -0.53651675327E+03  0.53651675327E+03  0.25500000920E-02 0. -1.
    10030    2    1    2    0    0  0.00000000000E+00  0.00000000000E+00  0.37477581956E+03  0.14478093261E+04  0.13984616297E+04 0.  0.
        3    1    3    3  502    0 -0.60499399753E+03 -0.24567749675E+03 -0.71534385223E+02  0.65688077147E+03  0.10100000352E+00 0. -1.
       -3    1    3    3    0  502  0.60499399753E+03  0.24567749675E+03  0.44631020478E+03  0.79092855464E+03  0.10100000352E+00 0.  1.
</event>
<event>
 5   0  0.1780171E-04  0.1398407E+04  0.7818609E-02  0.8954973E-01
        2   -1    0    0  501    0  0.00000000000E+00  0.00000000000E+00  0.21485440936E+04  0.21485440936E+04  0.25500000920E-02 0. -1.
       -2   -1    0    0    0  501  0.00000000000E+00  0.00000000000E+00 -0.22754263699E+03  0.22754263700E+03  0.25500000920E-02 0.  1.
    10030    2    1    2    0    0  0.00000000000E+00  0.00000000000E+00  0.19210014566E+04  0.23760867306E+04  0.13984067917E+04 0.  0.
        5    1    3    3  502    0 -0.26242302026E+03 -0.23464400466E+03  0.19869542498E+04  0.20179031026E+04  0.46999998093E+01 0. -1.
       -5    1    3    3    0  502  0.26242302026E+03  0.23464400466E+03 -0.65952793177E+02  0.35818362806E+03  0.46999998093E+01 0.  1.
</event>
<event>
 5   0  0.6671375E-05  0.1400085E+04  0.7818609E-02  0.8953757E-01
       -4   -1    0    0    0  501  0.00000000000E+00  0.00000000000E+00  0.10875677706E+04  0.10875685121E+04  0.12699999809E+01 0. -1.
        4   -1    0    0  501    0  0.00000000000E+00  0.00000000000E+00 -0.45059930422E+03  0.45060109395E+03  0.12699999809E+01 0.  1.
    10030    2    1    2    0    0  0.00000000000E+00  0.00000000000E+00  0.63696846633E+03  0.15381696060E+04  0.14000846081E+04 0.  0.
        4    1    3    3  502    0 -0.26231444785E+03  0.85091660490E+02  0.10253783901E+04  0.10618153870E+04  0.12699999809E+01 0. -1.
       -4    1    3    3    0  502  0.26231444785E+03 -0.85091660490E+02 -0.38840992376E+03  0.47635421905E+03  0.12699999809E+01 0.  1.
</event>
<event>
 5   0  0.9260916E-05  0.1399946E+04  0.7818609E-02  0.8953858E-01
       -1   -1    0    0    0  501  0.00000000000E+00  0.00000000000E+00  0.30120840251E+04  0.30120840251E+04  0.50400001928E-02 0. -1.
        1   -1    0    0  501    0  0.00000000000E+00  0.00000000000E+00 -0.16266552640E+03  0.16266552648E+03  0.50400001928E-02 0.  1.
    10030    2    1    2    0    0  0.00000000000E+00  0.00000000000E+00  0.28494184986E+04  0.31747495515E+04  0.13999460470E+04 0.  0.
        1    1    3    3  502    0  0.31033382239E+03  0.15530705725E+03  0.28032699219E+04  0.28246680546E+04  0.50400001928E-02 0. -1.
       -1    1    3    3    0  502 -0.31033382239E+03 -0.15530705725E+03  0.46148576716E+02  0.35008149695E+03  0.50400001928E-02 0.  1.
</event>
<event>
 5   0  0.1712327E-04  0.1399344E+04  0.7818609E-02  0.8954293E-01
        2   -1    0    0  501    0  0.00000000000E+00  0.00000000000E+00  0.94681511401E+03  0.94681511401E+03  0.25500000920E-02 0. -1.
       -2   -1    0    0    0  501  0.00000000000E+00  0.00000000000E+00 -0.51703968346E+03  0.51703968347E+03  0.25500000920E-02 0.  1.
    10030    2    1    2    0    0  0.00000000000E+00  0.00000000000E+00  0.42977543055E+03  0.14638547975E+04  0.13993441133E+04 0.  0.
        1    1    3    3  502    0 -0.24459312949E+03 -0.64451600630E+02  0.89731200581E+03  0.93228141868E+03  0.50400001928E-02 0. -1.
       -1    1    3    3    0  502  0.24459312949E+03  0.64451600630E+02 -0.46753657526E+03  0.53157337880E+03  0.50400001928E-02 0.  1.
</event>
<event>
 5   0  0.9900839E-05  0.1399984E+04  0.7818609E-02  0.8953830E-01
        1   -1    0    0  501    0  0.00000000000E+00  0.00000000000E+00  0.87967011349E+03  0.87967011350E+03  0.50400001928E-02 0.  1.
       -1   -1    0    0    0  501  0.00000000000E+00  0.00000000000E+00 -0.55701404032E+03  0.55701404035E+03  0.50400001928E-02 0. -1.
    10030    2    1    2    0    0  0.00000000000E+00  0.00000000000E+00  0.32265607316E+03  0.14366841538E+04  0.13999837200E+04 0.  0.
        3    1    3    3  502    0  0.18166506030E+02 -0.67342313785E+03  0.35647042785E+03  0.76216790844E+03  0.10100000352E+00 0. -1.
       -3    1    3    3    0  502 -0.18166506030E+02  0.67342313785E+03 -0.33814354689E+02  0.67451624540E+03  0.10100000352E+00 0.  1.
</event>
<event>
 5   0  0.9978422E-05  0.1400336E+04  0.7818609E-02  0.8953575E-01
       -1   -1    0    0    0  501  0.00000000000E+00  0.00000000000E+00  0.68356317615E+03  0.68356317617E+03  0.50400001928E-02 0. -1.
        1   -1    0    0  501    0  0.00000000000E+00  0.00000000000E+00 -0.71717641766E+03  0.71717641768E+03  0.50400001928E-02 0.  1.
    10030    2    1    2    0    0  0.00000000000E+00  0.00000000000E+00 -0.33613241507E+02  0.14007395938E+04  0.14003362310E+04 0.  0.
        2    1    3    3  502    0  0.28399042672E+03 -0.45116273554E+03 -0.47085037126E+03  0.71126538544E+03  0.25500000920E-02 0.  1.
       -2    1    3    3    0  502 -0.28399042672E+03  0.45116273554E+03  0.43723712975E+03  0.68947420840E+03  0.25500000920E-02 0. -1.
</event>
<event>
 5   0  0.9828111E-05  0.1398305E+04  0.7818609E-02  0.8955046E-01
       -1   -1    0    0    0  501  0.00000000000E+00  0.00000000000E+00  0.27782763930E+03  0.27782763935E+03  0.50400001928E-02 0.  1.
        1   -1    0    0  501    0  0.00000000000E+00  0.00000000000E+00 -0.17594158589E+04  0.17594158589E+04  0.50400001928E-02 0. -1.
    10030    2    1    2    0    0  0.00000000000E+00  0.00000000000E+00 -0.14815882196E+04  0.20372434983E+04  0.13983051951E+04 0.  0.
        4    1    3    3  502    0 -0.46316568916E+03  0.16355799743E+02 -0.15034599566E+04  0.15732715664E+04  0.12699999809E+01 0. -1.
       -4    1    3    3    0  502  0.46316568916E+03 -0.16355799743E+02  0.21871736915E+02  0.46397193189E+03  0.12699999809E+01 0.  1.
</event>
<event>
 5   0  0.1833681E-04  0.1399796E+04  0.7818609E-02  0.8953966E-01
        2   -1    0    0  501    0  0.00000000000E+00  0.00000000000E+00  0.15502865131E+04  0.15502865131E+04  0.25500000920E-02 0.  1.
       -2   -1    0    0    0  501  0.00000000000E+00  0.00000000000E+00 -0.31597851247E+03  0.31597851248E+03  0.25500000920E-02 0. -1.
    10030    2    1    2    0    0  0.00000000000E+00  0.00000000000E+00  0.12343080006E+04  0.18662650256E+04  0.13997960227E+04 0.  0.
        4    1    3    3  502    0  0.53788277922E+03  0.54164875370E+02  0.24493049999E+02  0.54115916356E+03  0.12699999809E+01 0. -1.
       -4    1    3    3    0  502 -0.53788277922E+03 -0.54164875370E+02  0.12098149506E+04  0.13251058620E+04  0.12699999809E+01 0.  1.
</event>
<event>
 5   0  0.6671375E-05  0.1398758E+04  0.7818609E-02  0.8954718E-01
       -1   -1    0    0    0  501  0.00000000000E+00  0.00000000000E+00  0.45419463197E+03  0.45419463200E+03  0.50400001928E-02 0.  1.
        1   -1    0    0  501    0  0.00000000000E+00  0.00000000000E+00 -0.10769200043E+04  0.10769200044E+04  0.50400001928E-02 0. -1.
    10030    2    1    2    0    0  0.00000000000E+00  0.00000000000E+00 -0.62272537237E+03  0.15311146363E+04  0.13987584281E+04 0.  0.
        5    1    3    3  502    0 -0.11355161975E+03 -0.68913580109E+03 -0.35093712903E+03  0.78165278815E+03  0.46999998093E+01 0. -1.
       -5    1    3    3    0  502  0.11355161975E+03  0.68913580109E+03 -0.27178824334E+03  0.74946184820E+03  0.46999998093E+01 0.  1.
</event>
<event>
 5   0  0.6671375E-05  0.1388614E+04  0.7818609E-02  0.8962102E-01
        1   -1    0    0  501    0  0.00000000000E+00  0.00000000000E+00  0.12228881488E+04  0.12228881488E+04  0.50400001928E-02 0. -1.
       -1   -1    0    0    0  501  0.00000000000E+00  0.00000000000E+00 -0.39419950023E+03  0.39419950026E+03  0.50400001928E-02 0.  1.
    10030    2    1    2    0    0  0.00000000000E+00  0.00000000000E+00  0.82868864859E+03  0.16170876491E+04  0.13886135490E+04 0.  0.
        5    1    3    3  502    0 -0.12683167967E+03 -0.24792839257E+03 -0.32628925051E+03  0.42900061516E+03  0.46999998093E+01 0.  1.
       -5    1    3    3    0  502  0.12683167967E+03  0.24792839257E+03  0.11549778991E+04  0.11880870339E+04  0.46999998093E+01 0. -1.
</event>
<event>
 5   0  0.6671375E-05  0.1400604E+04  0.7818609E-02  0.8953381E-01
       -1   -1    0    0    0  501  0.00000000000E+00  0.00000000000E+00  0.30814118786E+03  0.30814118790E+03  0.50400001928E-02 0.  1.
        1   -1    0    0  501    0  0.00000000000E+00  0.00000000000E+00 -0.15915535599E+04  0.15915535599E+04  0.50400001928E-02 0. -1.
    10030    2    1    2    0    0  0.00000000000E+00  0.00000000000E+00 -0.12834123721E+04  0.18996947478E+04  0.14006044474E+04 0.  0.
        5    1    3    3  502    0  0.47482797840E+02 -0.36785593137E+03 -0.14473631356E+04  0.14941401335E+04  0.46999998093E+01 0. -1.
       -5    1    3    3    0  502 -0.47482797840E+02  0.36785593137E+03  0.16395076352E+03  0.40555461432E+03  0.46999998093E+01 0.  1.
</event>
<event>
 5   0  0.1780171E-04  0.1399710E+04  0.7818609E-02  0.8954028E-01
       -2   -1    0    0    0  501  0.00000000000E+00  0.00000000000E+00  0.44027084301E+03  0.44027084301E+03  0.25500000920E-02 0. -1.
        2   -1    0    0  501    0  0.00000000000E+00  0.00000000000E+00 -0.11124903705E+04  0.11124903705E+04  0.25500000920E-02 0.  1.
    10030    2    1    2    0    0  0.00000000000E+00  0.00000000000E+00 -0.67221952746E+03  0.15527612135E+04  0.13997100746E+04 0.  0.
        5    1    3    3  502    0  0.64397920841E+03 -0.19185441145E+03 -0.55309276635E+03  0.87031662873E+03  0.46999998093E+01 0.  1.
       -5    1    3    3    0  502 -0.64397920841E+03  0.19185441145E+03 -0.11912676111E+03  0.68244458476E+03  0.46999998093E+01 0. -1.
</event>
<event>
 5   0  0.1712327E-04  0.1403316E+04  0.7818609E-02  0.8951422E-01
        2   -1    0    0  501    0  0.00000000000E+00  0.00000000000E+00  0.50683860182E+03  0.50683860183E+03  0.25500000920E-02 0. -1.
       -2   -1    0    0    0  501  0.00000000000E+00  0.00000000000E+00 -0.97136283513E+03  0.97136283514E+03  0.25500000920E-02 0.  1.
    10030    2    1    2    0    0  0.00000000000E+00  0.00000000000E+00 -0.46452423331E+03  0.14782014370E+04  0.14033163310E+04 0.  0.
        1    1    3    3  502    0  0.13535746667E+03 -0.42594260753E+03 -0.80202869248E+03  0.91814964590E+03  0.50400001928E-02 0.  1.
       -1    1    3    3    0  502 -0.13535746667E+03  0.42594260753E+03  0.33750445916E+03  0.56005179107E+03  0.50400001928E-02 0. -1.
</event>
<event>
 5   0  0.9978422E-05  0.1399739E+04  0.7818609E-02  0.8954007E-01
        1   -1    0    0  501    0  0.00000000000E+00  0.00000000000E+00  0.16776939909E+04  0.16776939910E+04  0.50400001928E-02 0. -1.
       -1   -1    0    0    0  501  0.00000000000E+00  0.00000000000E+00 -0.29195880230E+03  0.29195880234E+03  0.50400001928E-02 0.  1.
    10030    2    1    2    0    0  0.00000000000E+00  0.00000000000E+00  0.13857351886E+04  0.19696527933E+04  0.13997393018E+04 0.  0.
        2    1    3    3  502    0 -0.44281848963E+03  0.52401939745E+03  0.49822679458E+03  0.84788824884E+03  0.25500000920E-02 0. -1.
       -2    1    3    3    0  502  0.44281848963E+03 -0.52401939745E+03  0.88750839406E+03  0.11217645445E+04  0.25500000920E-02 0.  1.
</event>
<event>
 5   0  0.6671375E-05  0.1402031E+04  0.7818609E-02  0.8952350E-01
        4   -1    0    0  501    0  0.00000000000E+00  0.00000000000E+00  0.61254129804E+03  0.61254261460E+03  0.12699999809E+01 0. -1.
       -4   -1    0    0    0  501  0.00000000000E+00  0.00000000000E+00 -0.80226626562E+03  0.80226727083E+03  0.12699999809E+01 0.  1.
    10030    2    1    2    0    0  0.00000000000E+00  0.00000000000E+00 -0.18972496758E+03  0.14148098854E+04  0.14020311867E+04 0.  0.
        4    1    3    3  502    0 -0.51472870067E+03  0.43015767555E+02 -0.57312870151E+03  0.77154009160E+03  0.12699999809E+01 0.  1.
       -4    1    3    3    0  502  0.51472870067E+03 -0.43015767555E+02  0.38340373394E+03  0.64326979383E+03  0.12699999809E+01 0. -1.
</event>
<event>
 5   0  0.1712327E-04  0.1399781E+04  0.7818609E-02  0.8953977E-01
       -2   -1    0    0    0  501  0.00000000000E+00  0.00000000000E+00  0.89315228271E+03  0.89315228271E+03  0.25500000920E-02 0.  1.
        2   -1    0    0  501    0  0.00000000000E+00  0.00000000000E+00 -0.54844714023E+03  0.54844714024E+03  0.25500000920E-02 0. -1.
    10030    2    1    2    0    0  0.00000000000E+00  0.00000000000E+00  0.34470514248E+03  0.14415994229E+04  0.13997811475E+04 0.  0.
        1    1    3    3  502    0 -0.37746469445E+03  0.28780262642E+03 -0.35734448982E+03  0.59414226559E+03  0.50400001928E-02 0. -1.
       -1    1    3    3    0  502  0.37746469445E+03 -0.28780262642E+03  0.70204963229E+03  0.84745715736E+03  0.50400001928E-02 0.  1.
</event>
<event>
 5   0  0.6671375E-05  0.1399952E+04  0.7818609E-02  0.8953853E-01
        1   -1    0    0  501    0  0.00000000000E+00  0.00000000000E+00  0.40314133058E+03  0.40314133061E+03  0.50400001928E-02 0. -1.
       -1   -1    0    0    0  501  0.00000000000E+00  0.00000000000E+00 -0.12153712872E+04  0.12153712872E+04  0.50400001928E-02 0.  1.
    10030    2    1    2    0    0  0.00000000000E+00  0.00000000000E+00 -0.81222995659E+03  0.16185126178E+04  0.13999519962E+04 0.  0.
        5    1    3    3  502    0  0.25604443064E+03 -0.78186060957E+02  0.34159400763E+03  0.43402807125E+03  0.46999998093E+01 0. -1.
       -5    1    3    3    0  502 -0.25604443064E+03  0.78186060957E+02 -0.11538239642E+04  0.11844845465E+04  0.46999998093E+01 0.  1.
</event>
<event>
 5   0  0.1712327E-04  0.1392441E+04  0.7818609E-02  0.8959308E-01
        2   -1    0    0  501    0  0.00000000000E+00  0.00000000000E+00  0.60069458624E+03  0.60069458625E+03  0.25500000920E-02 0.  1.
       -2   -1    0    0    0  501  0.00000000000E+00  0.00000000000E+00 -0.80693739587E+03  0.80693739587E+03  0.25500000920E-02 0. -1.
    10030    2    1    2    0    0  0.00000000000E+00  0.00000000000E+00 -0.20624280962E+03  0.14076319821E+04  0.13924409146E+04 0.  0.
        1    1    3    3  502    0 -0.45032746794E+03 -0.49775396299E+03 -0.28998687166E+03  0.73119506414E+03  0.50400001928E-02 0. -1.
       -1    1    3    3    0  502  0.45032746794E+03  0.49775396299E+03  0.83744062031E+02  0.67643691798E+03  0.50400001928E-02 0.  1.
</event>
<event>
 5   0  0.1766237E-04  0.1398758E+04  0.7818609E-02  0.8954718E-01
       -2   -1    0    0    0  501  0.00000000000E+00  0.00000000000E+00  0.37410568902E+03  0.37410568902E+03  0.25500000920E-02 0. -1.
        2   -1    0    0  501    0  0.00000000000E+00  0.00000000000E+00 -0.13074667883E+04  0.13074667883E+04  0.25500000920E-02 0.  1.
    10030    2    1    2    0    0  0.00000000000E+00  0.00000000000E+00 -0.93336109924E+03  0.16815724773E+04  0.13987576827E+04 0.  0.
        3    1    3    3  502    0 -0.11212237952E+03  0.20576434695E+03 -0.12588684351E+04  0.12804921482E+04  0.10100000352E+00 0.  1.
       -3    1    3    3    0  502  0.11212237952E+03 -0.20576434695E+03  0.32550733588E+03  0.40108032908E+03  0.10100000352E+00 0. -1.
</event>
<event>
 5   0  0.9828111E-05  0.1402037E+04  0.7818609E-02  0.8952346E-01
        1   -1    0    0  501    0  0.00000000000E+00  0.00000000000E+00  0.72487562570E+03  0.72487562572E+03  0.50400001928E-02 0.  1.
       -1   -1    0    0    0  501  0.00000000000E+00  0.00000000000E+00 -0.67794626140E+03  0.67794626142E+03  0.50400001928E-02 0. -1.
    10030    2    1    2    0    0  0.00000000000E+00  0.00000000000E+00  0.46929364298E+02  0.14028218871E+04  0.14020366906E+04 0.  0.
        4    1    3    3  502    0  0.20111506019E+03  0.12046287504E+03 -0.63756145207E+03  0.67929727643E+03  0.12699999809E+01 0. -1.
       -4    1    3    3    0  502 -0.20111506019E+03 -0.12046287504E+03  0.68449081637E+03  0.72352461071E+03  0.12699999809E+01 0.  1.
</event>
<event>
 5   0  0.9828111E-05  0.1405382E+04  0.7818609E-02  0.8949932E-01
       -1   -1    0    0    0  501  0.00000000000E+00  0.00000000000E+00  0.53026837054E+03  0.53026837056E+03  0.50400001928E-02 0. -1.
        1   -1    0    0  501    0  0.00000000000E+00  0.00000000000E+00 -0.93117869777E+03  0.93117869779E+03  0.50400001928E-02 0.  1.
    10030    2    1    2    0    0  0.00000000000E+00  0.00000000000E+00 -0.40091032723E+03  0.14614470683E+04  0.14053819563E+04 0.  0.
        4    1    3    3  502    0 -0.20939762730E+02 -0.68199514150E+03 -0.37513601487E+03  0.77864272246E+03  0.12699999809E+01 0.  1.
       -4    1    3    3    0  502  0.20939762730E+02  0.68199514150E+03 -0.25774312361E+02  0.68280434589E+03  0.12699999809E+01 0. -1.
</event>
<event>
 5   0  0.9260916E-05  0.1400462E+04  0.7818609E-02  0.8953484E-01
       -1   -1    0    0    0  501  0.00000000000E+00  0.00000000000E+00  0.74721747305E+03  0.74721747306E+03  0.50400001928E-02 0.  1.
        1   -1    0    0  501    0  0.00000000000E+00  0.00000000000E+00 -0.65619940140E+03  0.65619940142E+03  0.50400001928E-02 0. -1.
    10030    2    1    2    0    0  0.00000000000E+00  0.00000000000E+00  0.91018071646E+02  0.14034168745E+04  0.14004622930E+04 0.  0.
        1    1    3    3  502    0 -0.55397617723E+03 -0.17686697380E+03 -0.34538071942E+03  0.67635742971E+03  0.50400001928E-02 0. -1.
       -1    1    3    3    0  502  0.55397617723E+03  0.17686697380E+03  0.43639879107E+03  0.72705944477E+03  0.50400001928E-02 0.  1.
</event>
<event>
 5   0  0.1780171E-04  0.1398197E+04  0.7818609E-02  0.8955125E-01
       -2   -1    0    0    0  501  0.00000000000E+00  0.00000000000E+00  0.34327253638E+03  0.34327253639E+03  0.25500000920E-02 0.  1.
        2   -1    0    0  501    0  0.00000000000E+00  0.00000000000E+00 -0.14237622553E+04  0.14237622553E+04  0.25500000920E-02 0. -1.
    10030    2    1    2    0    0  0.00000000000E+00  0.00000000000E+00 -0.10804897189E+04  0.17670347917E+04  0.13981966680E+04 0.  0.
        5    1    3    3  502    0  0.62076686362E+03 -0.11105222355E+03 -0.92155168927E+03  0.11166752891E+04  0.46999998093E+01 0.  1.
       -5    1    3    3    0  502 -0.62076686362E+03  0.11105222355E+03 -0.15893802964E+03  0.65035950257E+03  0.46999998093E+01 0. -1.
</event>
<event>
 5   0  0.9260916E-05  0.1401707E+04  0.7818609E-02  0.8952584E-01
        1   -1    0    0  501    0  0.00000000000E+00  0.00000000000E+00  0.60860932886E+03  0.60860932888E+03  0.50400001928E-02 0. -1.
       -1   -1    0    0    0  501  0.00000000000E+00  0.00000000000E+00 -0.80707869802E+03  0.80707869803E+03  0.50400001928E-02 0.  1.
    10030    2    1    2    0    0  0.00000000000E+00  0.00000000000E+00 -0.19846936916E+03  0.14156880269E+04  0.14017069947E+04 0.  0.
        1    1    3    3  502    0 -0.35298832365E+03  0.53217607672E+03  0.19240750932E+03  0.66695785694E+03  0.50400001928E-02 0.  1.
       -1    1    3    3    0  502  0.35298832365E+03 -0.53217607672E+03 -0.39087687848E+03  0.74873016997E+03  0.50400001928E-02 0. -1.
</event>
<event>
 5   0  0.6671375E-05  0.1403136E+04  0.7818609E-02  0.8951552E-01
        1   -1    0    0  501    0  0.00000000000E+00  0.00000000000E+00  0.68982746740E+03  0.68982746742E+03  0.50400001928E-02 0. -1.
       -1   -1    0    0    0  501  0.00000000000E+00  0.00000000000E+00 -0.71350828921E+03  0.71350828922E+03  0.50400001928E-02 0.  1.
    10030    2    1    2    0    0  0.00000000000E+00  0.00000000000E+00 -0.23680821807E+02  0.14033357566E+04  0.14031359394E+04 0.  0.
        5    1    3    3  502    0 -0.59552034217E+03  0.24618000920E+03  0.26555526796E+03  0.69698691896E+03  0.46999998093E+01 0. -1.
       -5    1    3    3    0  502  0.59552034217E+03 -0.24618000920E+03 -0.28923608976E+03  0.70634883768E+03  0.46999998093E+01 0.  1.
</event>
<event>
 5   0  0.1780171E-04  0.1401368E+04  0.7818609E-02  0.8952829E-01
       -2   -1    0    0    0  501  0.00000000000E+00  0.00000000000E+00  0.94048012215E+03  0.94048012216E+03  0.25500000920E-02 0.  1.
        2   -1    0    0  501    0  0.00000000000E+00  0.00000000000E+00 -0.52202947283E+03  0.52202947283E+03  0.25500000920E-02 0. -1.
    10030    2    1    2    0    0  0.00000000000E+00  0.00000000000E+00  0.41845064933E+03  0.14625095950E+04  0.14013683918E+04 0.  0.
        5    1    3    3  502    0 -0.58290810075E+03 -0.22136571858E+03  0.54278153377E+03  0.82669130797E+03  0.46999998093E+01 0.  1.
       -5    1    3    3    0  502  0.58290810075E+03  0.22136571858E+03 -0.12433088444E+03  0.63581828702E+03  0.46999998093E+01 0. -1.
</event>
<event>
 5   0  0.1712327E-04  0.1398363E+04  0.7818609E-02  0.8955005E-01
        2   -1    0    0  501    0  0.00000000000E+00  0.00000000000E+00  0.11954204746E+04  0.11954204746E+04  0.25500000920E-02 0.  1.
       -2   -1    0    0    0  501  0.00000000000E+00  0.00000000000E+00 -0.40893936565E+03  0.40893936566E+03  0.25500000920E-02 0. -1.
    10030    2    1    2    0    0  0.00000000000E+00  0.00000000000E+00  0.78648110892E+03  0.16043598402E+04  0.13983626004E+04 0.  0.
        1    1    3    3  502    0 -0.34677222257E+03 -0.33301512339E+03  0.97566948063E+03  0.10876952616E+04  0.50400001928E-02 0.  1.
       -1    1    3    3    0  502  0.34677222257E+03  0.33301512339E+03 -0.18918837171E+03  0.51666457859E+03  0.50400001928E-02 0. -1.
</event>
<event>
 5   0  0.1833681E-04  0.1401030E+04  0.7818609E-02  0.8953073E-01
        2   -1    0    0  501    0  0.00000000000E+00  0.00000000000E+00  0.30375395492E+03  0.30375395493E+03  0.25500000920E-02 0.  1.
       -2   -1    0    0    0  501  0.00000000000E+00  0.00000000000E+00 -0.16155219468E+04  0.16155219468E+04  0.25500000920E-02 0. -1.
    10030    2    1    2    0    0  0.00000000000E+00  0.00000000000E+00 -0.13117679918E+04  0.19192759017E+04  0.14010298792E+04 0.  0.
        4    1    3    3  502    0  0.64688641478E+03  0.39342346196E+02 -0.10201591519E+04  0.12086091850E+04  0.12699999809E+01 0. -1.
       -4    1    3    3    0  502 -0.64688641478E+03 -0.39342346196E+02 -0.29160883991E+03  0.71066671671E+03  0.12699999809E+01 0.  1.
</event>
<event>
 5   0  0.1780171E-04  0.1400126E+04  0.7818609E-02  0.8953727E-01
       -2   -1    0    0    0  501  0.00000000000E+00  0.00000000000E+00  0.11102723893E+04  0.11102723893E+04  0.25500000920E-02 0.  1.
        2   -1    0    0  501    0  0.00000000000E+00  0.00000000000E+00 -0.44141251590E+03  0.44141251591E+03  0.25500000920E-02 0. -1.
    10030    2    1    2    0    0  0.00000000000E+00  0.00000000000E+00  0.66885987341E+03  0.15516849052E+04  0.14001258925E+04 0.  0.
        5    1    3    3  502    0  0.26109659541E+03 -0.43981365451E+03  0.86414236409E+03  0.10041770751E+04  0.46999998093E+01 0.  1.
       -5    1    3    3    0  502 -0.26109659541E+03  0.43981365451E+03 -0.19528249068E+03  0.54750783008E+03  0.46999998093E+01 0. -1.
</event>
<event>
 5   0  0.9828111E-05  0.1397980E+04  0.7818609E-02  0.8955282E-01
        1   -1    0    0  501    0  0.00000000000E+00  0.00000000000E+00  0.95280097455E+03  0.95280097456E+03  0.50400001928E-02 0.  1.
       -1   -1    0    0    0  501  0.00000000000E+00  0.00000000000E+00 -0.51279054696E+03  0.51279054698E+03  0.50400001928E-02 0. -1.
    10030    2    1    2    0    0  0.00000000000E+00  0.00000000000E+00  0.44001042759E+03  0.14655915215E+04  0.13979804475E+04 0.  0.
        4    1    3    3  502    0 -0.34900526053E+03  0.37415771519E+03  0.71925854892E+03  0.88268518783E+03  0.12699999809E+01 0.  1.
       -4    1    3    3    0  502  0.34900526053E+03 -0.37415771519E+03 -0.27924812133E+03  0.58290633371E+03  0.12699999809E+01 0. -1.
</event>
<event>
 5   0  0.1712327E-04  0.1397432E+04  0.7818609E-02  0.8955679E-01
       -2   -1    0    0    0  501  0.00000000000E+00  0.00000000000E+00  0.46782859948E+03  0.46782859948E+03  0.25500000920E-02 0.  1.
        2   -1    0    0  501    0  0.00000000000E+00  0.00000000000E+00 -0.10435534093E+04  0.10435534093E+04  0.25500000920E-02 0. -1.
    10030    2    1    2    0    0  0.00000000000E+00  0.00000000000E+00 -0.57572480981E+03  0.15113820088E+04  0.13974321164E+04 0.  0.
        1    1    3    3  502    0  0.68181668831E+03  0.98478378351E+01 -0.45271569134E+03  0.81848791902E+03  0.50400001928E-02 0.  1.
       -1    1    3    3    0  502 -0.68181668831E+03 -0.98478378351E+01 -0.12300911847E+03  0.69289408976E+03  0.50400001928E-02 0. -1.
</event>
<event>
 5   0  0.9828111E-05  0.1399331E+04  0.7818609E-02  0.8954303E-01
        1   -1    0    0  501    0  0.00000000000E+00  0.00000000000E+00  0.75212853389E+03  0.75212853391E+03  0.50400001928E-02 0. -1.
       -1   -1    0    0    0  501  0.00000000000E+00  0.00000000000E+00 -0.65086149335E+03  0.65086149337E+03  0.50400001928E-02 0.  1.
    10030    2    1    2    0    0  0.00000000000E+00  0.00000000000E+00  0.10126704054E+03  0.14029900273E+04  0.13993305553E+04 0.  0.
        4    1    3    3  502    0  0.25696156908E+03 -0.63725975605E+03  0.18288998746E+03  0.71104121195E+03  0.12699999809E+01 0.  1.
       -4    1    3    3    0  502 -0.25696156908E+03  0.63725975605E+03 -0.81622946923E+02  0.69194881533E+03  0.12699999809E+01 0. -1.
</event>
<event>
 5   0  0.9978422E-05  0.1401037E+04  0.7818609E-02  0.8953068E-01
        1   -1    0    0  501    0  0.00000000000E+00  0.00000000000E+00  0.17185427167E+04  0.17185427167E+04  0.50400001928E-02 0.  1.
       -1   -1    0    0    0  501  0.00000000000E+00  0.00000000000E+00 -0.28554801696E+03  0.28554801701E+03  0.50400001928E-02 0. -1.
    10030    2    1    2    0    0  0.00000000000E+00  0.00000000000E+00  0.14329946997E+04  0.20040907337E+04  0.14010374226E+04 0.  0.
        2    1    3    3  502    0  0.55602926428E+03 -0.42231136247E+02  0.10999619441E+03  0.56837590941E+03  0.25500000920E-02 0. -1.
       -2    1    3    3    0  502 -0.55602926428E+03  0.42231136247E+02  0.13229985053E+04  0.14357148243E+04  0.25500000920E-02 0.  1.
</event>
<event>
 5   0  0.6671375E-05  0.1393134E+04  0.7818609E-02  0.8958804E-01
        4   -1    0    0  501    0  0.00000000000E+00  0.00000000000E+00  0.60962848031E+03  0.60962980317E+03  0.12699999809E+01 0.  1.
       -4   -1    0    0    0  501  0.00000000000E+00  0.00000000000E+00 -0.79590050527E+03  0.79590151853E+03  0.12699999809E+01 0. -1.
    10030    2    1    2    0    0  0.00000000000E+00  0.00000000000E+00 -0.18627202496E+03  0.14055313217E+04  0.13931335288E+04 0.  0.
        5    1    3    3  502    0  0.58198566375E+03  0.36536648604E+03 -0.20809380390E+03  0.71800076821E+03  0.46999998093E+01 0. -1.
       -5    1    3    3    0  502 -0.58198566375E+03 -0.36536648604E+03  0.21821778940E+02  0.68753055348E+03  0.46999998093E+01 0.  1.
</event>
<event>
 5   0  0.9260916E-05  0.1388678E+04  0.7818609E-02  0.8962055E-01
       -1   -1    0    0    0  501  0.00000000000E+00  0.00000000000E+00  0.40843280405E+03  0.40843280408E+03  0.50400001928E-02 0.  1.
        1   -1    0    0  501    0  0.00000000000E+00  0.00000000000E+00 -0.11803823208E+04  0.11803823208E+04  0.50400001928E-02 0. -1.
    10030    2    1    2    0    0  0.00000000000E+00  0.00000000000E+00 -0.77194951677E+03  0.15888151249E+04  0.13886783086E+04 0.  0.
        1    1    3    3  502    0  0.21538676701E+03 -0.24054703674E+02 -0.11406925829E+04  0.11610984699E+04  0.50400001928E-02 0. -1.
       -1    1    3    3    0  502 -0.21538676701E+03  0.24054703674E+02  0.36874306609E+03  0.42771665502E+03  0.50400001928E-02 0.  1.
</event>
<event>
 5   0  0.9828111E-05  0.1406633E+04  0.7818609E-02  0.8949031E-01
       -1   -1    0    0    0  501  0.00000000000E+00  0.00000000000E+00  0.86822682675E+03  0.86822682677E+03  0.50400001928E-02 0.  1.
        1   -1    0    0  501    0  0.00000000000E+00  0.00000000000E+00 -0.56972948194E+03  0.56972948196E+03  0.50400001928E-02 0. -1.
    10030    2    1    2    0    0  0.00000000000E+00  0.00000000000E+00  0.29849734482E+03  0.14379563087E+04  0.14066334565E+04 0.  0.
        4    1    3    3  502    0  0.19612601575E+02  0.52927967380E+03  0.62229611937E+03  0.81717544035E+03  0.12699999809E+01 0.  1.
       -4    1    3    3    0  502 -0.19612601575E+02 -0.52927967380E+03 -0.32379877455E+03  0.62078086837E+03  0.12699999809E+01 0. -1.
</event>
<event>
 5   0  0.1833681E-04  0.1397188E+04  0.7818609E-02  0.8955857E-01
        2   -1    0    0  501    0  0.00000000000E+00  0.00000000000E+00  0.66071336036E+03  0.66071336037E+03  0.25500000920E-02 0.  1.
       -2   -1    0    0    0  501  0.00000000000E+00  0.00000000000E+00 -0.73864636899E+03  0.73864636899E+03  0.25500000920E-02 0. -1.
    10030    2    1    2    0    0  0.00000000000E+00  0.00000000000E+00 -0.77933008625E+02  0.13993597294E+04  0.13971879252E+04 0.  0.
        4    1    3    3  502    0  0.31966414648E+03 -0.26389351301E+03 -0.60216340952E+03  0.73104537302E+03  0.12699999809E+01 0. -1.
       -4    1    3    3    0  502 -0.31966414648E+03  0.26389351301E+03  0.52423040090E+03  0.66831435633E+03  0.12699999809E+01 0.  1.
</event>
<event>
 5   0  0.1833681E-04  0.1406938E+04  0.7818609E-02  0.8948812E-01
       -2   -1    0    0    0  501  0.00000000000E+00  0.00000000000E+00  0.37920801268E+03  0.37920801269E+03  0.25500000920E-02 0.  1.
        2   -1    0    0  501    0  0.00000000000E+00  0.00000000000E+00 -0.13050050942E+04  0.13050050942E+04  0.25500000920E-02 0. -1.
    10030    2    1    2    0    0  0.00000000000E+00  0.00000000000E+00 -0.92579708157E+03  0.16842131069E+04  0.14069376508E+04 0.  0.
        4    1    3    3  502    0 -0.23560361687E+03 -0.44579105555E+02 -0.12545734703E+04  0.12772832756E+04  0.12699999809E+01 0. -1.
       -4    1    3    3    0  502  0.23560361687E+03  0.44579105555E+02  0.32877638872E+03  0.40692983132E+03  0.12699999809E+01 0.  1.
</event>
<event>
 5   0  0.6671375E-05  0.1401682E+04  0.7818609E-02  0.8952602E-01
        1   -1    0    0  501    0  0.00000000000E+00  0.00000000000E+00  0.10855365455E+04  0.10855365455E+04  0.50400001928E-02 0.  1.
       -1   -1    0    0    0  501  0.00000000000E+00  0.00000000000E+00 -0.45247507425E+03  0.45247507428E+03  0.50400001928E-02 0. -1.
    10030    2    1    2    0    0  0.00000000000E+00  0.00000000000E+00  0.63306147125E+03  0.15380116198E+04  0.14016821738E+04 0.  0.
        5    1    3    3  502    0  0.18348085315E+03 -0.21619824598E+02  0.10583179302E+04  0.10743330823E+04  0.46999998093E+01 0.  1.
       -5    1    3    3    0  502 -0.18348085315E+03  0.21619824598E+02 -0.42525645894E+03  0.46367853752E+03  0.46999998093E+01 0. -1.
</event>
<event>
 5   0  0.1794185E-04  0.1394695E+04  0.7818609E-02  0.8957668E-01
       -2   -1    0    0    0  501  0.00000000000E+00  0.00000000000E+00  0.32266025129E+03  0.32266025130E+03  0.25500000920E-02 0.  1.
        2   -1    0    0  501    0  0.00000000000E+00  0.00000000000E+00 -0.15071376037E+04  0.15071376037E+04  0.25500000920E-02 0. -1.
    10030    2    1    2    0    0  0.00000000000E+00  0.00000000000E+00 -0.11844773524E+04  0.18297978550E+04  0.13946948024E+04 0.  0.
        2    1    3    3  502    0 -0.47788282153E+03 -0.20806200944E+03  0.15575423583E+02  0.52144451738E+03  0.25500000920E-02 0.  1.
       -2    1    3    3    0  502  0.47788282153E+03  0.20806200944E+03 -0.12000527760E+04  0.13083533376E+04  0.25500000920E-02 0. -1.
</event>
<event>
 5   0  0.6671375E-05  0.1403181E+04  0.7818609E-02  0.8951520E-01
       -1   -1    0    0    0  501  0.00000000000E+00  0.00000000000E+00  0.35335191440E+03  0.35335191443E+03  0.50400001928E-02 0.  1.
        1   -1    0    0  501    0  0.00000000000E+00  0.00000000000E+00 -0.13930274894E+04  0.13930274894E+04  0.50400001928E-02 0. -1.
    10030    2    1    2    0    0  0.00000000000E+00  0.00000000000E+00 -0.10396755750E+04  0.17463794038E+04  0.14031805731E+04 0.  0.
        5    1    3    3  502    0  0.19877362953E+03  0.45619355027E+02 -0.13553017923E+04  0.13705681740E+04  0.46999998093E+01 0. -1.
       -5    1    3    3    0  502 -0.19877362953E+03 -0.45619355027E+02  0.31562621736E+03  0.37581122979E+03  0.46999998093E+01 0.  1.
</event>
<event>
 5   0  0.1712327E-04  0.1400762E+04  0.7818609E-02  0.8953267E-01
       -2   -1    0    0    0  501  0.00000000000E+00  0.00000000000E+00  0.32166298531E+03  0.32166298532E+03  0.25500000920E-02 0.  1.
        2   -1    0    0  501    0  0.00000000000E+00  0.00000000000E+00 -0.15249931377E+04  0.15249931377E+04  0.25500000920E-02 0. -1.
    10030    2    1    2    0    0  0.00000000000E+00  0.00000000000E+00 -0.12033301524E+04  0.18466561230E+04  0.14007624285E+04 0.  0.
        1    1    3    3  502    0  0.58326588843E+03  0.28106574836E+03 -0.24955509285E+03  0.69388384900E+03  0.50400001928E-02 0.  1.
       -1    1    3    3    0  502 -0.58326588843E+03 -0.28106574836E+03 -0.95377505951E+03  0.11527722740E+04  0.50400001928E-02 0. -1.
</event>
<event>
 5   0  0.1833681E-04  0.1386238E+04  0.7818609E-02  0.8963841E-01
        2   -1    0    0  501    0  0.00000000000E+00  0.00000000000E+00  0.53230315651E+03  0.53230315652E+03  0.25500000920E-02 0. -1.
       -2   -1    0    0    0  501  0.00000000000E+00  0.00000000000E+00 -0.90251889608E+03  0.90251889608E+03  0.25500000920E-02 0.  1.
    10030    2    1    2    0    0  0.00000000000E+00  0.00000000000E+00 -0.37021573957E+03  0.14348220526E+04  0.13862375802E+04 0.  0.
        4    1    3    3  502    0 -0.55382257738E+03  0.17101057649E+02  0.24589991100E+03  0.60620151148E+03  0.12699999809E+01 0. -1.
       -4    1    3    3    0  502  0.55382257738E+03 -0.17101057649E+02 -0.61611565057E+03  0.82862054112E+03  0.12699999809E+01 0.  1.
</event>
<event>
 5   0  0.9900839E-05  0.1397785E+04  0.7818609E-02  0.8955423E-01
       -1   -1    0    0    0  501  0.00000000000E+00  0.00000000000E+00  0.33832681999E+03  0.33832682003E+03  0.50400001928E-02 0. -1.
        1   -1    0    0  501    0  0.00000000000E+00  0.00000000000E+00 -0.14437243453E+04  0.14437243453E+04  0.50400001928E-02 0.  1.
    10030    2    1    2    0    0  0.00000000000E+00  0.00000000000E+00 -0.11053975253E+04  0.17820511653E+04  0.13977849144E+04 0.  0.
        3    1    3    3  502    0  0.18234266009E+03  0.22681065829E+03  0.25740525535E+03  0.38852206641E+03  0.10100000352E+00 0. -1.
       -3    1    3    3    0  502 -0.18234266009E+03 -0.22681065829E+03 -0.13628027806E+04  0.13935290989E+04  0.10100000352E+00 0.  1.
</event>
<event>
 5   0  0.1833681E-04  0.1402309E+04  0.7818609E-02  0.8952149E-01
       -2   -1    0    0    0  501  0.00000000000E+00  0.00000000000E+00  0.46551245629E+03  0.46551245629E+03  0.25500000920E-02 0. -1.
        2   -1    0    0  501    0  0.00000000000E+00  0.00000000000E+00 -0.10560779121E+04  0.10560779121E+04  0.25500000920E-02 0.  1.
    10030    2    1    2    0    0  0.00000000000E+00  0.00000000000E+00 -0.59056545584E+03  0.15215903684E+04  0.14023087006E+04 0.  0.
        4    1    3    3  502    0  0.46459674565E+03  0.52124369313E+03 -0.36451170921E+03  0.78766460041E+03  0.12699999809E+01 0.  1.
       -4    1    3    3    0  502 -0.46459674565E+03 -0.52124369313E+03 -0.22605374663E+03  0.73392576802E+03  0.12699999809E+01 0. -1.
</event>
<event>
 5   0  0.1780171E-04  0.1399732E+04  0.7818609E-02  0.8954013E-01
        2   -1    0    0  501    0  0.00000000000E+00  0.00000000000E+00  0.13661313862E+04  0.13661313862E+04  0.25500000920E-02 0.  1.
       -2   -1    0    0    0  501  0.00000000000E+00  0.00000000000E+00 -0.35853961279E+03  0.35853961280E+03  0.25500000920E-02 0. -1.
    10030    2    1    2    0    0  0.00000000000E+00  0.00000000000E+00  0.10075917734E+04  0.17246709990E+04  0.13997317146E+04 0.  0.
        5    1    3    3  502    0  0.64584687603E+02 -0.11081568112E+02 -0.35473188992E+03  0.36076417055E+03  0.46999998093E+01 0. -1.
       -5    1    3    3    0  502 -0.64584687603E+02  0.11081568112E+02  0.13623236633E+04  0.13639068284E+04  0.46999998093E+01 0.  1.
</event>
<event>
 5   0  0.1712327E-04  0.1405467E+04  0.7818609E-02  0.8949871E-01
        2   -1    0    0  501    0  0.00000000000E+00  0.00000000000E+00  0.15042252434E+04  0.15042252434E+04  0.25500000920E-02 0. -1.
       -2   -1    0    0    0  501  0.00000000000E+00  0.00000000000E+00 -0.32829802375E+03  0.32829802376E+03  0.25500000920E-02 0.  1.
    10030    2    1    2    0    0  0.00000000000E+00  0.00000000000E+00  0.11759272196E+04  0.18325232671E+04  0.14054667192E+04 0.  0.
        1    1    3    3  502    0  0.43379285011E+03  0.13981867958E+03 -0.10945646503E+03  0.46872829840E+03  0.50400001928E-02 0.  1.
       -1    1    3    3    0  502 -0.43379285011E+03 -0.13981867958E+03  0.12853836846E+04  0.13637949687E+04  0.50400001928E-02 0. -1.
</event>
<event>
 5   0  0.9828111E-05  0.1398517E+04  0.7818609E-02  0.8954893E-01
       -1   -1    0    0    0  501  0.00000000000E+00  0.00000000000E+00  0.91587883633E+03  0.91587883634E+03  0.50400001928E-02 0.  1.
        1   -1    0    0  501    0  0.00000000000E+00  0.00000000000E+00 -0.53387218480E+03  0.53387218483E+03  0.50400001928E-02 0. -1.
    10030    2    1    2    0    0  0.00000000000E+00  0.00000000000E+00  0.38200665153E+03  0.14497510212E+04  0.13985166933E+04 0.  0.
        4    1    3    3  502    0  0.51526971306E+03 -0.84777133797E+02  0.67308929742E+03  0.85190425213E+03  0.12699999809E+01 0.  1.
       -4    1    3    3    0  502 -0.51526971306E+03  0.84777133797E+02 -0.29108264589E+03  0.59784676904E+03  0.12699999809E+01 0. -1.
</event>
<event>
 5   0  0.1712327E-04  0.1399754E+04  0.7818609E-02  0.8953997E-01
       -2   -1    0    0    0  501  0.00000000000E+00  0.00000000000E+00  0.62921069652E+03  0.62921069653E+03  0.25500000920E-02 0. -1.
        2   -1    0    0  501    0  0.00000000000E+00  0.00000000000E+00 -0.77847967443E+03  0.77847967444E+03  0.25500000920E-02 0.  1.
    10030    2    1    2    0    0  0.00000000000E+00  0.00000000000E+00 -0.14926897791E+03  0.14076903710E+04  0.13997538901E+04 0.  0.
        1    1    3    3  502    0  0.47101209851E+03 -0.49974016315E+03  0.61168602717E+02  0.68944486769E+03  0.50400001928E-02 0.  1.
       -1    1    3    3    0  502 -0.47101209851E+03  0.49974016315E+03 -0.21043758063E+03  0.71824550327E+03  0.50400001928E-02 0. -1.
</event>
<event>
 5   0  0.9978422E-05  0.1401545E+04  0.7818609E-02  0.8952701E-01
       -1   -1    0    0    0  501  0.00000000000E+00  0.00000000000E+00  0.53636026903E+03  0.53636026905E+03  0.50400001928E-02 0.  1.
        1   -1    0    0  501    0  0.00000000000E+00  0.00000000000E+00 -0.91558223711E+03  0.91558223712E+03  0.50400001928E-02 0. -1.
    10030    2    1    2    0    0  0.00000000000E+00  0.00000000000E+00 -0.37922196808E+03  0.14519425062E+04  0.14015447692E+04 0.  0.
        2    1    3    3  502    0 -0.23970362173E+03 -0.42252279818E+03  0.33362364254E+03  0.58931152722E+03  0.25500000920E-02 0. -1.
       -2    1    3    3    0  502  0.23970362173E+03  0.42252279818E+03 -0.71284561062E+03  0.86263097895E+03  0.25500000920E-02 0.  1.
</event>
<event>
 5   0  0.1766237E-04  0.1402348E+04  0.7818609E-02  0.8952120E-01
       -2   -1    0    0    0  501  0.00000000000E+00  0.00000000000E+00  0.40047084545E+03  0.40047084546E+03  0.25500000920E-02 0.  1.
        2   -1    0    0  501    0  0.00000000000E+00  0.00000000000E+00 -0.12276681769E+04  0.12276681769E+04  0.25500000920E-02 0. -1.
    10030    2    1    2    0    0  0.00000000000E+00  0.00000000000E+00 -0.82719733142E+03  0.16281390223E+04  0.14023484770E+04 0.  0.
        3    1    3    3  502    0 -0.38883626067E+02  0.62397011658E+03 -0.78219779060E+03  0.10013411190E+04  0.10100000352E+00 0. -1.
       -3    1    3    3    0  502  0.38883626067E+02 -0.62397011658E+03 -0.44999540826E+02  0.62679790334E+03  0.10100000352E+00 0.  1.
</event>
<event>
 5   0  0.9828111E-05  0.1399226E+04  0.7818609E-02  0.8954379E-01
        1   -1    0    0  501    0  0.00000000000E+00  0.00000000000E+00  0.51563456499E+03  0.51563456502E+03  0.50400001928E-02 0.  1.
       -1   -1    0    0    0  501  0.00000000000E+00  0.00000000000E+00 -0.94923476016E+03  0.94923476017E+03  0.50400001928E-02 0. -1.
    10030    2    1    2    0    0  0.00000000000E+00  0.00000000000E+00 -0.43360019517E+03  0.14648693252E+04  0.13992258612E+04 0.  0.
        4    1    3    3  502    0 -0.13763584216E+03  0.35187627831E+02 -0.93397436617E+03  0.94471769527E+03  0.12699999809E+01 0. -1.
       -4    1    3    3    0  502  0.13763584216E+03 -0.35187627831E+02  0.50037417100E+03  0.52015162992E+03  0.12699999809E+01 0.  1.
</event>
<event>
 5   0  0.9828111E-05  0.1402502E+04  0.7818609E-02  0.8952009E-01
        1   -1    0    0  501    0  0.00000000000E+00  0.00000000000E+00  0.22343353431E+04  0.22343353431E+04  0.50400001928E-02 0.  1.
       -1   -1    0    0    0  501  0.00000000000E+00  0.00000000000E+00 -0.22008928217E+03  0.22008928223E+03  0.50400001928E-02 0. -1.
    10030    2    1    2    0    0  0.00000000000E+00  0.00000000000E+00  0.20142460609E+04  0.24544246253E+04  0.14025024233E+04 0.  0.
        4    1    3    3  502    0  0.39125520525E+03 -0.20544432243E+02 -0.10681315985E+02  0.39194184867E+03  0.12699999809E+01 0. -1.
       -4    1    3    3    0  502 -0.39125520525E+03  0.20544432243E+02  0.20249273769E+04  0.20624827766E+04  0.12699999809E+01 0.  1.
</event>
<event>
 5   0  0.1712327E-04  0.1404593E+04  0.7818609E-02  0.8950500E-01
        2   -1    0    0  501    0  0.00000000000E+00  0.00000000000E+00  0.10861520291E+04  0.10861520291E+04  0.25500000920E-02 0.  1.
       -2   -1    0    0    0  501  0.00000000000E+00  0.00000000000E+00 -0.45409914752E+03  0.45409914753E+03  0.25500000920E-02 0. -1.
    10030    2    1    2    0    0  0.00000000000E+00  0.00000000000E+00  0.63205288155E+03  0.15402511766E+04  0.14045934793E+04 0.  0.
        1    1    3    3  502    0  0.11349101529E+02  0.64762704450E+03  0.61366523486E+03  0.89226375662E+03  0.50400001928E-02 0.  1.
       -1    1    3    3    0  502 -0.11349101529E+02 -0.64762704450E+03  0.18387646688E+02  0.64798741998E+03  0.50400001928E-02 0. -1.
</event>
<event>
 5   0  0.1833681E-04  0.1400185E+04  0.7818609E-02  0.8953684E-01
        2   -1    0    0  501    0  0.00000000000E+00  0.00000000000E+00  0.19693189522E+04  0.19693189522E+04  0.25500000920E-02 0.  1.
       -2   -1    0    0    0  501  0.00000000000E+00  0.00000000000E+00 -0.24888287782E+03  0.24888287783E+03  0.25500000920E-02 0. -1.
    10030    2    1    2    0    0  0.00000000000E+00  0.00000000000E+00  0.17204360743E+04  0.22182018300E+04  0.14001853708E+04 0.  0.
        4    1    3    3  502    0 -0.48784529229E+03  0.40356564505E+03  0.38688366991E+03  0.74198304968E+03  0.12699999809E+01 0. -1.
       -4    1    3    3    0  502  0.48784529229E+03 -0.40356564505E+03  0.13335524044E+04  0.14762187803E+04  0.12699999809E+01 0.  1.
</event>
<event>
 5   0  0.6671375E-05  0.1402353E+04  0.7818609E-02  0.8952117E-01
        1   -1    0    0  501    0  0.00000000000E+00  0.00000000000E+00  0.20450230279E+04  0.20450230279E+04  0.50400001928E-02 0. -1.
       -1   -1    0    0    0  501  0.00000000000E+00  0.00000000000E+00 -0.24041218758E+03  0.24041218764E+03  0.50400001928E-02 0.  1.
    10030    2    1    2    0    0  0.00000000000E+00  0.00000000000E+00  0.18046108403E+04  0.22854352155E+04  0.14023529653E+04 0.  0.
        5    1    3    3  502    0 -0.21449655181E+02  0.11788418712E+03  0.20281889457E+04  0.20317306068E+04  0.46999998093E+01 0. -1.
       -5    1    3    3    0  502  0.21449655181E+02 -0.11788418712E+03 -0.22357810538E+03  0.25370460872E+03  0.46999998093E+01 0.  1.
</event>
<event>
 5   0  0.1712327E-04  0.1400760E+04  0.7818609E-02  0.8953269E-01
        2   -1    0    0  501    0  0.00000000000E+00  0.00000000000E+00  0.83864586353E+03  0.83864586353E+03  0.25500000920E-02 0.  1.
       -2   -1    0    0    0  501  0.00000000000E+00  0.00000000000E+00 -0.58490954252E+03  0.58490954253E+03  0.25500000920E-02 0. -1.
    10030    2    1    2    0    0  0.00000000000E+00  0.00000000000E+00  0.25373632100E+03  0.14235554061E+04  0.14007597487E+04 0.  0.
        1    1    3    3  502    0  0.53728095188E+03 -0.87341149153E+02 -0.32102235118E+03  0.63194513019E+03  0.50400001928E-02 0. -1.
       -1    1    3    3    0  502 -0.53728095188E+03  0.87341149153E+02  0.57475867218E+03  0.79161027587E+03  0.50400001928E-02 0.  1.
</event>
<event>
 5   0  0.1766237E-04  0.1402301E+04  0.7818609E-02  0.8952154E-01
       -2   -1    0    0    0  501  0.00000000000E+00  0.00000000000E+00  0.19218246533E+03  0.19218246534E+03  0.25500000920E-02 0.  1.
        2   -1    0    0  501    0  0.00000000000E+00  0.00000000000E+00 -0.25580500576E+04  0.25580500576E+04  0.25500000920E-02 0. -1.
    10030    2    1    2    0    0  0.00000000000E+00  0.00000000000E+00 -0.23658675923E+04  0.27502325230E+04  0.14023014890E+04 0.  0.
        3    1    3    3  502    0 -0.15874817478E+01 -0.53211661966E+02  0.18821315138E+03  0.19559703889E+03  0.10100000352E+00 0.  1.
       -3    1    3    3    0  502  0.15874817478E+01  0.53211661966E+02 -0.25540807437E+04  0.25546354841E+04  0.10100000352E+00 0. -1.
</event>
<event>
 5   0  0.9260916E-05  0.1401775E+04  0.7818609E-02  0.8952535E-01
        1   -1    0    0  501    0  0.00000000000E+00  0.00000000000E+00  0.97804863714E+03  0.97804863716E+03  0.50400001928E-02 0.  1.
       -1   -1    0    0    0  501  0.00000000000E+00  0.00000000000E+00 -0.50226854474E+03  0.50226854477E+03  0.50400001928E-02 0. -1.
    10030    2    1    2    0    0  0.00000000000E+00  0.00000000000E+00  0.47578009240E+03  0.14803171819E+04  0.14017746833E+04 0.  0.
        1    1    3    3  502    0  0.60168414479E+02  0.56008007631E+03 -0.20253066218E+03  0.59860554552E+03  0.50400001928E-02 0. -1.
       -1    1    3    3    0  502 -0.60168414479E+02 -0.56008007631E+03  0.67831075458E+03  0.88171163641E+03  0.50400001928E-02 0.  1.
</event>
<event>
 5   0  0.9260916E-05  0.1402191E+04  0.7818609E-02  0.8952234E-01
       -1   -1    0    0    0  501  0.00000000000E+00  0.00000000000E+00  0.22115158437E+03  0.22115158442E+03  0.50400001928E-02 0. -1.
        1   -1    0    0  501    0  0.00000000000E+00  0.00000000000E+00 -0.22226153604E+04  0.22226153604E+04  0.50400001928E-02 0.  1.
    10030    2    1    2    0    0  0.00000000000E+00  0.00000000000E+00 -0.20014637761E+04  0.24437669449E+04  0.14021910119E+04 0.  0.
        1    1    3    3  502    0 -0.45135346043E+03  0.33651541572E+03 -0.17289145268E+04  0.18182706103E+04  0.50400001928E-02 0.  1.
       -1    1    3    3    0  502  0.45135346043E+03 -0.33651541572E+03 -0.27254924927E+03  0.62549633457E+03  0.50400001928E-02 0. -1.
</event>
<event>
 5   0  0.9900839E-05  0.1399513E+04  0.7818609E-02  0.8954171E-01
        1   -1    0    0  501    0  0.00000000000E+00  0.00000000000E+00  0.98775161286E+03  0.98775161287E+03  0.50400001928E-02 0.  1.
       -1   -1    0    0    0  501  0.00000000000E+00  0.00000000000E+00 -0.49573089579E+03  0.49573089581E+03  0.50400001928E-02 0. -1.
    10030    2    1    2    0    0  0.00000000000E+00  0.00000000000E+00  0.49202071707E+03  0.14834825087E+04  0.13995127608E+04 0.  0.
        3    1    3    3  502    0 -0.55240243044E+02  0.55499147597E+03  0.69396755472E+03  0.89031342799E+03  0.10100000352E+00 0.  1.
       -3    1    3    3    0  502  0.55240243044E+02 -0.55499147597E+03 -0.20194683765E+03  0.59316908069E+03  0.10100000352E+00 0. -1.
</event>
<event>
 5   0  0.6671375E-05  0.1400187E+04  0.7818609E-02  0.8953683E-01
       -1   -1    0    0    0  501  0.00000000000E+00  0.00000000000E+00  0.21005864116E+04  0.21005864116E+04  0.50400001928E-02 0. -1.
        1   -1    0    0  501    0  0.00000000000E+00  0.00000000000E+00 -0.23333039169E+03  0.23333039175E+03  0.50400001928E-02 0.  1.
    10030    2    1    2    0    0  0.00000000000E+00  0.00000000000E+00  0.18672560199E+04  0.23339168034E+04  0.14001866308E+04 0.  0.
        5    1    3    3  502    0 -0.79597493159E+02  0.40839619126E+03  0.18720950836E+04  0.19177813489E+04  0.46999998093E+01 0. -1.
       -5    1    3    3    0  502  0.79597493159E+02 -0.40839619126E+03 -0.48390637063E+01  0.41613545450E+03  0.46999998093E+01 0.  1.
</event>
<event>
 5   0  0.6671375E-05  0.1398095E+04  0.7818609E-02  0.8955199E-01
        3   -1    0    0  501    0  0.00000000000E+00  0.00000000000E+00  0.71126435682E+03  0.71126436399E+03  0.10100000352E+00 0.  1.
       -3   -1    0    0    0  501  0.00000000000E+00  0.00000000000E+00 -0.68704045834E+03  0.68704046576E+03  0.10100000352E+00 0. -1.
    10030    2    1    2    0    0  0.00000000000E+00  0.00000000000E+00  0.24223898481E+02  0.13983048298E+04  0.13980949895E+04 0.  0.
        3    1    3    3  502    0 -0.49383426581E+03 -0.32650012133E+03  0.38391063705E+03  0.70559336643E+03  0.10100000352E+00 0. -1.
       -3    1    3    3    0  502  0.49383426581E+03  0.32650012133E+03 -0.35968673857E+03  0.69271146332E+03  0.10100000352E+00 0.  1.
</event>
<event>
 5   0  0.6671375E-05  0.1401067E+04  0.7818609E-02  0.8953046E-01
       -1   -1    0    0    0  501  0.00000000000E+00  0.00000000000E+00  0.52458597162E+03  0.52458597164E+03  0.50400001928E-02 0.  1.
        1   -1    0    0  501    0  0.00000000000E+00  0.00000000000E+00 -0.93549475618E+03  0.93549475620E+03  0.50400001928E-02 0. -1.
    10030    2    1    2    0    0  0.00000000000E+00  0.00000000000E+00 -0.41090878457E+03  0.14600807278E+04  0.14010673441E+04 0.  0.
        5    1    3    3  502    0  0.34907141678E+03 -0.31918893405E+03  0.33302330339E+03  0.57849722577E+03  0.46999998093E+01 0.  1.
       -5    1    3    3    0  502 -0.34907141678E+03  0.31918893405E+03 -0.74393208795E+03  0.88158350206E+03  0.46999998093E+01 0. -1.
</event>
<event>
 5   0  0.9900839E-05  0.1402883E+04  0.7818609E-02  0.8951734E-01
       -1   -1    0    0    0  501  0.00000000000E+00  0.00000000000E+00  0.28949415922E+03  0.28949415926E+03  0.50400001928E-02 0. -1.
        1   -1    0    0  501    0  0.00000000000E+00  0.00000000000E+00 -0.16995861249E+04  0.16995861249E+04  0.50400001928E-02 0.  1.
    10030    2    1    2    0    0  0.00000000000E+00  0.00000000000E+00 -0.14100919657E+04  0.19890802842E+04  0.14028831118E+04 0.  0.
        3    1    3    3  502    0 -0.18259495722E+03  0.53111810246E+03 -0.13008692125E+04  0.14169291004E+04  0.10100000352E+00 0.  1.
       -3    1    3    3    0  502  0.18259495722E+03 -0.53111810246E+03 -0.10922275320E+03  0.57215118385E+03  0.10100000352E+00 0. -1.
</event>
<event>
 5   0  0.1833681E-04  0.1398563E+04  0.7818609E-02  0.8954860E-01
       -2   -1    0    0    0  501  0.00000000000E+00  0.00000000000E+00  0.47954521098E+03  0.47954521098E+03  0.25500000920E-02 0.  1.
        2   -1    0    0  501    0  0.00000000000E+00  0.00000000000E+00 -0.10197045209E+04  0.10197045209E+04  0.25500000920E-02 0. -1.
    10030    2    1    2    0    0  0.00000000000E+00  0.00000000000E+00 -0.54015930992E+03  0.14992497319E+04  0.13985627188E+04 0.  0.
        4    1    3    3  502    0  0.16448357771E+03  0.26083631943E+03  0.40272088560E+03  0.50722397170E+03  0.12699999809E+01 0.  1.
       -4    1    3    3    0  502 -0.16448357771E+03 -0.26083631943E+03 -0.94288019552E+03  0.99202576018E+03  0.12699999809E+01 0. -1.
</event>
<event>
 5   0  0.1712327E-04  0.1399294E+04  0.7818609E-02  0.8954330E-01
        2   -1    0    0  501    0  0.00000000000E+00  0.00000000000E+00  0.11909235016E+04  0.11909235016E+04  0.25500000920E-02 0.  1.
       -2   -1    0    0    0  501  0.00000000000E+00  0.00000000000E+00 -0.41103033524E+03  0.41103033524E+03  0.25500000920E-02 0. -1.
    10030    2    1    2    0    0  0.00000000000E+00  0.00000000000E+00  0.77989316634E+03  0.16019538368E+04  0.13992936591E+04 0.  0.
        1    1    3    3  502    0  0.14625157599E+03  0.54157773686E+03 -0.88709867765E+02  0.56794842125E+03  0.50400001928E-02 0. -1.
       -1    1    3    3    0  502 -0.14625157599E+03 -0.54157773686E+03  0.86860303411E+03  0.10340054156E+04  0.50400001928E-02 0.  1.
</event>
<event>
 5   0  0.9978422E-05  0.1400630E+04  0.7818609E-02  0.8953363E-01
        1   -1    0    0  501    0  0.00000000000E+00  0.00000000000E+00  0.51642954158E+03  0.51642954160E+03  0.50400001928E-02 0. -1.
       -1   -1    0    0    0  501  0.00000000000E+00  0.00000000000E+00 -0.94967662526E+03  0.94967662527E+03  0.50400001928E-02 0.  1.
    10030    2    1    2    0    0  0.00000000000E+00  0.00000000000E+00 -0.43324708368E+03  0.14661061669E+04  0.14006299501E+04 0.  0.
        2    1    3    3  502    0 -0.36004985216E+03  0.19215254689E+03 -0.81233478671E+03  0.90909092120E+03  0.25500000920E-02 0.  1.
       -2    1    3    3    0  502  0.36004985216E+03 -0.19215254689E+03  0.37908770302E+03  0.55701524567E+03  0.25500000920E-02 0. -1.
</event>
<event>
 5   0  0.1780171E-04  0.1398757E+04  0.7818609E-02  0.8954719E-01
        2   -1    0    0  501    0  0.00000000000E+00  0.00000000000E+00  0.90859256629E+03  0.90859256630E+03  0.25500000920E-02 0. -1.
       -2   -1    0    0    0  501  0.00000000000E+00  0.00000000000E+00 -0.53833870819E+03  0.53833870819E+03  0.25500000920E-02 0.  1.
    10030    2    1    2    0    0  0.00000000000E+00  0.00000000000E+00  0.37025385811E+03  0.14469312745E+04  0.13987573748E+04 0.  0.
        5    1    3    3  502    0 -0.81152686476E+02 -0.69415397072E+03  0.15829192308E+03  0.71659885327E+03  0.46999998093E+01 0.  1.
       -5    1    3    3    0  502  0.81152686476E+02  0.69415397072E+03  0.21196193503E+03  0.73033242123E+03  0.46999998093E+01 0. -1.
</event>
<event>
 5   0  0.6671375E-05  0.1381240E+04  0.7818609E-02  0.8967511E-01
        3   -1    0    0  501    0  0.00000000000E+00  0.00000000000E+00  0.55402122153E+03  0.55402123073E+03  0.10100000352E+00 0.  1.
       -3   -1    0    0    0  501  0.00000000000E+00  0.00000000000E+00 -0.86089889790E+03  0.86089890382E+03  0.10100000352E+00 0. -1.
    10030    2    1    2    0    0  0.00000000000E+00  0.00000000000E+00 -0.30687767637E+03  0.14149201346E+04  0.13812404131E+04 0.  0.
        1    1    3    3  502    0  0.61050158760E+03 -0.64389239400E+02  0.17065858824E+03  0.63716757323E+03  0.50400001928E-02 0.  1.
       -1    1    3    3    0  502 -0.61050158760E+03  0.64389239400E+02 -0.47753626460E+03  0.77775256133E+03  0.50400001928E-02 0. -1.
</event>
<event>
 5   0  0.6671375E-05  0.1401297E+04  0.7818609E-02  0.8952880E-01
       -3   -1    0    0    0  501  0.00000000000E+00  0.00000000000E+00  0.86431472624E+03  0.86431473214E+03  0.10100000352E+00 0. -1.
        3   -1    0    0  501    0  0.00000000000E+00  0.00000000000E+00 -0.56797382774E+03  0.56797383672E+03  0.10100000352E+00 0.  1.
    10030    2    1    2    0    0  0.00000000000E+00  0.00000000000E+00  0.29634089850E+03  0.14322885689E+04  0.14012967624E+04 0.  0.
        1    1    3    3  502    0  0.23271037734E+03 -0.55287184501E+03 -0.22189608892E+03  0.63957741598E+03  0.50400001928E-02 0.  1.
       -1    1    3    3    0  502 -0.23271037734E+03  0.55287184501E+03  0.51823698742E+03  0.79271115287E+03  0.50400001928E-02 0. -1.
</event>
<event>
 5   0  0.9978422E-05  0.1398271E+04  0.7818609E-02  0.8955071E-01
        1   -1    0    0  501    0  0.00000000000E+00  0.00000000000E+00  0.95282691148E+03  0.95282691149E+03  0.50400001928E-02 0. -1.
       -1   -1    0    0    0  501  0.00000000000E+00  0.00000000000E+00 -0.51298949435E+03  0.51298949438E+03  0.50400001928E-02 0.  1.
    10030    2    1    2    0    0  0.00000000000E+00  0.00000000000E+00  0.43983741713E+03  0.14658164059E+04  0.13982706398E+04 0.  0.
        2    1    3    3  502    0  0.38054745401E+03  0.56696726448E+03  0.37724139426E+03  0.78011493596E+03  0.25500000920E-02 0. -1.
       -2    1    3    3    0  502 -0.38054745401E+03 -0.56696726448E+03  0.62596022866E+02  0.68570146991E+03  0.25500000920E-02 0.  1.
</event>
<event>
 5   0  0.1794185E-04  0.1402074E+04  0.7818609E-02  0.8952318E-01
        2   -1    0    0  501    0  0.00000000000E+00  0.00000000000E+00  0.10011001223E+04  0.10011001223E+04  0.25500000920E-02 0.  1.
       -2   -1    0    0    0  501  0.00000000000E+00  0.00000000000E+00 -0.49091301906E+03  0.49091301907E+03  0.25500000920E-02 0. -1.
    10030    2    1    2    0    0  0.00000000000E+00  0.00000000000E+00  0.51018710322E+03  0.14920131413E+04  0.14020742968E+04 0.  0.
        2    1    3    3  502    0  0.41832341856E+03 -0.27817983805E+03 -0.26522381316E+03  0.56808641586E+03  0.25500000920E-02 0. -1.
       -2    1    3    3    0  502 -0.41832341856E+03  0.27817983805E+03  0.77541091638E+03  0.92392672548E+03  0.25500000920E-02 0.  1.
</event>
<event>
 5   0  0.1766237E-04  0.1402798E+04  0.7818609E-02  0.8951796E-01
        2   -1    0    0  501    0  0.00000000000E+00  0.00000000000E+00  0.10541445121E+04  0.10541445121E+04  0.25500000920E-02 0.  1.
       -2   -1    0    0    0  501  0.00000000000E+00  0.00000000000E+00 -0.46669168840E+03  0.46669168841E+03  0.25500000920E-02 0. -1.
    10030    2    1    2    0    0  0.00000000000E+00  0.00000000000E+00  0.58745282372E+03  0.15208362005E+04  0.14027978930E+04 0.  0.
        3    1    3    3  502    0 -0.57855356134E+03  0.98093027705E+02 -0.12280822472E+03  0.59952342380E+03  0.10100000352E+00 0. -1.
       -3    1    3    3    0  502  0.57855356134E+03 -0.98093027705E+02  0.71026104843E+03  0.92131277672E+03  0.10100000352E+00 0.  1.
</event>
<event>
 5   0  0.6671375E-05  0.1400341E+04  0.7818609E-02  0.8953572E-01
       -1   -1    0    0    0  501  0.00000000000E+00  0.00000000000E+00  0.87205408175E+03  0.87205408176E+03  0.50400001928E-02 0.  1.
        1   -1    0    0  501    0  0.00000000000E+00  0.00000000000E+00 -0.56216541346E+03  0.56216541348E+03  0.50400001928E-02 0. -1.
    10030    2    1    2    0    0  0.00000000000E+00  0.00000000000E+00  0.30988866829E+03  0.14342194952E+04  0.14003408777E+04 0.  0.
        5    1    3    3  502    0 -0.21946280569E+03  0.23067665077E+03  0.79360156282E+03  0.85510301765E+03  0.46999998093E+01 0.  1.
       -5    1    3    3    0  502  0.21946280569E+03 -0.23067665077E+03 -0.48371289453E+03  0.57911647760E+03  0.46999998093E+01 0. -1.
</event>
<event>
 5   0  0.1712327E-04  0.1400561E+04  0.7818609E-02  0.8953412E-01
       -2   -1    0    0    0  501  0.00000000000E+00  0.00000000000E+00  0.45019955346E+03  0.45019955347E+03  0.25500000920E-02 0.  1.
        2   -1    0    0  501    0  0.00000000000E+00  0.00000000000E+00 -0.10892789480E+04  0.10892789480E+04  0.25500000920E-02 0. -1.
    10030    2    1    2    0    0  0.00000000000E+00  0.00000000000E+00 -0.63907939452E+03  0.15394785015E+04  0.14005611675E+04 0.  0.
        1    1    3    3  502    0 -0.31034440516E+02  0.69938946819E+03 -0.33806780405E+03  0.77743077176E+03  0.50400001928E-02 0. -1.
       -1    1    3    3    0  502  0.31034440516E+02 -0.69938946819E+03 -0.30101159047E+03  0.76204772970E+03  0.50400001928E-02 0.  1.
</event>
<event>
 5   0  0.1833681E-04  0.1402281E+04  0.7818609E-02  0.8952169E-01
        2   -1    0    0  501    0  0.00000000000E+00  0.00000000000E+00  0.14294264809E+04  0.14294264809E+04  0.25500000920E-02 0.  1.
       -2   -1    0    0    0  501  0.00000000000E+00  0.00000000000E+00 -0.34391290595E+03  0.34391290596E+03  0.25500000920E-02 0. -1.
    10030    2    1    2    0    0  0.00000000000E+00  0.00000000000E+00  0.10855135750E+04  0.17733393869E+04  0.14022813055E+04 0.  0.
        4    1    3    3  502    0  0.13302502206E+03 -0.19185050711E+03  0.13788299855E+04  0.13984548671E+04  0.12699999809E+01 0.  1.
       -4    1    3    3    0  502 -0.13302502206E+03  0.19185050711E+03 -0.29331641052E+03  0.37488451976E+03  0.12699999809E+01 0. -1.
</event>
<event>
 5   0  0.6671375E-05  0.1403777E+04  0.7818609E-02  0.8951089E-01
        1   -1    0    0  501    0  0.00000000000E+00  0.00000000000E+00  0.93680640121E+03  0.93680640122E+03  0.50400001928E-02 0. -1.
       -1   -1    0    0    0  501  0.00000000000E+00  0.00000000000E+00 -0.52587935205E+03  0.52587935208E+03  0.50400001928E-02 0.  1.
    10030    2    1    2    0    0  0.00000000000E+00  0.00000000000E+00  0.41092704916E+03  0.14626857533E+04  0.14037765396E+04 0.  0.
        5    1    3    3  502    0  0.24725926089E+03  0.43201407654E+03 -0.31012667837E+03  0.58649292498E+03  0.46999998093E+01 0.  1.
       -5    1    3    3    0  502 -0.24725926089E+03 -0.43201407654E+03  0.72105372752E+03  0.87619282832E+03  0.46999998093E+01 0. -1.
</event>
<event>
 5   0  0.9828111E-05  0.1400250E+04  0.7818609E-02  0.8953638E-01
       -1   -1    0    0    0  501  0.00000000000E+00  0.00000000000E+00  0.35778416123E+03  0.35778416126E+03  0.50400001928E-02 0. -1.
        1   -1    0    0  501    0  0.00000000000E+00  0.00000000000E+00 -0.13700290675E+04  0.13700290675E+04  0.50400001928E-02 0.  1.
    10030    2    1    2    0    0  0.00000000000E+00  0.00000000000E+00 -0.10122449063E+04  0.17278132288E+04  0.14002495503E+04 0.  0.
        4    1    3    3  502    0  0.55639682725E+03 -0.41276585976E+03 -0.38137925444E+03  0.79082541245E+03  0.12699999809E+01 0.  1.
       -4    1    3    3    0  502 -0.55639682725E+03  0.41276585976E+03 -0.63086565182E+03  0.93698781631E+03  0.12699999809E+01 0. -1.
</event>
<event>
 5   0  0.6671375E-05  0.1404894E+04  0.7818609E-02  0.8950283E-01
        1   -1    0    0  501    0  0.00000000000E+00  0.00000000000E+00  0.66686784178E+03  0.66686784180E+03  0.50400001928E-02 0.  1.
       -1   -1    0    0    0  501  0.00000000000E+00  0.00000000000E+00 -0.73992462150E+03  0.73992462152E+03  0.50400001928E-02 0. -1.
    10030    2    1    2    0    0  0.00000000000E+00  0.00000000000E+00 -0.73056779719E+02  0.14067924633E+04  0.14048942102E+04 0.  0.
        5    1    3    3  502    0 -0.38367718614E+03  0.46586315021E+03 -0.39642072608E+03  0.72208596438E+03  0.46999998093E+01 0. -1.
       -5    1    3    3    0  502  0.38367718614E+03 -0.46586315021E+03  0.32336394636E+03  0.68470649894E+03  0.46999998093E+01 0.  1.
</event>
<event>
 5   0  0.1766237E-04  0.1396625E+04  0.7818609E-02  0.8956265E-01
        2   -1    0    0  501    0  0.00000000000E+00  0.00000000000E+00  0.21307664140E+04  0.21307664140E+04  0.25500000920E-02 0.  1.
       -2   -1    0    0    0  501  0.00000000000E+00  0.00000000000E+00 -0.22885682635E+03  0.22885682636E+03  0.25500000920E-02 0. -1.
    10030    2    1    2    0    0  0.00000000000E+00  0.00000000000E+00  0.19019095877E+04  0.23596232404E+04  0.13966251311E+04 0.  0.
        3    1    3    3  502    0 -0.22512009714E+03 -0.56150649001E+03  0.36162576068E+03  0.70479911850E+03  0.10100000352E+00 0. -1.
       -3    1    3    3    0  502  0.22512009714E+03  0.56150649001E+03  0.15402838270E+04  0.16548241219E+04  0.10100000352E+00 0.  1.
</event>
<event>
 5   0  0.1794185E-04  0.1391738E+04  0.7818609E-02  0.8959821E-01
        2   -1    0    0  501    0  0.00000000000E+00  0.00000000000E+00  0.16977267489E+04  0.16977267489E+04  0.25500000920E-02 0. -1.
       -2   -1    0    0    0  501  0.00000000000E+00  0.00000000000E+00 -0.28522489430E+03  0.28522489431E+03  0.25500000920E-02 0.  1.
    10030    2    1    2    0    0  0.00000000000E+00  0.00000000000E+00  0.14125018546E+04  0.19829516432E+04  0.13917383842E+04 0.  0.
        2    1    3    3  502    0  0.12615395220E+03  0.66536636310E+03  0.47825270636E+03  0.82906746888E+03  0.25500000920E-02 0.  1.
       -2    1    3    3    0  502 -0.12615395220E+03 -0.66536636310E+03  0.93424914821E+03  0.11538841743E+04  0.25500000920E-02 0. -1.
</event>
<event>
 5   0  0.1780171E-04  0.1397448E+04  0.7818609E-02  0.8955668E-01
        2   -1    0    0  501    0  0.00000000000E+00  0.00000000000E+00  0.13892228855E+04  0.13892228855E+04  0.25500000920E-02 0. -1.
       -2   -1    0    0    0  501  0.00000000000E+00  0.00000000000E+00 -0.35143022852E+03  0.35143022853E+03  0.25500000920E-02 0.  1.
    10030    2    1    2    0    0  0.00000000000E+00  0.00000000000E+00  0.10377926570E+04  0.17406531141E+04  0.13974475534E+04 0.  0.
        5    1    3    3  502    0 -0.37143630141E+03  0.54078718855E+01  0.12560091248E+04  0.13097996727E+04  0.46999998093E+01 0. -1.
       -5    1    3    3    0  502  0.37143630141E+03 -0.54078718855E+01 -0.21821646780E+03  0.43085344133E+03  0.46999998093E+01 0.  1.
</event>
<event>
 5   0  0.9828111E-05  0.1400062E+04  0.7818609E-02  0.8953774E-01
        1   -1    0    0  501    0  0.00000000000E+00  0.00000000000E+00  0.66936336469E+03  0.66936336471E+03  0.50400001928E-02 0. -1.
       -1   -1    0    0    0  501  0.00000000000E+00  0.00000000000E+00 -0.73210363764E+03  0.73210363765E+03  0.50400001928E-02 0.  1.
    10030    2    1    2    0    0  0.00000000000E+00  0.00000000000E+00 -0.62740272945E+02  0.14014670024E+04  0.14000619332E+04 0.  0.
        4    1    3    3  502    0 -0.13422818212E+03  0.57269097747E+03 -0.41128967450E+03  0.71774157592E+03  0.12699999809E+01 0.  1.
       -4    1    3    3    0  502  0.13422818212E+03 -0.57269097747E+03  0.34854940155E+03  0.68372542645E+03  0.12699999809E+01 0. -1.
</event>
<event>
 5   0  0.9260916E-05  0.1397277E+04  0.7818609E-02  0.8955792E-01
        1   -1    0    0  501    0  0.00000000000E+00  0.00000000000E+00  0.91922677068E+03  0.91922677070E+03  0.50400001928E-02 0.  1.
       -1   -1    0    0    0  501  0.00000000000E+00  0.00000000000E+00 -0.53098494020E+03  0.53098494022E+03  0.50400001928E-02 0. -1.
    10030    2    1    2    0    0  0.00000000000E+00  0.00000000000E+00  0.38824183049E+03  0.14502117109E+04  0.13972767398E+04 0.  0.
        1    1    3    3  502    0  0.15212356797E+02 -0.65980997419E+03 -0.43722138994E+02  0.66143196423E+03  0.50400001928E-02 0. -1.
       -1    1    3    3    0  502 -0.15212356797E+02  0.65980997419E+03  0.43196396948E+03  0.78877974669E+03  0.50400001928E-02 0.  1.
</event>
<event>
 5   0  0.1794185E-04  0.1413199E+04  0.7818609E-02  0.8944320E-01
        2   -1    0    0  501    0  0.00000000000E+00  0.00000000000E+00  0.66388353587E+03  0.66388353587E+03  0.25500000920E-02 0. -1.
       -2   -1    0    0    0  501  0.00000000000E+00  0.00000000000E+00 -0.75206354050E+03  0.75206354050E+03  0.25500000920E-02 0.  1.
    10030    2    1    2    0    0  0.00000000000E+00  0.00000000000E+00 -0.88180004633E+02  0.14159470764E+04  0.14131986449E+04 0.  0.
        2    1    3    3  502    0 -0.41801756275E+03 -0.89282184939E+02  0.51965210941E+03  0.67286574154E+03  0.25500000920E-02 0. -1.
       -2    1    3    3    0  502  0.41801756275E+03  0.89282184939E+02 -0.60783211404E+03  0.74308133484E+03  0.25500000920E-02 0.  1.
</event>
<event>
 5   0  0.6671375E-05  0.1409341E+04  0.7818609E-02  0.8947084E-01
        1   -1    0    0  501    0  0.00000000000E+00  0.00000000000E+00  0.13402021268E+04  0.13402021268E+04  0.50400001928E-02 0.  1.
       -1   -1    0    0    0  501  0.00000000000E+00  0.00000000000E+00 -0.37051183608E+03  0.37051183611E+03  0.50400001928E-02 0. -1.
    10030    2    1    2    0    0  0.00000000000E+00  0.00000000000E+00  0.96969029069E+03  0.17107139629E+04  0.14093413366E+04 0.  0.
        5    1    3    3  502    0 -0.18340893405E+03 -0.20526986334E+03 -0.30252791710E+03  0.40904741108E+03  0.46999998093E+01 0. -1.
       -5    1    3    3    0  502  0.18340893405E+03  0.20526986334E+03  0.12722182078E+04  0.13016665518E+04  0.46999998093E+01 0.  1.
</event>
<event>
 5   0  0.9828111E-05  0.1413461E+04  0.7818609E-02  0.8944132E-01
        1   -1    0    0  501    0  0.00000000000E+00  0.00000000000E+00  0.22098359440E+04  0.22098359440E+04  0.50400001928E-02 0. -1.
       -1   -1    0    0    0  501  0.00000000000E+00  0.00000000000E+00 -0.22602028966E+03  0.22602028972E+03  0.50400001928E-02 0.  1.
    10030    2    1    2    0    0  0.00000000000E+00  0.00000000000E+00  0.19838156544E+04  0.24358562337E+04  0.14134606613E+04 0.  0.
        4    1    3    3  502    0 -0.53497927664E+01  0.41785982046E+02  0.22076683022E+04  0.22080705682E+04  0.12699999809E+01 0. -1.
       -4    1    3    3    0  502  0.53497927664E+01 -0.41785982046E+02 -0.22385264786E+03  0.22778566555E+03  0.12699999809E+01 0.  1.
</event>
<event>
 5   0  0.1833681E-04  0.1398311E+04  0.7818609E-02  0.8955042E-01
        2   -1    0    0  501    0  0.00000000000E+00  0.00000000000E+00  0.82549732448E+03  0.82549732449E+03  0.25500000920E-02 0. -1.
       -2   -1    0    0    0  501  0.00000000000E+00  0.00000000000E+00 -0.59215044772E+03  0.59215044773E+03  0.25500000920E-02 0.  1.
    10030    2    1    2    0    0  0.00000000000E+00  0.00000000000E+00  0.23334687676E+03  0.14176477722E+04  0.13983112819E+04 0.  0.
        4    1    3    3  502    0  0.15459137744E+03  0.38051912931E+03  0.69029225479E+03  0.80324237417E+03  0.12699999809E+01 0. -1.
       -4    1    3    3    0  502 -0.15459137744E+03 -0.38051912931E+03 -0.45694537803E+03  0.61440539805E+03  0.12699999809E+01 0.  1.
</event>
<event>
 5   0  0.6671375E-05  0.1398576E+04  0.7818609E-02  0.8954850E-01
       -1   -1    0    0    0  501  0.00000000000E+00  0.00000000000E+00  0.21319356765E+03  0.21319356771E+03  0.50400001928E-02 0.  1.
        1   -1    0    0  501    0  0.00000000000E+00  0.00000000000E+00 -0.22937068929E+04  0.22937068929E+04  0.50400001928E-02 0. -1.
    10030    2    1    2    0    0  0.00000000000E+00  0.00000000000E+00 -0.20805133252E+04  0.25069004606E+04  0.13985757838E+04 0.  0.
        5    1    3    3  502    0  0.42687011894E+03 -0.14338493176E+03 -0.81321965173E+02  0.45761631212E+03  0.46999998093E+01 0.  1.
       -5    1    3    3    0  502 -0.42687011894E+03  0.14338493176E+03 -0.19991913601E+04  0.20492841485E+04  0.46999998093E+01 0. -1.
</event>
<event>
 5   0  0.1780171E-04  0.1400983E+04  0.7818609E-02  0.8953107E-01
        2   -1    0    0  501    0  0.00000000000E+00  0.00000000000E+00  0.15357991926E+04  0.15357991926E+04  0.25500000920E-02 0. -1.
       -2   -1    0    0    0  501  0.00000000000E+00  0.00000000000E+00 -0.31950036476E+03  0.31950036477E+03  0.25500000920E-02 0.  1.
    10030    2    1    2    0    0  0.00000000000E+00  0.00000000000E+00  0.12162988278E+04  0.18552995574E+04  0.14009830866E+04 0.  0.
        5    1    3    3  502    0  0.36425965189E+03 -0.13409877972E+03 -0.16403280987E+03  0.42142191380E+03  0.46999998093E+01 0.  1.
       -5    1    3    3    0  502 -0.36425965189E+03  0.13409877972E+03  0.13803316377E+04  0.14338776436E+04  0.46999998093E+01 0. -1.
</event>
<event>
 5   0  0.1712327E-04  0.1399811E+04  0.7818609E-02  0.8953955E-01
        2   -1    0    0  501    0  0.00000000000E+00  0.00000000000E+00  0.12257615169E+04  0.12257615169E+04  0.25500000920E-02 0. -1.
       -2   -1    0    0    0  501  0.00000000000E+00  0.00000000000E+00 -0.39964380917E+03  0.39964380918E+03  0.25500000920E-02 0.  1.
    10030    2    1    2    0    0  0.00000000000E+00  0.00000000000E+00  0.82611770769E+03  0.16254053260E+04  0.13998114184E+04 0.  0.
        1    1    3    3  502    0 -0.26644415559E+03  0.34095140540E+03  0.10518317077E+04  0.11373611081E+04  0.50400001928E-02 0. -1.
       -1    1    3    3    0  502  0.26644415559E+03 -0.34095140540E+03 -0.22571399996E+03  0.48804421797E+03  0.50400001928E-02 0.  1.
</event>
<event>
 5   0  0.9900839E-05  0.1394164E+04  0.7818609E-02  0.8958054E-01
       -1   -1    0    0    0  501  0.00000000000E+00  0.00000000000E+00  0.52453129261E+03  0.52453129264E+03  0.50400001928E-02 0. -1.
        1   -1    0    0  501    0  0.00000000000E+00  0.00000000000E+00 -0.92639573823E+03  0.92639573824E+03  0.50400001928E-02 0.  1.
    10030    2    1    2    0    0  0.00000000000E+00  0.00000000000E+00 -0.40186444561E+03  0.14509270309E+04  0.13941643434E+04 0.  0.
        3    1    3    3  502    0  0.29264463368E+03 -0.56468785392E+03 -0.49787396423E+03  0.80770771226E+03  0.10100000352E+00 0. -1.
       -3    1    3    3    0  502 -0.29264463368E+03  0.56468785392E+03  0.96009518622E+02  0.64321931862E+03  0.10100000352E+00 0.  1.
</event>
<event>
 5   0  0.6671375E-05  0.1399892E+04  0.7818609E-02  0.8953897E-01
       -1   -1    0    0    0  501  0.00000000000E+00  0.00000000000E+00  0.69871019666E+03  0.69871019668E+03  0.50400001928E-02 0.  1.
        1   -1    0    0  501    0  0.00000000000E+00  0.00000000000E+00 -0.70118390284E+03  0.70118390286E+03  0.50400001928E-02 0. -1.
    10030    2    1    2    0    0  0.00000000000E+00  0.00000000000E+00 -0.24737061844E+01  0.13998940995E+04  0.13998919139E+04 0.  0.
        5    1    3    3  502    0 -0.67112862654E+03  0.19741216837E+03  0.21502028080E+02  0.69990686865E+03  0.46999998093E+01 0.  1.
       -5    1    3    3    0  502  0.67112862654E+03 -0.19741216837E+03 -0.23975734265E+02  0.69998723089E+03  0.46999998093E+01 0. -1.
</event>
<event>
 5   0  0.9828111E-05  0.1396509E+04  0.7818609E-02  0.8956350E-01
       -1   -1    0    0    0  501  0.00000000000E+00  0.00000000000E+00  0.25400824789E+03  0.25400824794E+03  0.50400001928E-02 0.  1.
        1   -1    0    0  501    0  0.00000000000E+00  0.00000000000E+00 -0.19194617657E+04  0.19194617657E+04  0.50400001928E-02 0. -1.
    10030    2    1    2    0    0  0.00000000000E+00  0.00000000000E+00 -0.16654535178E+04  0.21734700136E+04  0.13965086753E+04 0.  0.
        4    1    3    3  502    0  0.34840200296E+03 -0.59369466934E+03 -0.10148952778E+04  0.12263243265E+04  0.12699999809E+01 0. -1.
       -4    1    3    3    0  502 -0.34840200296E+03  0.59369466934E+03 -0.65055824003E+03  0.94714568712E+03  0.12699999809E+01 0.  1.
</event>
<event>
 5   0  0.9828111E-05  0.1366365E+04  0.7818609E-02  0.8978531E-01
        1   -1    0    0  501    0  0.00000000000E+00  0.00000000000E+00  0.59399577772E+03  0.59399577774E+03  0.50400001928E-02 0. -1.
       -1   -1    0    0    0  501  0.00000000000E+00  0.00000000000E+00 -0.78576082364E+03  0.78576082366E+03  0.50400001928E-02 0.  1.
    10030    2    1    2    0    0  0.00000000000E+00  0.00000000000E+00 -0.19176504592E+03  0.13797566014E+04  0.13663654146E+04 0.  0.
        4    1    3    3  502    0  0.42447577328E+03  0.50683033100E+02 -0.63401107145E+03  0.76466993113E+03  0.12699999809E+01 0.  1.
       -4    1    3    3    0  502 -0.42447577328E+03 -0.50683033100E+02  0.44224602553E+03  0.61508667027E+03  0.12699999809E+01 0. -1.
</event>
<event>
 5   0  0.9828111E-05  0.1404568E+04  0.7818609E-02  0.8950519E-01
        1   -1    0    0  501    0  0.00000000000E+00  0.00000000000E+00  0.82188239510E+03  0.82188239511E+03  0.50400001928E-02 0. -1.
       -1   -1    0    0    0  501  0.00000000000E+00  0.00000000000E+00 -0.60008914194E+03  0.60008914196E+03  0.50400001928E-02 0.  1.
    10030    2    1    2    0    0  0.00000000000E+00  0.00000000000E+00  0.22179325316E+03  0.14219715371E+04  0.14045678357E+04 0.  0.
        4    1    3    3  502    0 -0.89187310769E+01  0.64131349624E+03  0.40051568146E+03  0.75615935372E+03  0.12699999809E+01 0. -1.
       -4    1    3    3    0  502  0.89187310769E+01 -0.64131349624E+03 -0.17872242830E+03  0.66581218336E+03  0.12699999809E+01 0.  1.
</event>
<event>
 5   0  0.9260916E-05  0.1403956E+04  0.7818609E-02  0.8950960E-01
        1   -1    0    0  501    0  0.00000000000E+00  0.00000000000E+00  0.11527267733E+04  0.11527267734E+04  0.50400001928E-02 0.  1.
       -1   -1    0    0    0  501  0.00000000000E+00  0.00000000000E+00 -0.42748450540E+03  0.42748450543E+03  0.50400001928E-02 0. -1.
    10030    2    1    2    0    0  0.00000000000E+00  0.00000000000E+00  0.72524226794E+03  0.15802112788E+04  0.14039556041E+04 0.  0.
        1    1    3    3  502    0 -0.14673520913E+03  0.35432411947E+03  0.10243940352E+04  0.10938281139E+04  0.50400001928E-02 0.  1.
       -1    1    3    3    0  502  0.14673520913E+03 -0.35432411947E+03 -0.29915176728E+03  0.48638316493E+03  0.50400001928E-02 0. -1.
</event>
<event>
 5   0  0.1780171E-04  0.1396613E+04  0.7818609E-02  0.8956274E-01
        2   -1    0    0  501    0  0.00000000000E+00  0.00000000000E+00  0.22464953847E+04  0.22464953847E+04  0.25500000920E-02 0. -1.
       -2   -1    0    0    0  501  0.00000000000E+00  0.00000000000E+00 -0.21706354139E+03  0.21706354141E+03  0.25500000920E-02 0.  1.
    10030    2    1    2    0    0  0.00000000000E+00  0.00000000000E+00  0.20294318433E+04  0.24635589261E+04  0.13966133952E+04 0.  0.
        5    1    3    3  502    0 -0.18262901636E+03  0.60900207513E+03  0.15240469876E+04  0.16513564713E+04  0.46999998093E+01 0.  1.
       -5    1    3    3    0  502  0.18262901636E+03 -0.60900207513E+03  0.50538485575E+03  0.81220245477E+03  0.46999998093E+01 0. -1.
</event>
<event>
 5   0  0.1794185E-04  0.1399820E+04  0.7818609E-02  0.8953949E-01
        2   -1    0    0  501    0  0.00000000000E+00  0.00000000000E+00  0.18159100062E+04  0.18159100062E+04  0.25500000920E-02 0. -1.
       -2   -1    0    0    0  501  0.00000000000E+00  0.00000000000E+00 -0.26976775838E+03  0.26976775839E+03  0.25500000920E-02 0.  1.
    10030    2    1    2    0    0  0.00000000000E+00  0.00000000000E+00  0.15461422478E+04  0.20856777646E+04  0.13998199481E+04 0.  0.
        2    1    3    3  502    0  0.48643102538E+03 -0.37772319588E+03  0.27759673217E+03  0.67553675021E+03  0.25500000920E-02 0.  1.
       -2    1    3    3    0  502 -0.48643102538E+03  0.37772319588E+03  0.12685455156E+04  0.14101410144E+04  0.25500000920E-02 0. -1.
</event>
<event>
 5   0  0.9978422E-05  0.1400724E+04  0.7818609E-02  0.8953295E-01
        1   -1    0    0  501    0  0.00000000000E+00  0.00000000000E+00  0.88591642933E+03  0.88591642934E+03  0.50400001928E-02 0. -1.
       -1   -1    0    0    0  501  0.00000000000E+00  0.00000000000E+00 -0.55367179967E+03  0.55367179969E+03  0.50400001928E-02 0.  1.
    10030    2    1    2    0    0  0.00000000000E+00  0.00000000000E+00  0.33224462966E+03  0.14395882290E+04  0.14007240182E+04 0.  0.
        2    1    3    3  502    0  0.68454405706E+03 -0.14574605775E+03  0.19261473112E+03  0.72590833722E+03  0.25500000920E-02 0.  1.
       -2    1    3    3    0  502 -0.68454405706E+03  0.14574605775E+03  0.13962989854E+03  0.71367989181E+03  0.25500000920E-02 0. -1.
</event>
<event>
 5   0  0.9260916E-05  0.1395969E+04  0.7818609E-02  0.8956742E-01
        1   -1    0    0  501    0  0.00000000000E+00  0.00000000000E+00  0.57189003882E+03  0.57189003884E+03  0.50400001928E-02 0.  1.
       -1   -1    0    0    0  501  0.00000000000E+00  0.00000000000E+00 -0.85188062634E+03  0.85188062636E+03  0.50400001928E-02 0. -1.
    10030    2    1    2    0    0  0.00000000000E+00  0.00000000000E+00 -0.27999058752E+03  0.14237706652E+04  0.13959685448E+04 0.  0.
        1    1    3    3  502    0  0.62524355731E+02 -0.35585087612E+03 -0.74908491815E+03  0.83166541092E+03  0.50400001928E-02 0. -1.
       -1    1    3    3    0  502 -0.62524355731E+02  0.35585087612E+03  0.46909433063E+03  0.59210525428E+03  0.50400001928E-02 0.  1.
</event>
<event>
 5   0  0.9900839E-05  0.1398778E+04  0.7818609E-02  0.8954704E-01
       -1   -1    0    0    0  501  0.00000000000E+00  0.00000000000E+00  0.28494038211E+03  0.28494038216E+03  0.50400001928E-02 0. -1.
        1   -1    0    0  501    0  0.00000000000E+00  0.00000000000E+00 -0.17166569605E+04  0.17166569605E+04  0.50400001928E-02 0.  1.
    10030    2    1    2    0    0  0.00000000000E+00  0.00000000000E+00 -0.14317165783E+04  0.20015973426E+04  0.13987778813E+04 0.  0.
        3    1    3    3  502    0  0.87862320217E+02 -0.31494444767E+03  0.16883602283E+03  0.36798832215E+03  0.10100000352E+00 0. -1.
       -3    1    3    3    0  502 -0.87862320217E+02  0.31494444767E+03 -0.16005526012E+04  0.16336090205E+04  0.10100000352E+00 0.  1.
</event>
<event>
 5   0  0.9260916E-05  0.1400619E+04  0.7818609E-02  0.8953370E-01
        1   -1    0    0  501    0  0.00000000000E+00  0.00000000000E+00  0.10940053222E+04  0.10940053222E+04  0.50400001928E-02 0.  1.
       -1   -1    0    0    0  501  0.00000000000E+00  0.00000000000E+00 -0.44829186801E+03  0.44829186804E+03  0.50400001928E-02 0. -1.
    10030    2    1    2    0    0  0.00000000000E+00  0.00000000000E+00  0.64571345422E+03  0.15422971903E+04  0.14006194195E+04 0.  0.
        1    1    3    3  502    0 -0.51096840751E+03 -0.21958547863E+03  0.79149715730E+03  0.96735425049E+03  0.50400001928E-02 0.  1.
       -1    1    3    3    0  502  0.51096840751E+03  0.21958547863E+03 -0.14578370308E+03  0.57494293979E+03  0.50400001928E-02 0. -1.
</event>
<event>
 5   0  0.6671375E-05  0.1400190E+04  0.7818609E-02  0.8953681E-01
        3   -1    0    0  501    0  0.00000000000E+00  0.00000000000E+00  0.26500632877E+03  0.26500634801E+03  0.10100000352E+00 0. -1.
       -3   -1    0    0    0  501  0.00000000000E+00  0.00000000000E+00 -0.18495143478E+04  0.18495143505E+04  0.10100000352E+00 0.  1.
    10030    2    1    2    0    0  0.00000000000E+00  0.00000000000E+00 -0.15845080190E+04  0.21145206985E+04  0.14001900308E+04 0.  0.
        5    1    3    3  502    0 -0.41128595337E+03  0.28869994767E+03 -0.15283843327E+04  0.16088767988E+04  0.46999998093E+01 0.  1.
       -5    1    3    3    0  502  0.41128595337E+03 -0.28869994767E+03 -0.56123686334E+02  0.50564389979E+03  0.46999998093E+01 0. -1.
</event>
<event>
 5   0  0.9828111E-05  0.1401978E+04  0.7818609E-02  0.8952388E-01
       -1   -1    0    0    0  501  0.00000000000E+00  0.00000000000E+00  0.56802275278E+03  0.56802275280E+03  0.50400001928E-02 0. -1.
        1   -1    0    0  501    0  0.00000000000E+00  0.00000000000E+00 -0.86508141306E+03  0.86508141308E+03  0.50400001928E-02 0.  1.
    10030    2    1    2    0    0  0.00000000000E+00  0.00000000000E+00 -0.29705866028E+03  0.14331041659E+04  0.14019784958E+04 0.  0.
        4    1    3    3  502    0  0.13959323084E+03  0.31156749638E+02 -0.85000617478E+03  0.86195656689E+03  0.12699999809E+01 0.  1.
       -4    1    3    3    0  502 -0.13959323084E+03 -0.31156749638E+02  0.55294751450E+03  0.57114759899E+03  0.12699999809E+01 0. -1.
</event>
<event>
 5   0  0.9828111E-05  0.1399772E+04  0.7818609E-02  0.8953984E-01
       -1   -1    0    0    0  501  0.00000000000E+00  0.00000000000E+00  0.26498286848E+03  0.26498286853E+03  0.50400001928E-02 0. -1.
        1   -1    0    0  501    0  0.00000000000E+00  0.00000000000E+00 -0.18485737138E+04  0.18485737138E+04  0.50400001928E-02 0.  1.
    10030    2    1    2    0    0  0.00000000000E+00  0.00000000000E+00 -0.15835908453E+04  0.21135565823E+04  0.13997719319E+04 0.  0.
        4    1    3    3  502    0  0.15543114014E+03  0.34750749700E+03 -0.16785732234E+04  0.17212001565E+04  0.12699999809E+01 0.  1.
       -4    1    3    3    0  502 -0.15543114014E+03 -0.34750749700E+03  0.94982378065E+02  0.39235642576E+03  0.12699999809E+01 0. -1.
</event>
<event>
 5   0  0.9900839E-05  0.1401139E+04  0.7818609E-02  0.8952995E-01
        1   -1    0    0  501    0  0.00000000000E+00  0.00000000000E+00  0.51799275715E+03  0.51799275718E+03  0.50400001928E-02 0.  1.
       -1   -1    0    0    0  501  0.00000000000E+00  0.00000000000E+00 -0.94749886500E+03  0.94749886501E+03  0.50400001928E-02 0. -1.
    10030    2    1    2    0    0  0.00000000000E+00  0.00000000000E+00 -0.42950610784E+03  0.14654916222E+04  0.14011388932E+04 0.  0.
        3    1    3    3  502    0  0.37167216114E+03  0.75935024782E+02  0.40127260635E+03  0.55220108490E+03  0.10100000352E+00 0.  1.
       -3    1    3    3    0  502 -0.37167216114E+03 -0.75935024782E+02 -0.83077871419E+03  0.91329053729E+03  0.10100000352E+00 0. -1.
</event>
<event>
 5   0  0.1794185E-04  0.1398849E+04  0.7818609E-02  0.8954652E-01
        2   -1    0    0  501    0  0.00000000000E+00  0.00000000000E+00  0.11515464997E+04  0.11515464997E+04  0.25500000920E-02 0.  1.
       -2   -1    0    0    0  501  0.00000000000E+00  0.00000000000E+00 -0.42481557736E+03  0.42481557737E+03  0.25500000920E-02 0. -1.
    10030    2    1    2    0    0  0.00000000000E+00  0.00000000000E+00  0.72673092238E+03  0.15763620771E+04  0.13988493717E+04 0.  0.
        2    1    3    3  502    0  0.60436689871E+02  0.64859207583E+03  0.76347523174E+02  0.65586067012E+03  0.25500000920E-02 0.  1.
       -2    1    3    3    0  502 -0.60436689871E+02 -0.64859207583E+03  0.65038339920E+03  0.92050140699E+03  0.25500000920E-02 0. -1.
</event>
<event>
 5   0  0.6671375E-05  0.1399572E+04  0.7818609E-02  0.8954128E-01
       -1   -1    0    0    0  501  0.00000000000E+00  0.00000000000E+00  0.44424603954E+03  0.44424603957E+03  0.50400001928E-02 0. -1.
        1   -1    0    0  501    0  0.00000000000E+00  0.00000000000E+00 -0.11023179079E+04  0.11023179079E+04  0.50400001928E-02 0.  1.
    10030    2    1    2    0    0  0.00000000000E+00  0.00000000000E+00 -0.65807186836E+03  0.15465639475E+04  0.13995718844E+04 0.  0.
        5    1    3    3  502    0  0.41754509925E+02 -0.45558649779E+03 -0.91415320726E+03  0.10222527439E+04  0.46999998093E+01 0.  1.
       -5    1    3    3    0  502 -0.41754509925E+02  0.45558649779E+03  0.25608133890E+03  0.52431120358E+03  0.46999998093E+01 0. -1.
</event>
<event>
 5   0  0.1712327E-04  0.1400850E+04  0.7818609E-02  0.8953204E-01
       -2   -1    0    0    0  501  0.00000000000E+00  0.00000000000E+00  0.40682668497E+03  0.40682668498E+03  0.25500000920E-02 0. -1.
        2   -1    0    0  501    0  0.00000000000E+00  0.00000000000E+00 -0.12059067447E+04  0.12059067447E+04  0.25500000920E-02 0.  1.
    10030    2    1    2    0    0  0.00000000000E+00  0.00000000000E+00 -0.79908005969E+03  0.16127334297E+04  0.14008498040E+04 0.  0.
        1    1    3    3  502    0  0.26769593696E+03  0.32833492501E+03 -0.10416982302E+04  0.11245444147E+04  0.50400001928E-02 0.  1.
       -1    1    3    3    0  502 -0.26769593696E+03 -0.32833492501E+03  0.24261817055E+03  0.48818901498E+03  0.50400001928E-02 0. -1.
</event>
<event>
 5   0  0.9900839E-05  0.1400925E+04  0.7818609E-02  0.8953149E-01
       -1   -1    0    0    0  501  0.00000000000E+00  0.00000000000E+00  0.72612495072E+03  0.72612495074E+03  0.50400001928E-02 0. -1.
        1   -1    0    0  501    0  0.00000000000E+00  0.00000000000E+00 -0.67570677534E+03  0.67570677535E+03  0.50400001928E-02 0.  1.
    10030    2    1    2    0    0  0.00000000000E+00  0.00000000000E+00  0.50418175384E+02  0.14018317261E+04  0.14009247645E+04 0.  0.
        3    1    3    3  502    0 -0.57034251595E+03 -0.21148715549E+03 -0.32233426109E+03  0.68841614487E+03  0.10100000352E+00 0.  1.
       -3    1    3    3    0  502  0.57034251595E+03  0.21148715549E+03  0.37275243647E+03  0.71341558123E+03  0.10100000352E+00 0. -1.
</event>
<event>
 5   0  0.1712327E-04  0.1402275E+04  0.7818609E-02  0.8952173E-01
       -2   -1    0    0    0  501  0.00000000000E+00  0.00000000000E+00  0.48391806115E+03  0.48391806115E+03  0.25500000920E-02 0.  1.
        2   -1    0    0  501    0  0.00000000000E+00  0.00000000000E+00 -0.10158620464E+04  0.10158620464E+04  0.25500000920E-02 0. -1.
    10030    2    1    2    0    0  0.00000000000E+00  0.00000000000E+00 -0.53194398530E+03  0.14997801076E+04  0.14022752824E+04 0.  0.
        1    1    3    3  502    0  0.62046472761E+03  0.13043449769E+02  0.82976882504E+02  0.62612440684E+03  0.50400001928E-02 0.  1.
       -1    1    3    3    0  502 -0.62046472761E+03 -0.13043449769E+02 -0.61492086780E+03  0.87365570076E+03  0.50400001928E-02 0. -1.
</event>
<event>
 5   0  0.9260916E-05  0.1400075E+04  0.7818609E-02  0.8953764E-01
       -1   -1    0    0    0  501  0.00000000000E+00  0.00000000000E+00  0.53785076362E+03  0.53785076364E+03  0.50400001928E-02 0. -1.
        1   -1    0    0  501    0  0.00000000000E+00  0.00000000000E+00 -0.91113123928E+03  0.91113123929E+03  0.50400001928E-02 0.  1.
    10030    2    1    2    0    0  0.00000000000E+00  0.00000000000E+00 -0.37328047565E+03  0.14489820029E+04  0.14000751877E+04 0.  0.
        1    1    3    3  502    0  0.10961084392E+02 -0.23495871505E+03 -0.86901017369E+03  0.90028019258E+03  0.50400001928E-02 0.  1.
       -1    1    3    3    0  502 -0.10961084392E+02  0.23495871505E+03  0.49572969803E+03  0.54870181036E+03  0.50400001928E-02 0. -1.
</event>
<event>
 5   0  0.1780171E-04  0.1399648E+04  0.7818609E-02  0.8954073E-01
        2   -1    0    0  501    0  0.00000000000E+00  0.00000000000E+00  0.24649248083E+04  0.24649248083E+04  0.25500000920E-02 0.  1.
       -2   -1    0    0    0  501  0.00000000000E+00  0.00000000000E+00 -0.19868906980E+03  0.19868906981E+03  0.25500000920E-02 0. -1.
    10030    2    1    2    0    0  0.00000000000E+00  0.00000000000E+00  0.22662357385E+04  0.26636138781E+04  0.13996479805E+04 0.  0.
        5    1    3    3  502    0  0.13778758841E+03 -0.14456243343E+03 -0.14327759649E+03  0.24583383887E+03  0.46999998093E+01 0. -1.
       -5    1    3    3    0  502 -0.13778758841E+03  0.14456243343E+03  0.24095133349E+04  0.24177800392E+04  0.46999998093E+01 0.  1.
</event>
<event>
 5   0  0.9978422E-05  0.1404438E+04  0.7818609E-02  0.8950612E-01
       -1   -1    0    0    0  501  0.00000000000E+00  0.00000000000E+00  0.71428673297E+03  0.71428673299E+03  0.50400001928E-02 0. -1.
        1   -1    0    0  501    0  0.00000000000E+00  0.00000000000E+00 -0.69035545703E+03  0.69035545705E+03  0.50400001928E-02 0.  1.
    10030    2    1    2    0    0  0.00000000000E+00  0.00000000000E+00  0.23931275940E+02  0.14046421900E+04  0.14044383134E+04 0.  0.
        2    1    3    3  502    0 -0.40241652328E+03 -0.53669637620E+03 -0.19574138744E+03  0.69878233321E+03  0.25500000920E-02 0. -1.
       -2    1    3    3    0  502  0.40241652328E+03  0.53669637620E+03  0.21967266338E+03  0.70585985683E+03  0.25500000920E-02 0.  1.
</event>
<event>
 5   0  0.1766237E-04  0.1399885E+04  0.7818609E-02  0.8953902E-01
        2   -1    0    0  501    0  0.00000000000E+00  0.00000000000E+00  0.79325764216E+03  0.79325764216E+03  0.25500000920E-02 0.  1.
       -2   -1    0    0    0  501  0.00000000000E+00  0.00000000000E+00 -0.61760437491E+03  0.61760437491E+03  0.25500000920E-02 0. -1.
    10030    2    1    2    0    0  0.00000000000E+00  0.00000000000E+00  0.17565326725E+03  0.14108620171E+04  0.13998848385E+04 0.  0.
        3    1    3    3  502    0  0.51917585763E+03 -0.36776077965E+03  0.38188123671E+03  0.74204100382E+03  0.10100000352E+00 0.  1.
       -3    1    3    3    0  502 -0.51917585763E+03  0.36776077965E+03 -0.20622796946E+03  0.66882101326E+03  0.10100000352E+00 0. -1.
</event>
<event>
 5   0  0.1794185E-04  0.1364064E+04  0.7818609E-02  0.8980250E-01
        2   -1    0    0  501    0  0.00000000000E+00  0.00000000000E+00  0.12626173486E+04  0.12626173486E+04  0.25500000920E-02 0. -1.
       -2   -1    0    0    0  501  0.00000000000E+00  0.00000000000E+00 -0.36841527927E+03  0.36841527928E+03  0.25500000920E-02 0.  1.
    10030    2    1    2    0    0  0.00000000000E+00  0.00000000000E+00  0.89420206929E+03  0.16310326278E+04  0.13640638154E+04 0.  0.
        2    1    3    3  502    0 -0.16878417107E+03 -0.65139039080E+03  0.58008906531E+03  0.88842605845E+03  0.25500000920E-02 0. -1.
       -2    1    3    3    0  502  0.16878417107E+03  0.65139039080E+03  0.31411300398E+03  0.74260656939E+03  0.25500000920E-02 0.  1.
</event>
<event>
 5   0  0.9978422E-05  0.1399473E+04  0.7818609E-02  0.8954200E-01
        1   -1    0    0  501    0  0.00000000000E+00  0.00000000000E+00  0.64735285762E+03  0.64735285764E+03  0.50400001928E-02 0.  1.
       -1   -1    0    0    0  501  0.00000000000E+00  0.00000000000E+00 -0.75635933251E+03  0.75635933253E+03  0.50400001928E-02 0. -1.
    10030    2    1    2    0    0  0.00000000000E+00  0.00000000000E+00 -0.10900647489E+03  0.14037121902E+04  0.13994732942E+04 0.  0.
        2    1    3    3  502    0 -0.62445682041E+03  0.30736571521E+03 -0.12691172704E+03  0.70747903849E+03  0.25500000920E-02 0. -1.
       -2    1    3    3    0  502  0.62445682041E+03 -0.30736571521E+03  0.17905252148E+02  0.69623315168E+03  0.25500000920E-02 0.  1.
</event>
<event>
 5   0  0.1780171E-04  0.1389081E+04  0.7818609E-02  0.8961760E-01
        2   -1    0    0  501    0  0.00000000000E+00  0.00000000000E+00  0.10115041417E+04  0.10115041417E+04  0.25500000920E-02 0. -1.
       -2   -1    0    0    0  501  0.00000000000E+00  0.00000000000E+00 -0.47690046744E+03  0.47690046745E+03  0.25500000920E-02 0.  1.
    10030    2    1    2    0    0  0.00000000000E+00  0.00000000000E+00  0.53460367422E+03  0.14884046091E+04  0.13890814202E+04 0.  0.
        5    1    3    3  502    0 -0.16608842858E+03  0.21725987708E+03 -0.41676478114E+03  0.49849994292E+03  0.46999998093E+01 0.  1.
       -5    1    3    3    0  502  0.16608842858E+03 -0.21725987708E+03  0.95136845536E+03  0.98990466619E+03  0.46999998093E+01 0. -1.
</event>
<event>
 5   0  0.1780171E-04  0.1394495E+04  0.7818609E-02  0.8957813E-01
        2   -1    0    0  501    0  0.00000000000E+00  0.00000000000E+00  0.78783832396E+03  0.78783832396E+03  0.25500000920E-02 0.  1.
       -2   -1    0    0    0  501  0.00000000000E+00  0.00000000000E+00 -0.61707360932E+03  0.61707360933E+03  0.25500000920E-02 0. -1.
    10030    2    1    2    0    0  0.00000000000E+00  0.00000000000E+00  0.17076471464E+03  0.14049119333E+04  0.13944952322E+04 0.  0.
        5    1    3    3  502    0 -0.15247606173E+03  0.62345943392E+03 -0.18901502856E+03  0.66910341964E+03  0.46999998093E+01 0. -1.
       -5    1    3    3    0  502  0.15247606173E+03 -0.62345943392E+03  0.35977974319E+03  0.73580851365E+03  0.46999998093E+01 0.  1.
</event>
<event>
 5   0  0.1766237E-04  0.1399433E+04  0.7818609E-02  0.8954229E-01
        2   -1    0    0  501    0  0.00000000000E+00  0.00000000000E+00  0.42529875646E+03  0.42529875647E+03  0.25500000920E-02 0.  1.
       -2   -1    0    0    0  501  0.00000000000E+00  0.00000000000E+00 -0.11511983704E+04  0.11511983704E+04  0.25500000920E-02 0. -1.
    10030    2    1    2    0    0  0.00000000000E+00  0.00000000000E+00 -0.72589961393E+03  0.15764971269E+04  0.13994330786E+04 0.  0.
        3    1    3    3  502    0 -0.58389265969E+03  0.27367785256E+03 -0.56972068751E+02  0.64736082044E+03  0.10100000352E+00 0.  1.
       -3    1    3    3    0  502  0.58389265969E+03 -0.27367785256E+03 -0.66892754518E+03  0.92913630642E+03  0.10100000352E+00 0. -1.
</event>
<event>
 5   0  0.1712327E-04  0.1403569E+04  0.7818609E-02  0.8951239E-01
        2   -1    0    0  501    0  0.00000000000E+00  0.00000000000E+00  0.59937318449E+03  0.59937318450E+03  0.25500000920E-02 0.  1.
       -2   -1    0    0    0  501  0.00000000000E+00  0.00000000000E+00 -0.82169426264E+03  0.82169426264E+03  0.25500000920E-02 0. -1.
    10030    2    1    2    0    0  0.00000000000E+00  0.00000000000E+00 -0.22232107814E+03  0.14210674471E+04  0.14035690320E+04 0.  0.
        1    1    3    3  502    0 -0.35035080557E+03 -0.99889466084E+02 -0.71845338289E+03  0.80554258473E+03  0.50400001928E-02 0. -1.
       -1    1    3    3    0  502  0.35035080557E+03  0.99889466084E+02  0.49613230475E+03  0.61552486241E+03  0.50400001928E-02 0.  1.
</event>
<event>
 5   0  0.6671375E-05  0.1401346E+04  0.7818609E-02  0.8952845E-01
        1   -1    0    0  501    0  0.00000000000E+00  0.00000000000E+00  0.12012761399E+04  0.12012761399E+04  0.50400001928E-02 0. -1.
       -1   -1    0    0    0  501  0.00000000000E+00  0.00000000000E+00 -0.40868397987E+03  0.40868397991E+03  0.50400001928E-02 0.  1.
    10030    2    1    2    0    0  0.00000000000E+00  0.00000000000E+00  0.79259215999E+03  0.16099601198E+04  0.14013455160E+04 0.  0.
        5    1    3    3  502    0  0.29437403110E+03  0.10022374672E+03 -0.32504200269E+03  0.44986138210E+03  0.46999998093E+01 0.  1.
       -5    1    3    3    0  502 -0.29437403110E+03 -0.10022374672E+03  0.11176341627E+04  0.11600987377E+04  0.46999998093E+01 0. -1.
</event>
<event>
 5   0  0.9260916E-05  0.1399501E+04  0.7818609E-02  0.8954180E-01
       -1   -1    0    0    0  501  0.00000000000E+00  0.00000000000E+00  0.56097461509E+03  0.56097461512E+03  0.50400001928E-02 0. -1.
        1   -1    0    0  501    0  0.00000000000E+00  0.00000000000E+00 -0.87285762557E+03  0.87285762559E+03  0.50400001928E-02 0.  1.
    10030    2    1    2    0    0  0.00000000000E+00  0.00000000000E+00 -0.31188301048E+03  0.14338322407E+04  0.13995012977E+04 0.  0.
        1    1    3    3  502    0  0.34828273489E+03 -0.35226620355E+03 -0.66229054834E+03  0.82705568859E+03  0.50400001928E-02 0.  1.
       -1    1    3    3    0  502 -0.34828273489E+03  0.35226620355E+03  0.35040753786E+03  0.60677655212E+03  0.50400001928E-02 0. -1.
</event>
<event>
 5   0  0.6671375E-05  0.1398608E+04  0.7818609E-02  0.8954826E-01
        1   -1    0    0  501    0  0.00000000000E+00  0.00000000000E+00  0.39773040182E+03  0.39773040185E+03  0.50400001928E-02 0. -1.
       -1   -1    0    0    0  501  0.00000000000E+00  0.00000000000E+00 -0.12295424997E+04  0.12295424997E+04  0.50400001928E-02 0.  1.
    10030    2    1    2    0    0  0.00000000000E+00  0.00000000000E+00 -0.83181209786E+03  0.16272729015E+04  0.13986084977E+04 0.  0.
        5    1    3    3  502    0  0.61524031687E+03  0.30861677346E+03 -0.27227513986E+03  0.74021672647E+03  0.46999998093E+01 0. -1.
       -5    1    3    3    0  502 -0.61524031687E+03 -0.30861677346E+03 -0.55953695801E+03  0.88705617507E+03  0.46999998093E+01 0.  1.
</event>
<event>
 5   0  0.1794185E-04  0.1399601E+04  0.7818609E-02  0.8954108E-01
       -2   -1    0    0    0  501  0.00000000000E+00  0.00000000000E+00  0.51854300420E+03  0.51854300421E+03  0.25500000920E-02 0. -1.
        2   -1    0    0  501    0  0.00000000000E+00  0.00000000000E+00 -0.94441636805E+03  0.94441636805E+03  0.25500000920E-02 0.  1.
    10030    2    1    2    0    0  0.00000000000E+00  0.00000000000E+00 -0.42587336384E+03  0.14629593723E+04  0.13996006584E+04 0.  0.
        2    1    3    3  502    0 -0.30814205137E+03  0.20969522666E+03 -0.83202982503E+03  0.91170019286E+03  0.25500000920E-02 0.  1.
       -2    1    3    3    0  502  0.30814205137E+03 -0.20969522666E+03  0.40615646119E+03  0.55125917940E+03  0.25500000920E-02 0. -1.
</event>
<event>
 5   0  0.9978422E-05  0.1400108E+04  0.7818609E-02  0.8953741E-01
        1   -1    0    0  501    0  0.00000000000E+00  0.00000000000E+00  0.70804119797E+03  0.70804119799E+03  0.50400001928E-02 0.  1.
       -1   -1    0    0    0  501  0.00000000000E+00  0.00000000000E+00 -0.69215673201E+03  0.69215673203E+03  0.50400001928E-02 0. -1.
    10030    2    1    2    0    0  0.00000000000E+00  0.00000000000E+00  0.15884465960E+02  0.14001979300E+04  0.14001078269E+04 0.  0.
        2    1    3    3  502    0  0.46784145333E+03  0.39827533481E+03  0.34348821200E+03  0.70390554733E+03  0.25500000920E-02 0.  1.
       -2    1    3    3    0  502 -0.46784145333E+03 -0.39827533481E+03 -0.32760374604E+03  0.69629238269E+03  0.25500000920E-02 0. -1.
</event>
<event>
 5   0  0.1712327E-04  0.1400349E+04  0.7818609E-02  0.8953566E-01
        2   -1    0    0  501    0  0.00000000000E+00  0.00000000000E+00  0.10682243289E+04  0.10682243289E+04  0.25500000920E-02 0. -1.
       -2   -1    0    0    0  501  0.00000000000E+00  0.00000000000E+00 -0.45893378683E+03  0.45893378683E+03  0.25500000920E-02 0.  1.
    10030    2    1    2    0    0  0.00000000000E+00  0.00000000000E+00  0.60929054204E+03  0.15271581157E+04  0.14003488657E+04 0.  0.
        1    1    3    3  502    0 -0.19632049431E+03  0.12420391793E+03  0.10249700679E+04  0.10509671688E+04  0.50400001928E-02 0. -1.
       -1    1    3    3    0  502  0.19632049431E+03 -0.12420391793E+03 -0.41567952585E+03  0.47619094694E+03  0.50400001928E-02 0.  1.
</event>
<event>
 5   0  0.1780171E-04  0.1399585E+04  0.7818609E-02  0.8954119E-01
       -2   -1    0    0    0  501  0.00000000000E+00  0.00000000000E+00  0.28868837363E+03  0.28868837364E+03  0.25500000920E-02 0.  1.
        2   -1    0    0  501    0  0.00000000000E+00  0.00000000000E+00 -0.16963253823E+04  0.16963253823E+04  0.25500000920E-02 0. -1.
    10030    2    1    2    0    0  0.00000000000E+00  0.00000000000E+00 -0.14076370087E+04  0.19850137559E+04  0.13995848181E+04 0.  0.
        5    1    3    3  502    0  0.50401605275E+03  0.20740600866E+03 -0.13263124851E+04  0.14339373529E+04  0.46999998093E+01 0. -1.
       -5    1    3    3    0  502 -0.50401605275E+03 -0.20740600866E+03 -0.81324523557E+02  0.55107640304E+03  0.46999998093E+01 0.  1.
</event>
<event>
 5   0  0.6671375E-05  0.1400922E+04  0.7818609E-02  0.8953152E-01
       -1   -1    0    0    0  501  0.00000000000E+00  0.00000000000E+00  0.26093190232E+03  0.26093190237E+03  0.50400001928E-02 0.  1.
        1   -1    0    0  501    0  0.00000000000E+00  0.00000000000E+00 -0.18803580945E+04  0.18803580945E+04  0.50400001928E-02 0. -1.
    10030    2    1    2    0    0  0.00000000000E+00  0.00000000000E+00 -0.16194261921E+04  0.21412899968E+04  0.14009217176E+04 0.  0.
        5    1    3    3  502    0 -0.45047388175E+02  0.45268121321E+03 -0.16238008384E+04  0.16863276077E+04  0.46999998093E+01 0. -1.
       -5    1    3    3    0  502  0.45047388175E+02 -0.45268121321E+03  0.43746462146E+01  0.45496238911E+03  0.46999998093E+01 0.  1.
</event>
<event>
 5   0  0.9900839E-05  0.1400403E+04  0.7818609E-02  0.8953527E-01
       -1   -1    0    0    0  501  0.00000000000E+00  0.00000000000E+00  0.14054423650E+04  0.14054423650E+04  0.50400001928E-02 0.  1.
        1   -1    0    0  501    0  0.00000000000E+00  0.00000000000E+00 -0.34884525828E+03  0.34884525832E+03  0.50400001928E-02 0. -1.
    10030    2    1    2    0    0  0.00000000000E+00  0.00000000000E+00  0.10565971067E+04  0.17542876234E+04  0.14004026633E+04 0.  0.
        3    1    3    3  502    0  0.22218251134E+03  0.66339157379E+03  0.56435475840E+03  0.89886025168E+03  0.10100000352E+00 0. -1.
       -3    1    3    3    0  502 -0.22218251134E+03 -0.66339157379E+03  0.49224234834E+03  0.85542737168E+03  0.10100000352E+00 0.  1.
</event>
<event>
 5   0  0.6671375E-05  0.1392728E+04  0.7818609E-02  0.8959099E-01
        1   -1    0    0  501    0  0.00000000000E+00  0.00000000000E+00  0.76358436775E+03  0.76358436777E+03  0.50400001928E-02 0. -1.
       -1   -1    0    0    0  501  0.00000000000E+00  0.00000000000E+00 -0.63506165788E+03  0.63506165790E+03  0.50400001928E-02 0.  1.
    10030    2    1    2    0    0  0.00000000000E+00  0.00000000000E+00  0.12852270987E+03  0.13986460257E+04  0.13927284797E+04 0.  0.
        5    1    3    3  502    0  0.51564466940E+03  0.31719606555E+03 -0.28129118068E+03  0.66756991200E+03  0.46999998093E+01 0.  1.
       -5    1    3    3    0  502 -0.51564466940E+03 -0.31719606555E+03  0.40981389055E+03  0.73107611366E+03  0.46999998093E+01 0. -1.
</event>
<event>
 5   0  0.1712327E-04  0.1382717E+04  0.7818609E-02  0.8966425E-01
        2   -1    0    0  501    0  0.00000000000E+00  0.00000000000E+00  0.13413905574E+04  0.13413905574E+04  0.25500000920E-02 0.  1.
       -2   -1    0    0    0  501  0.00000000000E+00  0.00000000000E+00 -0.35632898049E+03  0.35632898050E+03  0.25500000920E-02 0. -1.
    10030    2    1    2    0    0  0.00000000000E+00  0.00000000000E+00  0.98506157688E+03  0.16977195379E+04  0.13827166445E+04 0.  0.
        1    1    3    3  502    0  0.19855569867E+03 -0.41674136560E+03  0.11244421892E+04  0.12155114019E+04  0.50400001928E-02 0.  1.
       -1    1    3    3    0  502 -0.19855569867E+03  0.41674136560E+03 -0.13938061232E+03  0.48220813597E+03  0.50400001928E-02 0. -1.
</event>
<event>
 5   0  0.1833681E-04  0.1399895E+04  0.7818609E-02  0.8953894E-01
        2   -1    0    0  501    0  0.00000000000E+00  0.00000000000E+00  0.32230568800E+03  0.32230568801E+03  0.25500000920E-02 0.  1.
       -2   -1    0    0    0  501  0.00000000000E+00  0.00000000000E+00 -0.15200680293E+04  0.15200680293E+04  0.25500000920E-02 0. -1.
    10030    2    1    2    0    0  0.00000000000E+00  0.00000000000E+00 -0.11977623413E+04  0.18423737173E+04  0.13998950989E+04 0.  0.
        4    1    3    3  502    0  0.47095453859E+03 -0.47178426919E+03 -0.31800868799E+03  0.73858629327E+03  0.12699999809E+01 0. -1.
       -4    1    3    3    0  502 -0.47095453859E+03  0.47178426919E+03 -0.87975365333E+03  0.11037874241E+04  0.12699999809E+01 0.  1.
</event>
<event>
 5   0  0.6671375E-05  0.1399484E+04  0.7818609E-02  0.8954192E-01
        4   -1    0    0  501    0  0.00000000000E+00  0.00000000000E+00  0.44579744709E+03  0.44579925609E+03  0.12699999809E+01 0.  1.
       -4   -1    0    0    0  501  0.00000000000E+00  0.00000000000E+00 -0.10983391744E+04  0.10983399086E+04  0.12699999809E+01 0. -1.
    10030    2    1    2    0    0  0.00000000000E+00  0.00000000000E+00 -0.65254172727E+03  0.15441391647E+04  0.13994838528E+04 0.  0.
        3    1    3    3  502    0  0.67908882306E+03 -0.16474966932E+03 -0.36658018853E+03  0.78910400327E+03  0.10100000352E+00 0. -1.
       -3    1    3    3    0  502 -0.67908882306E+03  0.16474966932E+03 -0.28596153874E+03  0.75503516143E+03  0.10100000352E+00 0.  1.
</event>
<event>
 5   0  0.9828111E-05  0.1397603E+04  0.7818609E-02  0.8955555E-01
        1   -1    0    0  501    0  0.00000000000E+00  0.00000000000E+00  0.44862554472E+03  0.44862554475E+03  0.50400001928E-02 0.  1.
       -1   -1    0    0    0  501  0.00000000000E+00  0.00000000000E+00 -0.10884885934E+04  0.10884885934E+04  0.50400001928E-02 0. -1.
    10030    2    1    2    0    0  0.00000000000E+00  0.00000000000E+00 -0.63986304868E+03  0.15371141382E+04  0.13976033603E+04 0.  0.
        4    1    3    3  502    0 -0.41676043691E+03  0.42068478635E+03  0.88126276532E+02  0.59869257950E+03  0.12699999809E+01 0.  1.
       -4    1    3    3    0  502  0.41676043691E+03 -0.42068478635E+03 -0.72798932521E+03  0.93842155866E+03  0.12699999809E+01 0. -1.
</event>
<event>
 5   0  0.1766237E-04  0.1399802E+04  0.7818609E-02  0.8953962E-01
        2   -1    0    0  501    0  0.00000000000E+00  0.00000000000E+00  0.13189107960E+04  0.13189107960E+04  0.25500000920E-02 0. -1.
       -2   -1    0    0    0  501  0.00000000000E+00  0.00000000000E+00 -0.37141343020E+03  0.37141343021E+03  0.25500000920E-02 0.  1.
    10030    2    1    2    0    0  0.00000000000E+00  0.00000000000E+00  0.94749736577E+03  0.16903242262E+04  0.13998016758E+04 0.  0.
        3    1    3    3  502    0 -0.29778724322E+03 -0.61733230456E+03  0.64488287500E+03  0.94108997930E+03  0.10100000352E+00 0. -1.
       -3    1    3    3    0  502  0.29778724322E+03  0.61733230456E+03  0.30261449077E+03  0.74923424688E+03  0.10100000352E+00 0.  1.
</event>
<event>
 5   0  0.9260916E-05  0.1407547E+04  0.7818609E-02  0.8948374E-01
       -1   -1    0    0    0  501  0.00000000000E+00  0.00000000000E+00  0.10318472954E+04  0.10318472955E+04  0.50400001928E-02 0.  1.
        1   -1    0    0  501    0  0.00000000000E+00  0.00000000000E+00 -0.48000980273E+03  0.48000980276E+03  0.50400001928E-02 0. -1.
    10030    2    1    2    0    0  0.00000000000E+00  0.00000000000E+00  0.55183749271E+03  0.15118570982E+04  0.14075465417E+04 0.  0.
        1    1    3    3  502    0 -0.18705999199E+03 -0.31238013880E+03 -0.37097974785E+03  0.51980646885E+03  0.50400001928E-02 0. -1.
       -1    1    3    3    0  502  0.18705999199E+03  0.31238013880E+03  0.92281724056E+03  0.99205062936E+03  0.50400001928E-02 0.  1.
</event>
<event>
 5   0  0.1780171E-04  0.1401476E+04  0.7818609E-02  0.8952751E-01
       -2   -1    0    0    0  501  0.00000000000E+00  0.00000000000E+00  0.69032121925E+03  0.69032121926E+03  0.25500000920E-02 0. -1.
        2   -1    0    0  501    0  0.00000000000E+00  0.00000000000E+00 -0.71131147515E+03  0.71131147515E+03  0.25500000920E-02 0.  1.
    10030    2    1    2    0    0  0.00000000000E+00  0.00000000000E+00 -0.20990255899E+02  0.14016326944E+04  0.14014755150E+04 0.  0.
        5    1    3    3  502    0  0.42883414564E+03  0.54829255158E+03 -0.91051465753E+02  0.70202272470E+03  0.46999998093E+01 0.  1.
       -5    1    3    3    0  502 -0.42883414564E+03 -0.54829255158E+03  0.70061209853E+02  0.69960996971E+03  0.46999998093E+01 0. -1.
</event>
<event>
 5   0  0.9978422E-05  0.1389599E+04  0.7818609E-02  0.8961382E-01
        1   -1    0    0  501    0  0.00000000000E+00  0.00000000000E+00  0.59051622580E+03  0.59051622582E+03  0.50400001928E-02 0. -1.
       -1   -1    0    0    0  501  0.00000000000E+00  0.00000000000E+00 -0.81749865759E+03  0.81749865760E+03  0.50400001928E-02 0.  1.
    10030    2    1    2    0    0  0.00000000000E+00  0.00000000000E+00 -0.22698243179E+03  0.14080148834E+04  0.13895988225E+04 0.  0.
        2    1    3    3  502    0  0.33809480568E+03  0.58026413468E+03 -0.29398580720E+03  0.73310450719E+03  0.25500000920E-02 0.  1.
       -2    1    3    3    0  502 -0.33809480568E+03 -0.58026413468E+03  0.67003375412E+02  0.67491037623E+03  0.25500000920E-02 0. -1.
</event>
<event>
 5   0  0.1712327E-04  0.1395235E+04  0.7818609E-02  0.8957275E-01
        2   -1    0    0  501    0  0.00000000000E+00  0.00000000000E+00  0.26662782577E+04  0.26662782577E+04  0.25500000920E-02 0.  1.
       -2   -1    0    0    0  501  0.00000000000E+00  0.00000000000E+00 -0.18252790894E+03  0.18252790896E+03  0.25500000920E-02 0. -1.
    10030    2    1    2    0    0  0.00000000000E+00  0.00000000000E+00  0.24837503488E+04  0.28488061667E+04  0.13952350269E+04 0.  0.
        1    1    3    3  502    0 -0.28987967165E+03 -0.50450153756E+03  0.45606128912E+03  0.73928609137E+03  0.50400001928E-02 0. -1.
       -1    1    3    3    0  502  0.28987967165E+03  0.50450153756E+03  0.20276890596E+04  0.21095200753E+04  0.50400001928E-02 0.  1.
</event>
<event>
 5   0  0.1794185E-04  0.1395292E+04  0.7818609E-02  0.8957233E-01
       -2   -1    0    0    0  501  0.00000000000E+00  0.00000000000E+00  0.63302256228E+03  0.63302256228E+03  0.25500000920E-02 0.  1.
        2   -1    0    0  501    0  0.00000000000E+00  0.00000000000E+00 -0.76886696910E+03  0.76886696910E+03  0.25500000920E-02 0. -1.
    10030    2    1    2    0    0  0.00000000000E+00  0.00000000000E+00 -0.13584440682E+03  0.14018895314E+04  0.13952922831E+04 0.  0.
        2    1    3    3  502    0  0.75960143739E+02 -0.65923518133E+03 -0.28422871136E+03  0.72190506863E+03  0.25500000920E-02 0. -1.
       -2    1    3    3    0  502 -0.75960143739E+02  0.65923518133E+03  0.14838430455E+03  0.67998446275E+03  0.25500000920E-02 0.  1.
</event>
<event>
 5   0  0.6671375E-05  0.1400513E+04  0.7818609E-02  0.8953448E-01
        1   -1    0    0  501    0  0.00000000000E+00  0.00000000000E+00  0.74885430601E+03  0.74885430603E+03  0.50400001928E-02 0.  1.
       -1   -1    0    0    0  501  0.00000000000E+00  0.00000000000E+00 -0.65481214544E+03  0.65481214546E+03  0.50400001928E-02 0. -1.
    10030    2    1    2    0    0  0.00000000000E+00  0.00000000000E+00  0.94042160573E+02  0.14036664515E+04  0.14005126130E+04 0.  0.
        5    1    3    3  502    0 -0.51045275932E+03  0.45785197003E+03  0.18927858218E+03  0.71136412450E+03  0.46999998093E+01 0. -1.
       -5    1    3    3    0  502  0.51045275932E+03 -0.45785197003E+03 -0.95236421607E+02  0.69230232699E+03  0.46999998093E+01 0.  1.
</event>
<event>
 5   0  0.9828111E-05  0.1394193E+04  0.7818609E-02  0.8958033E-01
       -1   -1    0    0    0  501  0.00000000000E+00  0.00000000000E+00  0.77264007791E+03  0.77264007792E+03  0.50400001928E-02 0. -1.
        1   -1    0    0  501    0  0.00000000000E+00  0.00000000000E+00 -0.62893868122E+03  0.62893868124E+03  0.50400001928E-02 0.  1.
    10030    2    1    2    0    0  0.00000000000E+00  0.00000000000E+00  0.14370139669E+03  0.14015787592E+04  0.13941925716E+04 0.  0.
        4    1    3    3  502    0 -0.59382356563E+03 -0.36411552161E+03  0.44594728878E+02  0.69799487313E+03  0.12699999809E+01 0.  1.
       -4    1    3    3    0  502  0.59382356563E+03  0.36411552161E+03  0.99106667810E+02  0.70358388603E+03  0.12699999809E+01 0. -1.
</event>
<event>
 5   0  0.6671375E-05  0.1399012E+04  0.7818609E-02  0.8954534E-01
       -1   -1    0    0    0  501  0.00000000000E+00  0.00000000000E+00  0.12159540773E+04  0.12159540773E+04  0.50400001928E-02 0. -1.
        1   -1    0    0  501    0  0.00000000000E+00  0.00000000000E+00 -0.40240708623E+03  0.40240708626E+03  0.50400001928E-02 0.  1.
    10030    2    1    2    0    0  0.00000000000E+00  0.00000000000E+00  0.81354699102E+03  0.16183611635E+04  0.13990118473E+04 0.  0.
        5    1    3    3  502    0  0.38912547250E+03  0.25811120389E+03 -0.19569738861E+03  0.50631964689E+03  0.46999998093E+01 0.  1.
       -5    1    3    3    0  502 -0.38912547250E+03 -0.25811120389E+03  0.10092443796E+04  0.11120415166E+04  0.46999998093E+01 0. -1.
</event>
<event>
 5   0  0.1833681E-04  0.1401659E+04  0.7818609E-02  0.8952619E-01
       -2   -1    0    0    0  501  0.00000000000E+00  0.00000000000E+00  0.39850732356E+03  0.39850732357E+03  0.25500000920E-02 0.  1.
        2   -1    0    0  501    0  0.00000000000E+00  0.00000000000E+00 -0.12325038415E+04  0.12325038415E+04  0.25500000920E-02 0. -1.
    10030    2    1    2    0    0  0.00000000000E+00  0.00000000000E+00 -0.83399651795E+03  0.16310111651E+04  0.14016587419E+04 0.  0.
        4    1    3    3  502    0 -0.62830071141E+03 -0.30894842115E+03 -0.38114632540E+03  0.79717315883E+03  0.12699999809E+01 0.  1.
       -4    1    3    3    0  502  0.62830071141E+03  0.30894842115E+03 -0.45285019255E+03  0.83383800626E+03  0.12699999809E+01 0. -1.
</event>
<event>
 5   0  0.1780171E-04  0.1399856E+04  0.7818609E-02  0.8953923E-01
        2   -1    0    0  501    0  0.00000000000E+00  0.00000000000E+00  0.32615735674E+04  0.32615735674E+04  0.25500000920E-02 0.  1.
       -2   -1    0    0    0  501  0.00000000000E+00  0.00000000000E+00 -0.15020340939E+03  0.15020340941E+03  0.25500000920E-02 0. -1.
    10030    2    1    2    0    0  0.00000000000E+00  0.00000000000E+00  0.31113701580E+04  0.34117769768E+04  0.13998563781E+04 0.  0.
        5    1    3    3  502    0  0.29087168783E+03  0.27235881336E+03  0.29580831715E+04  0.29848054880E+04  0.46999998093E+01 0.  1.
       -5    1    3    3    0  502 -0.29087168783E+03 -0.27235881336E+03  0.15328698654E+03  0.42697148879E+03  0.46999998093E+01 0. -1.
</event>
<event>
 5   0  0.9260916E-05  0.1399767E+04  0.7818609E-02  0.8953987E-01
        1   -1    0    0  501    0  0.00000000000E+00  0.00000000000E+00  0.44451184376E+03  0.44451184379E+03  0.50400001928E-02 0. -1.
       -1   -1    0    0    0  501  0.00000000000E+00  0.00000000000E+00 -0.11019666576E+04  0.11019666576E+04  0.50400001928E-02 0.  1.
    10030    2    1    2    0    0  0.00000000000E+00  0.00000000000E+00 -0.65745481387E+03  0.15464785014E+04  0.13997674532E+04 0.  0.
        1    1    3    3  502    0  0.34187870870E+03 -0.22198920760E+03 -0.95728329109E+03  0.10404573798E+04  0.50400001928E-02 0.  1.
       -1    1    3    3    0  502 -0.34187870870E+03  0.22198920760E+03  0.29982847722E+03  0.50602112162E+03  0.50400001928E-02 0. -1.
</event>
<event>
 5   0  0.1833681E-04  0.1419039E+04  0.7818609E-02  0.8940151E-01
        2   -1    0    0  501    0  0.00000000000E+00  0.00000000000E+00  0.91075175975E+03  0.91075175975E+03  0.25500000920E-02 0. -1.
       -2   -1    0    0    0  501  0.00000000000E+00  0.00000000000E+00 -0.55275008874E+03  0.55275008874E+03  0.25500000920E-02 0.  1.
    10030    2    1    2    0    0  0.00000000000E+00  0.00000000000E+00  0.35800167101E+03  0.14635018485E+04  0.14190392750E+04 0.  0.
        4    1    3    3  502    0 -0.12700691951E+03 -0.45105890897E+03 -0.37045050470E+03  0.59734419416E+03  0.12699999809E+01 0.  1.
       -4    1    3    3    0  502  0.12700691951E+03  0.45105890897E+03  0.72845217571E+03  0.86615765433E+03  0.12699999809E+01 0. -1.
</event>
<event>
 5   0  0.6671375E-05  0.1397690E+04  0.7818609E-02  0.8955492E-01
       -1   -1    0    0    0  501  0.00000000000E+00  0.00000000000E+00  0.10864808231E+04  0.10864808231E+04  0.50400001928E-02 0.  1.
        1   -1    0    0  501    0  0.00000000000E+00  0.00000000000E+00 -0.44951052340E+03  0.44951052343E+03  0.50400001928E-02 0. -1.
    10030    2    1    2    0    0  0.00000000000E+00  0.00000000000E+00  0.63697029974E+03  0.15359913466E+04  0.13976903284E+04 0.  0.
        5    1    3    3  502    0  0.67719969507E+03  0.44416490695E+02  0.13528584731E+03  0.69202355605E+03  0.46999998093E+01 0. -1.
       -5    1    3    3    0  502 -0.67719969507E+03 -0.44416490695E+02  0.50168445243E+03  0.84396779053E+03  0.46999998093E+01 0.  1.
</event>
<event>
 5   0  0.9900839E-05  0.1399435E+04  0.7818609E-02  0.8954228E-01
        1   -1    0    0  501    0  0.00000000000E+00  0.00000000000E+00  0.93870802368E+03  0.93870802369E+03  0.50400001928E-02 0. -1.
       -1   -1    0    0    0  501  0.00000000000E+00  0.00000000000E+00 -0.52157256137E+03  0.52157256139E+03  0.50400001928E-02 0.  1.
    10030    2    1    2    0    0  0.00000000000E+00  0.00000000000E+00  0.41713546231E+03  0.14602805851E+04  0.13994346692E+04 0.  0.
        3    1    3    3  502    0 -0.48938985773E+03 -0.35691555716E+03  0.57410301643E+03  0.83455702709E+03  0.10100000352E+00 0.  1.
       -3    1    3    3    0  502  0.48938985773E+03  0.35691555716E+03 -0.15696755412E+03  0.62572355800E+03  0.10100000352E+00 0. -1.
</event>
<event>
 5   0  0.9978422E-05  0.1399686E+04  0.7818609E-02  0.8954046E-01
        1   -1    0    0  501    0  0.00000000000E+00  0.00000000000E+00  0.26656119555E+03  0.26656119560E+03  0.50400001928E-02 0.  1.
       -1   -1    0    0    0  501  0.00000000000E+00  0.00000000000E+00 -0.18374032580E+04  0.18374032580E+04  0.50400001928E-02 0. -1.
    10030    2    1    2    0    0  0.00000000000E+00  0.00000000000E+00 -0.15708420624E+04  0.21039644536E+04  0.13996862637E+04 0.  0.
        2    1    3    3  502    0 -0.99201791573E+02  0.63674378962E+03 -0.37514476880E+03  0.74566563997E+03  0.25500000920E-02 0.  1.
       -2    1    3    3    0  502  0.99201791573E+02 -0.63674378962E+03 -0.11956972936E+04  0.13582988136E+04  0.25500000920E-02 0. -1.
</event>
<event>
 5   0  0.9978422E-05  0.1410449E+04  0.7818609E-02  0.8946289E-01
        1   -1    0    0  501    0  0.00000000000E+00  0.00000000000E+00  0.46351648955E+03  0.46351648958E+03  0.50400001928E-02 0. -1.
       -1   -1    0    0    0  501  0.00000000000E+00  0.00000000000E+00 -0.10729752944E+04  0.10729752944E+04  0.50400001928E-02 0.  1.
    10030    2    1    2    0    0  0.00000000000E+00  0.00000000000E+00 -0.60945880486E+03  0.15364917840E+04  0.14104492077E+04 0.  0.
        2    1    3    3  502    0 -0.58033817947E+03 -0.39713630959E+03 -0.36270248412E+03  0.79124126721E+03  0.25500000920E-02 0. -1.
       -2    1    3    3    0  502  0.58033817947E+03  0.39713630959E+03 -0.24675632074E+03  0.74525051679E+03  0.25500000920E-02 0.  1.
</event>
<event>
 5   0  0.9260916E-05  0.1399785E+04  0.7818609E-02  0.8953974E-01
       -1   -1    0    0    0  501  0.00000000000E+00  0.00000000000E+00  0.12632531129E+04  0.12632531130E+04  0.50400001928E-02 0.  1.
        1   -1    0    0  501    0  0.00000000000E+00  0.00000000000E+00 -0.38776857601E+03  0.38776857604E+03  0.50400001928E-02 0. -1.
    10030    2    1    2    0    0  0.00000000000E+00  0.00000000000E+00  0.87548453694E+03  0.16510216890E+04  0.13997854990E+04 0.  0.
        1    1    3    3  502    0 -0.53995061311E+03 -0.19374154550E+03 -0.35180578744E+02  0.57473482946E+03  0.50400001928E-02 0. -1.
       -1    1    3    3    0  502  0.53995061311E+03  0.19374154550E+03  0.91066511569E+03  0.10762868595E+04  0.50400001928E-02 0.  1.
</event>
<event>
 5   0  0.6671375E-05  0.1399619E+04  0.7818609E-02  0.8954094E-01
       -1   -1    0    0    0  501  0.00000000000E+00  0.00000000000E+00  0.48854634534E+03  0.48854634537E+03  0.50400001928E-02 0. -1.
        1   -1    0    0  501    0  0.00000000000E+00  0.00000000000E+00 -0.10024298768E+04  0.10024298768E+04  0.50400001928E-02 0.  1.
    10030    2    1    2    0    0  0.00000000000E+00  0.00000000000E+00 -0.51388353149E+03  0.14909762222E+04  0.13996191665E+04 0.  0.
        5    1    3    3  502    0 -0.68357970353E+03 -0.11385645368E+03 -0.15329307831E+03  0.70976429959E+03  0.46999998093E+01 0.  1.
       -5    1    3    3    0  502  0.68357970353E+03  0.11385645368E+03 -0.36059045318E+03  0.78121192262E+03  0.46999998093E+01 0. -1.
</event>
<event>
 5   0  0.9978422E-05  0.1399438E+04  0.7818609E-02  0.8954225E-01
       -1   -1    0    0    0  501  0.00000000000E+00  0.00000000000E+00  0.48708736065E+03  0.48708736067E+03  0.50400001928E-02 0. -1.
        1   -1    0    0  501    0  0.00000000000E+00  0.00000000000E+00 -0.10051724152E+04  0.10051724152E+04  0.50400001928E-02 0.  1.
    10030    2    1    2    0    0  0.00000000000E+00  0.00000000000E+00 -0.51808505456E+03  0.14922597759E+04  0.13994381426E+04 0.  0.
        2    1    3    3  502    0  0.10821727048E+01 -0.46693174891E+03  0.29665683372E+03  0.55320132523E+03  0.25500000920E-02 0. -1.
       -2    1    3    3    0  502 -0.10821727048E+01  0.46693174891E+03 -0.81474188828E+03  0.93905845066E+03  0.25500000920E-02 0.  1.
</event>
<event>
 5   0  0.1833681E-04  0.1401346E+04  0.7818609E-02  0.8952845E-01
       -2   -1    0    0    0  501  0.00000000000E+00  0.00000000000E+00  0.61050451664E+03  0.61050451664E+03  0.25500000920E-02 0. -1.
        2   -1    0    0  501    0  0.00000000000E+00  0.00000000000E+00 -0.80415922190E+03  0.80415922191E+03  0.25500000920E-02 0.  1.
    10030    2    1    2    0    0  0.00000000000E+00  0.00000000000E+00 -0.19365470526E+03  0.14146637385E+04  0.14013462628E+04 0.  0.
        4    1    3    3  502    0  0.40458638048E+03  0.33120003656E+03 -0.56769072872E+03  0.77178881818E+03  0.12699999809E+01 0.  1.
       -4    1    3    3    0  502 -0.40458638048E+03 -0.33120003656E+03  0.37403602346E+03  0.64287492037E+03  0.12699999809E+01 0. -1.
</event>
<event>
 5   0  0.1833681E-04  0.1388802E+04  0.7818609E-02  0.8961965E-01
        2   -1    0    0  501    0  0.00000000000E+00  0.00000000000E+00  0.52181180777E+03  0.52181180778E+03  0.25500000920E-02 0. -1.
       -2   -1    0    0    0  501  0.00000000000E+00  0.00000000000E+00 -0.92407350769E+03  0.92407350770E+03  0.25500000920E-02 0.  1.
    10030    2    1    2    0    0  0.00000000000E+00  0.00000000000E+00 -0.40226169992E+03  0.14458853155E+04  0.13888015950E+04 0.  0.
        4    1    3    3  502    0  0.35874248694E+03 -0.55880337066E+02 -0.81738290466E+03  0.89439097141E+03  0.12699999809E+01 0.  1.
       -4    1    3    3    0  502 -0.35874248694E+03  0.55880337066E+02  0.41512120474E+03  0.55149434406E+03  0.12699999809E+01 0. -1.
</event>
<event>
 5   0  0.1712327E-04  0.1399330E+04  0.7818609E-02  0.8954303E-01
       -2   -1    0    0    0  501  0.00000000000E+00  0.00000000000E+00  0.26178026267E+03  0.26178026268E+03  0.25500000920E-02 0.  1.
        2   -1    0    0  501    0  0.00000000000E+00  0.00000000000E+00 -0.18700090514E+04  0.18700090514E+04  0.25500000920E-02 0. -1.
    10030    2    1    2    0    0  0.00000000000E+00  0.00000000000E+00 -0.16082287888E+04  0.21317893141E+04  0.13993304981E+04 0.  0.
        1    1    3    3  502    0 -0.20907048108E+03 -0.66596784148E+03 -0.87730001656E+03  0.11211061284E+04  0.50400001928E-02 0.  1.
       -1    1    3    3    0  502  0.20907048108E+03  0.66596784148E+03 -0.73092877219E+03  0.10106831858E+04  0.50400001928E-02 0. -1.
</event>
<event>
 5   0  0.9828111E-05  0.1397735E+04  0.7818609E-02  0.8955460E-01
        1   -1    0    0  501    0  0.00000000000E+00  0.00000000000E+00  0.76830787001E+03  0.76830787002E+03  0.50400001928E-02 0.  1.
       -1   -1    0    0    0  501  0.00000000000E+00  0.00000000000E+00 -0.63570325117E+03  0.63570325119E+03  0.50400001928E-02 0. -1.
    10030    2    1    2    0    0  0.00000000000E+00  0.00000000000E+00  0.13260461883E+03  0.14040111212E+04  0.13977350405E+04 0.  0.
        4    1    3    3  502    0 -0.26915199967E+03 -0.38431250549E+03 -0.45397637969E+03  0.65286680650E+03  0.12699999809E+01 0. -1.
       -4    1    3    3    0  502  0.26915199967E+03  0.38431250549E+03  0.58658099852E+03  0.75114431472E+03  0.12699999809E+01 0.  1.
</event>
<event>
 5   0  0.9828111E-05  0.1398205E+04  0.7818609E-02  0.8955119E-01
        1   -1    0    0  501    0  0.00000000000E+00  0.00000000000E+00  0.37020196184E+03  0.37020196187E+03  0.50400001928E-02 0. -1.
       -1   -1    0    0    0  501  0.00000000000E+00  0.00000000000E+00 -0.13202092596E+04  0.13202092596E+04  0.50400001928E-02 0.  1.
    10030    2    1    2    0    0  0.00000000000E+00  0.00000000000E+00 -0.95000729773E+03  0.16904112214E+04  0.13982046459E+04 0.  0.
        4    1    3    3  502    0  0.38275222456E+03 -0.12156164252E+03  0.21683480650E+03  0.45639395761E+03  0.12699999809E+01 0. -1.
       -4    1    3    3    0  502 -0.38275222456E+03  0.12156164252E+03 -0.11668421042E+04  0.12340172638E+04  0.12699999809E+01 0.  1.
</event>
<event>
 5   0  0.1780171E-04  0.1398101E+04  0.7818609E-02  0.8955195E-01
        2   -1    0    0  501    0  0.00000000000E+00  0.00000000000E+00  0.85146911431E+03  0.85146911431E+03  0.25500000920E-02 0. -1.
       -2   -1    0    0    0  501  0.00000000000E+00  0.00000000000E+00 -0.57391541761E+03  0.57391541761E+03  0.25500000920E-02 0.  1.
    10030    2    1    2    0    0  0.00000000000E+00  0.00000000000E+00  0.27755369670E+03  0.14253845319E+04  0.13981005004E+04 0.  0.
        5    1    3    3  502    0 -0.80795074495E+02 -0.59038897840E+02  0.84411310187E+03  0.85003673701E+03  0.46999998093E+01 0. -1.
       -5    1    3    3    0  502  0.80795074495E+02  0.59038897840E+02 -0.56655940517E+03  0.57534779491E+03  0.46999998093E+01 0.  1.
</event>
<event>
 5   0  0.6671375E-05  0.1399663E+04  0.7818609E-02  0.8954062E-01
       -1   -1    0    0    0  501  0.00000000000E+00  0.00000000000E+00  0.57252849775E+03  0.57252849777E+03  0.50400001928E-02 0. -1.
        1   -1    0    0  501    0  0.00000000000E+00  0.00000000000E+00 -0.85544074158E+03  0.85544074160E+03  0.50400001928E-02 0.  1.
    10030    2    1    2    0    0  0.00000000000E+00  0.00000000000E+00 -0.28291224384E+03  0.14279692394E+04  0.13996631062E+04 0.  0.
        5    1    3    3  502    0  0.90622245739E+02  0.40087770327E+03 -0.71932678741E+03  0.82847356112E+03  0.46999998093E+01 0.  1.
       -5    1    3    3    0  502 -0.90622245739E+02 -0.40087770327E+03  0.43641454357E+03  0.59949567824E+03  0.46999998093E+01 0. -1.
</event>
<event>
 5   0  0.6671375E-05  0.1401601E+04  0.7818609E-02  0.8952660E-01
       -1   -1    0    0    0  501  0.00000000000E+00  0.00000000000E+00  0.36697571540E+03  0.36697571543E+03  0.50400001928E-02 0. -1.
        1   -1    0    0  501    0  0.00000000000E+00  0.00000000000E+00 -0.13382944267E+04  0.13382944267E+04  0.50400001928E-02 0.  1.
    10030    2    1    2    0    0  0.00000000000E+00  0.00000000000E+00 -0.97131871128E+03  0.17052701421E+04  0.14016013052E+04 0.  0.
        5    1    3    3  502    0 -0.50675521519E+03  0.44889581551E+03 -0.70597589806E+03  0.97812696514E+03  0.46999998093E+01 0.  1.
       -5    1    3    3    0  502  0.50675521519E+03 -0.44889581551E+03 -0.26534281322E+03  0.72714317698E+03  0.46999998093E+01 0. -1.
</event>
<event>
 5   0  0.1794185E-04  0.1400560E+04  0.7818609E-02  0.8953413E-01
       -2   -1    0    0    0  501  0.00000000000E+00  0.00000000000E+00  0.17432073572E+04  0.17432073572E+04  0.25500000920E-02 0.  1.
        2   -1    0    0  501    0  0.00000000000E+00  0.00000000000E+00 -0.28131603226E+03  0.28131603227E+03  0.25500000920E-02 0. -1.
    10030    2    1    2    0    0  0.00000000000E+00  0.00000000000E+00  0.14618913250E+04  0.20245233895E+04  0.14005601410E+04 0.  0.
        2    1    3    3  502    0  0.55886525553E+01  0.40115470433E+03  0.15606177196E+04  0.16113609144E+04  0.25500000920E-02 0.  1.
       -2    1    3    3    0  502 -0.55886525553E+01 -0.40115470433E+03 -0.98726394590E+02  0.41316247511E+03  0.25500000920E-02 0. -1.
</event>
<event>
 5   0  0.9900839E-05  0.1399220E+04  0.7818609E-02  0.8954384E-01
       -1   -1    0    0    0  501  0.00000000000E+00  0.00000000000E+00  0.58307717135E+03  0.58307717137E+03  0.50400001928E-02 0. -1.
        1   -1    0    0  501    0  0.00000000000E+00  0.00000000000E+00 -0.83943250096E+03  0.83943250098E+03  0.50400001928E-02 0.  1.
    10030    2    1    2    0    0  0.00000000000E+00  0.00000000000E+00 -0.25635532962E+03  0.14225096723E+04  0.13992196800E+04 0.  0.
        3    1    3    3  502    0 -0.68832971019E+03 -0.11014682499E+03 -0.67827944781E+02  0.70037900688E+03  0.10100000352E+00 0.  1.
       -3    1    3    3    0  502  0.68832971019E+03  0.11014682499E+03 -0.18852738483E+03  0.72213066547E+03  0.10100000352E+00 0. -1.
</event>
<event>
 5   0  0.1766237E-04  0.1394003E+04  0.7818609E-02  0.8958171E-01
        2   -1    0    0  501    0  0.00000000000E+00  0.00000000000E+00  0.15230586865E+04  0.15230586865E+04  0.25500000920E-02 0.  1.
       -2   -1    0    0    0  501  0.00000000000E+00  0.00000000000E+00 -0.31897051426E+03  0.31897051427E+03  0.25500000920E-02 0. -1.
    10030    2    1    2    0    0  0.00000000000E+00  0.00000000000E+00  0.12040881722E+04  0.18420292008E+04  0.13940026004E+04 0.  0.
        3    1    3    3  502    0  0.56520642077E+03 -0.19505546594E+03  0.10753655386E+04  0.12304129326E+04  0.10100000352E+00 0.  1.
       -3    1    3    3    0  502 -0.56520642077E+03  0.19505546594E+03  0.12872263360E+03  0.61161626815E+03  0.10100000352E+00 0. -1.
</event>
<event>
 5   0  0.6671375E-05  0.1388942E+04  0.7818609E-02  0.8961862E-01
        1   -1    0    0  501    0  0.00000000000E+00  0.00000000000E+00  0.33732654927E+03  0.33732654931E+03  0.50400001928E-02 0.  1.
       -1   -1    0    0    0  501  0.00000000000E+00  0.00000000000E+00 -0.14297412222E+04  0.14297412222E+04  0.50400001928E-02 0. -1.
    10030    2    1    2    0    0  0.00000000000E+00  0.00000000000E+00 -0.10924146729E+04  0.17670677715E+04  0.13889415724E+04 0.  0.
        5    1    3    3  502    0  0.54259519900E+02 -0.62787603973E+03 -0.91733358731E+03  0.11129669434E+04  0.46999998093E+01 0. -1.
       -5    1    3    3    0  502 -0.54259519900E+02  0.62787603973E+03 -0.17508108562E+03  0.65410082808E+03  0.46999998093E+01 0.  1.
</event>
<event>
 5   0  0.1833681E-04  0.1403036E+04  0.7818609E-02  0.8951624E-01
       -2   -1    0    0    0  501  0.00000000000E+00  0.00000000000E+00  0.35894469750E+03  0.35894469751E+03  0.25500000920E-02 0. -1.
        2   -1    0    0  501    0  0.00000000000E+00  0.00000000000E+00 -0.13710399388E+04  0.13710399388E+04  0.25500000920E-02 0.  1.
    10030    2    1    2    0    0  0.00000000000E+00  0.00000000000E+00 -0.10120952413E+04  0.17299846363E+04  0.14030360168E+04 0.  0.
        4    1    3    3  502    0  0.28858130528E+03 -0.14565952089E+03  0.26163575867E+03  0.41587347703E+03  0.12699999809E+01 0. -1.
       -4    1    3    3    0  502 -0.28858130528E+03  0.14565952089E+03 -0.12737310000E+04  0.13141111593E+04  0.12699999809E+01 0.  1.
</event>
<event>
 5   0  0.1833681E-04  0.1395886E+04  0.7818609E-02  0.8956802E-01
        2   -1    0    0  501    0  0.00000000000E+00  0.00000000000E+00  0.71881812986E+03  0.71881812986E+03  0.25500000920E-02 0.  1.
       -2   -1    0    0    0  501  0.00000000000E+00  0.00000000000E+00 -0.67767386642E+03  0.67767386643E+03  0.25500000920E-02 0. -1.
    10030    2    1    2    0    0  0.00000000000E+00  0.00000000000E+00  0.41144263435E+02  0.13964919963E+04  0.13958857565E+04 0.  0.
        4    1    3    3  502    0 -0.61521661879E+03  0.10755336206E+03  0.33225749105E+03  0.70742905438E+03  0.12699999809E+01 0.  1.
       -4    1    3    3    0  502  0.61521661879E+03 -0.10755336206E+03 -0.29111322761E+03  0.68906294191E+03  0.12699999809E+01 0. -1.
</event>
<event>
 5   0  0.9978422E-05  0.1406133E+04  0.7818609E-02  0.8949391E-01
       -1   -1    0    0    0  501  0.00000000000E+00  0.00000000000E+00  0.52075117842E+03  0.52075117844E+03  0.50400001928E-02 0.  1.
        1   -1    0    0  501    0  0.00000000000E+00  0.00000000000E+00 -0.94921097957E+03  0.94921097958E+03  0.50400001928E-02 0. -1.
    10030    2    1    2    0    0  0.00000000000E+00  0.00000000000E+00 -0.42845980116E+03  0.14699621580E+04  0.14061333311E+04 0.  0.
        2    1    3    3  502    0  0.61935422557E+03 -0.10793139313E+03 -0.54324469588E+03  0.83088124420E+03  0.25500000920E-02 0.  1.
       -2    1    3    3    0  502 -0.61935422557E+03  0.10793139313E+03  0.11478489472E+03  0.63908091383E+03  0.25500000920E-02 0. -1.
</event>
<event>
 5   0  0.1712327E-04  0.1401130E+04  0.7818609E-02  0.8953001E-01
       -2   -1    0    0    0  501  0.00000000000E+00  0.00000000000E+00  0.27166576389E+03  0.27166576390E+03  0.25500000920E-02 0. -1.
        2   -1    0    0  501    0  0.00000000000E+00  0.00000000000E+00 -0.18065999822E+04  0.18065999822E+04  0.25500000920E-02 0.  1.
    10030    2    1    2    0    0  0.00000000000E+00  0.00000000000E+00 -0.15349342183E+04  0.20782657461E+04  0.14011300643E+04 0.  0.
        1    1    3    3  502    0  0.27201159620E+02  0.25603177302E+03 -0.17338763230E+04  0.17528888371E+04  0.50400001928E-02 0.  1.
       -1    1    3    3    0  502 -0.27201159620E+02 -0.25603177302E+03  0.19894210466E+03  0.32537690900E+03  0.50400001928E-02 0. -1.
</event>
<event>
 5   0  0.9260916E-05  0.1400181E+04  0.7818609E-02  0.8953687E-01
        1   -1    0    0  501    0  0.00000000000E+00  0.00000000000E+00  0.10226442434E+04  0.10226442434E+04  0.50400001928E-02 0.  1.
       -1   -1    0    0    0  501  0.00000000000E+00  0.00000000000E+00 -0.47927410217E+03  0.47927410220E+03  0.50400001928E-02 0. -1.
    10030    2    1    2    0    0  0.00000000000E+00  0.00000000000E+00  0.54337014126E+03  0.15019183456E+04  0.14001812763E+04 0.  0.
        1    1    3    3  502    0  0.37853342294E+03  0.32100145229E+02 -0.35909818799E+03  0.52275183429E+03  0.50400001928E-02 0. -1.
       -1    1    3    3    0  502 -0.37853342294E+03 -0.32100145229E+02  0.90246832926E+03  0.97916651135E+03  0.50400001928E-02 0.  1.
</event>
<event>
 5   0  0.6671375E-05  0.1400246E+04  0.7818609E-02  0.8953641E-01
       -1   -1    0    0    0  501  0.00000000000E+00  0.00000000000E+00  0.32827856952E+03  0.32827856956E+03  0.50400001928E-02 0. -1.
        1   -1    0    0  501    0  0.00000000000E+00  0.00000000000E+00 -0.14931589655E+04  0.14931589655E+04  0.50400001928E-02 0.  1.
    10030    2    1    2    0    0  0.00000000000E+00  0.00000000000E+00 -0.11648803959E+04  0.18214375350E+04  0.14002458203E+04 0.  0.
        5    1    3    3  502    0 -0.12159084785E+03  0.42565821525E+03  0.12309246036E+03  0.45950309497E+03  0.46999998093E+01 0. -1.
       -5    1    3    3    0  502  0.12159084785E+03 -0.42565821525E+03 -0.12879728563E+04  0.13619344401E+04  0.46999998093E+01 0.  1.
</event>
<event>
 5   0  0.1712327E-04  0.1397697E+04  0.7818609E-02  0.8955487E-01
       -2   -1    0    0    0  501  0.00000000000E+00  0.00000000000E+00  0.10689578388E+04  0.10689578388E+04  0.25500000920E-02 0.  1.
        2   -1    0    0  501    0  0.00000000000E+00  0.00000000000E+00 -0.45688334087E+03  0.45688334088E+03  0.25500000920E-02 0. -1.
    10030    2    1    2    0    0  0.00000000000E+00  0.00000000000E+00  0.61207449796E+03  0.15258411797E+04  0.13976967177E+04 0.  0.
        1    1    3    3  502    0 -0.25342031680E+03  0.50208776187E+03  0.75888825805E+03  0.94457681838E+03  0.50400001928E-02 0.  1.
       -1    1    3    3    0  502  0.25342031680E+03 -0.50208776187E+03 -0.14681376008E+03  0.58126436134E+03  0.50400001928E-02 0. -1.
</event>
<event>
 5   0  0.6671375E-05  0.1399335E+04  0.7818609E-02  0.8954300E-01
        1   -1    0    0  501    0  0.00000000000E+00  0.00000000000E+00  0.80854252358E+03  0.80854252360E+03  0.50400001928E-02 0. -1.
       -1   -1    0    0    0  501  0.00000000000E+00  0.00000000000E+00 -0.60545310205E+03  0.60545310207E+03  0.50400001928E-02 0.  1.
    10030    2    1    2    0    0  0.00000000000E+00  0.00000000000E+00  0.20308942153E+03  0.14139956257E+04  0.13993349550E+04 0.  0.
        5    1    3    3  502    0  0.52326598426E+03 -0.39361808595E+03 -0.14755372798E+03  0.67122029209E+03  0.46999998093E+01 0.  1.
       -5    1    3    3    0  502 -0.52326598426E+03  0.39361808595E+03  0.35064314951E+03  0.74277533358E+03  0.46999998093E+01 0. -1.
</event>
<event>
 5   0  0.9900839E-05  0.1399829E+04  0.7818609E-02  0.8953943E-01
       -1   -1    0    0    0  501  0.00000000000E+00  0.00000000000E+00  0.53947289740E+03  0.53947289743E+03  0.50400001928E-02 0. -1.
        1   -1    0    0  501    0  0.00000000000E+00  0.00000000000E+00 -0.90807169205E+03  0.90807169206E+03  0.50400001928E-02 0.  1.
    10030    2    1    2    0    0  0.00000000000E+00  0.00000000000E+00 -0.36859879464E+03  0.14475445895E+04  0.13998286564E+04 0.  0.
        3    1    3    3  502    0 -0.65364830771E+02  0.68723566031E+03 -0.64977038937E+02  0.69338837580E+03  0.10100000352E+00 0.  1.
       -3    1    3    3    0  502  0.65364830771E+02 -0.68723566031E+03 -0.30362175571E+03  0.75415621369E+03  0.10100000352E+00 0. -1.
</event>
<event>
 5   0  0.9828111E-05  0.1408593E+04  0.7818609E-02  0.8947622E-01
       -1   -1    0    0    0  501  0.00000000000E+00  0.00000000000E+00  0.34810456680E+03  0.34810456683E+03  0.50400001928E-02 0.  1.
        1   -1    0    0  501    0  0.00000000000E+00  0.00000000000E+00 -0.14249546165E+04  0.14249546165E+04  0.50400001928E-02 0. -1.
    10030    2    1    2    0    0  0.00000000000E+00  0.00000000000E+00 -0.10768500497E+04  0.17730591833E+04  0.14085925025E+04 0.  0.
        4    1    3    3  502    0  0.27778765048E+03 -0.16777961099E+03  0.24838203246E+03  0.40867006689E+03  0.12699999809E+01 0.  1.
       -4    1    3    3    0  502 -0.27778765048E+03  0.16777961099E+03 -0.13252320821E+04  0.13643891164E+04  0.12699999809E+01 0. -1.
</event>
<event>
 5   0  0.1780171E-04  0.1398986E+04  0.7818609E-02  0.8954553E-01
       -2   -1    0    0    0  501  0.00000000000E+00  0.00000000000E+00  0.65346033119E+03  0.65346033120E+03  0.25500000920E-02 0.  1.
        2   -1    0    0  501    0  0.00000000000E+00  0.00000000000E+00 -0.74876880462E+03  0.74876880462E+03  0.25500000920E-02 0. -1.
    10030    2    1    2    0    0  0.00000000000E+00  0.00000000000E+00 -0.95308473426E+02  0.14022291358E+04  0.13989863631E+04 0.  0.
        5    1    3    3  502    0  0.65210330107E+03  0.11278115193E+03  0.17938862748E+03  0.68568263298E+03  0.46999998093E+01 0.  1.
       -5    1    3    3    0  502 -0.65210330107E+03 -0.11278115193E+03 -0.27469710090E+03  0.71654650285E+03  0.46999998093E+01 0. -1.
</event>
<event>
 5   0  0.1712327E-04  0.1400750E+04  0.7818609E-02  0.8953276E-01
        2   -1    0    0  501    0  0.00000000000E+00  0.00000000000E+00  0.11185870880E+04  0.11185870880E+04  0.25500000920E-02 0.  1.
       -2   -1    0    0    0  501  0.00000000000E+00  0.00000000000E+00 -0.43852222465E+03  0.43852222466E+03  0.25500000920E-02 0. -1.
    10030    2    1    2    0    0  0.00000000000E+00  0.00000000000E+00  0.68006486332E+03  0.15571093126E+04  0.14007502251E+04 0.  0.
        1    1    3    3  502    0 -0.49664689784E+03 -0.85470885029E+02  0.88070058231E+03  0.10146905583E+04  0.50400001928E-02 0.  1.
       -1    1    3    3    0  502  0.49664689784E+03  0.85470885029E+02 -0.20063571900E+03  0.54241875437E+03  0.50400001928E-02 0. -1.
</event>
<event>
 5   0  0.9978422E-05  0.1399139E+04  0.7818609E-02  0.8954442E-01
        1   -1    0    0  501    0  0.00000000000E+00  0.00000000000E+00  0.11004802782E+04  0.11004802782E+04  0.50400001928E-02 0. -1.
       -1   -1    0    0    0  501  0.00000000000E+00  0.00000000000E+00 -0.44471263892E+03  0.44471263895E+03  0.50400001928E-02 0.  1.
    10030    2    1    2    0    0  0.00000000000E+00  0.00000000000E+00  0.65576763923E+03  0.15451929171E+04  0.13991390047E+04 0.  0.
        2    1    3    3  502    0  0.22513427128E+03 -0.80761102846E+02  0.10539213110E+04  0.10807210211E+04  0.25500000920E-02 0. -1.
       -2    1    3    3    0  502 -0.22513427128E+03  0.80761102846E+02 -0.39815367172E+03  0.46447189598E+03  0.25500000920E-02 0.  1.
</event>
<event>
 5   0  0.6671375E-05  0.1394791E+04  0.7818609E-02  0.8957598E-01
        1   -1    0    0  501    0  0.00000000000E+00  0.00000000000E+00  0.42989087145E+03  0.42989087148E+03  0.50400001928E-02 0. -1.
       -1   -1    0    0    0  501  0.00000000000E+00  0.00000000000E+00 -0.11313577230E+04  0.11313577231E+04  0.50400001928E-02 0.  1.
    10030    2    1    2    0    0  0.00000000000E+00  0.00000000000E+00 -0.70146685159E+03  0.15612485945E+04  0.13947908195E+04 0.  0.
        5    1    3    3  502    0  0.17697165572E+03 -0.11762647167E+02 -0.11056724066E+04  0.11198173456E+04  0.46999998093E+01 0.  1.
       -5    1    3    3    0  502 -0.17697165572E+03  0.11762647167E+02  0.40420555503E+03  0.44143124891E+03  0.46999998093E+01 0. -1.
</event>
<event>
 5   0  0.1766237E-04  0.1397984E+04  0.7818609E-02  0.8955279E-01
       -2   -1    0    0    0  501  0.00000000000E+00  0.00000000000E+00  0.12057840486E+04  0.12057840486E+04  0.25500000920E-02 0. -1.
        2   -1    0    0  501    0  0.00000000000E+00  0.00000000000E+00 -0.40520521896E+03  0.40520521897E+03  0.25500000920E-02 0.  1.
    10030    2    1    2    0    0  0.00000000000E+00  0.00000000000E+00  0.80057882967E+03  0.16109892676E+04  0.13979842481E+04 0.  0.
        3    1    3    3  502    0  0.20532785641E+03 -0.60867077987E+03  0.71787092429E+03  0.96331631410E+03  0.10100000352E+00 0. -1.
       -3    1    3    3    0  502 -0.20532785641E+03  0.60867077987E+03  0.82707905378E+02  0.64767295350E+03  0.10100000352E+00 0.  1.
</event>
<event>
 5   0  0.1712327E-04  0.1397639E+04  0.7818609E-02  0.8955529E-01
        2   -1    0    0  501    0  0.00000000000E+00  0.00000000000E+00  0.10966695376E+04  0.10966695376E+04  0.25500000920E-02 0. -1.
       -2   -1    0    0    0  501  0.00000000000E+00  0.00000000000E+00 -0.44530151893E+03  0.44530151894E+03  0.25500000920E-02 0.  1.
    10030    2    1    2    0    0  0.00000000000E+00  0.00000000000E+00  0.65136801870E+03  0.15419710566E+04  0.13976388817E+04 0.  0.
        1    1    3    3  502    0 -0.66439872249E+03 -0.20522041833E+03  0.40218061646E+03  0.80329965195E+03  0.50400001928E-02 0. -1.
       -1    1    3    3    0  502  0.66439872249E+03  0.20522041833E+03  0.24918740224E+03  0.73867140462E+03  0.50400001928E-02 0.  1.
</event>
<event>
 5   0  0.6671375E-05  0.1401738E+04  0.7818609E-02  0.8952561E-01
       -1   -1    0    0    0  501  0.00000000000E+00  0.00000000000E+00  0.37690248740E+03  0.37690248743E+03  0.50400001928E-02 0.  1.
        1   -1    0    0  501    0  0.00000000000E+00  0.00000000000E+00 -0.13033009505E+04  0.13033009505E+04  0.50400001928E-02 0. -1.
    10030    2    1    2    0    0  0.00000000000E+00  0.00000000000E+00 -0.92639846307E+03  0.16802034379E+04  0.14017380213E+04 0.  0.
        5    1    3    3  502    0 -0.60816630415E+03 -0.41875361019E+02 -0.48707297828E+02  0.61156707745E+03  0.46999998093E+01 0. -1.
       -5    1    3    3    0  502  0.60816630415E+03  0.41875361019E+02 -0.87769116524E+03  0.10686363605E+04  0.46999998093E+01 0.  1.
</event>
<event>
 5   0  0.6671375E-05  0.1399597E+04  0.7818609E-02  0.8954110E-01
       -1   -1    0    0    0  501  0.00000000000E+00  0.00000000000E+00  0.13034039014E+04  0.13034039014E+04  0.50400001928E-02 0.  1.
        1   -1    0    0  501    0  0.00000000000E+00  0.00000000000E+00 -0.37572244602E+03  0.37572244606E+03  0.50400001928E-02 0. -1.
    10030    2    1    2    0    0  0.00000000000E+00  0.00000000000E+00  0.92768145534E+03  0.16791263474E+04  0.13995972306E+04 0.  0.
        5    1    3    3  502    0  0.21924483063E+03 -0.49110166153E+03 -0.73289935897E+02  0.54280995056E+03  0.46999998093E+01 0. -1.
       -5    1    3    3    0  502 -0.21924483063E+03  0.49110166153E+03  0.10009713912E+04  0.11363163969E+04  0.46999998093E+01 0.  1.
</event>
<event>
 5   0  0.9978422E-05  0.1402450E+04  0.7818609E-02  0.8952047E-01
       -1   -1    0    0    0  501  0.00000000000E+00  0.00000000000E+00  0.48957928090E+03  0.48957928093E+03  0.50400001928E-02 0.  1.
        1   -1    0    0  501    0  0.00000000000E+00  0.00000000000E+00 -0.10043647409E+04  0.10043647409E+04  0.50400001928E-02 0. -1.
    10030    2    1    2    0    0  0.00000000000E+00  0.00000000000E+00 -0.51478546003E+03  0.14939440219E+04  0.14024495252E+04 0.  0.
        2    1    3    3  502    0 -0.44186923212E+03 -0.16378460516E+03  0.29575500541E+03  0.55636753897E+03  0.25500000920E-02 0.  1.
       -2    1    3    3    0  502  0.44186923212E+03  0.16378460516E+03 -0.81054046544E+03  0.93757648291E+03  0.25500000920E-02 0. -1.
</event>
<event>
 5   0  0.6671375E-05  0.1391525E+04  0.7818609E-02  0.8959976E-01
        1   -1    0    0  501    0  0.00000000000E+00  0.00000000000E+00  0.73191185323E+03  0.73191185325E+03  0.50400001928E-02 0. -1.
       -1   -1    0    0    0  501  0.00000000000E+00  0.00000000000E+00 -0.66139839802E+03  0.66139839804E+03  0.50400001928E-02 0.  1.
    10030    2    1    2    0    0  0.00000000000E+00  0.00000000000E+00  0.70513455216E+02  0.13933102513E+04  0.13915248144E+04 0.  0.
        5    1    3    3  502    0  0.28179368568E+03 -0.39092073989E+03  0.53773379001E+03  0.72208477694E+03  0.46999998093E+01 0. -1.
       -5    1    3    3    0  502 -0.28179368568E+03  0.39092073989E+03 -0.46722033480E+03  0.67122547435E+03  0.46999998093E+01 0.  1.
</event>
<event>
 5   0  0.9978422E-05  0.1399878E+04  0.7818609E-02  0.8953907E-01
        1   -1    0    0  501    0  0.00000000000E+00  0.00000000000E+00  0.91513129116E+03  0.91513129117E+03  0.50400001928E-02 0. -1.
       -1   -1    0    0    0  501  0.00000000000E+00  0.00000000000E+00 -0.53534928128E+03  0.53534928130E+03  0.50400001928E-02 0.  1.
    10030    2    1    2    0    0  0.00000000000E+00  0.00000000000E+00  0.37978200988E+03  0.14504805725E+04  0.13998783933E+04 0.  0.
        2    1    3    3  502    0  0.33867058458E+03  0.40216460022E+03 -0.28885037173E+03  0.59989054650E+03  0.25500000920E-02 0.  1.
       -2    1    3    3    0  502 -0.33867058458E+03 -0.40216460022E+03  0.66863238162E+03  0.85059002597E+03  0.25500000920E-02 0. -1.
</event>
<event>
 5   0  0.6671375E-05  0.1397807E+04  0.7818609E-02  0.8955407E-01
       -1   -1    0    0    0  501  0.00000000000E+00  0.00000000000E+00  0.25513984313E+03  0.25513984318E+03  0.50400001928E-02 0. -1.
        1   -1    0    0  501    0  0.00000000000E+00  0.00000000000E+00 -0.19145046185E+04  0.19145046185E+04  0.50400001928E-02 0.  1.
    10030    2    1    2    0    0  0.00000000000E+00  0.00000000000E+00 -0.16593647754E+04  0.21696444617E+04  0.13978074375E+04 0.  0.
        5    1    3    3  502    0  0.93374081530E+02 -0.47034256572E+03 -0.16188593769E+04  0.16883923183E+04  0.46999998093E+01 0.  1.
       -5    1    3    3    0  502 -0.93374081530E+02  0.47034256572E+03 -0.40505398463E+02  0.48125214341E+03  0.46999998093E+01 0. -1.
</event>
<event>
 5   0  0.9978422E-05  0.1398717E+04  0.7818609E-02  0.8954748E-01
        1   -1    0    0  501    0  0.00000000000E+00  0.00000000000E+00  0.64029710620E+03  0.64029710622E+03  0.50400001928E-02 0. -1.
       -1   -1    0    0    0  501  0.00000000000E+00  0.00000000000E+00 -0.76386797090E+03  0.76386797092E+03  0.50400001928E-02 0.  1.
    10030    2    1    2    0    0  0.00000000000E+00  0.00000000000E+00 -0.12357086470E+03  0.14041650771E+04  0.13987171999E+04 0.  0.
        2    1    3    3  502    0 -0.43186592766E+03  0.23360558642E+03 -0.56174394711E+03  0.74608043240E+03  0.25500000920E-02 0.  1.
       -2    1    3    3    0  502  0.43186592766E+03 -0.23360558642E+03  0.43817308241E+03  0.65808464474E+03  0.25500000920E-02 0. -1.
</event>
<event>
 5   0  0.1766237E-04  0.1399936E+04  0.7818609E-02  0.8953865E-01
       -2   -1    0    0    0  501  0.00000000000E+00  0.00000000000E+00  0.39432744666E+03  0.39432744667E+03  0.25500000920E-02 0. -1.
        2   -1    0    0  501    0  0.00000000000E+00  0.00000000000E+00 -0.12425088694E+04  0.12425088694E+04  0.25500000920E-02 0.  1.
    10030    2    1    2    0    0  0.00000000000E+00  0.00000000000E+00 -0.84818142276E+03  0.16368363161E+04  0.13999362128E+04 0.  0.
        3    1    3    3  502    0  0.26870605485E+03  0.56002347127E+03 -0.46799385169E+02  0.62291205233E+03  0.10100000352E+00 0. -1.
       -3    1    3    3    0  502 -0.26870605485E+03 -0.56002347127E+03 -0.80138203759E+03  0.10139242638E+04  0.10100000352E+00 0.  1.
</event>
<event>
 5   0  0.1794185E-04  0.1398011E+04  0.7818609E-02  0.8955259E-01
        2   -1    0    0  501    0  0.00000000000E+00  0.00000000000E+00  0.13599963736E+04  0.13599963736E+04  0.25500000920E-02 0.  1.
       -2   -1    0    0    0  501  0.00000000000E+00  0.00000000000E+00 -0.35927218035E+03  0.35927218036E+03  0.25500000920E-02 0. -1.
    10030    2    1    2    0    0  0.00000000000E+00  0.00000000000E+00  0.10007241932E+04  0.17192685539E+04  0.13980112480E+04 0.  0.
        2    1    3    3  502    0 -0.32471495953E+03  0.56694099216E+03  0.80595331908E+03  0.10375079017E+04  0.25500000920E-02 0.  1.
       -2    1    3    3    0  502  0.32471495953E+03 -0.56694099216E+03  0.19477087417E+03  0.68176065226E+03  0.25500000920E-02 0. -1.
</event>
<event>
 5   0  0.1712327E-04  0.1399311E+04  0.7818609E-02  0.8954317E-01
       -2   -1    0    0    0  501  0.00000000000E+00  0.00000000000E+00  0.44078685341E+03  0.44078685341E+03  0.25500000920E-02 0. -1.
        2   -1    0    0  501    0  0.00000000000E+00  0.00000000000E+00 -0.11105544631E+04  0.11105544631E+04  0.25500000920E-02 0.  1.
    10030    2    1    2    0    0  0.00000000000E+00  0.00000000000E+00 -0.66976760968E+03  0.15513413165E+04  0.13993109838E+04 0.  0.
        1    1    3    3  502    0  0.58806822049E+03 -0.64636028712E+02  0.79215736315E+02  0.59688958867E+03  0.50400001928E-02 0. -1.
       -1    1    3    3    0  502 -0.58806822049E+03  0.64636028712E+02 -0.74898334600E+03  0.95445172783E+03  0.50400001928E-02 0.  1.
</event>
<event>
 5   0  0.9978422E-05  0.1401708E+04  0.7818609E-02  0.8952583E-01
       -1   -1    0    0    0  501  0.00000000000E+00  0.00000000000E+00  0.46261964199E+03  0.46261964202E+03  0.50400001928E-02 0.  1.
        1   -1    0    0  501    0  0.00000000000E+00  0.00000000000E+00 -0.10617718005E+04  0.10617718005E+04  0.50400001928E-02 0. -1.
    10030    2    1    2    0    0  0.00000000000E+00  0.00000000000E+00 -0.59915215850E+03  0.15243914425E+04  0.14017082296E+04 0.  0.
        2    1    3    3  502    0  0.64661843448E+03 -0.23436642309E+03 -0.15304872535E+03  0.70460409622E+03  0.25500000920E-02 0.  1.
       -2    1    3    3    0  502 -0.64661843448E+03  0.23436642309E+03 -0.44610343315E+03  0.81978734630E+03  0.25500000920E-02 0. -1.
</event>
<event>
 5   0  0.1833681E-04  0.1404195E+04  0.7818609E-02  0.8950788E-01
        2   -1    0    0  501    0  0.00000000000E+00  0.00000000000E+00  0.10677740048E+04  0.10677740048E+04  0.25500000920E-02 0.  1.
       -2   -1    0    0    0  501  0.00000000000E+00  0.00000000000E+00 -0.46165256646E+03  0.46165256647E+03  0.25500000920E-02 0. -1.
    10030    2    1    2    0    0  0.00000000000E+00  0.00000000000E+00  0.60612143838E+03  0.15294265713E+04  0.14041945873E+04 0.  0.
        4    1    3    3  502    0 -0.17607874873E+03 -0.25106665204E+03  0.99097415853E+03  0.10373377393E+04  0.12699999809E+01 0.  1.
       -4    1    3    3    0  502  0.17607874873E+03  0.25106665204E+03 -0.38485272015E+03  0.49208883205E+03  0.12699999809E+01 0. -1.
</event>
<event>
 5   0  0.9260916E-05  0.1401590E+04  0.7818609E-02  0.8952668E-01
        1   -1    0    0  501    0  0.00000000000E+00  0.00000000000E+00  0.32827031165E+03  0.32827031169E+03  0.50400001928E-02 0. -1.
       -1   -1    0    0    0  501  0.00000000000E+00  0.00000000000E+00 -0.14960657150E+04  0.14960657150E+04  0.50400001928E-02 0.  1.
    10030    2    1    2    0    0  0.00000000000E+00  0.00000000000E+00 -0.11677954034E+04  0.18243360267E+04  0.14015904660E+04 0.  0.
        1    1    3    3  502    0  0.12441776389E+03  0.73243188850E+02 -0.14764982699E+04  0.14835401868E+04  0.50400001928E-02 0.  1.
       -1    1    3    3    0  502 -0.12441776389E+03 -0.73243188850E+02  0.30870286655E+03  0.34079583995E+03  0.50400001928E-02 0. -1.
</event>
<event>
 5   0  0.9828111E-05  0.1393342E+04  0.7818609E-02  0.8958652E-01
       -1   -1    0    0    0  501  0.00000000000E+00  0.00000000000E+00  0.62726053779E+03  0.62726053781E+03  0.50400001928E-02 0.  1.
        1   -1    0    0  501    0  0.00000000000E+00  0.00000000000E+00 -0.77376184645E+03  0.77376184647E+03  0.50400001928E-02 0. -1.
    10030    2    1    2    0    0  0.00000000000E+00  0.00000000000E+00 -0.14650130866E+03  0.14010223843E+04  0.13933416981E+04 0.  0.
        4    1    3    3  502    0  0.89829900016E+02  0.67703113747E+03 -0.21151532894E+03  0.71496917368E+03  0.12699999809E+01 0.  1.
       -4    1    3    3    0  502 -0.89829900016E+02 -0.67703113747E+03  0.65014020280E+02  0.68605321059E+03  0.12699999809E+01 0. -1.
</event>
<event>
 5   0  0.1766237E-04  0.1399384E+04  0.7818609E-02  0.8954264E-01
        2   -1    0    0  501    0  0.00000000000E+00  0.00000000000E+00  0.92840102384E+03  0.92840102385E+03  0.25500000920E-02 0. -1.
       -2   -1    0    0    0  501  0.00000000000E+00  0.00000000000E+00 -0.52732514509E+03  0.52732514510E+03  0.25500000920E-02 0.  1.
    10030    2    1    2    0    0  0.00000000000E+00  0.00000000000E+00  0.40107587875E+03  0.14557261689E+04  0.13993844427E+04 0.  0.
        3    1    3    3  502    0  0.63016975065E+03 -0.25383711883E+03  0.37467539234E+03  0.77584074226E+03  0.10100000352E+00 0. -1.
       -3    1    3    3    0  502 -0.63016975065E+03  0.25383711883E+03  0.26400486413E+02  0.67988542668E+03  0.10100000352E+00 0.  1.
</event>
<event>
 5   0  0.6671375E-05  0.1400047E+04  0.7818609E-02  0.8953784E-01
        1   -1    0    0  501    0  0.00000000000E+00  0.00000000000E+00  0.12564197902E+04  0.12564197902E+04  0.50400001928E-02 0.  1.
       -1   -1    0    0    0  501  0.00000000000E+00  0.00000000000E+00 -0.39002344180E+03  0.39002344183E+03  0.50400001928E-02 0. -1.
    10030    2    1    2    0    0  0.00000000000E+00  0.00000000000E+00  0.86639634844E+03  0.16464432321E+04  0.14000473863E+04 0.  0.
        5    1    3    3  502    0  0.39790648211E+03  0.55161697833E+03  0.62786012187E+03  0.92565721621E+03  0.46999998093E+01 0.  1.
       -5    1    3    3    0  502 -0.39790648211E+03 -0.55161697833E+03  0.23853622657E+03  0.72078601587E+03  0.46999998093E+01 0. -1.
</event>
<event>
 5   0  0.1766237E-04  0.1399801E+04  0.7818609E-02  0.8953963E-01
       -2   -1    0    0    0  501  0.00000000000E+00  0.00000000000E+00  0.52145060067E+03  0.52145060067E+03  0.25500000920E-02 0.  1.
        2   -1    0    0  501    0  0.00000000000E+00  0.00000000000E+00 -0.93941920668E+03  0.93941920669E+03  0.25500000920E-02 0. -1.
    10030    2    1    2    0    0  0.00000000000E+00  0.00000000000E+00 -0.41796860601E+03  0.14608698074E+04  0.13998009996E+04 0.  0.
        3    1    3    3  502    0 -0.35446601986E+03  0.13405514323E+03  0.40511158721E+03  0.55473628776E+03  0.10100000352E+00 0.  1.
       -3    1    3    3    0  502  0.35446601986E+03 -0.13405514323E+03 -0.82308019323E+03  0.90613351960E+03  0.10100000352E+00 0. -1.
</event>
<event>
 5   0  0.6671375E-05  0.1400619E+04  0.7818609E-02  0.8953370E-01
       -3   -1    0    0    0  501  0.00000000000E+00  0.00000000000E+00  0.10614623920E+04  0.10614623968E+04  0.10100000352E+00 0. -1.
        3   -1    0    0  501    0  0.00000000000E+00  0.00000000000E+00 -0.46203585637E+03  0.46203586741E+03  0.10100000352E+00 0.  1.
    10030    2    1    2    0    0  0.00000000000E+00  0.00000000000E+00  0.59942653565E+03  0.15234982642E+04  0.14006194306E+04 0.  0.
        2    1    3    3  502    0  0.59651808944E+03 -0.13596208259E+03  0.67036364264E+03  0.90758301676E+03  0.25500000920E-02 0. -1.
       -2    1    3    3    0  502 -0.59651808944E+03  0.13596208259E+03 -0.70937106989E+02  0.61591524748E+03  0.25500000920E-02 0.  1.
</event>
<event>
 5   0  0.9828111E-05  0.1398605E+04  0.7818609E-02  0.8954829E-01
        1   -1    0    0  501    0  0.00000000000E+00  0.00000000000E+00  0.14213633877E+04  0.14213633877E+04  0.50400001928E-02 0. -1.
       -1   -1    0    0    0  501  0.00000000000E+00  0.00000000000E+00 -0.34405292476E+03  0.34405292480E+03  0.50400001928E-02 0.  1.
    10030    2    1    2    0    0  0.00000000000E+00  0.00000000000E+00  0.10773104630E+04  0.17654163125E+04  0.13986053492E+04 0.  0.
        4    1    3    3  502    0 -0.23481180515E+03 -0.29784317046E+03  0.12802589843E+04  0.13352572103E+04  0.12699999809E+01 0. -1.
       -4    1    3    3    0  502  0.23481180515E+03  0.29784317046E+03 -0.20294852129E+03  0.43015910222E+03  0.12699999809E+01 0.  1.
</event>
<event>
 5   0  0.6671375E-05  0.1398793E+04  0.7818609E-02  0.8954692E-01
       -1   -1    0    0    0  501  0.00000000000E+00  0.00000000000E+00  0.69521736807E+03  0.69521736809E+03  0.50400001928E-02 0. -1.
        1   -1    0    0  501    0  0.00000000000E+00  0.00000000000E+00 -0.70360119717E+03  0.70360119718E+03  0.50400001928E-02 0.  1.
    10030    2    1    2    0    0  0.00000000000E+00  0.00000000000E+00 -0.83838290927E+01  0.13988185653E+04  0.13987934408E+04 0.  0.
        5    1    3    3  502    0  0.48593856582E+03 -0.24978565321E+03 -0.44078253212E+03  0.70202599163E+03  0.46999998093E+01 0.  1.
       -5    1    3    3    0  502 -0.48593856582E+03  0.24978565321E+03  0.43239870303E+03  0.69679257364E+03  0.46999998093E+01 0. -1.
</event>
<event>
 5   0  0.1780171E-04  0.1399703E+04  0.7818609E-02  0.8954034E-01
       -2   -1    0    0    0  501  0.00000000000E+00  0.00000000000E+00  0.61968934070E+03  0.61968934071E+03  0.25500000920E-02 0. -1.
        2   -1    0    0  501    0  0.00000000000E+00  0.00000000000E+00 -0.79038295035E+03  0.79038295035E+03  0.25500000920E-02 0.  1.
    10030    2    1    2    0    0  0.00000000000E+00  0.00000000000E+00 -0.17069360964E+03  0.14100722911E+04  0.13997026676E+04 0.  0.
        5    1    3    3  502    0 -0.59031353053E+03 -0.36362469807E+03 -0.18132493995E+03  0.71665459547E+03  0.46999998093E+01 0.  1.
       -5    1    3    3    0  502  0.59031353053E+03  0.36362469807E+03  0.10631330308E+02  0.69341769558E+03  0.46999998093E+01 0. -1.
</event>
<event>
 5   0  0.9260916E-05  0.1398188E+04  0.7818609E-02  0.8955131E-01
        1   -1    0    0  501    0  0.00000000000E+00  0.00000000000E+00  0.50893903820E+03  0.50893903823E+03  0.50400001928E-02 0.  1.
       -1   -1    0    0    0  501  0.00000000000E+00  0.00000000000E+00 -0.96029696630E+03  0.96029696632E+03  0.50400001928E-02 0. -1.
    10030    2    1    2    0    0  0.00000000000E+00  0.00000000000E+00 -0.45135792810E+03  0.14692360045E+04  0.13981882769E+04 0.  0.
        1    1    3    3  502    0  0.61303883535E+03  0.33413420336E+03 -0.18822610078E+03  0.72311226275E+03  0.50400001928E-02 0.  1.
       -1    1    3    3    0  502 -0.61303883535E+03 -0.33413420336E+03 -0.26313182732E+03  0.74612374180E+03  0.50400001928E-02 0. -1.
</event>
<event>
 5   0  0.1780171E-04  0.1395508E+04  0.7818609E-02  0.8957076E-01
       -2   -1    0    0    0  501  0.00000000000E+00  0.00000000000E+00  0.51282937949E+03  0.51282937949E+03  0.25500000920E-02 0. -1.
        2   -1    0    0  501    0  0.00000000000E+00  0.00000000000E+00 -0.94936208600E+03  0.94936208600E+03  0.25500000920E-02 0.  1.
    10030    2    1    2    0    0  0.00000000000E+00  0.00000000000E+00 -0.43653270651E+03  0.14621914655E+04  0.13955081791E+04 0.  0.
        5    1    3    3  502    0  0.57829045894E+03  0.15106630006E+03 -0.59546547161E+03  0.84370735435E+03  0.46999998093E+01 0.  1.
       -5    1    3    3    0  502 -0.57829045894E+03 -0.15106630006E+03  0.15893276509E+03  0.61848411114E+03  0.46999998093E+01 0. -1.
</event>
<event>
 5   0  0.9978422E-05  0.1392959E+04  0.7818609E-02  0.8958931E-01
        1   -1    0    0  501    0  0.00000000000E+00  0.00000000000E+00  0.45655082194E+03  0.45655082197E+03  0.50400001928E-02 0.  1.
       -1   -1    0    0    0  501  0.00000000000E+00  0.00000000000E+00 -0.10624967709E+04  0.10624967709E+04  0.50400001928E-02 0. -1.
    10030    2    1    2    0    0  0.00000000000E+00  0.00000000000E+00 -0.60594594896E+03  0.15190475929E+04  0.13929591151E+04 0.  0.
        2    1    3    3  502    0  0.79953354965E+02  0.41903312643E+03  0.29740914812E+03  0.52003221190E+03  0.25500000920E-02 0.  1.
       -2    1    3    3    0  502 -0.79953354965E+02 -0.41903312643E+03 -0.90335509708E+03  0.99901538099E+03  0.25500000920E-02 0. -1.
</event>
<event>
 5   0  0.9900839E-05  0.1400214E+04  0.7818609E-02  0.8953664E-01
       -1   -1    0    0    0  501  0.00000000000E+00  0.00000000000E+00  0.39558655181E+03  0.39558655185E+03  0.50400001928E-02 0. -1.
        1   -1    0    0  501    0  0.00000000000E+00  0.00000000000E+00 -0.12390451734E+04  0.12390451734E+04  0.50400001928E-02 0.  1.
    10030    2    1    2    0    0  0.00000000000E+00  0.00000000000E+00 -0.84345862154E+03  0.16346317252E+04  0.14002137090E+04 0.  0.
        3    1    3    3  502    0  0.63320964744E+03  0.10448141096E+03 -0.74835294562E+03  0.98585139055E+03  0.10100000352E+00 0.  1.
       -3    1    3    3    0  502 -0.63320964744E+03 -0.10448141096E+03 -0.95105675923E+02  0.64878033466E+03  0.10100000352E+00 0. -1.
</event>
<event>
 5   0  0.6671375E-05  0.1397688E+04  0.7818609E-02  0.8955494E-01
       -1   -1    0    0    0  501  0.00000000000E+00  0.00000000000E+00  0.93969448012E+03  0.93969448014E+03  0.50400001928E-02 0. -1.
        1   -1    0    0  501    0  0.00000000000E+00  0.00000000000E+00 -0.51972541884E+03  0.51972541886E+03  0.50400001928E-02 0.  1.
    10030    2    1    2    0    0  0.00000000000E+00  0.00000000000E+00  0.41996906129E+03  0.14594198990E+04  0.13976882446E+04 0.  0.
        5    1    3    3  502    0 -0.23364201561E+03  0.65752822778E+03  0.17051204274E+03  0.71835117352E+03  0.46999998093E+01 0. -1.
       -5    1    3    3    0  502  0.23364201561E+03 -0.65752822778E+03  0.24945701855E+03  0.74106872548E+03  0.46999998093E+01 0.  1.
</event>
<event>
 5   0  0.6671375E-05  0.1400144E+04  0.7818609E-02  0.8953714E-01
       -1   -1    0    0    0  501  0.00000000000E+00  0.00000000000E+00  0.34907002366E+03  0.34907002369E+03  0.50400001928E-02 0.  1.
        1   -1    0    0  501    0  0.00000000000E+00  0.00000000000E+00 -0.14040186415E+04  0.14040186415E+04  0.50400001928E-02 0. -1.
    10030    2    1    2    0    0  0.00000000000E+00  0.00000000000E+00 -0.10549486179E+04  0.17530886652E+04  0.14001440218E+04 0.  0.
        5    1    3    3  502    0  0.66753041722E+02  0.69537961561E+03 -0.58443973046E+03  0.91082416905E+03  0.46999998093E+01 0.  1.
       -5    1    3    3    0  502 -0.66753041722E+02 -0.69537961561E+03 -0.47050888741E+03  0.84226449618E+03  0.46999998093E+01 0. -1.
</event>
<event>
 5   0  0.1794185E-04  0.1400059E+04  0.7818609E-02  0.8953776E-01
       -2   -1    0    0    0  501  0.00000000000E+00  0.00000000000E+00  0.41741222832E+03  0.41741222833E+03  0.25500000920E-02 0. -1.
        2   -1    0    0  501    0  0.00000000000E+00  0.00000000000E+00 -0.11739991397E+04  0.11739991397E+04  0.25500000920E-02 0.  1.
    10030    2    1    2    0    0  0.00000000000E+00  0.00000000000E+00 -0.75658691138E+03  0.15914113680E+04  0.14000594230E+04 0.  0.
        2    1    3    3  502    0  0.95040228740E+02 -0.16293792793E+03  0.38798022124E+03  0.43140475834E+03  0.25500000920E-02 0. -1.
       -2    1    3    3    0  502 -0.95040228740E+02  0.16293792793E+03 -0.11445671326E+04  0.11600066097E+04  0.25500000920E-02 0.  1.
</event>
<event>
 5   0  0.1712327E-04  0.1397459E+04  0.7818609E-02  0.8955660E-01
       -2   -1    0    0    0  501  0.00000000000E+00  0.00000000000E+00  0.54400615411E+03  0.54400615411E+03  0.25500000920E-02 0.  1.
        2   -1    0    0  501    0  0.00000000000E+00  0.00000000000E+00 -0.89745901558E+03  0.89745901558E+03  0.25500000920E-02 0. -1.
    10030    2    1    2    0    0  0.00000000000E+00  0.00000000000E+00 -0.35345286147E+03  0.14414651697E+04  0.13974594485E+04 0.  0.
        1    1    3    3  502    0  0.16304341479E+03  0.93939812758E+01 -0.87749590421E+03  0.89256398309E+03  0.50400001928E-02 0. -1.
       -1    1    3    3    0  502 -0.16304341479E+03 -0.93939812758E+01  0.52404304274E+03  0.54890118660E+03  0.50400001928E-02 0.  1.
</event>
<event>
 5   0  0.9260916E-05  0.1398221E+04  0.7818609E-02  0.8955108E-01
        1   -1    0    0  501    0  0.00000000000E+00  0.00000000000E+00  0.79476065334E+03  0.79476065336E+03  0.50400001928E-02 0. -1.
       -1   -1    0    0    0  501  0.00000000000E+00  0.00000000000E+00 -0.61497164860E+03  0.61497164862E+03  0.50400001928E-02 0.  1.
    10030    2    1    2    0    0  0.00000000000E+00  0.00000000000E+00  0.17978900474E+03  0.14097323020E+04  0.13982206825E+04 0.  0.
        1    1    3    3  502    0 -0.38546792544E+02  0.40080375804E+03 -0.48632260349E+03  0.63137879468E+03  0.50400001928E-02 0.  1.
       -1    1    3    3    0  502  0.38546792544E+02 -0.40080375804E+03  0.66611160824E+03  0.77835350730E+03  0.50400001928E-02 0. -1.
</event>
<event>
 5   0  0.9900839E-05  0.1388354E+04  0.7818609E-02  0.8962292E-01
       -1   -1    0    0    0  501  0.00000000000E+00  0.00000000000E+00  0.51781167262E+03  0.51781167265E+03  0.50400001928E-02 0. -1.
        1   -1    0    0  501    0  0.00000000000E+00  0.00000000000E+00 -0.93061205568E+03  0.93061205569E+03  0.50400001928E-02 0.  1.
    10030    2    1    2    0    0  0.00000000000E+00  0.00000000000E+00 -0.41280038306E+03  0.14484237283E+04  0.13883541121E+04 0.  0.
        3    1    3    3  502    0 -0.39762734260E+03  0.55550976176E+03 -0.33495155647E+03  0.76084896949E+03  0.10100000352E+00 0.  1.
       -3    1    3    3    0  502  0.39762734260E+03 -0.55550976176E+03 -0.77848826590E+02  0.68757475884E+03  0.10100000352E+00 0. -1.
</event>
<event>
 5   0  0.9900839E-05  0.1395279E+04  0.7818609E-02  0.8957243E-01
       -1   -1    0    0    0  501  0.00000000000E+00  0.00000000000E+00  0.34634937398E+03  0.34634937402E+03  0.50400001928E-02 0. -1.
        1   -1    0    0  501    0  0.00000000000E+00  0.00000000000E+00 -0.14052307486E+04  0.14052307486E+04  0.50400001928E-02 0.  1.
    10030    2    1    2    0    0  0.00000000000E+00  0.00000000000E+00 -0.10588813747E+04  0.17515801227E+04  0.13952788827E+04 0.  0.
        3    1    3    3  502    0 -0.61508166005E+03 -0.28382859918E+03 -0.73881406526E+03  0.10023623873E+04  0.10100000352E+00 0.  1.
       -3    1    3    3    0  502  0.61508166005E+03  0.28382859918E+03 -0.32006730939E+03  0.74921773537E+03  0.10100000352E+00 0. -1.
</event>
<event>
 5   0  0.9978422E-05  0.1398731E+04  0.7818609E-02  0.8954738E-01
       -1   -1    0    0    0  501  0.00000000000E+00  0.00000000000E+00  0.10208679278E+04  0.10208679278E+04  0.50400001928E-02 0. -1.
        1   -1    0    0  501    0  0.00000000000E+00  0.00000000000E+00 -0.47911390907E+03  0.47911390910E+03  0.50400001928E-02 0.  1.
    10030    2    1    2    0    0  0.00000000000E+00  0.00000000000E+00  0.54175401870E+03  0.14999818369E+04  0.13987308870E+04 0.  0.
        2    1    3    3  502    0 -0.35667699387E+03 -0.43065007067E+03  0.72132333828E+03  0.91268029434E+03  0.25500000920E-02 0. -1.
       -2    1    3    3    0  502  0.35667699387E+03  0.43065007067E+03 -0.17956931959E+03  0.58730154254E+03  0.25500000920E-02 0.  1.
</event>
<event>
 5   0  0.1712327E-04  0.1401431E+04  0.7818609E-02  0.8952783E-01
       -2   -1    0    0    0  501  0.00000000000E+00  0.00000000000E+00  0.51651069967E+03  0.51651069968E+03  0.25500000920E-02 0. -1.
        2   -1    0    0  501    0  0.00000000000E+00  0.00000000000E+00 -0.95061366264E+03  0.95061366264E+03  0.25500000920E-02 0.  1.
    10030    2    1    2    0    0  0.00000000000E+00  0.00000000000E+00 -0.43410296296E+03  0.14671243623E+04  0.14014308802E+04 0.  0.
        1    1    3    3  502    0  0.30734924734E+03  0.25424705015E+03  0.38605905130E+03  0.55510964094E+03  0.50400001928E-02 0. -1.
       -1    1    3    3    0  502 -0.30734924734E+03 -0.25424705015E+03 -0.82016201426E+03  0.91201472138E+03  0.50400001928E-02 0.  1.
</event>
<event>
 5   0  0.1766237E-04  0.1401028E+04  0.7818609E-02  0.8953074E-01
        2   -1    0    0  501    0  0.00000000000E+00  0.00000000000E+00  0.12051485324E+04  0.12051485324E+04  0.25500000920E-02 0.  1.
       -2   -1    0    0    0  501  0.00000000000E+00  0.00000000000E+00 -0.40718645720E+03  0.40718645721E+03  0.25500000920E-02 0. -1.
    10030    2    1    2    0    0  0.00000000000E+00  0.00000000000E+00  0.79796207523E+03  0.16123349896E+04  0.14010284242E+04 0.  0.
        3    1    3    3  502    0  0.43017981277E+03 -0.26133704613E+03 -0.16170508790E+03  0.52867784959E+03  0.10100000352E+00 0. -1.
       -3    1    3    3    0  502 -0.43017981277E+03  0.26133704613E+03  0.95966716313E+03  0.10836571400E+04  0.10100000352E+00 0.  1.
</event>
<event>
 5   0  0.9900839E-05  0.1400522E+04  0.7818609E-02  0.8953441E-01
        1   -1    0    0  501    0  0.00000000000E+00  0.00000000000E+00  0.10909404475E+04  0.10909404475E+04  0.50400001928E-02 0. -1.
       -1   -1    0    0    0  501  0.00000000000E+00  0.00000000000E+00 -0.44948869932E+03  0.44948869935E+03  0.50400001928E-02 0.  1.
    10030    2    1    2    0    0  0.00000000000E+00  0.00000000000E+00  0.64145174814E+03  0.15404291468E+04  0.14005219067E+04 0.  0.
        3    1    3    3  502    0 -0.31287529685E+03  0.60955381195E+03  0.16164497340E+03  0.70397152546E+03  0.10100000352E+00 0. -1.
       -3    1    3    3    0  502  0.31287529685E+03 -0.60955381195E+03  0.47980677474E+03  0.83645762136E+03  0.10100000352E+00 0.  1.
</event>
<event>
 5   0  0.1833681E-04  0.1387888E+04  0.7818609E-02  0.8962632E-01
       -2   -1    0    0    0  501  0.00000000000E+00  0.00000000000E+00  0.68209638701E+03  0.68209638701E+03  0.25500000920E-02 0. -1.
        2   -1    0    0  501    0  0.00000000000E+00  0.00000000000E+00 -0.70599787642E+03  0.70599787642E+03  0.25500000920E-02 0.  1.
    10030    2    1    2    0    0  0.00000000000E+00  0.00000000000E+00 -0.23901489410E+02  0.13880942634E+04  0.13878884692E+04 0.  0.
        4    1    3    3  502    0 -0.29346081731E+03 -0.17001114363E+03 -0.61746098736E+03  0.70447336647E+03  0.12699999809E+01 0.  1.
       -4    1    3    3    0  502  0.29346081731E+03  0.17001114363E+03  0.59355949795E+03  0.68362089696E+03  0.12699999809E+01 0. -1.
</event>
<event>
 5   0  0.9900839E-05  0.1399478E+04  0.7818609E-02  0.8954196E-01
        1   -1    0    0  501    0  0.00000000000E+00  0.00000000000E+00  0.18569898546E+04  0.18569898546E+04  0.50400001928E-02 0.  1.
       -1   -1    0    0    0  501  0.00000000000E+00  0.00000000000E+00 -0.26367116176E+03  0.26367116181E+03  0.50400001928E-02 0. -1.
    10030    2    1    2    0    0  0.00000000000E+00  0.00000000000E+00  0.15933186928E+04  0.21206610164E+04  0.13994780061E+04 0.  0.
        3    1    3    3  502    0 -0.25753484214E+03 -0.97413719804E+02 -0.17813153139E+03  0.32793975117E+03  0.10100000352E+00 0. -1.
       -3    1    3    3    0  502  0.25753484214E+03  0.97413719804E+02  0.17714502242E+04  0.17927212652E+04  0.10100000352E+00 0.  1.
</event>
<event>
 5   0  0.9900839E-05  0.1379222E+04  0.7818609E-02  0.8968998E-01
       -1   -1    0    0    0  501  0.00000000000E+00  0.00000000000E+00  0.26137693166E+03  0.26137693170E+03  0.50400001928E-02 0. -1.
        1   -1    0    0  501    0  0.00000000000E+00  0.00000000000E+00 -0.18194534049E+04  0.18194534049E+04  0.50400001928E-02 0.  1.
    10030    2    1    2    0    0  0.00000000000E+00  0.00000000000E+00 -0.15580764733E+04  0.20808303366E+04  0.13792217346E+04 0.  0.
        3    1    3    3  502    0  0.25809211763E+03  0.26725955964E+03 -0.16555441686E+04  0.16967220508E+04  0.10100000352E+00 0.  1.
       -3    1    3    3    0  502 -0.25809211763E+03 -0.26725955964E+03  0.97467695313E+02  0.38410828582E+03  0.10100000352E+00 0. -1.
</event>
<event>
 5   0  0.1780171E-04  0.1400410E+04  0.7818609E-02  0.8953522E-01
       -2   -1    0    0    0  501  0.00000000000E+00  0.00000000000E+00  0.48672008856E+03  0.48672008857E+03  0.25500000920E-02 0. -1.
        2   -1    0    0  501    0  0.00000000000E+00  0.00000000000E+00 -0.10073288786E+04  0.10073288786E+04  0.25500000920E-02 0.  1.
    10030    2    1    2    0    0  0.00000000000E+00  0.00000000000E+00 -0.52060879005E+03  0.14940489672E+04  0.14004102271E+04 0.  0.
        5    1    3    3  502    0  0.56628916008E+03  0.40989774095E+03 -0.21809183758E+03  0.73231530810E+03  0.46999998093E+01 0.  1.
       -5    1    3    3    0  502 -0.56628916008E+03 -0.40989774095E+03 -0.30251695247E+03  0.76173365909E+03  0.46999998093E+01 0. -1.
</event>
<event>
 5   0  0.9828111E-05  0.1399115E+04  0.7818609E-02  0.8954459E-01
       -1   -1    0    0    0  501  0.00000000000E+00  0.00000000000E+00  0.10049481018E+04  0.10049481018E+04  0.50400001928E-02 0.  1.
        1   -1    0    0  501    0  0.00000000000E+00  0.00000000000E+00 -0.48697145365E+03  0.48697145368E+03  0.50400001928E-02 0. -1.
    10030    2    1    2    0    0  0.00000000000E+00  0.00000000000E+00  0.51797664811E+03  0.14919195555E+04  0.13991154891E+04 0.  0.
        4    1    3    3  502    0  0.97055959979E+02  0.52469298070E+03 -0.22340909537E+03  0.57847715612E+03  0.12699999809E+01 0. -1.
       -4    1    3    3    0  502 -0.97055959979E+02 -0.52469298070E+03  0.74138574348E+03  0.91344239933E+03  0.12699999809E+01 0.  1.
</event>
<event>
 5   0  0.9900839E-05  0.1388035E+04  0.7818609E-02  0.8962525E-01
       -1   -1    0    0    0  501  0.00000000000E+00  0.00000000000E+00  0.20149961806E+03  0.20149961812E+03  0.50400001928E-02 0.  1.
        1   -1    0    0  501    0  0.00000000000E+00  0.00000000000E+00 -0.23903779752E+04  0.23903779752E+04  0.50400001928E-02 0. -1.
    10030    2    1    2    0    0  0.00000000000E+00  0.00000000000E+00 -0.21888783572E+04  0.25918775934E+04  0.13880349406E+04 0.  0.
        3    1    3    3  502    0 -0.30795641618E+03 -0.11884297707E+03  0.45530903697E+02  0.33321746781E+03  0.10100000352E+00 0.  1.
       -3    1    3    3    0  502  0.30795641618E+03  0.11884297707E+03 -0.22344092609E+04  0.22586601255E+04  0.10100000352E+00 0. -1.
</event>
<event>
 5   0  0.1794185E-04  0.1401334E+04  0.7818609E-02  0.8952853E-01
       -2   -1    0    0    0  501  0.00000000000E+00  0.00000000000E+00  0.37215878461E+03  0.37215878462E+03  0.25500000920E-02 0.  1.
        2   -1    0    0  501    0  0.00000000000E+00  0.00000000000E+00 -0.13191532943E+04  0.13191532943E+04  0.25500000920E-02 0. -1.
    10030    2    1    2    0    0  0.00000000000E+00  0.00000000000E+00 -0.94699450971E+03  0.16913120789E+04  0.14013343452E+04 0.  0.
        2    1    3    3  502    0  0.47882229214E+03  0.21338051815E+03  0.87604951338E+02  0.53148533421E+03  0.25500000920E-02 0.  1.
       -2    1    3    3    0  502 -0.47882229214E+03 -0.21338051815E+03 -0.10345994610E+04  0.11598267447E+04  0.25500000920E-02 0. -1.
</event>
<event>
 5   0  0.9828111E-05  0.1422172E+04  0.7818609E-02  0.8937924E-01
       -1   -1    0    0    0  501  0.00000000000E+00  0.00000000000E+00  0.68081797374E+03  0.68081797376E+03  0.50400001928E-02 0. -1.
        1   -1    0    0  501    0  0.00000000000E+00  0.00000000000E+00 -0.74269999278E+03  0.74269999280E+03  0.50400001928E-02 0.  1.
    10030    2    1    2    0    0  0.00000000000E+00  0.00000000000E+00 -0.61882019045E+02  0.14235179666E+04  0.14221722880E+04 0.  0.
        4    1    3    3  502    0 -0.89755742261E+02  0.35351369644E+02  0.67423684238E+03  0.68110406336E+03  0.12699999809E+01 0. -1.
       -4    1    3    3    0  502  0.89755742261E+02 -0.35351369644E+02 -0.73611886143E+03  0.74241390319E+03  0.12699999809E+01 0.  1.
</event>
<event>
 5   0  0.1712327E-04  0.1399290E+04  0.7818609E-02  0.8954333E-01
       -2   -1    0    0    0  501  0.00000000000E+00  0.00000000000E+00  0.59700637048E+03  0.59700637048E+03  0.25500000920E-02 0.  1.
        2   -1    0    0  501    0  0.00000000000E+00  0.00000000000E+00 -0.81992950849E+03  0.81992950849E+03  0.25500000920E-02 0. -1.
    10030    2    1    2    0    0  0.00000000000E+00  0.00000000000E+00 -0.22292313801E+03  0.14169358790E+04  0.13992900199E+04 0.  0.
        1    1    3    3  502    0  0.66199937110E+03  0.65246014471E+01  0.11770498480E+03  0.67241371286E+03  0.50400001928E-02 0.  1.
       -1    1    3    3    0  502 -0.66199937110E+03 -0.65246014471E+01 -0.34062812282E+03  0.74452216612E+03  0.50400001928E-02 0. -1.
</event>
<event>
 5   0  0.9978422E-05  0.1417472E+04  0.7818609E-02  0.8941268E-01
        1   -1    0    0  501    0  0.00000000000E+00  0.00000000000E+00  0.79229743899E+03  0.79229743900E+03  0.50400001928E-02 0. -1.
       -1   -1    0    0    0  501  0.00000000000E+00  0.00000000000E+00 -0.63398747615E+03  0.63398747617E+03  0.50400001928E-02 0.  1.
    10030    2    1    2    0    0  0.00000000000E+00  0.00000000000E+00  0.15830996284E+03  0.14262849152E+04  0.14174719097E+04 0.  0.
        2    1    3    3  502    0 -0.35173327233E+03  0.99841071147E+02 -0.53176245927E+03  0.64533390384E+03  0.25500000920E-02 0.  1.
       -2    1    3    3    0  502  0.35173327233E+03 -0.99841071147E+02  0.69007242210E+03  0.78095101134E+03  0.25500000920E-02 0. -1.
</event>
<event>
 5   0  0.9828111E-05  0.1401372E+04  0.7818609E-02  0.8952826E-01
       -1   -1    0    0    0  501  0.00000000000E+00  0.00000000000E+00  0.52046401558E+03  0.52046401561E+03  0.50400001928E-02 0.  1.
        1   -1    0    0  501    0  0.00000000000E+00  0.00000000000E+00 -0.94331380333E+03  0.94331380334E+03  0.50400001928E-02 0. -1.
    10030    2    1    2    0    0  0.00000000000E+00  0.00000000000E+00 -0.42284978774E+03  0.14637778189E+04  0.14013720278E+04 0.  0.
        4    1    3    3  502    0 -0.62906856234E+03  0.21387567438E+03 -0.44379326222E+03  0.79901447591E+03  0.12699999809E+01 0. -1.
       -4    1    3    3    0  502  0.62906856234E+03 -0.21387567438E+03  0.20943474479E+02  0.66476334304E+03  0.12699999809E+01 0.  1.
</event>
<event>
 5   0  0.1766237E-04  0.1399768E+04  0.7818609E-02  0.8953987E-01
        2   -1    0    0  501    0  0.00000000000E+00  0.00000000000E+00  0.10014437660E+04  0.10014437660E+04  0.25500000920E-02 0.  1.
       -2   -1    0    0    0  501  0.00000000000E+00  0.00000000000E+00 -0.48913120583E+03  0.48913120584E+03  0.25500000920E-02 0. -1.
    10030    2    1    2    0    0  0.00000000000E+00  0.00000000000E+00  0.51231256021E+03  0.14905749719E+04  0.13997676905E+04 0.  0.
        3    1    3    3  502    0  0.27884659774E+03 -0.35252277857E+03  0.82743827575E+03  0.94163785228E+03  0.10100000352E+00 0.  1.
       -3    1    3    3    0  502 -0.27884659774E+03  0.35252277857E+03 -0.31512571553E+03  0.54893711960E+03  0.10100000352E+00 0. -1.
</event>
<event>
 5   0  0.9900839E-05  0.1403014E+04  0.7818609E-02  0.8951640E-01
        1   -1    0    0  501    0  0.00000000000E+00  0.00000000000E+00  0.67764352190E+03  0.67764352192E+03  0.50400001928E-02 0. -1.
       -1   -1    0    0    0  501  0.00000000000E+00  0.00000000000E+00 -0.72621113145E+03  0.72621113147E+03  0.50400001928E-02 0.  1.
    10030    2    1    2    0    0  0.00000000000E+00  0.00000000000E+00 -0.48567609551E+02  0.14038546534E+04  0.14030142819E+04 0.  0.
        3    1    3    3  502    0  0.23133188015E+03 -0.65319508997E+03 -0.13359206099E+03  0.70570894376E+03  0.10100000352E+00 0.  1.
       -3    1    3    3    0  502 -0.23133188015E+03  0.65319508997E+03  0.85024451436E+02  0.69814570963E+03  0.10100000352E+00 0. -1.
</event>
<event>
 5   0  0.1794185E-04  0.1396882E+04  0.7818609E-02  0.8956079E-01
        2   -1    0    0  501    0  0.00000000000E+00  0.00000000000E+00  0.95484456550E+03  0.95484456551E+03  0.25500000920E-02 0.  1.
       -2   -1    0    0    0  501  0.00000000000E+00  0.00000000000E+00 -0.51088890908E+03  0.51088890909E+03  0.25500000920E-02 0. -1.
    10030    2    1    2    0    0  0.00000000000E+00  0.00000000000E+00  0.44395565642E+03  0.14657334746E+04  0.13968815246E+04 0.  0.
        2    1    3    3  502    0 -0.20353509773E+03  0.24060256751E+02 -0.47862569468E+03  0.52066110627E+03  0.25500000920E-02 0. -1.
       -2    1    3    3    0  502  0.20353509773E+03 -0.24060256751E+02  0.92258135110E+03  0.94507236833E+03  0.25500000920E-02 0.  1.
</event>
<event>
 5   0  0.1766237E-04  0.1395187E+04  0.7818609E-02  0.8957310E-01
       -2   -1    0    0    0  501  0.00000000000E+00  0.00000000000E+00  0.38145922686E+03  0.38145922687E+03  0.25500000920E-02 0.  1.
        2   -1    0    0  501    0  0.00000000000E+00  0.00000000000E+00 -0.12757232319E+04  0.12757232319E+04  0.25500000920E-02 0. -1.
    10030    2    1    2    0    0  0.00000000000E+00  0.00000000000E+00 -0.89426400500E+03  0.16571824587E+04  0.13951865792E+04 0.  0.
        3    1    3    3  502    0 -0.22079637344E+03 -0.21912510686E+03  0.29451575612E+03  0.42837646036E+03  0.10100000352E+00 0.  1.
       -3    1    3    3    0  502  0.22079637344E+03  0.21912510686E+03 -0.11887797611E+04  0.12288059984E+04  0.10100000352E+00 0. -1.
</event>
<event>
 5   0  0.1794185E-04  0.1399547E+04  0.7818609E-02  0.8954146E-01
       -2   -1    0    0    0  501  0.00000000000E+00  0.00000000000E+00  0.32933311376E+03  0.32933311377E+03  0.25500000920E-02 0.  1.
        2   -1    0    0  501    0  0.00000000000E+00  0.00000000000E+00 -0.14868932053E+04  0.14868932053E+04  0.25500000920E-02 0. -1.
    10030    2    1    2    0    0  0.00000000000E+00  0.00000000000E+00 -0.11575600915E+04  0.18162263191E+04  0.13995473113E+04 0.  0.
        2    1    3    3  502    0 -0.29015633364E+03  0.23975117171E+03 -0.13443403294E+04  0.13960380523E+04  0.25500000920E-02 0. -1.
       -2    1    3    3    0  502  0.29015633364E+03 -0.23975117171E+03  0.18678023783E+03  0.42018826678E+03  0.25500000920E-02 0.  1.
</event>
<event>
 5   0  0.1794185E-04  0.1402182E+04  0.7818609E-02  0.8952241E-01
        2   -1    0    0  501    0  0.00000000000E+00  0.00000000000E+00  0.77021144913E+03  0.77021144913E+03  0.25500000920E-02 0. -1.
       -2   -1    0    0    0  501  0.00000000000E+00  0.00000000000E+00 -0.63817341972E+03  0.63817341972E+03  0.25500000920E-02 0.  1.
    10030    2    1    2    0    0  0.00000000000E+00  0.00000000000E+00  0.13203802941E+03  0.14083848689E+04  0.14021818347E+04 0.  0.
        2    1    3    3  502    0  0.68101343269E+03 -0.11750532722E+03  0.18461623824E+03  0.71531108817E+03  0.25500000920E-02 0. -1.
       -2    1    3    3    0  502 -0.68101343269E+03  0.11750532722E+03 -0.52578208832E+02  0.69307378069E+03  0.25500000920E-02 0.  1.
</event>
<event>
 5   0  0.6671375E-05  0.1399046E+04  0.7818609E-02  0.8954510E-01
        1   -1    0    0  501    0  0.00000000000E+00  0.00000000000E+00  0.14730904023E+04  0.14730904023E+04  0.50400001928E-02 0. -1.
       -1   -1    0    0    0  501  0.00000000000E+00  0.00000000000E+00 -0.33218063106E+03  0.33218063110E+03  0.50400001928E-02 0.  1.
    10030    2    1    2    0    0  0.00000000000E+00  0.00000000000E+00  0.11409097712E+04  0.18052710334E+04  0.13990455310E+04 0.  0.
        5    1    3    3  502    0 -0.17506558489E+01  0.24891444499E+03  0.14139871125E+04  0.14357378278E+04  0.46999998093E+01 0. -1.
       -5    1    3    3    0  502  0.17506558489E+01 -0.24891444499E+03 -0.27307734130E+03  0.36953320562E+03  0.46999998093E+01 0.  1.
</event>
<event>
 5   0  0.9828111E-05  0.1399212E+04  0.7818609E-02  0.8954389E-01
        1   -1    0    0  501    0  0.00000000000E+00  0.00000000000E+00  0.23312973156E+04  0.23312973156E+04  0.50400001928E-02 0. -1.
       -1   -1    0    0    0  501  0.00000000000E+00  0.00000000000E+00 -0.20994679965E+03  0.20994679971E+03  0.50400001928E-02 0.  1.
    10030    2    1    2    0    0  0.00000000000E+00  0.00000000000E+00  0.21213505160E+04  0.25412441154E+04  0.13992117932E+04 0.  0.
        4    1    3    3  502    0 -0.11395813749E+03 -0.61424696726E+03  0.16325927587E+04  0.17480407668E+04  0.12699999809E+01 0. -1.
       -4    1    3    3    0  502  0.11395813749E+03  0.61424696726E+03  0.48875775728E+03  0.79320334851E+03  0.12699999809E+01 0.  1.
</event>
<event>
 5   0  0.1794185E-04  0.1398603E+04  0.7818609E-02  0.8954831E-01
       -2   -1    0    0    0  501  0.00000000000E+00  0.00000000000E+00  0.53667342945E+03  0.53667342945E+03  0.25500000920E-02 0. -1.
        2   -1    0    0  501    0  0.00000000000E+00  0.00000000000E+00 -0.91121031708E+03  0.91121031708E+03  0.25500000920E-02 0.  1.
    10030    2    1    2    0    0  0.00000000000E+00  0.00000000000E+00 -0.37453688763E+03  0.14478837465E+04  0.13986026824E+04 0.  0.
        2    1    3    3  502    0 -0.50864466305E+03  0.46750015017E+03 -0.75067865249E+02  0.69491795779E+03  0.25500000920E-02 0. -1.
       -2    1    3    3    0  502  0.50864466305E+03 -0.46750015017E+03 -0.29946902239E+03  0.75296578875E+03  0.25500000920E-02 0.  1.
</event>
<event>
 5   0  0.1794185E-04  0.1406342E+04  0.7818609E-02  0.8949241E-01
       -2   -1    0    0    0  501  0.00000000000E+00  0.00000000000E+00  0.97103489071E+03  0.97103489071E+03  0.25500000920E-02 0. -1.
        2   -1    0    0  501    0  0.00000000000E+00  0.00000000000E+00 -0.50919819843E+03  0.50919819843E+03  0.25500000920E-02 0.  1.
    10030    2    1    2    0    0  0.00000000000E+00  0.00000000000E+00  0.46183669228E+03  0.14802330891E+04  0.14063416611E+04 0.  0.
        2    1    3    3  502    0 -0.15490000447E+02 -0.65679013153E+03  0.49476010364E+03  0.82243588027E+03  0.25500000920E-02 0. -1.
       -2    1    3    3    0  502  0.15490000447E+02  0.65679013153E+03 -0.32923411361E+02  0.65779720888E+03  0.25500000920E-02 0.  1.
</event>
<event>
 5   0  0.6671375E-05  0.1400060E+04  0.7818609E-02  0.8953775E-01
       -1   -1    0    0    0  501  0.00000000000E+00  0.00000000000E+00  0.30183035062E+03  0.30183035066E+03  0.50400001928E-02 0. -1.
        1   -1    0    0  501    0  0.00000000000E+00  0.00000000000E+00 -0.16235667576E+04  0.16235667576E+04  0.50400001928E-02 0.  1.
    10030    2    1    2    0    0  0.00000000000E+00  0.00000000000E+00 -0.13217364069E+04  0.19253971082E+04  0.14000596041E+04 0.  0.
        5    1    3    3  502    0  0.13379291115E+03 -0.68680840180E+03 -0.68882656335E+03  0.98189126089E+03  0.46999998093E+01 0. -1.
       -5    1    3    3    0  502 -0.13379291115E+03  0.68680840180E+03 -0.63290984360E+03  0.94350584734E+03  0.46999998093E+01 0.  1.
</event>
<event>
 5   0  0.1766237E-04  0.1401633E+04  0.7818609E-02  0.8952637E-01
       -2   -1    0    0    0  501  0.00000000000E+00  0.00000000000E+00  0.34989248952E+03  0.34989248953E+03  0.25500000920E-02 0. -1.
        2   -1    0    0  501    0  0.00000000000E+00  0.00000000000E+00 -0.14036996892E+04  0.14036996892E+04  0.25500000920E-02 0.  1.
    10030    2    1    2    0    0  0.00000000000E+00  0.00000000000E+00 -0.10538071997E+04  0.17535921788E+04  0.14016333027E+04 0.  0.
        3    1    3    3  502    0  0.66184099688E+03  0.71313485215E+02 -0.25272901036E+03  0.71203306188E+03  0.10100000352E+00 0. -1.
       -3    1    3    3    0  502 -0.66184099688E+03 -0.71313485215E+02 -0.80107818936E+03  0.10415591169E+04  0.10100000352E+00 0.  1.
</event>
<event>
 5   0  0.6671375E-05  0.1402307E+04  0.7818609E-02  0.8952150E-01
        4   -1    0    0  501    0  0.00000000000E+00  0.00000000000E+00  0.45893717793E+03  0.45893893514E+03  0.12699999809E+01 0.  1.
       -4   -1    0    0    0  501  0.00000000000E+00  0.00000000000E+00 -0.10712016371E+04  0.10712023900E+04  0.12699999809E+01 0. -1.
    10030    2    1    2    0    0  0.00000000000E+00  0.00000000000E+00 -0.61226445920E+03  0.15301413251E+04  0.14023069232E+04 0.  0.
        5    1    3    3  502    0  0.91001514980E+02 -0.75959833359E+02  0.44790826431E+03  0.46335199929E+03  0.46999998093E+01 0.  1.
       -5    1    3    3    0  502 -0.91001514980E+02  0.75959833359E+02 -0.10601727235E+04  0.10667893258E+04  0.46999998093E+01 0. -1.
</event>
<event>
 5   0  0.9260916E-05  0.1400540E+04  0.7818609E-02  0.8953428E-01
       -1   -1    0    0    0  501  0.00000000000E+00  0.00000000000E+00  0.56908393357E+03  0.56908393360E+03  0.50400001928E-02 0.  1.
        1   -1    0    0  501    0  0.00000000000E+00  0.00000000000E+00 -0.86169680548E+03  0.86169680550E+03  0.50400001928E-02 0. -1.
    10030    2    1    2    0    0  0.00000000000E+00  0.00000000000E+00 -0.29261287191E+03  0.14307807391E+04  0.14005396212E+04 0.  0.
        1    1    3    3  502    0 -0.22164057802E+03  0.56202525344E+03 -0.50804377203E+03  0.78937025891E+03  0.50400001928E-02 0. -1.
       -1    1    3    3    0  502  0.22164057802E+03 -0.56202525344E+03  0.21543090012E+03  0.64141048018E+03  0.50400001928E-02 0.  1.
</event>
<event>
 5   0  0.1794185E-04  0.1404235E+04  0.7818609E-02  0.8950759E-01
       -2   -1    0    0    0  501  0.00000000000E+00  0.00000000000E+00  0.29947330117E+03  0.29947330118E+03  0.25500000920E-02 0. -1.
        2   -1    0    0  501    0  0.00000000000E+00  0.00000000000E+00 -0.16461189878E+04  0.16461189878E+04  0.25500000920E-02 0.  1.
    10030    2    1    2    0    0  0.00000000000E+00  0.00000000000E+00 -0.13466456866E+04  0.19455922890E+04  0.14042345778E+04 0.  0.
        2    1    3    3  502    0 -0.36227716650E+03 -0.29111398670E+03  0.55855404294E+02  0.46809392734E+03  0.25500000920E-02 0. -1.
       -2    1    3    3    0  502  0.36227716650E+03  0.29111398670E+03 -0.14025010909E+04  0.14774983616E+04  0.25500000920E-02 0.  1.
</event>
<event>
 5   0  0.1780171E-04  0.1400428E+04  0.7818609E-02  0.8953508E-01
       -2   -1    0    0    0  501  0.00000000000E+00  0.00000000000E+00  0.32648062226E+03  0.32648062227E+03  0.25500000920E-02 0. -1.
        2   -1    0    0  501    0  0.00000000000E+00  0.00000000000E+00 -0.15017736360E+04  0.15017736360E+04  0.25500000920E-02 0.  1.
    10030    2    1    2    0    0  0.00000000000E+00  0.00000000000E+00 -0.11752930137E+04  0.18282542583E+04  0.14004284933E+04 0.  0.
        5    1    3    3  502    0  0.61424938325E+03 -0.31267783033E+03 -0.74864215836E+03  0.10176231629E+04  0.46999998093E+01 0.  1.
       -5    1    3    3    0  502 -0.61424938325E+03  0.31267783033E+03 -0.42665085537E+03  0.81063109538E+03  0.46999998093E+01 0. -1.
</event>
<event>
 5   0  0.6671375E-05  0.1400908E+04  0.7818609E-02  0.8953162E-01
       -4   -1    0    0    0  501  0.00000000000E+00  0.00000000000E+00  0.10770409728E+04  0.10770417216E+04  0.12699999809E+01 0. -1.
        4   -1    0    0  501    0  0.00000000000E+00  0.00000000000E+00 -0.45553856568E+03  0.45554033600E+03  0.12699999809E+01 0.  1.
    10030    2    1    2    0    0  0.00000000000E+00  0.00000000000E+00  0.62150240713E+03  0.15325820576E+04  0.14009077490E+04 0.  0.
        3    1    3    3  502    0 -0.60813025252E+03  0.24851095508E+03  0.44896436021E+02  0.65847991541E+03  0.10100000352E+00 0.  1.
       -3    1    3    3    0  502  0.60813025252E+03 -0.24851095508E+03  0.57660597111E+03  0.87410214217E+03  0.10100000352E+00 0. -1.
</event>
<event>
 5   0  0.6671375E-05  0.1398726E+04  0.7818609E-02  0.8954741E-01
       -1   -1    0    0    0  501  0.00000000000E+00  0.00000000000E+00  0.24276599374E+03  0.24276599379E+03  0.50400001928E-02 0. -1.
        1   -1    0    0  501    0  0.00000000000E+00  0.00000000000E+00 -0.20147336405E+04  0.20147336405E+04  0.50400001928E-02 0.  1.
    10030    2    1    2    0    0  0.00000000000E+00  0.00000000000E+00 -0.17719676467E+04  0.22574996343E+04  0.13987262983E+04 0.  0.
        5    1    3    3  502    0 -0.51972163368E+03 -0.45204690654E+03 -0.10811988681E+04  0.12819789642E+04  0.46999998093E+01 0. -1.
       -5    1    3    3    0  502  0.51972163368E+03  0.45204690654E+03 -0.69076877860E+03  0.97552067006E+03  0.46999998093E+01 0.  1.
</event>
<event>
 5   0  0.1833681E-04  0.1416533E+04  0.7818609E-02  0.8941937E-01
       -2   -1    0    0    0  501  0.00000000000E+00  0.00000000000E+00  0.90625381864E+03  0.90625381864E+03  0.25500000920E-02 0. -1.
        2   -1    0    0  501    0  0.00000000000E+00  0.00000000000E+00 -0.55353332577E+03  0.55353332577E+03  0.25500000920E-02 0.  1.
    10030    2    1    2    0    0  0.00000000000E+00  0.00000000000E+00  0.35272049287E+03  0.14597871444E+04  0.14165333603E+04 0.  0.
        4    1    3    3  502    0  0.36356429692E+03  0.50845770308E+03 -0.16687418147E+03  0.64695968897E+03  0.12699999809E+01 0.  1.
       -4    1    3    3    0  502 -0.36356429692E+03 -0.50845770308E+03  0.51959467434E+03  0.81282745544E+03  0.12699999809E+01 0. -1.
</event>
<event>
 5   0  0.9900839E-05  0.1402430E+04  0.7818609E-02  0.8952061E-01
       -1   -1    0    0    0  501  0.00000000000E+00  0.00000000000E+00  0.58151560821E+03  0.58151560823E+03  0.50400001928E-02 0.  1.
        1   -1    0    0  501    0  0.00000000000E+00  0.00000000000E+00 -0.84555389779E+03  0.84555389781E+03  0.50400001928E-02 0. -1.
    10030    2    1    2    0    0  0.00000000000E+00  0.00000000000E+00 -0.26403828959E+03  0.14270695060E+04  0.14024304463E+04 0.  0.
        3    1    3    3  502    0 -0.19007898085E+03  0.21042657713E+03  0.52056974097E+03  0.59279189328E+03  0.10100000352E+00 0.  1.
       -3    1    3    3    0  502  0.19007898085E+03 -0.21042657713E+03 -0.78460803056E+03  0.83427761275E+03  0.10100000352E+00 0. -1.
</event>
<event>
 5   0  0.9978422E-05  0.1399800E+04  0.7818609E-02  0.8953964E-01
       -1   -1    0    0    0  501  0.00000000000E+00  0.00000000000E+00  0.88363401792E+03  0.88363401793E+03  0.50400001928E-02 0. -1.
        1   -1    0    0  501    0  0.00000000000E+00  0.00000000000E+00 -0.55436946103E+03  0.55436946105E+03  0.50400001928E-02 0.  1.
    10030    2    1    2    0    0  0.00000000000E+00  0.00000000000E+00  0.32926455689E+03  0.14380034790E+04  0.13997995775E+04 0.  0.
        2    1    3    3  502    0  0.57036920387E+03 -0.99646238583E+02  0.56856766727E+03  0.81149220197E+03  0.25500000920E-02 0. -1.
       -2    1    3    3    0  502 -0.57036920387E+03  0.99646238583E+02 -0.23930311038E+03  0.62651127702E+03  0.25500000920E-02 0.  1.
</event>
<event>
 5   0  0.1794185E-04  0.1409239E+04  0.7818609E-02  0.8947158E-01
        2   -1    0    0  501    0  0.00000000000E+00  0.00000000000E+00  0.80265127690E+03  0.80265127691E+03  0.25500000920E-02 0. -1.
       -2   -1    0    0    0  501  0.00000000000E+00  0.00000000000E+00 -0.61856118451E+03  0.61856118451E+03  0.25500000920E-02 0.  1.
    10030    2    1    2    0    0  0.00000000000E+00  0.00000000000E+00  0.18409009240E+03  0.14212124614E+04  0.14092394042E+04 0.  0.
        2    1    3    3  502    0  0.20045582175E+03  0.37415461853E+02 -0.58815285282E+03  0.62249998518E+03  0.25500000920E-02 0.  1.
       -2    1    3    3    0  502 -0.20045582175E+03 -0.37415461853E+02  0.77224294522E+03  0.79871247624E+03  0.25500000920E-02 0. -1.
</event>
<event>
 5   0  0.1780171E-04  0.1391372E+04  0.7818609E-02  0.8960087E-01
        2   -1    0    0  501    0  0.00000000000E+00  0.00000000000E+00  0.10058547525E+04  0.10058547525E+04  0.25500000920E-02 0.  1.
       -2   -1    0    0    0  501  0.00000000000E+00  0.00000000000E+00 -0.48116225555E+03  0.48116225555E+03  0.25500000920E-02 0. -1.
    10030    2    1    2    0    0  0.00000000000E+00  0.00000000000E+00  0.52469249693E+03  0.14870170080E+04  0.13913724756E+04 0.  0.
        5    1    3    3  502    0  0.47287895486E+03  0.76312982854E+02 -0.27683241204E+03  0.55325984099E+03  0.46999998093E+01 0. -1.
       -5    1    3    3    0  502 -0.47287895486E+03 -0.76312982854E+02  0.80152490897E+03  0.93375716704E+03  0.46999998093E+01 0.  1.
</event>
<event>
 5   0  0.9828111E-05  0.1403515E+04  0.7818609E-02  0.8951278E-01
        1   -1    0    0  501    0  0.00000000000E+00  0.00000000000E+00  0.65129628669E+03  0.65129628671E+03  0.50400001928E-02 0. -1.
       -1   -1    0    0    0  501  0.00000000000E+00  0.00000000000E+00 -0.75612882457E+03  0.75612882459E+03  0.50400001928E-02 0.  1.
    10030    2    1    2    0    0  0.00000000000E+00  0.00000000000E+00 -0.10483253788E+03  0.14074251113E+04  0.14035154374E+04 0.  0.
        4    1    3    3  502    0 -0.70239936549E+02 -0.66940303734E+03  0.14670223460E+03  0.68888114622E+03  0.12699999809E+01 0. -1.
       -4    1    3    3    0  502  0.70239936549E+02  0.66940303734E+03 -0.25153477249E+03  0.71854396508E+03  0.12699999809E+01 0.  1.
</event>
<event>
 5   0  0.1780171E-04  0.1390282E+04  0.7818609E-02  0.8960883E-01
        2   -1    0    0  501    0  0.00000000000E+00  0.00000000000E+00  0.10605459565E+04  0.10605459565E+04  0.25500000920E-02 0.  1.
       -2   -1    0    0    0  501  0.00000000000E+00  0.00000000000E+00 -0.45563446094E+03  0.45563446095E+03  0.25500000920E-02 0. -1.
    10030    2    1    2    0    0  0.00000000000E+00  0.00000000000E+00  0.60491149560E+03  0.15161804175E+04  0.13902823961E+04 0.  0.
        5    1    3    3  502    0  0.17549426869E+03  0.15402163614E+03 -0.41156956063E+03  0.47321506313E+03  0.46999998093E+01 0. -1.
       -5    1    3    3    0  502 -0.17549426869E+03 -0.15402163614E+03  0.10164810562E+04  0.10429653544E+04  0.46999998093E+01 0.  1.
</event>
<event>
 5   0  0.6671375E-05  0.1407327E+04  0.7818609E-02  0.8948532E-01
       -3   -1    0    0    0  501  0.00000000000E+00  0.00000000000E+00  0.37805431881E+03  0.37805433230E+03  0.10100000352E+00 0.  1.
        3   -1    0    0  501    0  0.00000000000E+00  0.00000000000E+00 -0.13097118127E+04  0.13097118166E+04  0.10100000352E+00 0. -1.
    10030    2    1    2    0    0  0.00000000000E+00  0.00000000000E+00 -0.93165749390E+03  0.16877661489E+04  0.14073268588E+04 0.  0.
        2    1    3    3  502    0  0.19073187700E+03 -0.43098056062E+03 -0.10924628023E+04  0.11897890011E+04  0.25500000920E-02 0. -1.
       -2    1    3    3    0  502 -0.19073187700E+03  0.43098056062E+03  0.16080530845E+03  0.49797714784E+03  0.25500000920E-02 0.  1.
</event>
<event>
 5   0  0.9900839E-05  0.1400008E+04  0.7818609E-02  0.8953813E-01
        1   -1    0    0  501    0  0.00000000000E+00  0.00000000000E+00  0.93840150767E+03  0.93840150768E+03  0.50400001928E-02 0.  1.
       -1   -1    0    0    0  501  0.00000000000E+00  0.00000000000E+00 -0.52217034205E+03  0.52217034208E+03  0.50400001928E-02 0. -1.
    10030    2    1    2    0    0  0.00000000000E+00  0.00000000000E+00  0.41623116562E+03  0.14605718498E+04  0.14000077661E+04 0.  0.
        3    1    3    3  502    0 -0.22759468986E+03  0.65681049574E+03  0.29418329065E+03  0.75481334704E+03  0.10100000352E+00 0.  1.
       -3    1    3    3    0  502  0.22759468986E+03 -0.65681049574E+03  0.12204787497E+03  0.70575850272E+03  0.10100000352E+00 0. -1.
</event>
<event>
 5   0  0.1794185E-04  0.1402177E+04  0.7818609E-02  0.8952244E-01
        2   -1    0    0  501    0  0.00000000000E+00  0.00000000000E+00  0.13298590927E+04  0.13298590927E+04  0.25500000920E-02 0.  1.
       -2   -1    0    0    0  501  0.00000000000E+00  0.00000000000E+00 -0.36960701911E+03  0.36960701912E+03  0.25500000920E-02 0. -1.
    10030    2    1    2    0    0  0.00000000000E+00  0.00000000000E+00  0.96025207360E+03  0.16994661118E+04  0.14021772429E+04 0.  0.
        2    1    3    3  502    0 -0.83634133511E+02 -0.60275893584E+02 -0.36037027251E+03  0.37482607293E+03  0.25500000920E-02 0. -1.
       -2    1    3    3    0  502  0.83634133511E+02  0.60275893584E+02  0.13206223461E+04  0.13246400389E+04  0.25500000920E-02 0.  1.
</event>
<event>
 5   0  0.1766237E-04  0.1416841E+04  0.7818609E-02  0.8941718E-01
       -2   -1    0    0    0  501  0.00000000000E+00  0.00000000000E+00  0.81134023376E+03  0.81134023377E+03  0.25500000920E-02 0. -1.
        2   -1    0    0  501    0  0.00000000000E+00  0.00000000000E+00 -0.61855624155E+03  0.61855624156E+03  0.25500000920E-02 0.  1.
    10030    2    1    2    0    0  0.00000000000E+00  0.00000000000E+00  0.19278399221E+03  0.14298964753E+04  0.14168409447E+04 0.  0.
        3    1    3    3  502    0 -0.50685791961E+02 -0.83950798716E+02  0.80445706449E+03  0.81041221913E+03  0.10100000352E+00 0. -1.
       -3    1    3    3    0  502  0.50685791961E+02  0.83950798716E+02 -0.61167307228E+03  0.61948425619E+03  0.10100000352E+00 0.  1.
</event>
<event>
 5   0  0.1712327E-04  0.1400268E+04  0.7818609E-02  0.8953625E-01
        2   -1    0    0  501    0  0.00000000000E+00  0.00000000000E+00  0.17887127973E+04  0.17887127973E+04  0.25500000920E-02 0. -1.
       -2   -1    0    0    0  501  0.00000000000E+00  0.00000000000E+00 -0.27404492759E+03  0.27404492760E+03  0.25500000920E-02 0.  1.
    10030    2    1    2    0    0  0.00000000000E+00  0.00000000000E+00  0.15146678697E+04  0.20627577249E+04  0.14002680729E+04 0.  0.
        1    1    3    3  502    0 -0.50329687342E+03 -0.54564813726E+02  0.14697842238E+04  0.15545258847E+04  0.50400001928E-02 0. -1.
       -1    1    3    3    0  502  0.50329687342E+03  0.54564813726E+02  0.44883645919E+02  0.50823184020E+03  0.50400001928E-02 0.  1.
</event>
<event>
 5   0  0.9260916E-05  0.1398327E+04  0.7818609E-02  0.8955030E-01
        1   -1    0    0  501    0  0.00000000000E+00  0.00000000000E+00  0.65949309117E+03  0.65949309119E+03  0.50400001928E-02 0. -1.
       -1   -1    0    0    0  501  0.00000000000E+00  0.00000000000E+00 -0.74122072150E+03  0.74122072152E+03  0.50400001928E-02 0.  1.
    10030    2    1    2    0    0  0.00000000000E+00  0.00000000000E+00 -0.81727630327E+02  0.14007138127E+04  0.13983274937E+04 0.  0.
        1    1    3    3  502    0 -0.36947821309E+03  0.38437282001E+03 -0.49393351854E+03  0.72679222304E+03  0.50400001928E-02 0.  1.
       -1    1    3    3    0  502  0.36947821309E+03 -0.38437282001E+03  0.41220588822E+03  0.67392158966E+03  0.50400001928E-02 0. -1.
</event>
<event>
 5   0  0.1766237E-04  0.1400530E+04  0.7818609E-02  0.8953435E-01
       -2   -1    0    0    0  501  0.00000000000E+00  0.00000000000E+00  0.22708037246E+03  0.22708037247E+03  0.25500000920E-02 0.  1.
        2   -1    0    0  501    0  0.00000000000E+00  0.00000000000E+00 -0.21594610127E+04  0.21594610127E+04  0.25500000920E-02 0. -1.
    10030    2    1    2    0    0  0.00000000000E+00  0.00000000000E+00 -0.19323806402E+04  0.23865413851E+04  0.14005302011E+04 0.  0.
        3    1    3    3  502    0 -0.21433432851E+03  0.11011617514E+03 -0.20865883494E+04  0.21004560758E+04  0.10100000352E+00 0. -1.
       -3    1    3    3    0  502  0.21433432851E+03 -0.11011617514E+03  0.15420770922E+03  0.28608530929E+03  0.10100000352E+00 0.  1.
</event>
<event>
 5   0  0.9828111E-05  0.1401135E+04  0.7818609E-02  0.8952997E-01
        1   -1    0    0  501    0  0.00000000000E+00  0.00000000000E+00  0.81256428705E+03  0.81256428706E+03  0.50400001928E-02 0.  1.
       -1   -1    0    0    0  501  0.00000000000E+00  0.00000000000E+00 -0.60400774165E+03  0.60400774167E+03  0.50400001928E-02 0. -1.
    10030    2    1    2    0    0  0.00000000000E+00  0.00000000000E+00  0.20855654540E+03  0.14165720287E+04  0.14011354253E+04 0.  0.
        4    1    3    3  502    0  0.68694837497E+03  0.32880447145E+02  0.23921901439E+03  0.72815282972E+03  0.12699999809E+01 0.  1.
       -4    1    3    3    0  502 -0.68694837497E+03 -0.32880447145E+02 -0.30662468996E+02  0.68841919902E+03  0.12699999809E+01 0. -1.
</event>
<event>
 5   0  0.1780171E-04  0.1418898E+04  0.7818609E-02  0.8940252E-01
       -2   -1    0    0    0  501  0.00000000000E+00  0.00000000000E+00  0.26702775433E+03  0.26702775434E+03  0.25500000920E-02 0. -1.
        2   -1    0    0  501    0  0.00000000000E+00  0.00000000000E+00 -0.18848894298E+04  0.18848894298E+04  0.25500000920E-02 0.  1.
    10030    2    1    2    0    0  0.00000000000E+00  0.00000000000E+00 -0.16178616755E+04  0.21519171842E+04  0.14188978703E+04 0.  0.
        5    1    3    3  502    0  0.27378902465E+03 -0.20722193722E+03  0.13258381446E+03  0.36810585317E+03  0.46999998093E+01 0. -1.
       -5    1    3    3    0  502 -0.27378902465E+03  0.20722193722E+03 -0.17504454900E+04  0.17838113310E+04  0.46999998093E+01 0.  1.
</event>
<event>
 5   0  0.9828111E-05  0.1395965E+04  0.7818609E-02  0.8956744E-01
        1   -1    0    0  501    0  0.00000000000E+00  0.00000000000E+00  0.38863424988E+03  0.38863424991E+03  0.50400001928E-02 0.  1.
       -1   -1    0    0    0  501  0.00000000000E+00  0.00000000000E+00 -0.12535690237E+04  0.12535690237E+04  0.50400001928E-02 0. -1.
    10030    2    1    2    0    0  0.00000000000E+00  0.00000000000E+00 -0.86493477378E+03  0.16422032736E+04  0.13959654111E+04 0.  0.
        4    1    3    3  502    0 -0.29791003921E+02  0.54327401351E+03 -0.94678653030E+03  0.10919892419E+04  0.12699999809E+01 0. -1.
       -4    1    3    3    0  502  0.29791003921E+02 -0.54327401351E+03  0.81851756522E+02  0.55021403164E+03  0.12699999809E+01 0.  1.
</event>
<event>
 5   0  0.9900839E-05  0.1392668E+04  0.7818609E-02  0.8959143E-01
       -1   -1    0    0    0  501  0.00000000000E+00  0.00000000000E+00  0.24821806296E+03  0.24821806302E+03  0.50400001928E-02 0.  1.
        1   -1    0    0  501    0  0.00000000000E+00  0.00000000000E+00 -0.19534470897E+04  0.19534470897E+04  0.50400001928E-02 0. -1.
    10030    2    1    2    0    0  0.00000000000E+00  0.00000000000E+00 -0.17052290267E+04  0.22016651527E+04  0.13926677318E+04 0.  0.
        3    1    3    3  502    0  0.53093813394E+03 -0.44577930625E+03 -0.95587449119E+03  0.11808092755E+04  0.10100000352E+00 0. -1.
       -3    1    3    3    0  502 -0.53093813394E+03  0.44577930625E+03 -0.74935453552E+03  0.10208558772E+04  0.10100000352E+00 0.  1.
</event>
<event>
 5   0  0.1712327E-04  0.1404694E+04  0.7818609E-02  0.8950428E-01
        2   -1    0    0  501    0  0.00000000000E+00  0.00000000000E+00  0.12026073560E+04  0.12026073560E+04  0.25500000920E-02 0.  1.
       -2   -1    0    0    0  501  0.00000000000E+00  0.00000000000E+00 -0.41018474342E+03  0.41018474343E+03  0.25500000920E-02 0. -1.
    10030    2    1    2    0    0  0.00000000000E+00  0.00000000000E+00  0.79242261260E+03  0.16127920995E+04  0.14046938311E+04 0.  0.
        1    1    3    3  502    0  0.34413753958E+03  0.62963700933E+02 -0.30302320456E+03  0.46283705158E+03  0.50400001928E-02 0. -1.
       -1    1    3    3    0  502 -0.34413753958E+03 -0.62963700933E+02  0.10954458172E+04  0.11499550479E+04  0.50400001928E-02 0.  1.
</event>
<event>
 5   0  0.1833681E-04  0.1399310E+04  0.7818609E-02  0.8954318E-01
        2   -1    0    0  501    0  0.00000000000E+00  0.00000000000E+00  0.85180515472E+03  0.85180515472E+03  0.25500000920E-02 0. -1.
       -2   -1    0    0    0  501  0.00000000000E+00  0.00000000000E+00 -0.57468186885E+03  0.57468186886E+03  0.25500000920E-02 0.  1.
    10030    2    1    2    0    0  0.00000000000E+00  0.00000000000E+00  0.27712328586E+03  0.14264870236E+04  0.13993097987E+04 0.  0.
        4    1    3    3  502    0 -0.17491101450E+03  0.17157061971E+03 -0.52951757576E+03  0.58345592505E+03  0.12699999809E+01 0.  1.
       -4    1    3    3    0  502  0.17491101450E+03 -0.17157061971E+03  0.80664086163E+03  0.84303109853E+03  0.12699999809E+01 0. -1.
</event>
<event>
 5   0  0.1766237E-04  0.1400550E+04  0.7818609E-02  0.8953420E-01
        2   -1    0    0  501    0  0.00000000000E+00  0.00000000000E+00  0.91277114264E+03  0.91277114264E+03  0.25500000920E-02 0.  1.
       -2   -1    0    0    0  501  0.00000000000E+00  0.00000000000E+00 -0.53724878083E+03  0.53724878084E+03  0.25500000920E-02 0. -1.
    10030    2    1    2    0    0  0.00000000000E+00  0.00000000000E+00  0.37552236181E+03  0.14500199235E+04  0.14005501541E+04 0.  0.
        3    1    3    3  502    0 -0.79245290516E+02 -0.64804020974E+03  0.44998435783E+03  0.79291983327E+03  0.10100000352E+00 0.  1.
       -3    1    3    3    0  502  0.79245290516E+02  0.64804020974E+03 -0.74461996018E+02  0.65710009021E+03  0.10100000352E+00 0. -1.
</event>
<event>
 5   0  0.9978422E-05  0.1399508E+04  0.7818609E-02  0.8954175E-01
        1   -1    0    0  501    0  0.00000000000E+00  0.00000000000E+00  0.85529982384E+03  0.85529982385E+03  0.50400001928E-02 0.  1.
       -1   -1    0    0    0  501  0.00000000000E+00  0.00000000000E+00 -0.57249552462E+03  0.57249552464E+03  0.50400001928E-02 0. -1.
    10030    2    1    2    0    0  0.00000000000E+00  0.00000000000E+00  0.28280429921E+03  0.14277953485E+04  0.13995075154E+04 0.  0.
        2    1    3    3  502    0  0.66078007690E+03  0.63970443111E+02  0.36708093398E+03  0.75859800930E+03  0.25500000920E-02 0.  1.
       -2    1    3    3    0  502 -0.66078007690E+03 -0.63970443111E+02 -0.84276634764E+02  0.66919733920E+03  0.25500000920E-02 0. -1.
</event>
<event>
 5   0  0.9978422E-05  0.1399708E+04  0.7818609E-02  0.8954030E-01
        1   -1    0    0  501    0  0.00000000000E+00  0.00000000000E+00  0.10067996450E+04  0.10067996450E+04  0.50400001928E-02 0. -1.
       -1   -1    0    0    0  501  0.00000000000E+00  0.00000000000E+00 -0.48648736166E+03  0.48648736169E+03  0.50400001928E-02 0.  1.
    10030    2    1    2    0    0  0.00000000000E+00  0.00000000000E+00  0.52031228335E+03  0.14932870067E+04  0.13997075452E+04 0.  0.
        2    1    3    3  502    0 -0.60469319056E+03 -0.10652532760E+03  0.61845762183E+03  0.87148799770E+03  0.25500000920E-02 0. -1.
       -2    1    3    3    0  502  0.60469319056E+03  0.10652532760E+03 -0.98145338486E+02  0.62179900901E+03  0.25500000920E-02 0.  1.
</event>
<event>
 5   0  0.1780171E-04  0.1399546E+04  0.7818609E-02  0.8954148E-01
       -2   -1    0    0    0  501  0.00000000000E+00  0.00000000000E+00  0.20377666366E+03  0.20377666368E+03  0.25500000920E-02 0.  1.
        2   -1    0    0  501    0  0.00000000000E+00  0.00000000000E+00 -0.24030324470E+04  0.24030324470E+04  0.25500000920E-02 0. -1.
    10030    2    1    2    0    0  0.00000000000E+00  0.00000000000E+00 -0.21992557833E+04  0.26068091107E+04  0.13995455473E+04 0.  0.
        5    1    3    3  502    0  0.37256760349E+03 -0.44207937127E+03 -0.18339292395E+04  0.19229038809E+04  0.46999998093E+01 0. -1.
       -5    1    3    3    0  502 -0.37256760349E+03  0.44207937127E+03 -0.36532654381E+03  0.68390522976E+03  0.46999998093E+01 0.  1.
</event>
<event>
 5   0  0.9260916E-05  0.1401663E+04  0.7818609E-02  0.8952616E-01
       -1   -1    0    0    0  501  0.00000000000E+00  0.00000000000E+00  0.46710291449E+03  0.46710291451E+03  0.50400001928E-02 0.  1.
        1   -1    0    0  501    0  0.00000000000E+00  0.00000000000E+00 -0.10515125077E+04  0.10515125077E+04  0.50400001928E-02 0. -1.
    10030    2    1    2    0    0  0.00000000000E+00  0.00000000000E+00 -0.58440959324E+03  0.15186154223E+04  0.14016626656E+04 0.  0.
        1    1    3    3  502    0  0.53368754959E+03  0.31472345445E+03 -0.64708891251E+03  0.89587795714E+03  0.50400001928E-02 0.  1.
       -1    1    3    3    0  502 -0.53368754959E+03 -0.31472345445E+03  0.62679319267E+02  0.62273746512E+03  0.50400001928E-02 0. -1.
</event>
<event>
 5   0  0.1766237E-04  0.1413106E+04  0.7818609E-02  0.8944386E-01
       -2   -1    0    0    0  501  0.00000000000E+00  0.00000000000E+00  0.50356687796E+03  0.50356687797E+03  0.25500000920E-02 0.  1.
        2   -1    0    0  501    0  0.00000000000E+00  0.00000000000E+00 -0.99136227356E+03  0.99136227357E+03  0.25500000920E-02 0. -1.
    10030    2    1    2    0    0  0.00000000000E+00  0.00000000000E+00 -0.48779539560E+03  0.14949291515E+04  0.14131060895E+04 0.  0.
        3    1    3    3  502    0 -0.26443596692E+03 -0.47462945018E+03  0.23393929189E+03  0.59154636173E+03  0.10100000352E+00 0.  1.
       -3    1    3    3    0  502  0.26443596692E+03  0.47462945018E+03 -0.72173468749E+03  0.90338278980E+03  0.10100000352E+00 0. -1.
</event>
<event>
 5   0  0.9978422E-05  0.1400281E+04  0.7818609E-02  0.8953615E-01
       -1   -1    0    0    0  501  0.00000000000E+00  0.00000000000E+00  0.55244026528E+03  0.55244026530E+03  0.50400001928E-02 0.  1.
        1   -1    0    0  501    0  0.00000000000E+00  0.00000000000E+00 -0.88733024863E+03  0.88733024864E+03  0.50400001928E-02 0. -1.
    10030    2    1    2    0    0  0.00000000000E+00  0.00000000000E+00 -0.33488998335E+03  0.14397705139E+04  0.14002813403E+04 0.  0.
        2    1    3    3  502    0  0.12363400205E+03  0.65926442155E+03 -0.37380881306E+03  0.76788539035E+03  0.25500000920E-02 0. -1.
       -2    1    3    3    0  502 -0.12363400205E+03 -0.65926442155E+03  0.38918829713E+02  0.67188512359E+03  0.25500000920E-02 0.  1.
</event>
<event>
 5   0  0.9828111E-05  0.1384113E+04  0.7818609E-02  0.8965400E-01
       -1   -1    0    0    0  501  0.00000000000E+00  0.00000000000E+00  0.49631834640E+03  0.49631834643E+03  0.50400001928E-02 0.  1.
        1   -1    0    0  501    0  0.00000000000E+00  0.00000000000E+00 -0.96498940155E+03  0.96498940156E+03  0.50400001928E-02 0. -1.
    10030    2    1    2    0    0  0.00000000000E+00  0.00000000000E+00 -0.46867105514E+03  0.14613077480E+04  0.13841126314E+04 0.  0.
        4    1    3    3  502    0 -0.81870507822E+02 -0.64013313145E+03  0.29538116516E+02  0.64602424046E+03  0.12699999809E+01 0.  1.
       -4    1    3    3    0  502  0.81870507822E+02  0.64013313145E+03 -0.49820917166E+03  0.81528350753E+03  0.12699999809E+01 0. -1.
</event>
<event>
 5   0  0.6671375E-05  0.1398243E+04  0.7818609E-02  0.8955092E-01
        1   -1    0    0  501    0  0.00000000000E+00  0.00000000000E+00  0.71290455675E+03  0.71290455677E+03  0.50400001928E-02 0.  1.
       -1   -1    0    0    0  501  0.00000000000E+00  0.00000000000E+00 -0.68560453082E+03  0.68560453084E+03  0.50400001928E-02 0. -1.
    10030    2    1    2    0    0  0.00000000000E+00  0.00000000000E+00  0.27300025926E+02  0.13985090876E+04  0.13982426029E+04 0.  0.
        5    1    3    3  502    0 -0.38330765360E+03  0.32958722511E+03 -0.46934574675E+03  0.68982607682E+03  0.46999998093E+01 0. -1.
       -5    1    3    3    0  502  0.38330765360E+03 -0.32958722511E+03  0.49664577268E+03  0.70868301079E+03  0.46999998093E+01 0.  1.
</event>
<event>
 5   0  0.1833681E-04  0.1397509E+04  0.7818609E-02  0.8955624E-01
        2   -1    0    0  501    0  0.00000000000E+00  0.00000000000E+00  0.10696127109E+04  0.10696127109E+04  0.25500000920E-02 0. -1.
       -2   -1    0    0    0  501  0.00000000000E+00  0.00000000000E+00 -0.45648097094E+03  0.45648097094E+03  0.25500000920E-02 0.  1.
    10030    2    1    2    0    0  0.00000000000E+00  0.00000000000E+00  0.61313174001E+03  0.15260936819E+04  0.13975089965E+04 0.  0.
        4    1    3    3  502    0  0.11770759955E+03 -0.42924150301E+03  0.89478620152E+03  0.99937345683E+03  0.12699999809E+01 0. -1.
       -4    1    3    3    0  502 -0.11770759955E+03  0.42924150301E+03 -0.28165446151E+03  0.52672022506E+03  0.12699999809E+01 0.  1.
</event>
<event>
 5   0  0.6671375E-05  0.1404508E+04  0.7818609E-02  0.8950562E-01
       -1   -1    0    0    0  501  0.00000000000E+00  0.00000000000E+00  0.32028421177E+03  0.32028421181E+03  0.50400001928E-02 0.  1.
        1   -1    0    0  501    0  0.00000000000E+00  0.00000000000E+00 -0.15397605954E+04  0.15397605954E+04  0.50400001928E-02 0. -1.
    10030    2    1    2    0    0  0.00000000000E+00  0.00000000000E+00 -0.12194763836E+04  0.18600448072E+04  0.14045084673E+04 0.  0.
        5    1    3    3  502    0 -0.35591963833E+03 -0.98366617498E+02  0.18130794457E+03  0.41139936940E+03  0.46999998093E+01 0.  1.
       -5    1    3    3    0  502  0.35591963833E+03  0.98366617498E+02 -0.14007843282E+04  0.14486454378E+04  0.46999998093E+01 0. -1.
</event>
<event>
 5   0  0.1794185E-04  0.1398834E+04  0.7818609E-02  0.8954663E-01
       -2   -1    0    0    0  501  0.00000000000E+00  0.00000000000E+00  0.68171508090E+03  0.68171508090E+03  0.25500000920E-02 0. -1.
        2   -1    0    0  501    0  0.00000000000E+00  0.00000000000E+00 -0.71757898714E+03  0.71757898714E+03  0.25500000920E-02 0.  1.
    10030    2    1    2    0    0  0.00000000000E+00  0.00000000000E+00 -0.35863906240E+02  0.13992940680E+04  0.13988343966E+04 0.  0.
        2    1    3    3  502    0 -0.68525223397E+03 -0.38234201347E+02  0.11684145202E+03  0.69619279172E+03  0.25500000920E-02 0.  1.
       -2    1    3    3    0  502  0.68525223397E+03  0.38234201347E+02 -0.15270535827E+03  0.70310127632E+03  0.25500000920E-02 0. -1.
</event>
<event>
 5   0  0.9978422E-05  0.1401646E+04  0.7818609E-02  0.8952628E-01
       -1   -1    0    0    0  501  0.00000000000E+00  0.00000000000E+00  0.25359671213E+03  0.25359671218E+03  0.50400001928E-02 0. -1.
        1   -1    0    0  501    0  0.00000000000E+00  0.00000000000E+00 -0.19367471947E+04  0.19367471947E+04  0.50400001928E-02 0.  1.
    10030    2    1    2    0    0  0.00000000000E+00  0.00000000000E+00 -0.16831504826E+04  0.21903439069E+04  0.14016457767E+04 0.  0.
        2    1    3    3  502    0 -0.25819786186E+03 -0.31606699922E+03 -0.17318835465E+04  0.17793215287E+04  0.25500000920E-02 0.  1.
       -2    1    3    3    0  502  0.25819786186E+03  0.31606699922E+03  0.48733063895E+02  0.41102237821E+03  0.25500000920E-02 0. -1.
</event>
<event>
 5   0  0.9260916E-05  0.1400463E+04  0.7818609E-02  0.8953484E-01
       -1   -1    0    0    0  501  0.00000000000E+00  0.00000000000E+00  0.12753521517E+04  0.12753521517E+04  0.50400001928E-02 0. -1.
        1   -1    0    0  501    0  0.00000000000E+00  0.00000000000E+00 -0.38446168912E+03  0.38446168916E+03  0.50400001928E-02 0.  1.
    10030    2    1    2    0    0  0.00000000000E+00  0.00000000000E+00  0.89089046254E+03  0.16598138408E+04  0.14004628413E+04 0.  0.
        1    1    3    3  502    0 -0.52019200501E+03 -0.44388023706E+03  0.26689945150E+03  0.73407404542E+03  0.50400001928E-02 0.  1.
       -1    1    3    3    0  502  0.52019200501E+03  0.44388023706E+03  0.62399101104E+03  0.92573979541E+03  0.50400001928E-02 0. -1.
</event>
<event>
 5   0  0.1794185E-04  0.1401952E+04  0.7818609E-02  0.8952407E-01
       -2   -1    0    0    0  501  0.00000000000E+00  0.00000000000E+00  0.10371325494E+04  0.10371325494E+04  0.25500000920E-02 0.  1.
        2   -1    0    0  501    0  0.00000000000E+00  0.00000000000E+00 -0.47377485359E+03  0.47377485360E+03  0.25500000920E-02 0. -1.
    10030    2    1    2    0    0  0.00000000000E+00  0.00000000000E+00  0.56335769582E+03  0.15109074030E+04  0.14019519560E+04 0.  0.
        2    1    3    3  502    0 -0.74364869119E+02 -0.66284139575E+03  0.49335287807E+02  0.66882196458E+03  0.25500000920E-02 0. -1.
       -2    1    3    3    0  502  0.74364869119E+02  0.66284139575E+03  0.51402240801E+03  0.84208543843E+03  0.25500000920E-02 0.  1.
</event>
<event>
 5   0  0.1712327E-04  0.1398939E+04  0.7818609E-02  0.8954587E-01
        2   -1    0    0  501    0  0.00000000000E+00  0.00000000000E+00  0.11347384925E+04  0.11347384925E+04  0.25500000920E-02 0. -1.
       -2   -1    0    0    0  501  0.00000000000E+00  0.00000000000E+00 -0.43116308256E+03  0.43116308257E+03  0.25500000920E-02 0.  1.
    10030    2    1    2    0    0  0.00000000000E+00  0.00000000000E+00  0.70357540998E+03  0.15659015751E+04  0.13989386639E+04 0.  0.
        1    1    3    3  502    0 -0.31482701137E+03 -0.42435064572E+03 -0.16124560163E+03  0.55243973579E+03  0.50400001928E-02 0.  1.
       -1    1    3    3    0  502  0.31482701137E+03  0.42435064572E+03  0.86482101161E+03  0.10134618393E+04  0.50400001928E-02 0. -1.
</event>
<event>
 5   0  0.6671375E-05  0.1399944E+04  0.7818609E-02  0.8953859E-01
        3   -1    0    0  501    0  0.00000000000E+00  0.00000000000E+00  0.10014878996E+04  0.10014879047E+04  0.10100000352E+00 0.  1.
       -3   -1    0    0    0  501  0.00000000000E+00  0.00000000000E+00 -0.48923283048E+03  0.48923284090E+03  0.10100000352E+00 0. -1.
    10030    2    1    2    0    0  0.00000000000E+00  0.00000000000E+00  0.51225506913E+03  0.14907207456E+04  0.13999439580E+04 0.  0.
        5    1    3    3  502    0  0.55168787538E+03 -0.43077676124E+03  0.25958647653E+03  0.74654896601E+03  0.46999998093E+01 0.  1.
       -5    1    3    3    0  502 -0.55168787538E+03  0.43077676124E+03  0.25266859261E+03  0.74417177960E+03  0.46999998093E+01 0. -1.
</event>
<event>
 5   0  0.9978422E-05  0.1417511E+04  0.7818609E-02  0.8941240E-01
        1   -1    0    0  501    0  0.00000000000E+00  0.00000000000E+00  0.72342249020E+03  0.72342249022E+03  0.50400001928E-02 0. -1.
       -1   -1    0    0    0  501  0.00000000000E+00  0.00000000000E+00 -0.69438600738E+03  0.69438600740E+03  0.50400001928E-02 0.  1.
    10030    2    1    2    0    0  0.00000000000E+00  0.00000000000E+00  0.29036482819E+02  0.14178084976E+04  0.14175111353E+04 0.  0.
        2    1    3    3  502    0 -0.38824577132E+03 -0.57978782068E+03 -0.10978879668E+03  0.70635846129E+03  0.25500000920E-02 0.  1.
       -2    1    3    3    0  502  0.38824577132E+03  0.57978782068E+03  0.13882527950E+03  0.71145003633E+03  0.25500000920E-02 0. -1.
</event>
<event>
 5   0  0.9260916E-05  0.1401773E+04  0.7818609E-02  0.8952536E-01
        1   -1    0    0  501    0  0.00000000000E+00  0.00000000000E+00  0.88214584774E+03  0.88214584775E+03  0.50400001928E-02 0.  1.
       -1   -1    0    0    0  501  0.00000000000E+00  0.00000000000E+00 -0.55687184197E+03  0.55687184200E+03  0.50400001928E-02 0. -1.
    10030    2    1    2    0    0  0.00000000000E+00  0.00000000000E+00  0.32527400576E+03  0.14390176897E+04  0.14017734241E+04 0.  0.
        1    1    3    3  502    0 -0.43519024829E+03  0.18378073538E+03 -0.36888041202E+03  0.59936522196E+03  0.50400001928E-02 0. -1.
       -1    1    3    3    0  502  0.43519024829E+03 -0.18378073538E+03  0.69415441778E+03  0.83965246778E+03  0.50400001928E-02 0.  1.
</event>
<event>
 5   0  0.9828111E-05  0.1400237E+04  0.7818609E-02  0.8953647E-01
       -1   -1    0    0    0  501  0.00000000000E+00  0.00000000000E+00  0.60343611673E+03  0.60343611675E+03  0.50400001928E-02 0. -1.
        1   -1    0    0  501    0  0.00000000000E+00  0.00000000000E+00 -0.81229086695E+03  0.81229086696E+03  0.50400001928E-02 0.  1.
    10030    2    1    2    0    0  0.00000000000E+00  0.00000000000E+00 -0.20885475022E+03  0.14157269837E+04  0.14002366178E+04 0.  0.
        4    1    3    3  502    0 -0.48297612203E+03  0.43160569523E+03  0.16424647647E+03  0.66822745270E+03  0.12699999809E+01 0. -1.
       -4    1    3    3    0  502  0.48297612203E+03 -0.43160569523E+03 -0.37310122669E+03  0.74749953101E+03  0.12699999809E+01 0.  1.
</event>
<event>
 5   0  0.1833681E-04  0.1414262E+04  0.7818609E-02  0.8943559E-01
       -2   -1    0    0    0  501  0.00000000000E+00  0.00000000000E+00  0.35366955067E+03  0.35366955068E+03  0.25500000920E-02 0.  1.
        2   -1    0    0  501    0  0.00000000000E+00  0.00000000000E+00 -0.14138457606E+04  0.14138457606E+04  0.25500000920E-02 0. -1.
    10030    2    1    2    0    0  0.00000000000E+00  0.00000000000E+00 -0.10601762099E+04  0.17675153112E+04  0.14142619204E+04 0.  0.
        4    1    3    3  502    0  0.67151121709E+03 -0.21987039252E+03 -0.56459373540E+03  0.90445453348E+03  0.12699999809E+01 0. -1.
       -4    1    3    3    0  502 -0.67151121709E+03  0.21987039252E+03 -0.49558247449E+03  0.86306077776E+03  0.12699999809E+01 0.  1.
</event>
<event>
 5   0  0.9900839E-05  0.1398964E+04  0.7818609E-02  0.8954569E-01
        1   -1    0    0  501    0  0.00000000000E+00  0.00000000000E+00  0.70678806320E+03  0.70678806321E+03  0.50400001928E-02 0.  1.
       -1   -1    0    0    0  501  0.00000000000E+00  0.00000000000E+00 -0.69225116759E+03  0.69225116761E+03  0.50400001928E-02 0. -1.
    10030    2    1    2    0    0  0.00000000000E+00  0.00000000000E+00  0.14536895607E+02  0.13990392308E+04  0.13989637051E+04 0.  0.
        3    1    3    3  502    0  0.25348826237E+03 -0.31780098679E+03 -0.56199078331E+03  0.69360465475E+03  0.10100000352E+00 0. -1.
       -3    1    3    3    0  502 -0.25348826237E+03  0.31780098679E+03  0.57652767892E+03  0.70543457607E+03  0.10100000352E+00 0.  1.
</event>
<event>
 5   0  0.9260916E-05  0.1399297E+04  0.7818609E-02  0.8954327E-01
       -1   -1    0    0    0  501  0.00000000000E+00  0.00000000000E+00  0.96465712023E+03  0.96465712025E+03  0.50400001928E-02 0.  1.
        1   -1    0    0  501    0  0.00000000000E+00  0.00000000000E+00 -0.50744257701E+03  0.50744257704E+03  0.50400001928E-02 0. -1.
    10030    2    1    2    0    0  0.00000000000E+00  0.00000000000E+00  0.45721454322E+03  0.14720996973E+04  0.13992971022E+04 0.  0.
        1    1    3    3  502    0  0.31125293120E+03 -0.21074431587E+03 -0.39219312731E+03  0.54323751986E+03  0.50400001928E-02 0. -1.
       -1    1    3    3    0  502 -0.31125293120E+03  0.21074431587E+03  0.84940767053E+03  0.92886217742E+03  0.50400001928E-02 0.  1.
</event>
<event>
 5   0  0.9260916E-05  0.1399007E+04  0.7818609E-02  0.8954537E-01
        1   -1    0    0  501    0  0.00000000000E+00  0.00000000000E+00  0.14175902393E+04  0.14175902393E+04  0.50400001928E-02 0. -1.
       -1   -1    0    0    0  501  0.00000000000E+00  0.00000000000E+00 -0.34516707946E+03  0.34516707949E+03  0.50400001928E-02 0.  1.
    10030    2    1    2    0    0  0.00000000000E+00  0.00000000000E+00  0.10724231598E+04  0.17627573188E+04  0.13990074808E+04 0.  0.
        1    1    3    3  502    0 -0.59847151890E+02 -0.66724407796E+03  0.78981144026E+03  0.10356632910E+04  0.50400001928E-02 0. -1.
       -1    1    3    3    0  502  0.59847151890E+02  0.66724407796E+03  0.28261171957E+03  0.72709402777E+03  0.50400001928E-02 0.  1.
</event>
<event>
 5   0  0.1833681E-04  0.1398990E+04  0.7818609E-02  0.8954550E-01
        2   -1    0    0  501    0  0.00000000000E+00  0.00000000000E+00  0.21167426112E+04  0.21167426112E+04  0.25500000920E-02 0. -1.
       -2   -1    0    0    0  501  0.00000000000E+00  0.00000000000E+00 -0.23115396103E+03  0.23115396104E+03  0.25500000920E-02 0.  1.
    10030    2    1    2    0    0  0.00000000000E+00  0.00000000000E+00  0.18855886501E+04  0.23478965722E+04  0.13989902631E+04 0.  0.
        4    1    3    3  502    0  0.15403573331E+03 -0.68193285136E+03  0.98151879145E+03  0.12050477882E+04  0.12699999809E+01 0. -1.
       -4    1    3    3    0  502 -0.15403573331E+03  0.68193285136E+03  0.90406985870E+03  0.11428487840E+04  0.12699999809E+01 0.  1.
</event>
<event>
 5   0  0.1766237E-04  0.1412242E+04  0.7818609E-02  0.8945004E-01
        2   -1    0    0  501    0  0.00000000000E+00  0.00000000000E+00  0.20582515070E+04  0.20582515070E+04  0.25500000920E-02 0.  1.
       -2   -1    0    0    0  501  0.00000000000E+00  0.00000000000E+00 -0.24224784392E+03  0.24224784394E+03  0.25500000920E-02 0. -1.
    10030    2    1    2    0    0  0.00000000000E+00  0.00000000000E+00  0.18160036630E+04  0.23004993509E+04  0.14122421745E+04 0.  0.
        3    1    3    3  502    0  0.57231666087E+03 -0.33095505726E+03  0.13120695637E+04  0.14692188947E+04  0.10100000352E+00 0.  1.
       -3    1    3    3    0  502 -0.57231666087E+03  0.33095505726E+03  0.50393409930E+03  0.83128045621E+03  0.10100000352E+00 0. -1.
</event>
<event>
 5   0  0.6671375E-05  0.1393081E+04  0.7818609E-02  0.8958842E-01
        3   -1    0    0  501    0  0.00000000000E+00  0.00000000000E+00  0.54987810481E+03  0.54987811408E+03  0.10100000352E+00 0.  1.
       -3   -1    0    0    0  501  0.00000000000E+00  0.00000000000E+00 -0.88232046056E+03  0.88232046634E+03  0.10100000352E+00 0. -1.
    10030    2    1    2    0    0  0.00000000000E+00  0.00000000000E+00 -0.33244235575E+03  0.14321985804E+04  0.13930810651E+04 0.  0.
        2    1    3    3  502    0  0.15101889693E+03 -0.28799981482E+03  0.46704439643E+03  0.56910549884E+03  0.25500000920E-02 0.  1.
       -2    1    3    3    0  502 -0.15101889693E+03  0.28799981482E+03 -0.79948675217E+03  0.86309308158E+03  0.25500000920E-02 0. -1.
</event>
<event>
 5   0  0.1780171E-04  0.1399354E+04  0.7818609E-02  0.8954286E-01
       -2   -1    0    0    0  501  0.00000000000E+00  0.00000000000E+00  0.43679148973E+03  0.43679148973E+03  0.25500000920E-02 0.  1.
        2   -1    0    0  501    0  0.00000000000E+00  0.00000000000E+00 -0.11207814534E+04  0.11207814534E+04  0.25500000920E-02 0. -1.
    10030    2    1    2    0    0  0.00000000000E+00  0.00000000000E+00 -0.68398996367E+03  0.15575729431E+04  0.13993538519E+04 0.  0.
        5    1    3    3  502    0  0.20515286949E+02  0.42305704326E+03  0.27786134191E+03  0.50658380765E+03  0.46999998093E+01 0.  1.
       -5    1    3    3    0  502 -0.20515286949E+02 -0.42305704326E+03 -0.96185130559E+03  0.10509891355E+04  0.46999998093E+01 0. -1.
</event>
<event>
 5   0  0.1766237E-04  0.1400488E+04  0.7818609E-02  0.8953465E-01
        2   -1    0    0  501    0  0.00000000000E+00  0.00000000000E+00  0.67820299261E+03  0.67820299262E+03  0.25500000920E-02 0. -1.
       -2   -1    0    0    0  501  0.00000000000E+00  0.00000000000E+00 -0.72300161589E+03  0.72300161589E+03  0.25500000920E-02 0.  1.
    10030    2    1    2    0    0  0.00000000000E+00  0.00000000000E+00 -0.44798623276E+02  0.14012046085E+04  0.14004882857E+04 0.  0.
        3    1    3    3  502    0  0.66309178542E+03 -0.14542117471E+03 -0.19425391414E+03  0.70609675492E+03  0.10100000352E+00 0. -1.
       -3    1    3    3    0  502 -0.66309178542E+03  0.14542117471E+03  0.14945529086E+03  0.69510785359E+03  0.10100000352E+00 0.  1.
</event>
<event>
 5   0  0.6671375E-05  0.1400906E+04  0.7818609E-02  0.8953163E-01
       -1   -1    0    0    0  501  0.00000000000E+00  0.00000000000E+00  0.27204987115E+03  0.27204987120E+03  0.50400001928E-02 0. -1.
        1   -1    0    0  501    0  0.00000000000E+00  0.00000000000E+00 -0.18034711617E+04  0.18034711617E+04  0.50400001928E-02 0.  1.
    10030    2    1    2    0    0  0.00000000000E+00  0.00000000000E+00 -0.15314212906E+04  0.20755210329E+04  0.14009055603E+04 0.  0.
        5    1    3    3  502    0  0.18985032526E+03 -0.66832583756E+03 -0.63394838387E+03  0.94053985272E+03  0.46999998093E+01 0. -1.
       -5    1    3    3    0  502 -0.18985032526E+03  0.66832583756E+03 -0.89747290669E+03  0.11349811802E+04  0.46999998093E+01 0.  1.
</event>
<event>
 5   0  0.1780171E-04  0.1399674E+04  0.7818609E-02  0.8954054E-01
       -2   -1    0    0    0  501  0.00000000000E+00  0.00000000000E+00  0.54346651182E+03  0.54346651183E+03  0.25500000920E-02 0.  1.
        2   -1    0    0  501    0  0.00000000000E+00  0.00000000000E+00 -0.90120018888E+03  0.90120018889E+03  0.25500000920E-02 0. -1.
    10030    2    1    2    0    0  0.00000000000E+00  0.00000000000E+00 -0.35773367706E+03  0.14446667007E+04  0.13996744237E+04 0.  0.
        5    1    3    3  502    0 -0.52837093692E+02 -0.56990794419E+03  0.23677264999E+03  0.61941117289E+03  0.46999998093E+01 0.  1.
       -5    1    3    3    0  502  0.52837093692E+02  0.56990794419E+03 -0.59450632705E+03  0.82525552783E+03  0.46999998093E+01 0. -1.
</event>
<event>
 5   0  0.1794185E-04  0.1403076E+04  0.7818609E-02  0.8951595E-01
        2   -1    0    0  501    0  0.00000000000E+00  0.00000000000E+00  0.80507438575E+03  0.80507438576E+03  0.25500000920E-02 0.  1.
       -2   -1    0    0    0  501  0.00000000000E+00  0.00000000000E+00 -0.61131722937E+03  0.61131722938E+03  0.25500000920E-02 0. -1.
    10030    2    1    2    0    0  0.00000000000E+00  0.00000000000E+00  0.19375715638E+03  0.14163916151E+04  0.14030763956E+04 0.  0.
        2    1    3    3  502    0 -0.14253482949E+03  0.59676087184E+03 -0.24652038038E+03  0.66122009477E+03  0.25500000920E-02 0. -1.
       -2    1    3    3    0  502  0.14253482949E+03 -0.59676087184E+03  0.44027753676E+03  0.75517152036E+03  0.25500000920E-02 0.  1.
</event>
<event>
 5   0  0.1780171E-04  0.1396245E+04  0.7818609E-02  0.8956541E-01
        2   -1    0    0  501    0  0.00000000000E+00  0.00000000000E+00  0.17671002824E+04  0.17671002824E+04  0.25500000920E-02 0. -1.
       -2   -1    0    0    0  501  0.00000000000E+00  0.00000000000E+00 -0.27580514114E+03  0.27580514115E+03  0.25500000920E-02 0.  1.
    10030    2    1    2    0    0  0.00000000000E+00  0.00000000000E+00  0.14912951412E+04  0.20429054235E+04  0.13962454552E+04 0.  0.
        5    1    3    3  502    0 -0.47457618755E+03 -0.79337528688E+02  0.14857085916E+04  0.15616879043E+04  0.46999998093E+01 0. -1.
       -5    1    3    3    0  502  0.47457618755E+03  0.79337528688E+02  0.55865495978E+01  0.48121751920E+03  0.46999998093E+01 0.  1.
</event>
<event>
 5   0  0.9260916E-05  0.1398256E+04  0.7818609E-02  0.8955082E-01
       -1   -1    0    0    0  501  0.00000000000E+00  0.00000000000E+00  0.38761632519E+03  0.38761632523E+03  0.50400001928E-02 0. -1.
        1   -1    0    0  501    0  0.00000000000E+00  0.00000000000E+00 -0.12609889714E+04  0.12609889714E+04  0.50400001928E-02 0.  1.
    10030    2    1    2    0    0  0.00000000000E+00  0.00000000000E+00 -0.87337264622E+03  0.16486052966E+04  0.13982559297E+04 0.  0.
        1    1    3    3  502    0  0.50539502998E+03 -0.22165978852E+03 -0.94274585332E+03  0.10923950486E+04  0.50400001928E-02 0.  1.
       -1    1    3    3    0  502 -0.50539502998E+03  0.22165978852E+03  0.69373207104E+02  0.55621024807E+03  0.50400001928E-02 0. -1.
</event>
<event>
 5   0  0.6671375E-05  0.1398862E+04  0.7818609E-02  0.8954643E-01
       -3   -1    0    0    0  501  0.00000000000E+00  0.00000000000E+00  0.72265821462E+03  0.72265822168E+03  0.10100000352E+00 0.  1.
        3   -1    0    0  501    0  0.00000000000E+00  0.00000000000E+00 -0.67695030481E+03  0.67695031234E+03  0.10100000352E+00 0. -1.
    10030    2    1    2    0    0  0.00000000000E+00  0.00000000000E+00  0.45707909817E+02  0.13996085340E+04  0.13988619787E+04 0.  0.
        1    1    3    3  502    0  0.29285482773E+03  0.40678372987E+03  0.51093266109E+03  0.71574376505E+03  0.50400001928E-02 0.  1.
       -1    1    3    3    0  502 -0.29285482773E+03 -0.40678372987E+03 -0.46522475128E+03  0.68386476897E+03  0.50400001928E-02 0. -1.
</event>
<event>
 5   0  0.1794185E-04  0.1400021E+04  0.7818609E-02  0.8953803E-01
        2   -1    0    0  501    0  0.00000000000E+00  0.00000000000E+00  0.52655816850E+03  0.52655816851E+03  0.25500000920E-02 0.  1.
       -2   -1    0    0    0  501  0.00000000000E+00  0.00000000000E+00 -0.93059920475E+03  0.93059920475E+03  0.25500000920E-02 0. -1.
    10030    2    1    2    0    0  0.00000000000E+00  0.00000000000E+00 -0.40404103624E+03  0.14571573733E+04  0.14000208754E+04 0.  0.
        2    1    3    3  502    0 -0.35271567770E+03 -0.45764027130E+03 -0.61333409022E+03  0.84262783804E+03  0.25500000920E-02 0. -1.
       -2    1    3    3    0  502  0.35271567770E+03  0.45764027130E+03  0.20929305398E+03  0.61452953522E+03  0.25500000920E-02 0.  1.
</event>
<event>
 5   0  0.6671375E-05  0.1397908E+04  0.7818609E-02  0.8955334E-01
       -1   -1    0    0    0  501  0.00000000000E+00  0.00000000000E+00  0.68900588278E+03  0.68900588280E+03  0.50400001928E-02 0. -1.
        1   -1    0    0  501    0  0.00000000000E+00  0.00000000000E+00 -0.70904599995E+03  0.70904599997E+03  0.50400001928E-02 0.  1.
    10030    2    1    2    0    0  0.00000000000E+00  0.00000000000E+00 -0.20040117172E+02  0.13980518828E+04  0.13979082447E+04 0.  0.
        5    1    3    3  502    0 -0.34905969590E+03  0.54317246429E+03 -0.27769616904E+03  0.70286289528E+03  0.46999998093E+01 0.  1.
       -5    1    3    3    0  502  0.34905969590E+03 -0.54317246429E+03  0.25765605187E+03  0.69518898749E+03  0.46999998093E+01 0. -1.
</event>
<event>
 5   0  0.9900839E-05  0.1401582E+04  0.7818609E-02  0.8952675E-01
        1   -1    0    0  501    0  0.00000000000E+00  0.00000000000E+00  0.80595743704E+03  0.80595743706E+03  0.50400001928E-02 0. -1.
       -1   -1    0    0    0  501  0.00000000000E+00  0.00000000000E+00 -0.60934696806E+03  0.60934696808E+03  0.50400001928E-02 0.  1.
    10030    2    1    2    0    0  0.00000000000E+00  0.00000000000E+00  0.19661046898E+03  0.14153044051E+04  0.14015815648E+04 0.  0.
        3    1    3    3  502    0 -0.28195032695E+03  0.58402908630E+02 -0.54685623191E+03  0.61802802136E+03  0.10100000352E+00 0.  1.
       -3    1    3    3    0  502  0.28195032695E+03 -0.58402908630E+02  0.74346670089E+03  0.79727638378E+03  0.10100000352E+00 0. -1.
</event>
<event>
 5   0  0.1833681E-04  0.1424840E+04  0.7818609E-02  0.8936032E-01
       -2   -1    0    0    0  501  0.00000000000E+00  0.00000000000E+00  0.26659502626E+03  0.26659502627E+03  0.25500000920E-02 0. -1.
        2   -1    0    0  501    0  0.00000000000E+00  0.00000000000E+00 -0.19037955294E+04  0.19037955294E+04  0.25500000920E-02 0.  1.
    10030    2    1    2    0    0  0.00000000000E+00  0.00000000000E+00 -0.16372005031E+04  0.21703905557E+04  0.14248402285E+04 0.  0.
        4    1    3    3  502    0  0.13608355982E+03 -0.36190093666E+03  0.92871954499E+02  0.39764033503E+03  0.12699999809E+01 0. -1.
       -4    1    3    3    0  502 -0.13608355982E+03  0.36190093666E+03 -0.17300724576E+04  0.17727502206E+04  0.12699999809E+01 0.  1.
</event>
<event>
 5   0  0.9900839E-05  0.1407375E+04  0.7818609E-02  0.8948498E-01
        1   -1    0    0  501    0  0.00000000000E+00  0.00000000000E+00  0.16293571873E+04  0.16293571873E+04  0.50400001928E-02 0. -1.
       -1   -1    0    0    0  501  0.00000000000E+00  0.00000000000E+00 -0.30390871355E+03  0.30390871359E+03  0.50400001928E-02 0.  1.
    10030    2    1    2    0    0  0.00000000000E+00  0.00000000000E+00  0.13254484738E+04  0.19332659009E+04  0.14073746435E+04 0.  0.
        3    1    3    3  502    0 -0.42412009401E+03  0.47133542425E+03  0.24349449623E+03  0.67920874273E+03  0.10100000352E+00 0.  1.
       -3    1    3    3    0  502  0.42412009401E+03 -0.47133542425E+03  0.10819539776E+04  0.12540571582E+04  0.10100000352E+00 0. -1.
</event>
<event>
 5   0  0.9828111E-05  0.1400188E+04  0.7818609E-02  0.8953682E-01
        1   -1    0    0  501    0  0.00000000000E+00  0.00000000000E+00  0.58480487046E+03  0.58480487048E+03  0.50400001928E-02 0.  1.
       -1   -1    0    0    0  501  0.00000000000E+00  0.00000000000E+00 -0.83811135512E+03  0.83811135513E+03  0.50400001928E-02 0. -1.
    10030    2    1    2    0    0  0.00000000000E+00  0.00000000000E+00 -0.25330648466E+03  0.14229162256E+04  0.14001879909E+04 0.  0.
        4    1    3    3  502    0  0.15399682200E+01 -0.51216495784E+03  0.35839376617E+03  0.62511040631E+03  0.12699999809E+01 0.  1.
       -4    1    3    3    0  502 -0.15399682200E+01  0.51216495784E+03 -0.61170025084E+03  0.79780581930E+03  0.12699999809E+01 0. -1.
</event>
<event>
 5   0  0.9900839E-05  0.1392362E+04  0.7818609E-02  0.8959366E-01
        1   -1    0    0  501    0  0.00000000000E+00  0.00000000000E+00  0.86293486821E+03  0.86293486823E+03  0.50400001928E-02 0. -1.
       -1   -1    0    0    0  501  0.00000000000E+00  0.00000000000E+00 -0.56165051783E+03  0.56165051785E+03  0.50400001928E-02 0.  1.
    10030    2    1    2    0    0  0.00000000000E+00  0.00000000000E+00  0.30128435039E+03  0.14245853861E+04  0.13923617570E+04 0.  0.
        3    1    3    3  502    0  0.25096252823E+03 -0.52767513637E+03 -0.23659360195E+03  0.63039652823E+03  0.10100000352E+00 0.  1.
       -3    1    3    3    0  502 -0.25096252823E+03  0.52767513637E+03  0.53787795234E+03  0.79418885785E+03  0.10100000352E+00 0. -1.
</event>
<event>
 5   0  0.1780171E-04  0.1404170E+04  0.7818609E-02  0.8950806E-01
        2   -1    0    0  501    0  0.00000000000E+00  0.00000000000E+00  0.32515402947E+03  0.32515402948E+03  0.25500000920E-02 0. -1.
       -2   -1    0    0    0  501  0.00000000000E+00  0.00000000000E+00 -0.15159683813E+04  0.15159683813E+04  0.25500000920E-02 0.  1.
    10030    2    1    2    0    0  0.00000000000E+00  0.00000000000E+00 -0.11908143518E+04  0.18411224108E+04  0.14041698298E+04 0.  0.
        5    1    3    3  502    0  0.48574985219E+03 -0.25875231209E+03 -0.11669313944E+04  0.12902157367E+04  0.46999998093E+01 0. -1.
       -5    1    3    3    0  502 -0.48574985219E+03  0.25875231209E+03 -0.23882957424E+02  0.55090667410E+03  0.46999998093E+01 0.  1.
</event>
<event>
 5   0  0.9828111E-05  0.1401315E+04  0.7818609E-02  0.8952867E-01
        1   -1    0    0  501    0  0.00000000000E+00  0.00000000000E+00  0.17523101380E+04  0.17523101380E+04  0.50400001928E-02 0.  1.
       -1   -1    0    0    0  501  0.00000000000E+00  0.00000000000E+00 -0.28015651874E+03  0.28015651878E+03  0.50400001928E-02 0. -1.
    10030    2    1    2    0    0  0.00000000000E+00  0.00000000000E+00  0.14721536192E+04  0.20324666568E+04  0.14013152508E+04 0.  0.
        4    1    3    3  502    0 -0.14771497327E+03  0.67693025974E+03  0.58489255996E+03  0.90672774827E+03  0.12699999809E+01 0.  1.
       -4    1    3    3    0  502  0.14771497327E+03 -0.67693025974E+03  0.88726105927E+03  0.11257389085E+04  0.12699999809E+01 0. -1.
</event>
<event>
 5   0  0.6671375E-05  0.1399391E+04  0.7818609E-02  0.8954259E-01
       -1   -1    0    0    0  501  0.00000000000E+00  0.00000000000E+00  0.39296251874E+03  0.39296251877E+03  0.50400001928E-02 0. -1.
        1   -1    0    0  501    0  0.00000000000E+00  0.00000000000E+00 -0.12458537499E+04  0.12458537499E+04  0.50400001928E-02 0.  1.
    10030    2    1    2    0    0  0.00000000000E+00  0.00000000000E+00 -0.85289123114E+03  0.16388162687E+04  0.13993910498E+04 0.  0.
        5    1    3    3  502    0  0.24948936399E+03 -0.27240006309E+03  0.26944841091E+03  0.45724312270E+03  0.46999998093E+01 0. -1.
       -5    1    3    3    0  502 -0.24948936399E+03  0.27240006309E+03 -0.11223396421E+04  0.11815731460E+04  0.46999998093E+01 0.  1.
</event>
<event>
 5   0  0.1780171E-04  0.1384232E+04  0.7818609E-02  0.8965312E-01
        2   -1    0    0  501    0  0.00000000000E+00  0.00000000000E+00  0.10049420129E+04  0.10049420129E+04  0.25500000920E-02 0.  1.
       -2   -1    0    0    0  501  0.00000000000E+00  0.00000000000E+00 -0.47666851395E+03  0.47666851396E+03  0.25500000920E-02 0. -1.
    10030    2    1    2    0    0  0.00000000000E+00  0.00000000000E+00  0.52827349896E+03  0.14816105269E+04  0.13842315065E+04 0.  0.
        5    1    3    3  502    0  0.17347818584E+03 -0.11516232515E+03 -0.44233001229E+03  0.48891202876E+03  0.46999998093E+01 0. -1.
       -5    1    3    3    0  502 -0.17347818584E+03  0.11516232515E+03  0.97060351125E+03  0.99269849811E+03  0.46999998093E+01 0.  1.
</event>
<event>
 5   0  0.6671375E-05  0.1398439E+04  0.7818609E-02  0.8954949E-01
       -1   -1    0    0    0  501  0.00000000000E+00  0.00000000000E+00  0.37863745201E+03  0.37863745204E+03  0.50400001928E-02 0.  1.
        1   -1    0    0  501    0  0.00000000000E+00  0.00000000000E+00 -0.12912295680E+04  0.12912295680E+04  0.50400001928E-02 0. -1.
    10030    2    1    2    0    0  0.00000000000E+00  0.00000000000E+00 -0.91259211600E+03  0.16698670201E+04  0.13984389492E+04 0.  0.
        5    1    3    3  502    0  0.51927917057E+03  0.16667319189E+03 -0.97877850255E+03  0.11204732290E+04  0.46999998093E+01 0. -1.
       -5    1    3    3    0  502 -0.51927917057E+03 -0.16667319189E+03  0.66186386544E+02  0.54939379105E+03  0.46999998093E+01 0.  1.
</event>
<event>
 5   0  0.1833681E-04  0.1398056E+04  0.7818609E-02  0.8955227E-01
       -2   -1    0    0    0  501  0.00000000000E+00  0.00000000000E+00  0.34081613634E+03  0.34081613635E+03  0.25500000920E-02 0.  1.
        2   -1    0    0  501    0  0.00000000000E+00  0.00000000000E+00 -0.14337362556E+04  0.14337362556E+04  0.25500000920E-02 0. -1.
    10030    2    1    2    0    0  0.00000000000E+00  0.00000000000E+00 -0.10929201193E+04  0.17745523919E+04  0.13980564383E+04 0.  0.
        4    1    3    3  502    0 -0.27762025415E+03 -0.85925434437E+02  0.26050170399E+03  0.39028058686E+03  0.12699999809E+01 0.  1.
       -4    1    3    3    0  502  0.27762025415E+03  0.85925434437E+02 -0.13534218233E+04  0.13842718051E+04  0.12699999809E+01 0. -1.
</event>
<event>
 5   0  0.9828111E-05  0.1402216E+04  0.7818609E-02  0.8952216E-01
       -1   -1    0    0    0  501  0.00000000000E+00  0.00000000000E+00  0.59566740506E+03  0.59566740509E+03  0.50400001928E-02 0. -1.
        1   -1    0    0  501    0  0.00000000000E+00  0.00000000000E+00 -0.82521340306E+03  0.82521340308E+03  0.50400001928E-02 0.  1.
    10030    2    1    2    0    0  0.00000000000E+00  0.00000000000E+00 -0.22954599800E+03  0.14208808082E+04  0.14022164262E+04 0.  0.
        4    1    3    3  502    0  0.42718095721E+03  0.21709009981E+03 -0.63338556868E+03  0.79422325145E+03  0.12699999809E+01 0.  1.
       -4    1    3    3    0  502 -0.42718095721E+03 -0.21709009981E+03  0.40383957068E+03  0.62665755671E+03  0.12699999809E+01 0. -1.
</event>
<event>
 5   0  0.9978422E-05  0.1406448E+04  0.7818609E-02  0.8949164E-01
       -1   -1    0    0    0  501  0.00000000000E+00  0.00000000000E+00  0.82879121839E+03  0.82879121841E+03  0.50400001928E-02 0. -1.
        1   -1    0    0  501    0  0.00000000000E+00  0.00000000000E+00 -0.59668086574E+03  0.59668086576E+03  0.50400001928E-02 0.  1.
    10030    2    1    2    0    0  0.00000000000E+00  0.00000000000E+00  0.23211035265E+03  0.14254720842E+04  0.14064478117E+04 0.  0.
        2    1    3    3  502    0  0.50878158365E+03 -0.46939774452E+03 -0.94377347577E+01  0.69230196683E+03  0.25500000920E-02 0.  1.
       -2    1    3    3    0  502 -0.50878158365E+03  0.46939774452E+03  0.24154808741E+03  0.73317011734E+03  0.25500000920E-02 0. -1.
</event>
<event>
 5   0  0.9900839E-05  0.1402228E+04  0.7818609E-02  0.8952207E-01
       -1   -1    0    0    0  501  0.00000000000E+00  0.00000000000E+00  0.94881699360E+03  0.94881699362E+03  0.50400001928E-02 0.  1.
        1   -1    0    0  501    0  0.00000000000E+00  0.00000000000E+00 -0.51807789908E+03  0.51807789910E+03  0.50400001928E-02 0. -1.
    10030    2    1    2    0    0  0.00000000000E+00  0.00000000000E+00  0.43073909452E+03  0.14668948927E+04  0.14022283904E+04 0.  0.
        3    1    3    3  502    0  0.86145785947E+02  0.67858701084E+03  0.54458951001E+02  0.68619765029E+03  0.10100000352E+00 0. -1.
       -3    1    3    3    0  502 -0.86145785947E+02 -0.67858701084E+03  0.37628014352E+03  0.78069724243E+03  0.10100000352E+00 0.  1.
</event>
<event>
 5   0  0.1766237E-04  0.1399354E+04  0.7818609E-02  0.8954286E-01
       -2   -1    0    0    0  501  0.00000000000E+00  0.00000000000E+00  0.51206939048E+03  0.51206939048E+03  0.25500000920E-02 0. -1.
        2   -1    0    0  501    0  0.00000000000E+00  0.00000000000E+00 -0.95601847577E+03  0.95601847577E+03  0.25500000920E-02 0.  1.
    10030    2    1    2    0    0  0.00000000000E+00  0.00000000000E+00 -0.44394908529E+03  0.14680878663E+04  0.13993538483E+04 0.  0.
        3    1    3    3  502    0 -0.49840336465E+03  0.49012884888E+03 -0.19022964181E+03  0.72444428994E+03  0.10100000352E+00 0.  1.
       -3    1    3    3    0  502  0.49840336465E+03 -0.49012884888E+03 -0.25371944348E+03  0.74364357632E+03  0.10100000352E+00 0. -1.
</event>
<event>
 5   0  0.9978422E-05  0.1389959E+04  0.7818609E-02  0.8961119E-01
        1   -1    0    0  501    0  0.00000000000E+00  0.00000000000E+00  0.28381312185E+04  0.28381312185E+04  0.50400001928E-02 0.  1.
       -1   -1    0    0    0  501  0.00000000000E+00  0.00000000000E+00 -0.17018107831E+03  0.17018107839E+03  0.50400001928E-02 0. -1.
    10030    2    1    2    0    0  0.00000000000E+00  0.00000000000E+00  0.26679501401E+04  0.30083122968E+04  0.13899586055E+04 0.  0.
        2    1    3    3  502    0 -0.30444226371E+03  0.59999183629E+03  0.17108457508E+04  0.18383874669E+04  0.25500000920E-02 0. -1.
       -2    1    3    3    0  502  0.30444226371E+03 -0.59999183629E+03  0.95710438933E+03  0.11699248299E+04  0.25500000920E-02 0.  1.
</event>
<event>
 5   0  0.6671375E-05  0.1393798E+04  0.7818609E-02  0.8958320E-01
        1   -1    0    0  501    0  0.00000000000E+00  0.00000000000E+00  0.68174621363E+03  0.68174621364E+03  0.50400001928E-02 0.  1.
       -1   -1    0    0    0  501  0.00000000000E+00  0.00000000000E+00 -0.71238881322E+03  0.71238881324E+03  0.50400001928E-02 0. -1.
    10030    2    1    2    0    0  0.00000000000E+00  0.00000000000E+00 -0.30642599595E+02  0.13941350269E+04  0.13937982294E+04 0.  0.
        5    1    3    3  502    0 -0.21746521822E+03  0.18308295100E+03  0.62109952852E+03  0.68307920654E+03  0.46999998093E+01 0.  1.
       -5    1    3    3    0  502  0.21746521822E+03 -0.18308295100E+03 -0.65174212811E+03  0.71105582034E+03  0.46999998093E+01 0. -1.
</event>
<event>
 5   0  0.9978422E-05  0.1399821E+04  0.7818609E-02  0.8953948E-01
        1   -1    0    0  501    0  0.00000000000E+00  0.00000000000E+00  0.80966552694E+03  0.80966552695E+03  0.50400001928E-02 0.  1.
       -1   -1    0    0    0  501  0.00000000000E+00  0.00000000000E+00 -0.60503308619E+03  0.60503308621E+03  0.50400001928E-02 0. -1.
    10030    2    1    2    0    0  0.00000000000E+00  0.00000000000E+00  0.20463244075E+03  0.14146986132E+04  0.13998206065E+04 0.  0.
        2    1    3    3  502    0 -0.15458772598E+03  0.34743974206E+03 -0.49151957471E+03  0.62145251767E+03  0.25500000920E-02 0. -1.
       -2    1    3    3    0  502  0.15458772598E+03 -0.34743974206E+03  0.69615201546E+03  0.79324609550E+03  0.25500000920E-02 0.  1.
</event>
<event>
 5   0  0.1780171E-04  0.1398155E+04  0.7818609E-02  0.8955155E-01
        2   -1    0    0  501    0  0.00000000000E+00  0.00000000000E+00  0.14499885002E+04  0.14499885002E+04  0.25500000920E-02 0.  1.
       -2   -1    0    0    0  501  0.00000000000E+00  0.00000000000E+00 -0.33704354872E+03  0.33704354873E+03  0.25500000920E-02 0. -1.
    10030    2    1    2    0    0  0.00000000000E+00  0.00000000000E+00  0.11129449515E+04  0.17870320489E+04  0.13981548837E+04 0.  0.
        5    1    3    3  502    0  0.12880375288E+02  0.86982306782E+02 -0.32992689502E+03  0.34147572654E+03  0.46999998093E+01 0. -1.
       -5    1    3    3    0  502 -0.12880375288E+02 -0.86982306782E+02  0.14428718465E+04  0.14455563224E+04  0.46999998093E+01 0.  1.
</event>
<event>
 5   0  0.1833681E-04  0.1401151E+04  0.7818609E-02  0.8952986E-01
       -2   -1    0    0    0  501  0.00000000000E+00  0.00000000000E+00  0.23542111559E+03  0.23542111561E+03  0.25500000920E-02 0. -1.
        2   -1    0    0  501    0  0.00000000000E+00  0.00000000000E+00 -0.20848010142E+04  0.20848010142E+04  0.25500000920E-02 0.  1.
    10030    2    1    2    0    0  0.00000000000E+00  0.00000000000E+00 -0.18493798986E+04  0.23202221298E+04  0.14011512132E+04 0.  0.
        4    1    3    3  502    0 -0.48566989688E+03  0.50489677867E+03 -0.91984457353E+03  0.11562489603E+04  0.12699999809E+01 0.  1.
       -4    1    3    3    0  502  0.48566989688E+03 -0.50489677867E+03 -0.92953532506E+03  0.11639731695E+04  0.12699999809E+01 0. -1.
</event>
<event>
 5   0  0.9978422E-05  0.1402065E+04  0.7818609E-02  0.8952325E-01
        1   -1    0    0  501    0  0.00000000000E+00  0.00000000000E+00  0.75001324565E+03  0.75001324566E+03  0.50400001928E-02 0.  1.
       -1   -1    0    0    0  501  0.00000000000E+00  0.00000000000E+00 -0.65525037903E+03  0.65525037905E+03  0.50400001928E-02 0. -1.
    10030    2    1    2    0    0  0.00000000000E+00  0.00000000000E+00  0.94762866618E+02  0.14052636247E+04  0.14020648537E+04 0.  0.
        2    1    3    3  502    0  0.16665590540E+03  0.27084679221E+03 -0.57879529998E+03  0.66040606822E+03  0.25500000920E-02 0. -1.
       -2    1    3    3    0  502 -0.16665590540E+03 -0.27084679221E+03  0.67355816660E+03  0.74485755649E+03  0.25500000920E-02 0.  1.
</event>
<event>
 5   0  0.9260916E-05  0.1399621E+04  0.7818609E-02  0.8954093E-01
        1   -1    0    0  501    0  0.00000000000E+00  0.00000000000E+00  0.84260292800E+03  0.84260292801E+03  0.50400001928E-02 0. -1.
       -1   -1    0    0    0  501  0.00000000000E+00  0.00000000000E+00 -0.58121628915E+03  0.58121628918E+03  0.50400001928E-02 0.  1.
    10030    2    1    2    0    0  0.00000000000E+00  0.00000000000E+00  0.26138663884E+03  0.14238192172E+04  0.13996207301E+04 0.  0.
        1    1    3    3  502    0  0.26574809079E+03 -0.59865085406E+03 -0.12000122796E+03  0.66588676783E+03  0.50400001928E-02 0.  1.
       -1    1    3    3    0  502 -0.26574809079E+03  0.59865085406E+03  0.38138786680E+03  0.75793244936E+03  0.50400001928E-02 0. -1.
</event>
<event>
 5   0  0.9900839E-05  0.1401406E+04  0.7818609E-02  0.8952801E-01
       -1   -1    0    0    0  501  0.00000000000E+00  0.00000000000E+00  0.34224427276E+03  0.34224427280E+03  0.50400001928E-02 0.  1.
        1   -1    0    0  501    0  0.00000000000E+00  0.00000000000E+00 -0.14346037130E+04  0.14346037130E+04  0.50400001928E-02 0. -1.
    10030    2    1    2    0    0  0.00000000000E+00  0.00000000000E+00 -0.10923594402E+04  0.17768479858E+04  0.14014063001E+04 0.  0.
        3    1    3    3  502    0 -0.80895597624E+02  0.38449479064E+03 -0.12817873099E+04  0.13406562049E+04  0.10100000352E+00 0. -1.
       -3    1    3    3    0  502  0.80895597624E+02 -0.38449479064E+03  0.18942786964E+03  0.43619178092E+03  0.10100000352E+00 0.  1.
</event>
<event>
 5   0  0.1794185E-04  0.1400117E+04  0.7818609E-02  0.8953734E-01
       -2   -1    0    0    0  501  0.00000000000E+00  0.00000000000E+00  0.44789408560E+03  0.44789408561E+03  0.25500000920E-02 0.  1.
        2   -1    0    0  501    0  0.00000000000E+00  0.00000000000E+00 -0.10941914960E+04  0.10941914961E+04  0.25500000920E-02 0. -1.
    10030    2    1    2    0    0  0.00000000000E+00  0.00000000000E+00 -0.64629741045E+03  0.15420855817E+04  0.14001169945E+04 0.  0.
        2    1    3    3  502    0 -0.32742648986E+03  0.59345823003E+03 -0.51606982415E+03  0.85189720064E+03  0.25500000920E-02 0. -1.
       -2    1    3    3    0  502  0.32742648986E+03 -0.59345823003E+03 -0.13022758631E+03  0.69018838102E+03  0.25500000920E-02 0.  1.
</event>
<event>
 5   0  0.9260916E-05  0.1404194E+04  0.7818609E-02  0.8950788E-01
       -1   -1    0    0    0  501  0.00000000000E+00  0.00000000000E+00  0.50018238403E+03  0.50018238405E+03  0.50400001928E-02 0. -1.
        1   -1    0    0  501    0  0.00000000000E+00  0.00000000000E+00 -0.98552056691E+03  0.98552056693E+03  0.50400001928E-02 0.  1.
    10030    2    1    2    0    0  0.00000000000E+00  0.00000000000E+00 -0.48533818289E+03  0.14857029510E+04  0.14041937569E+04 0.  0.
        1    1    3    3  502    0 -0.50087563838E+03  0.89824823753E+02 -0.75447860072E+03  0.91004552801E+03  0.50400001928E-02 0.  1.
       -1    1    3    3    0  502  0.50087563838E+03 -0.89824823753E+02  0.26914041783E+03  0.57565742297E+03  0.50400001928E-02 0. -1.
</event>
<event>
 5   0  0.1780171E-04  0.1401047E+04  0.7818609E-02  0.8953061E-01
       -2   -1    0    0    0  501  0.00000000000E+00  0.00000000000E+00  0.28217522748E+03  0.28217522749E+03  0.25500000920E-02 0.  1.
        2   -1    0    0  501    0  0.00000000000E+00  0.00000000000E+00 -0.17391072062E+04  0.17391072062E+04  0.25500000920E-02 0. -1.
    10030    2    1    2    0    0  0.00000000000E+00  0.00000000000E+00 -0.14569319788E+04  0.20212824337E+04  0.14010467109E+04 0.  0.
        5    1    3    3  502    0 -0.41186787793E+03 -0.39540681865E+03 -0.14292182693E+03  0.58858341781E+03  0.46999998093E+01 0.  1.
       -5    1    3    3    0  502  0.41186787793E+03  0.39540681865E+03 -0.13140101518E+04  0.14326990159E+04  0.46999998093E+01 0. -1.
</event>
<event>
 5   0  0.9900839E-05  0.1400385E+04  0.7818609E-02  0.8953540E-01
       -1   -1    0    0    0  501  0.00000000000E+00  0.00000000000E+00  0.36443490735E+03  0.36443490739E+03  0.50400001928E-02 0.  1.
        1   -1    0    0  501    0  0.00000000000E+00  0.00000000000E+00 -0.13452871986E+04  0.13452871986E+04  0.50400001928E-02 0. -1.
    10030    2    1    2    0    0  0.00000000000E+00  0.00000000000E+00 -0.98085229122E+03  0.17097221060E+04  0.14003851122E+04 0.  0.
        3    1    3    3  502    0 -0.66897322722E+03 -0.13729081294E+03 -0.67915467298E+03  0.96313292234E+03  0.10100000352E+00 0. -1.
       -3    1    3    3    0  502  0.66897322722E+03  0.13729081294E+03 -0.30169761823E+03  0.74658918363E+03  0.10100000352E+00 0.  1.
</event>
<event>
 5   0  0.1794185E-04  0.1407472E+04  0.7818609E-02  0.8948428E-01
        2   -1    0    0  501    0  0.00000000000E+00  0.00000000000E+00  0.84648742947E+03  0.84648742948E+03  0.25500000920E-02 0. -1.
       -2   -1    0    0    0  501  0.00000000000E+00  0.00000000000E+00 -0.58505817197E+03  0.58505817197E+03  0.25500000920E-02 0.  1.
    10030    2    1    2    0    0  0.00000000000E+00  0.00000000000E+00  0.26142925751E+03  0.14315456014E+04  0.14074720432E+04 0.  0.
        2    1    3    3  502    0  0.31579165375E+03  0.32602263029E+02  0.76951521359E+03  0.83243074192E+03  0.25500000920E-02 0. -1.
       -2    1    3    3    0  502 -0.31579165375E+03 -0.32602263029E+02 -0.50808595609E+03  0.59911485953E+03  0.25500000920E-02 0.  1.
</event>
<event>
 5   0  0.6671375E-05  0.1400402E+04  0.7818609E-02  0.8953528E-01
        1   -1    0    0  501    0  0.00000000000E+00  0.00000000000E+00  0.13603875758E+04  0.13603875758E+04  0.50400001928E-02 0. -1.
       -1   -1    0    0    0  501  0.00000000000E+00  0.00000000000E+00 -0.36039830424E+03  0.36039830428E+03  0.50400001928E-02 0.  1.
    10030    2    1    2    0    0  0.00000000000E+00  0.00000000000E+00  0.99998927152E+03  0.17207858800E+04  0.14004019072E+04 0.  0.
        5    1    3    3  502    0 -0.53224441354E+03  0.32780734650E+03  0.11235881919E+03  0.63512862195E+03  0.46999998093E+01 0.  1.
       -5    1    3    3    0  502  0.53224441354E+03 -0.32780734650E+03  0.88763045233E+03  0.10856572581E+04  0.46999998093E+01 0. -1.
</event>
<event>
 5   0  0.1780171E-04  0.1398793E+04  0.7818609E-02  0.8954693E-01
       -2   -1    0    0    0  501  0.00000000000E+00  0.00000000000E+00  0.30502616323E+03  0.30502616324E+03  0.25500000920E-02 0.  1.
        2   -1    0    0  501    0  0.00000000000E+00  0.00000000000E+00 -0.16036502744E+04  0.16036502744E+04  0.25500000920E-02 0. -1.
    10030    2    1    2    0    0  0.00000000000E+00  0.00000000000E+00 -0.12986241112E+04  0.19086764377E+04  0.13987927515E+04 0.  0.
        5    1    3    3  502    0  0.58246956690E+03 -0.34463357067E+03 -0.40871514832E+03  0.79064104173E+03  0.46999998093E+01 0. -1.
       -5    1    3    3    0  502 -0.58246956690E+03  0.34463357067E+03 -0.88990896288E+03  0.11180353960E+04  0.46999998093E+01 0.  1.
</event>
<event>
 5   0  0.9260916E-05  0.1401166E+04  0.7818609E-02  0.8952975E-01
        1   -1    0    0  501    0  0.00000000000E+00  0.00000000000E+00  0.63261707419E+03  0.63261707421E+03  0.50400001928E-02 0. -1.
       -1   -1    0    0    0  501  0.00000000000E+00  0.00000000000E+00 -0.77585062598E+03  0.77585062600E+03  0.50400001928E-02 0.  1.
    10030    2    1    2    0    0  0.00000000000E+00  0.00000000000E+00 -0.14323355179E+03  0.14084677002E+04  0.14011657333E+04 0.  0.
        1    1    3    3  502    0 -0.39491335687E+03  0.22693148511E+03 -0.60670834471E+03  0.75864977027E+03  0.50400001928E-02 0.  1.
       -1    1    3    3    0  502  0.39491335687E+03 -0.22693148511E+03  0.46347479292E+03  0.64981792994E+03  0.50400001928E-02 0. -1.
</event>
<event>
 5   0  0.9828111E-05  0.1406257E+04  0.7818609E-02  0.8949302E-01
       -1   -1    0    0    0  501  0.00000000000E+00  0.00000000000E+00  0.52559810776E+03  0.52559810778E+03  0.50400001928E-02 0. -1.
        1   -1    0    0  501    0  0.00000000000E+00  0.00000000000E+00 -0.94062258324E+03  0.94062258325E+03  0.50400001928E-02 0.  1.
    10030    2    1    2    0    0  0.00000000000E+00  0.00000000000E+00 -0.41502447548E+03  0.14662206910E+04  0.14062566621E+04 0.  0.
        4    1    3    3  502    0  0.44074965922E+03  0.52706623589E+03 -0.36331208703E+03  0.77721063078E+03  0.12699999809E+01 0.  1.
       -4    1    3    3    0  502 -0.44074965922E+03 -0.52706623589E+03 -0.51712388453E+02  0.68901006026E+03  0.12699999809E+01 0. -1.
</event>
<event>
 5   0  0.1766237E-04  0.1406006E+04  0.7818609E-02  0.8949483E-01
       -2   -1    0    0    0  501  0.00000000000E+00  0.00000000000E+00  0.23102300040E+03  0.23102300041E+03  0.25500000920E-02 0. -1.
        2   -1    0    0  501    0  0.00000000000E+00  0.00000000000E+00 -0.21392366542E+04  0.21392366542E+04  0.25500000920E-02 0.  1.
    10030    2    1    2    0    0  0.00000000000E+00  0.00000000000E+00 -0.19082136538E+04  0.23702596546E+04  0.14060055056E+04 0.  0.
        3    1    3    3  502    0  0.34274827635E+03  0.34044228752E+03 -0.93128387664E+02  0.49198601491E+03  0.10100000352E+00 0. -1.
       -3    1    3    3    0  502 -0.34274827635E+03 -0.34044228752E+03 -0.18150852661E+04  0.18782736397E+04  0.10100000352E+00 0.  1.
</event>
<event>
 5   0  0.6671375E-05  0.1403570E+04  0.7818609E-02  0.8951239E-01
       -1   -1    0    0    0  501  0.00000000000E+00  0.00000000000E+00  0.27756571490E+03  0.27756571495E+03  0.50400001928E-02 0.  1.
        1   -1    0    0  501    0  0.00000000000E+00  0.00000000000E+00 -0.17743622928E+04  0.17743622928E+04  0.50400001928E-02 0. -1.
    10030    2    1    2    0    0  0.00000000000E+00  0.00000000000E+00 -0.14967965779E+04  0.20519280077E+04  0.14035699318E+04 0.  0.
        5    1    3    3  502    0 -0.25049276399E+03 -0.42094040812E+03 -0.13723081870E+02  0.49004883937E+03  0.46999998093E+01 0.  1.
       -5    1    3    3    0  502  0.25049276399E+03  0.42094040812E+03 -0.14830734960E+04  0.15618791684E+04  0.46999998093E+01 0. -1.
</event>
<event>
 5   0  0.1712327E-04  0.1400288E+04  0.7818609E-02  0.8953610E-01
       -2   -1    0    0    0  501  0.00000000000E+00  0.00000000000E+00  0.86048859236E+03  0.86048859237E+03  0.25500000920E-02 0. -1.
        2   -1    0    0  501    0  0.00000000000E+00  0.00000000000E+00 -0.56967802836E+03  0.56967802836E+03  0.25500000920E-02 0.  1.
    10030    2    1    2    0    0  0.00000000000E+00  0.00000000000E+00  0.29081056401E+03  0.14301666207E+04  0.14002877486E+04 0.  0.
        1    1    3    3  502    0  0.68855919810E+03  0.74971308627E+02  0.24989655269E+03  0.73633060066E+03  0.50400001928E-02 0. -1.
       -1    1    3    3    0  502 -0.68855919810E+03 -0.74971308627E+02  0.40914011319E+02  0.69383602007E+03  0.50400001928E-02 0.  1.
</event>
<event>
 5   0  0.9260916E-05  0.1400634E+04  0.7818609E-02  0.8953360E-01
        1   -1    0    0  501    0  0.00000000000E+00  0.00000000000E+00  0.41532869891E+03  0.41532869894E+03  0.50400001928E-02 0. -1.
       -1   -1    0    0    0  501  0.00000000000E+00  0.00000000000E+00 -0.11808577918E+04  0.11808577918E+04  0.50400001928E-02 0.  1.
    10030    2    1    2    0    0  0.00000000000E+00  0.00000000000E+00 -0.76552909292E+03  0.15961864908E+04  0.14006343282E+04 0.  0.
        1    1    3    3  502    0  0.30510058668E+03 -0.62116743145E+03 -0.26050758677E+03  0.73945895673E+03  0.50400001928E-02 0. -1.
       -1    1    3    3    0  502 -0.30510058668E+03  0.62116743145E+03 -0.50502150615E+03  0.85672753404E+03  0.50400001928E-02 0.  1.
</event>
<event>
 5   0  0.1794185E-04  0.1398213E+04  0.7818609E-02  0.8955113E-01
        2   -1    0    0  501    0  0.00000000000E+00  0.00000000000E+00  0.60762317280E+03  0.60762317281E+03  0.25500000920E-02 0.  1.
       -2   -1    0    0    0  501  0.00000000000E+00  0.00000000000E+00 -0.80436310122E+03  0.80436310123E+03  0.25500000920E-02 0. -1.
    10030    2    1    2    0    0  0.00000000000E+00  0.00000000000E+00 -0.19673992842E+03  0.14119862740E+04  0.13982126586E+04 0.  0.
        2    1    3    3  502    0 -0.26551725967E+03  0.48566869284E+03 -0.52963205611E+03  0.76608329133E+03  0.25500000920E-02 0. -1.
       -2    1    3    3    0  502  0.26551725967E+03 -0.48566869284E+03  0.33289212769E+03  0.64590298271E+03  0.25500000920E-02 0.  1.
</event>
<event>
 5   0  0.9900839E-05  0.1400703E+04  0.7818609E-02  0.8953310E-01
        1   -1    0    0  501    0  0.00000000000E+00  0.00000000000E+00  0.97168499208E+03  0.97168499210E+03  0.50400001928E-02 0.  1.
       -1   -1    0    0    0  501  0.00000000000E+00  0.00000000000E+00 -0.50478522411E+03  0.50478522414E+03  0.50400001928E-02 0. -1.
    10030    2    1    2    0    0  0.00000000000E+00  0.00000000000E+00  0.46689976797E+03  0.14764702162E+04  0.14007030042E+04 0.  0.
        3    1    3    3  502    0  0.21013862801E+03 -0.62143399029E+03 -0.25079584088E+02  0.65648110636E+03  0.10100000352E+00 0.  1.
       -3    1    3    3    0  502 -0.21013862801E+03  0.62143399029E+03  0.49197935206E+03  0.81998910988E+03  0.10100000352E+00 0. -1.
</event>
<event>
 5   0  0.1833681E-04  0.1399695E+04  0.7818609E-02  0.8954039E-01
       -2   -1    0    0    0  501  0.00000000000E+00  0.00000000000E+00  0.26616057012E+03  0.26616057013E+03  0.25500000920E-02 0. -1.
        2   -1    0    0  501    0  0.00000000000E+00  0.00000000000E+00 -0.18401924466E+04  0.18401924466E+04  0.25500000920E-02 0.  1.
    10030    2    1    2    0    0  0.00000000000E+00  0.00000000000E+00 -0.15740318765E+04  0.21063530168E+04  0.13996952107E+04 0.  0.
        4    1    3    3  502    0  0.17454508047E+02  0.36332703812E+03  0.11272986206E+03  0.38081600700E+03  0.12699999809E+01 0. -1.
       -4    1    3    3    0  502 -0.17454508047E+02 -0.36332703812E+03 -0.16867617386E+04  0.17255370098E+04  0.12699999809E+01 0.  1.
</event>
<event>
 5   0  0.1712327E-04  0.1406658E+04  0.7818609E-02  0.8949013E-01
       -2   -1    0    0    0  501  0.00000000000E+00  0.00000000000E+00  0.11163957242E+04  0.11163957242E+04  0.25500000920E-02 0.  1.
        2   -1    0    0  501    0  0.00000000000E+00  0.00000000000E+00 -0.44309730555E+03  0.44309730556E+03  0.25500000920E-02 0. -1.
    10030    2    1    2    0    0  0.00000000000E+00  0.00000000000E+00  0.67329841862E+03  0.15594930297E+04  0.14066583627E+04 0.  0.
        1    1    3    3  502    0  0.23563723846E+03  0.11439202393E+03 -0.38700475981E+03  0.46731480549E+03  0.50400001928E-02 0. -1.
       -1    1    3    3    0  502 -0.23563723846E+03 -0.11439202393E+03  0.10603031784E+04  0.10921782242E+04  0.50400001928E-02 0.  1.
</event>
<event>
 5   0  0.9900839E-05  0.1399597E+04  0.7818609E-02  0.8954110E-01
        1   -1    0    0  501    0  0.00000000000E+00  0.00000000000E+00  0.12629694929E+04  0.12629694929E+04  0.50400001928E-02 0. -1.
       -1   -1    0    0    0  501  0.00000000000E+00  0.00000000000E+00 -0.38775123773E+03  0.38775123776E+03  0.50400001928E-02 0.  1.
    10030    2    1    2    0    0  0.00000000000E+00  0.00000000000E+00  0.87521825515E+03  0.16507207307E+04  0.13995970622E+04 0.  0.
        3    1    3    3  502    0  0.27711299676E+03  0.59131928697E+03  0.73427129260E+03  0.98265174576E+03  0.10100000352E+00 0. -1.
       -3    1    3    3    0  502 -0.27711299676E+03 -0.59131928697E+03  0.14094696256E+03  0.66806898489E+03  0.10100000352E+00 0.  1.
</event>
<event>
 5   0  0.6671375E-05  0.1399788E+04  0.7818609E-02  0.8953972E-01
       -1   -1    0    0    0  501  0.00000000000E+00  0.00000000000E+00  0.42287456600E+03  0.42287456603E+03  0.50400001928E-02 0. -1.
        1   -1    0    0  501    0  0.00000000000E+00  0.00000000000E+00 -0.11583859593E+04  0.11583859593E+04  0.50400001928E-02 0.  1.
    10030    2    1    2    0    0  0.00000000000E+00  0.00000000000E+00 -0.73551139327E+03  0.15812605253E+04  0.13997884980E+04 0.  0.
        5    1    3    3  502    0  0.54340554639E+02  0.31972815319E+03  0.33285114656E+03  0.46474827981E+03  0.46999998093E+01 0. -1.
       -5    1    3    3    0  502 -0.54340554639E+02 -0.31972815319E+03 -0.10683625398E+04  0.11165122455E+04  0.46999998093E+01 0.  1.
</event>
<event>
 5   0  0.9900839E-05  0.1399212E+04  0.7818609E-02  0.8954389E-01
       -1   -1    0    0    0  501  0.00000000000E+00  0.00000000000E+00  0.35101410727E+03  0.35101410731E+03  0.50400001928E-02 0. -1.
        1   -1    0    0  501    0  0.00000000000E+00  0.00000000000E+00 -0.13943843601E+04  0.13943843601E+04  0.50400001928E-02 0.  1.
    10030    2    1    2    0    0  0.00000000000E+00  0.00000000000E+00 -0.10433702529E+04  0.17453984674E+04  0.13992120374E+04 0.  0.
        3    1    3    3  502    0 -0.10315877161E+01  0.68043307681E+03 -0.31878033012E+03  0.75140611208E+03  0.10100000352E+00 0. -1.
       -3    1    3    3    0  502  0.10315877161E+01 -0.68043307681E+03 -0.72458992273E+03  0.99399235536E+03  0.10100000352E+00 0.  1.
</event>
<event>
 5   0  0.6671375E-05  0.1397993E+04  0.7818609E-02  0.8955273E-01
       -1   -1    0    0    0  501  0.00000000000E+00  0.00000000000E+00  0.35243562637E+03  0.35243562641E+03  0.50400001928E-02 0.  1.
        1   -1    0    0  501    0  0.00000000000E+00  0.00000000000E+00 -0.13863416545E+04  0.13863416545E+04  0.50400001928E-02 0. -1.
    10030    2    1    2    0    0  0.00000000000E+00  0.00000000000E+00 -0.10339060281E+04  0.17387772809E+04  0.13979931179E+04 0.  0.
        5    1    3    3  502    0 -0.62524824785E+03 -0.54419552545E+02 -0.89965588370E+03  0.10969501621E+04  0.46999998093E+01 0. -1.
       -5    1    3    3    0  502  0.62524824785E+03  0.54419552545E+02 -0.13425014444E+03  0.64182711879E+03  0.46999998093E+01 0.  1.
</event>
<event>
 5   0  0.1794185E-04  0.1401187E+04  0.7818609E-02  0.8952960E-01
        2   -1    0    0  501    0  0.00000000000E+00  0.00000000000E+00  0.69829418863E+03  0.69829418864E+03  0.25500000920E-02 0. -1.
       -2   -1    0    0    0  501  0.00000000000E+00  0.00000000000E+00 -0.70289997257E+03  0.70289997257E+03  0.25500000920E-02 0.  1.
    10030    2    1    2    0    0  0.00000000000E+00  0.00000000000E+00 -0.46057839330E+01  0.14011941612E+04  0.14011865915E+04 0.  0.
        2    1    3    3  502    0 -0.19943850899E+03 -0.17644404964E+03 -0.65032085598E+03  0.70272714281E+03  0.25500000920E-02 0.  1.
       -2    1    3    3    0  502  0.19943850899E+03  0.17644404964E+03  0.64571507204E+03  0.69846701840E+03  0.25500000920E-02 0. -1.
</event>
<event>
 5   0  0.9900839E-05  0.1398640E+04  0.7818609E-02  0.8954803E-01
       -1   -1    0    0    0  501  0.00000000000E+00  0.00000000000E+00  0.45064951268E+03  0.45064951270E+03  0.50400001928E-02 0. -1.
        1   -1    0    0  501    0  0.00000000000E+00  0.00000000000E+00 -0.10852086232E+04  0.10852086232E+04  0.50400001928E-02 0.  1.
    10030    2    1    2    0    0  0.00000000000E+00  0.00000000000E+00 -0.63455911055E+03  0.15358581359E+04  0.13986403930E+04 0.  0.
        3    1    3    3  502    0  0.50467303331E+03  0.12572899514E+03  0.19607396309E+03  0.55583060367E+03  0.10100000352E+00 0. -1.
       -3    1    3    3    0  502 -0.50467303331E+03 -0.12572899514E+03 -0.83063307364E+03  0.98002753227E+03  0.10100000352E+00 0.  1.
</event>
<event>
 5   0  0.1712327E-04  0.1403788E+04  0.7818609E-02  0.8951081E-01
        2   -1    0    0  501    0  0.00000000000E+00  0.00000000000E+00  0.48535391361E+03  0.48535391362E+03  0.25500000920E-02 0. -1.
       -2   -1    0    0    0  501  0.00000000000E+00  0.00000000000E+00 -0.10150426798E+04  0.10150426798E+04  0.25500000920E-02 0.  1.
    10030    2    1    2    0    0  0.00000000000E+00  0.00000000000E+00 -0.52968876621E+03  0.15003965934E+04  0.14037876437E+04 0.  0.
        1    1    3    3  502    0 -0.21083295209E+03  0.28441931121E+03  0.38292596614E+03  0.52151430838E+03  0.50400001928E-02 0. -1.
       -1    1    3    3    0  502  0.21083295209E+03 -0.28441931121E+03 -0.91261473235E+03  0.97888228506E+03  0.50400001928E-02 0.  1.
</event>
<event>
 5   0  0.1833681E-04  0.1399238E+04  0.7818609E-02  0.8954371E-01
       -2   -1    0    0    0  501  0.00000000000E+00  0.00000000000E+00  0.50485191586E+03  0.50485191586E+03  0.25500000920E-02 0.  1.
        2   -1    0    0  501    0  0.00000000000E+00  0.00000000000E+00 -0.96952472950E+03  0.96952472950E+03  0.25500000920E-02 0. -1.
    10030    2    1    2    0    0  0.00000000000E+00  0.00000000000E+00 -0.46467281364E+03  0.14743766454E+04  0.13992375312E+04 0.  0.
        4    1    3    3  502    0  0.24829189511E+03 -0.15092056292E+03  0.43826641573E+03  0.52583737557E+03  0.12699999809E+01 0.  1.
       -4    1    3    3    0  502 -0.24829189511E+03  0.15092056292E+03 -0.90293922937E+03  0.94853926979E+03  0.12699999809E+01 0. -1.
</event>
<event>
 5   0  0.9900839E-05  0.1399843E+04  0.7818609E-02  0.8953933E-01
       -1   -1    0    0    0  501  0.00000000000E+00  0.00000000000E+00  0.39366457712E+03  0.39366457715E+03  0.50400001928E-02 0. -1.
        1   -1    0    0  501    0  0.00000000000E+00  0.00000000000E+00 -0.12444345128E+04  0.12444345128E+04  0.50400001928E-02 0.  1.
    10030    2    1    2    0    0  0.00000000000E+00  0.00000000000E+00 -0.85076993570E+03  0.16380990900E+04  0.13998425430E+04 0.  0.
        3    1    3    3  502    0 -0.23862699319E+02 -0.29072052007E+03 -0.11699150786E+04  0.12057317905E+04  0.10100000352E+00 0.  1.
       -3    1    3    3    0  502  0.23862699319E+02  0.29072052007E+03  0.31914514293E+03  0.43236729949E+03  0.10100000352E+00 0. -1.
</event>
<event>
 5   0  0.1766237E-04  0.1398288E+04  0.7818609E-02  0.8955059E-01
        2   -1    0    0  501    0  0.00000000000E+00  0.00000000000E+00  0.13313069175E+04  0.13313069175E+04  0.25500000920E-02 0. -1.
       -2   -1    0    0    0  501  0.00000000000E+00  0.00000000000E+00 -0.36715965134E+03  0.36715965135E+03  0.25500000920E-02 0.  1.
    10030    2    1    2    0    0  0.00000000000E+00  0.00000000000E+00  0.96414726616E+03  0.16984665689E+04  0.13982877868E+04 0.  0.
        3    1    3    3  502    0 -0.27919557373E+03  0.38710182880E+03 -0.13848692546E+03  0.49696743653E+03  0.10100000352E+00 0.  1.
       -3    1    3    3    0  502  0.27919557373E+03 -0.38710182880E+03  0.11026341916E+04  0.12014991323E+04  0.10100000352E+00 0. -1.
</event>
<event>
 5   0  0.1766237E-04  0.1398725E+04  0.7818609E-02  0.8954742E-01
       -2   -1    0    0    0  501  0.00000000000E+00  0.00000000000E+00  0.37325831424E+03  0.37325831425E+03  0.25500000920E-02 0. -1.
        2   -1    0    0  501    0  0.00000000000E+00  0.00000000000E+00 -0.13103741696E+04  0.13103741696E+04  0.25500000920E-02 0.  1.
    10030    2    1    2    0    0  0.00000000000E+00  0.00000000000E+00 -0.93711585534E+03  0.16836324838E+04  0.13987252104E+04 0.  0.
        3    1    3    3  502    0 -0.51456603378E+03  0.39460819911E+03 -0.15325941237E+03  0.66631996188E+03  0.10100000352E+00 0. -1.
       -3    1    3    3    0  502  0.51456603378E+03 -0.39460819911E+03 -0.78385644298E+03  0.10173125220E+04  0.10100000352E+00 0.  1.
</event>
<event>
 5   0  0.9978422E-05  0.1400152E+04  0.7818609E-02  0.8953709E-01
       -1   -1    0    0    0  501  0.00000000000E+00  0.00000000000E+00  0.25555293907E+03  0.25555293912E+03  0.50400001928E-02 0. -1.
        1   -1    0    0  501    0  0.00000000000E+00  0.00000000000E+00 -0.19178264826E+04  0.19178264827E+04  0.50400001928E-02 0.  1.
    10030    2    1    2    0    0  0.00000000000E+00  0.00000000000E+00 -0.16622735436E+04  0.21733794218E+04  0.14001516980E+04 0.  0.
        2    1    3    3  502    0  0.67378554462E+03  0.18776221259E+03 -0.78549479114E+03  0.10517811919E+04  0.25500000920E-02 0.  1.
       -2    1    3    3    0  502 -0.67378554462E+03 -0.18776221259E+03 -0.87677875244E+03  0.11215982299E+04  0.25500000920E-02 0. -1.
</event>
<event>
 5   0  0.6671375E-05  0.1400340E+04  0.7818609E-02  0.8953573E-01
       -1   -1    0    0    0  501  0.00000000000E+00  0.00000000000E+00  0.26245739077E+03  0.26245739082E+03  0.50400001928E-02 0. -1.
        1   -1    0    0  501    0  0.00000000000E+00  0.00000000000E+00 -0.18678753693E+04  0.18678753693E+04  0.50400001928E-02 0.  1.
    10030    2    1    2    0    0  0.00000000000E+00  0.00000000000E+00 -0.16054179786E+04  0.21303327602E+04  0.14003395242E+04 0.  0.
        5    1    3    3  502    0  0.50059842812E+03 -0.26408887152E+03 -0.17569473804E+03  0.59264867271E+03  0.46999998093E+01 0. -1.
       -5    1    3    3    0  502 -0.50059842812E+03  0.26408887152E+03 -0.14297232405E+04  0.15376840874E+04  0.46999998093E+01 0.  1.
</event>
<event>
 5   0  0.9260916E-05  0.1404062E+04  0.7818609E-02  0.8950884E-01
        1   -1    0    0  501    0  0.00000000000E+00  0.00000000000E+00  0.13865248703E+04  0.13865248703E+04  0.50400001928E-02 0. -1.
       -1   -1    0    0    0  501  0.00000000000E+00  0.00000000000E+00 -0.35545510688E+03  0.35545510691E+03  0.50400001928E-02 0.  1.
    10030    2    1    2    0    0  0.00000000000E+00  0.00000000000E+00  0.10310697634E+04  0.17419799772E+04  0.14040617451E+04 0.  0.
        1    1    3    3  502    0  0.36376885503E+03 -0.18693938081E+03 -0.19238041837E+03  0.45197824879E+03  0.50400001928E-02 0.  1.
       -1    1    3    3    0  502 -0.36376885503E+03  0.18693938081E+03  0.12234501818E+04  0.12900017284E+04  0.50400001928E-02 0. -1.
</event>
<event>
 5   0  0.1780171E-04  0.1400689E+04  0.7818609E-02  0.8953320E-01
       -2   -1    0    0    0  501  0.00000000000E+00  0.00000000000E+00  0.38469927097E+03  0.38469927098E+03  0.25500000920E-02 0. -1.
        2   -1    0    0  501    0  0.00000000000E+00  0.00000000000E+00 -0.12749766989E+04  0.12749766990E+04  0.25500000920E-02 0.  1.
    10030    2    1    2    0    0  0.00000000000E+00  0.00000000000E+00 -0.89027742798E+03  0.16596759699E+04  0.14006892683E+04 0.  0.
        5    1    3    3  502    0 -0.28703223170E+03 -0.46870348035E+02 -0.12000193578E+04  0.12347683510E+04  0.46999998093E+01 0.  1.
       -5    1    3    3    0  502  0.28703223170E+03  0.46870348035E+02  0.30974192980E+03  0.42490761894E+03  0.46999998093E+01 0. -1.
</event>
<event>
 5   0  0.1766237E-04  0.1394852E+04  0.7818609E-02  0.8957554E-01
        2   -1    0    0  501    0  0.00000000000E+00  0.00000000000E+00  0.80603727100E+03  0.80603727100E+03  0.25500000920E-02 0.  1.
       -2   -1    0    0    0  501  0.00000000000E+00  0.00000000000E+00 -0.60344956864E+03  0.60344956865E+03  0.25500000920E-02 0. -1.
    10030    2    1    2    0    0  0.00000000000E+00  0.00000000000E+00  0.20258770235E+03  0.14094868396E+04  0.13948517391E+04 0.  0.
        3    1    3    3  502    0 -0.20973519904E+03 -0.47881114481E+03 -0.36523615857E+03  0.63768834695E+03  0.10100000352E+00 0. -1.
       -3    1    3    3    0  502  0.20973519904E+03  0.47881114481E+03  0.56782386092E+03  0.77179849270E+03  0.10100000352E+00 0.  1.
</event>
<event>
 5   0  0.1833681E-04  0.1401515E+04  0.7818609E-02  0.8952723E-01
        2   -1    0    0  501    0  0.00000000000E+00  0.00000000000E+00  0.44219619578E+03  0.44219619579E+03  0.25500000920E-02 0.  1.
       -2   -1    0    0    0  501  0.00000000000E+00  0.00000000000E+00 -0.11105052476E+04  0.11105052476E+04  0.25500000920E-02 0. -1.
    10030    2    1    2    0    0  0.00000000000E+00  0.00000000000E+00 -0.66830905183E+03  0.15527014434E+04  0.14015151742E+04 0.  0.
        4    1    3    3  502    0 -0.30592734842E+03  0.59643873174E+03 -0.10784203980E+03  0.67894198697E+03  0.12699999809E+01 0.  1.
       -4    1    3    3    0  502  0.30592734842E+03 -0.59643873174E+03 -0.56046701203E+03  0.87375945643E+03  0.12699999809E+01 0. -1.
</event>
<event>
 5   0  0.1766237E-04  0.1399568E+04  0.7818609E-02  0.8954131E-01
       -2   -1    0    0    0  501  0.00000000000E+00  0.00000000000E+00  0.64930147262E+03  0.64930147262E+03  0.25500000920E-02 0. -1.
        2   -1    0    0  501    0  0.00000000000E+00  0.00000000000E+00 -0.75419197596E+03  0.75419197596E+03  0.25500000920E-02 0.  1.
    10030    2    1    2    0    0  0.00000000000E+00  0.00000000000E+00 -0.10489050334E+03  0.14034934486E+04  0.13995684487E+04 0.  0.
        3    1    3    3  502    0 -0.15151824377E+03 -0.37300043090E+02  0.63163268327E+03  0.65062195489E+03  0.10100000352E+00 0. -1.
       -3    1    3    3    0  502  0.15151824377E+03  0.37300043090E+02 -0.73652318661E+03  0.75287149370E+03  0.10100000352E+00 0.  1.
</event>
<event>
 5   0  0.6671375E-05  0.1398315E+04  0.7818609E-02  0.8955039E-01
        1   -1    0    0  501    0  0.00000000000E+00  0.00000000000E+00  0.15258005809E+04  0.15258005809E+04  0.50400001928E-02 0.  1.
       -1   -1    0    0    0  501  0.00000000000E+00  0.00000000000E+00 -0.32037029802E+03  0.32037029806E+03  0.50400001928E-02 0. -1.
    10030    2    1    2    0    0  0.00000000000E+00  0.00000000000E+00  0.12054302829E+04  0.18461708790E+04  0.13983149672E+04 0.  0.
        5    1    3    3  502    0 -0.32973646480E+03  0.35901912631E+02 -0.20985846290E+03  0.39252738502E+03  0.46999998093E+01 0. -1.
       -5    1    3    3    0  502  0.32973646480E+03 -0.35901912631E+02  0.14152887458E+04  0.14536434939E+04  0.46999998093E+01 0.  1.
</event>
<event>
 5   0  0.9828111E-05  0.1407943E+04  0.7818609E-02  0.8948089E-01
        1   -1    0    0  501    0  0.00000000000E+00  0.00000000000E+00  0.11251093535E+04  0.11251093535E+04  0.50400001928E-02 0. -1.
       -1   -1    0    0    0  501  0.00000000000E+00  0.00000000000E+00 -0.44046918221E+03  0.44046918224E+03  0.50400001928E-02 0.  1.
    10030    2    1    2    0    0  0.00000000000E+00  0.00000000000E+00  0.68464017128E+03  0.15655785357E+04  0.14079431762E+04 0.  0.
        4    1    3    3  502    0 -0.48288351988E+03 -0.39873538657E+03  0.69989476842E+03  0.93915957219E+03  0.12699999809E+01 0. -1.
       -4    1    3    3    0  502  0.48288351988E+03  0.39873538657E+03 -0.15254597146E+02  0.62641896356E+03  0.12699999809E+01 0.  1.
</event>
<event>
 5   0  0.6671375E-05  0.1404327E+04  0.7818609E-02  0.8950692E-01
        1   -1    0    0  501    0  0.00000000000E+00  0.00000000000E+00  0.94563738858E+03  0.94563738859E+03  0.50400001928E-02 0. -1.
       -1   -1    0    0    0  501  0.00000000000E+00  0.00000000000E+00 -0.52137729678E+03  0.52137729680E+03  0.50400001928E-02 0.  1.
    10030    2    1    2    0    0  0.00000000000E+00  0.00000000000E+00  0.42426009180E+03  0.14670146854E+04  0.14043274054E+04 0.  0.
        5    1    3    3  502    0  0.37829383888E+03  0.31113094596E+03 -0.31342088096E+03  0.58151821355E+03  0.46999998093E+01 0.  1.
       -5    1    3    3    0  502 -0.37829383888E+03 -0.31113094596E+03  0.73768097276E+03  0.88549647184E+03  0.46999998093E+01 0. -1.
</event>
<event>
 5   0  0.9828111E-05  0.1400702E+04  0.7818609E-02  0.8953310E-01
       -1   -1    0    0    0  501  0.00000000000E+00  0.00000000000E+00  0.49567324641E+03  0.49567324643E+03  0.50400001928E-02 0. -1.
        1   -1    0    0  501    0  0.00000000000E+00  0.00000000000E+00 -0.98954637679E+03  0.98954637680E+03  0.50400001928E-02 0.  1.
    10030    2    1    2    0    0  0.00000000000E+00  0.00000000000E+00 -0.49387313038E+03  0.14852196232E+04  0.14007022026E+04 0.  0.
        4    1    3    3  502    0 -0.48798292094E+03 -0.33088172161E+03  0.15386609838E+03  0.60933277768E+03  0.12699999809E+01 0. -1.
       -4    1    3    3    0  502  0.48798292094E+03  0.33088172161E+03 -0.64773922877E+03  0.87588684555E+03  0.12699999809E+01 0.  1.
</event>
<event>
 5   0  0.1766237E-04  0.1400482E+04  0.7818609E-02  0.8953470E-01
        2   -1    0    0  501    0  0.00000000000E+00  0.00000000000E+00  0.15688761592E+04  0.15688761592E+04  0.25500000920E-02 0.  1.
       -2   -1    0    0    0  501  0.00000000000E+00  0.00000000000E+00 -0.31254064908E+03  0.31254064909E+03  0.25500000920E-02 0. -1.
    10030    2    1    2    0    0  0.00000000000E+00  0.00000000000E+00  0.12563355101E+04  0.18814168083E+04  0.14004821643E+04 0.  0.
        3    1    3    3  502    0  0.56085761609E+03  0.17522822805E+03  0.11648793797E+03  0.59902892027E+03  0.10100000352E+00 0. -1.
       -3    1    3    3    0  502 -0.56085761609E+03 -0.17522822805E+03  0.11398475722E+04  0.12823878880E+04  0.10100000352E+00 0.  1.
</event>
<event>
 5   0  0.9900839E-05  0.1399987E+04  0.7818609E-02  0.8953828E-01
       -1   -1    0    0    0  501  0.00000000000E+00  0.00000000000E+00  0.40487085362E+03  0.40487085365E+03  0.50400001928E-02 0.  1.
        1   -1    0    0  501    0  0.00000000000E+00  0.00000000000E+00 -0.12102399494E+04  0.12102399494E+04  0.50400001928E-02 0. -1.
    10030    2    1    2    0    0  0.00000000000E+00  0.00000000000E+00 -0.80536909581E+03  0.16151108031E+04  0.13999869734E+04 0.  0.
        3    1    3    3  502    0  0.39081056260E+03  0.14420098378E+03  0.24630920947E+03  0.48393703767E+03  0.10100000352E+00 0.  1.
       -3    1    3    3    0  502 -0.39081056260E+03 -0.14420098378E+03 -0.10516783053E+04  0.11311737654E+04  0.10100000352E+00 0. -1.
</event>
<event>
 5   0  0.1780171E-04  0.1390199E+04  0.7818609E-02  0.8960944E-01
        2   -1    0    0  501    0  0.00000000000E+00  0.00000000000E+00  0.79026956066E+03  0.79026956067E+03  0.25500000920E-02 0. -1.
       -2   -1    0    0    0  501  0.00000000000E+00  0.00000000000E+00 -0.61139069607E+03  0.61139069608E+03  0.25500000920E-02 0.  1.
    10030    2    1    2    0    0  0.00000000000E+00  0.00000000000E+00  0.17887886459E+03  0.14016602567E+04  0.13901992041E+04 0.  0.
        5    1    3    3  502    0 -0.12995108130E+03 -0.45610900890E+03 -0.42290206288E+03  0.63544547863E+03  0.46999998093E+01 0.  1.
       -5    1    3    3    0  502  0.12995108130E+03  0.45610900890E+03  0.60178092747E+03  0.76621477811E+03  0.46999998093E+01 0. -1.
</event>
<event>
 5   0  0.1766237E-04  0.1400620E+04  0.7818609E-02  0.8953370E-01
       -2   -1    0    0    0  501  0.00000000000E+00  0.00000000000E+00  0.63396154833E+03  0.63396154834E+03  0.25500000920E-02 0.  1.
        2   -1    0    0  501    0  0.00000000000E+00  0.00000000000E+00 -0.77360238367E+03  0.77360238367E+03  0.25500000920E-02 0. -1.
    10030    2    1    2    0    0  0.00000000000E+00  0.00000000000E+00 -0.13964083534E+03  0.14075639320E+04  0.14006200983E+04 0.  0.
        3    1    3    3  502    0 -0.41816008867E+03  0.43655373500E+03 -0.42512253784E+03  0.73903058508E+03  0.10100000352E+00 0. -1.
       -3    1    3    3    0  502  0.41816008867E+03 -0.43655373500E+03  0.28548170251E+03  0.66853334693E+03  0.10100000352E+00 0.  1.
</event>
<event>
 5   0  0.9900839E-05  0.1395105E+04  0.7818609E-02  0.8957370E-01
        1   -1    0    0  501    0  0.00000000000E+00  0.00000000000E+00  0.14817363888E+04  0.14817363888E+04  0.50400001928E-02 0. -1.
       -1   -1    0    0    0  501  0.00000000000E+00  0.00000000000E+00 -0.32838457707E+03  0.32838457710E+03  0.50400001928E-02 0.  1.
    10030    2    1    2    0    0  0.00000000000E+00  0.00000000000E+00  0.11533518118E+04  0.18101209659E+04  0.13951048382E+04 0.  0.
        3    1    3    3  502    0 -0.53484036652E+03  0.15802366746E+03  0.11203087790E+04  0.12514461505E+04  0.10100000352E+00 0. -1.
       -3    1    3    3    0  502  0.53484036652E+03 -0.15802366746E+03  0.33043032722E+02  0.55867481539E+03  0.10100000352E+00 0.  1.
</event>
<event>
 5   0  0.1833681E-04  0.1375488E+04  0.7818609E-02  0.8971755E-01
        2   -1    0    0  501    0  0.00000000000E+00  0.00000000000E+00  0.79832569281E+03  0.79832569282E+03  0.25500000920E-02 0. -1.
       -2   -1    0    0    0  501  0.00000000000E+00  0.00000000000E+00 -0.59247939163E+03  0.59247939164E+03  0.25500000920E-02 0.  1.
    10030    2    1    2    0    0  0.00000000000E+00  0.00000000000E+00  0.20584630118E+03  0.13908050845E+04  0.13754875802E+04 0.  0.
        4    1    3    3  502    0  0.54458925787E+03 -0.10056619798E+03  0.51526201344E+03  0.75643081333E+03  0.12699999809E+01 0. -1.
       -4    1    3    3    0  502 -0.54458925787E+03  0.10056619798E+03 -0.30941571226E+03  0.63437427112E+03  0.12699999809E+01 0.  1.
</event>
<event>
 5   0  0.6671375E-05  0.1398547E+04  0.7818609E-02  0.8954871E-01
       -4   -1    0    0    0  501  0.00000000000E+00  0.00000000000E+00  0.57524022179E+03  0.57524162373E+03  0.12699999809E+01 0.  1.
        4   -1    0    0  501    0  0.00000000000E+00  0.00000000000E+00 -0.85004732986E+03  0.85004827858E+03  0.12699999809E+01 0. -1.
    10030    2    1    2    0    0  0.00000000000E+00  0.00000000000E+00 -0.27480710807E+03  0.14252899023E+04  0.13985465166E+04 0.  0.
        2    1    3    3  502    0 -0.54883104392E+03 -0.43089525613E+03 -0.90736508494E+02  0.70364717757E+03  0.25500000920E-02 0. -1.
       -2    1    3    3    0  502  0.54883104392E+03  0.43089525613E+03 -0.18407059958E+03  0.72164272473E+03  0.25500000920E-02 0.  1.
</event>
<event>
 5   0  0.9978422E-05  0.1399568E+04  0.7818609E-02  0.8954131E-01
       -1   -1    0    0    0  501  0.00000000000E+00  0.00000000000E+00  0.18592152742E+04  0.18592152742E+04  0.50400001928E-02 0.  1.
        1   -1    0    0  501    0  0.00000000000E+00  0.00000000000E+00 -0.26338957863E+03  0.26338957868E+03  0.50400001928E-02 0. -1.
    10030    2    1    2    0    0  0.00000000000E+00  0.00000000000E+00  0.15958256955E+04  0.21226048528E+04  0.13995684016E+04 0.  0.
        2    1    3    3  502    0 -0.43718392728E+03  0.39558429096E+02  0.16244371756E+04  0.16827034180E+04  0.25500000920E-02 0.  1.
       -2    1    3    3    0  502  0.43718392728E+03 -0.39558429096E+02 -0.28611480038E+02  0.43990143485E+03  0.25500000920E-02 0. -1.
</event>
<event>
 5   0  0.9828111E-05  0.1399497E+04  0.7818609E-02  0.8954183E-01
       -1   -1    0    0    0  501  0.00000000000E+00  0.00000000000E+00  0.53874129403E+03  0.53874129405E+03  0.50400001928E-02 0. -1.
        1   -1    0    0  501    0  0.00000000000E+00  0.00000000000E+00 -0.90887382815E+03  0.90887382816E+03  0.50400001928E-02 0.  1.
    10030    2    1    2    0    0  0.00000000000E+00  0.00000000000E+00 -0.37013253412E+03  0.14476151222E+04  0.13994968557E+04 0.  0.
        4    1    3    3  502    0  0.45974869405E+03 -0.29944418109E+03  0.26415902333E+03  0.60894768394E+03  0.12699999809E+01 0. -1.
       -4    1    3    3    0  502 -0.45974869405E+03  0.29944418109E+03 -0.63429155745E+03  0.83866743827E+03  0.12699999809E+01 0.  1.
</event>
<event>
 5   0  0.9900839E-05  0.1401498E+04  0.7818609E-02  0.8952735E-01
       -1   -1    0    0    0  501  0.00000000000E+00  0.00000000000E+00  0.30861596355E+03  0.30861596359E+03  0.50400001928E-02 0.  1.
        1   -1    0    0  501    0  0.00000000000E+00  0.00000000000E+00 -0.15911340550E+04  0.15911340550E+04  0.50400001928E-02 0. -1.
    10030    2    1    2    0    0  0.00000000000E+00  0.00000000000E+00 -0.12825180915E+04  0.18997500186E+04  0.14014982976E+04 0.  0.
        3    1    3    3  502    0 -0.47362428691E+03  0.50027361962E+03 -0.46737406969E+03  0.83248554994E+03  0.10100000352E+00 0.  1.
       -3    1    3    3    0  502  0.47362428691E+03 -0.50027361962E+03 -0.81514402176E+03  0.10672644687E+04  0.10100000352E+00 0. -1.
</event>
<event>
 5   0  0.6671375E-05  0.1400887E+04  0.7818609E-02  0.8953177E-01
       -1   -1    0    0    0  501  0.00000000000E+00  0.00000000000E+00  0.81072482463E+03  0.81072482464E+03  0.50400001928E-02 0.  1.
        1   -1    0    0  501    0  0.00000000000E+00  0.00000000000E+00 -0.60516377863E+03  0.60516377865E+03  0.50400001928E-02 0. -1.
    10030    2    1    2    0    0  0.00000000000E+00  0.00000000000E+00  0.20556104600E+03  0.14158886033E+04  0.14008872879E+04 0.  0.
        5    1    3    3  502    0  0.63050953447E+03  0.10565912290E+03 -0.18645358612E+03  0.66595281596E+03  0.46999998093E+01 0. -1.
       -5    1    3    3    0  502 -0.63050953447E+03 -0.10565912290E+03  0.39201463213E+03  0.74993578733E+03  0.46999998093E+01 0.  1.
</event>
<event>
 5   0  0.1766237E-04  0.1404851E+04  0.7818609E-02  0.8950314E-01
       -2   -1    0    0    0  501  0.00000000000E+00  0.00000000000E+00  0.48043365780E+03  0.48043365780E+03  0.25500000920E-02 0.  1.
        2   -1    0    0  501    0  0.00000000000E+00  0.00000000000E+00 -0.10269928480E+04  0.10269928480E+04  0.25500000920E-02 0. -1.
    10030    2    1    2    0    0  0.00000000000E+00  0.00000000000E+00 -0.54655919018E+03  0.15074265058E+04  0.14048514946E+04 0.  0.
        3    1    3    3  502    0 -0.64171711619E+03  0.58510380342E+02 -0.57329730534E+03  0.86249297524E+03  0.10100000352E+00 0. -1.
       -3    1    3    3    0  502  0.64171711619E+03 -0.58510380342E+02  0.26738115157E+02  0.64493353055E+03  0.10100000352E+00 0.  1.
</event>
<event>
 5   0  0.9260916E-05  0.1401026E+04  0.7818609E-02  0.8953076E-01
       -1   -1    0    0    0  501  0.00000000000E+00  0.00000000000E+00  0.35940186402E+03  0.35940186405E+03  0.50400001928E-02 0. -1.
        1   -1    0    0  501    0  0.00000000000E+00  0.00000000000E+00 -0.13653756420E+04  0.13653756420E+04  0.50400001928E-02 0.  1.
    10030    2    1    2    0    0  0.00000000000E+00  0.00000000000E+00 -0.10059737780E+04  0.17247775061E+04  0.14010261252E+04 0.  0.
        1    1    3    3  502    0  0.38447510652E+03  0.16990195824E+03 -0.11928659229E+04  0.12647596186E+04  0.50400001928E-02 0.  1.
       -1    1    3    3    0  502 -0.38447510652E+03 -0.16990195824E+03  0.18689214486E+03  0.46001788746E+03  0.50400001928E-02 0. -1.
</event>
<event>
 5   0  0.1712327E-04  0.1396375E+04  0.7818609E-02  0.8956447E-01
        2   -1    0    0  501    0  0.00000000000E+00  0.00000000000E+00  0.80046047051E+03  0.80046047051E+03  0.25500000920E-02 0. -1.
       -2   -1    0    0    0  501  0.00000000000E+00  0.00000000000E+00 -0.60898148183E+03  0.60898148183E+03  0.25500000920E-02 0.  1.
    10030    2    1    2    0    0  0.00000000000E+00  0.00000000000E+00  0.19147898868E+03  0.14094419523E+04  0.13963747398E+04 0.  0.
        1    1    3    3  502    0 -0.36192431182E+03 -0.37188998499E+02  0.69721299026E+03  0.78643383886E+03  0.50400001928E-02 0. -1.
       -1    1    3    3    0  502  0.36192431182E+03  0.37188998499E+02 -0.50573400157E+03  0.62300811348E+03  0.50400001928E-02 0.  1.
</event>
<event>
 5   0  0.9900839E-05  0.1385760E+04  0.7818609E-02  0.8964191E-01
        1   -1    0    0  501    0  0.00000000000E+00  0.00000000000E+00  0.18014055364E+04  0.18014055364E+04  0.50400001928E-02 0. -1.
       -1   -1    0    0    0  501  0.00000000000E+00  0.00000000000E+00 -0.26650457225E+03  0.26650457230E+03  0.50400001928E-02 0.  1.
    10030    2    1    2    0    0  0.00000000000E+00  0.00000000000E+00  0.15349009641E+04  0.20679101087E+04  0.13857601697E+04 0.  0.
        3    1    3    3  502    0  0.60892920578E+03 -0.32432234029E+03  0.67186396135E+03  0.96300620498E+03  0.10100000352E+00 0. -1.
       -3    1    3    3    0  502 -0.60892920578E+03  0.32432234029E+03  0.86303700277E+03  0.11049039037E+04  0.10100000352E+00 0.  1.
</event>
<event>
 5   0  0.9978422E-05  0.1399492E+04  0.7818609E-02  0.8954186E-01
       -1   -1    0    0    0  501  0.00000000000E+00  0.00000000000E+00  0.14774204165E+04  0.14774204165E+04  0.50400001928E-02 0. -1.
        1   -1    0    0  501    0  0.00000000000E+00  0.00000000000E+00 -0.33141842162E+03  0.33141842165E+03  0.50400001928E-02 0.  1.
    10030    2    1    2    0    0  0.00000000000E+00  0.00000000000E+00  0.11460019949E+04  0.18088388382E+04  0.13994918257E+04 0.  0.
        2    1    3    3  502    0  0.12332878842E+03  0.10537599960E+03 -0.30678052493E+03  0.34702792658E+03  0.25500000920E-02 0.  1.
       -2    1    3    3    0  502 -0.12332878842E+03 -0.10537599960E+03  0.14527825198E+04  0.14618109116E+04  0.25500000920E-02 0. -1.
</event>
<event>
 5   0  0.6671375E-05  0.1400589E+04  0.7818609E-02  0.8953392E-01
        1   -1    0    0  501    0  0.00000000000E+00  0.00000000000E+00  0.90276162439E+03  0.90276162440E+03  0.50400001928E-02 0.  1.
       -1   -1    0    0    0  501  0.00000000000E+00  0.00000000000E+00 -0.54323608604E+03  0.54323608606E+03  0.50400001928E-02 0. -1.
    10030    2    1    2    0    0  0.00000000000E+00  0.00000000000E+00  0.35952553835E+03  0.14459977105E+04  0.14005894352E+04 0.  0.
        5    1    3    3  502    0  0.36018223216E+03 -0.42150991184E+03  0.62140333824E+03  0.83280612685E+03  0.46999998093E+01 0.  1.
       -5    1    3    3    0  502 -0.36018223216E+03  0.42150991184E+03 -0.26187779989E+03  0.61319158362E+03  0.46999998093E+01 0. -1.
</event>
<event>
 5   0  0.1780171E-04  0.1390860E+04  0.7818609E-02  0.8960461E-01
       -2   -1    0    0    0  501  0.00000000000E+00  0.00000000000E+00  0.39647367386E+03  0.39647367386E+03  0.25500000920E-02 0.  1.
        2   -1    0    0  501    0  0.00000000000E+00  0.00000000000E+00 -0.12198115564E+04  0.12198115564E+04  0.25500000920E-02 0. -1.
    10030    2    1    2    0    0  0.00000000000E+00  0.00000000000E+00 -0.82333788252E+03  0.16162852302E+04  0.13908604088E+04 0.  0.
        5    1    3    3  502    0 -0.29539549307E+03  0.43320702424E+03  0.11917748287E+03  0.53772872863E+03  0.46999998093E+01 0.  1.
       -5    1    3    3    0  502  0.29539549307E+03 -0.43320702424E+03 -0.94251536539E+03  0.10785565016E+04  0.46999998093E+01 0. -1.
</event>
<event>
 5   0  0.1780171E-04  0.1397682E+04  0.7818609E-02  0.8955498E-01
       -2   -1    0    0    0  501  0.00000000000E+00  0.00000000000E+00  0.32803352114E+03  0.32803352115E+03  0.25500000920E-02 0. -1.
        2   -1    0    0  501    0  0.00000000000E+00  0.00000000000E+00 -0.14888068306E+04  0.14888068306E+04  0.25500000920E-02 0.  1.
    10030    2    1    2    0    0  0.00000000000E+00  0.00000000000E+00 -0.11607733095E+04  0.18168403518E+04  0.13976817191E+04 0.  0.
        5    1    3    3  502    0 -0.47323025735E+02 -0.26433526365E+03 -0.14190398393E+04  0.14442329299E+04  0.46999998093E+01 0.  1.
       -5    1    3    3    0  502  0.47323025735E+02  0.26433526365E+03  0.25826652984E+03  0.37260742183E+03  0.46999998093E+01 0. -1.
</event>
<event>
 5   0  0.1780171E-04  0.1400012E+04  0.7818609E-02  0.8953810E-01
       -2   -1    0    0    0  501  0.00000000000E+00  0.00000000000E+00  0.79170509328E+03  0.79170509329E+03  0.25500000920E-02 0. -1.
        2   -1    0    0  501    0  0.00000000000E+00  0.00000000000E+00 -0.61892763213E+03  0.61892763213E+03  0.25500000920E-02 0.  1.
    10030    2    1    2    0    0  0.00000000000E+00  0.00000000000E+00  0.17277746116E+03  0.14106327254E+04  0.14000116553E+04 0.  0.
        5    1    3    3  502    0  0.56195103521E+03 -0.40787902496E+03 -0.27801268791E+01  0.69439476099E+03  0.46999998093E+01 0. -1.
       -5    1    3    3    0  502 -0.56195103521E+03  0.40787902496E+03  0.17555758804E+03  0.71623796444E+03  0.46999998093E+01 0.  1.
</event>
<event>
 5   0  0.9828111E-05  0.1402361E+04  0.7818609E-02  0.8952111E-01
        1   -1    0    0  501    0  0.00000000000E+00  0.00000000000E+00  0.44013283684E+03  0.44013283687E+03  0.50400001928E-02 0.  1.
       -1   -1    0    0    0  501  0.00000000000E+00  0.00000000000E+00 -0.11170582785E+04  0.11170582785E+04  0.50400001928E-02 0. -1.
    10030    2    1    2    0    0  0.00000000000E+00  0.00000000000E+00 -0.67692544168E+03  0.15571911154E+04  0.14023609080E+04 0.  0.
        4    1    3    3  502    0 -0.26063327183E+03  0.64377661054E+03 -0.44539893034E+03  0.82508172123E+03  0.12699999809E+01 0.  1.
       -4    1    3    3    0  502  0.26063327183E+03 -0.64377661054E+03 -0.23152651134E+03  0.73210939416E+03  0.12699999809E+01 0. -1.
</event>
<event>
 5   0  0.1794185E-04  0.1400729E+04  0.7818609E-02  0.8953291E-01
        2   -1    0    0  501    0  0.00000000000E+00  0.00000000000E+00  0.10314197396E+04  0.10314197396E+04  0.25500000920E-02 0.  1.
       -2   -1    0    0    0  501  0.00000000000E+00  0.00000000000E+00 -0.47556849650E+03  0.47556849651E+03  0.25500000920E-02 0. -1.
    10030    2    1    2    0    0  0.00000000000E+00  0.00000000000E+00  0.55585124309E+03  0.15069882361E+04  0.14007294312E+04 0.  0.
        2    1    3    3  502    0  0.17688467877E+03  0.23408915198E+03 -0.40626088620E+03  0.50113254566E+03  0.25500000920E-02 0. -1.
       -2    1    3    3    0  502 -0.17688467877E+03 -0.23408915198E+03  0.96211212929E+03  0.10058556904E+04  0.25500000920E-02 0.  1.
</event>
<event>
 5   0  0.1766237E-04  0.1409848E+04  0.7818609E-02  0.8946720E-01
        2   -1    0    0  501    0  0.00000000000E+00  0.00000000000E+00  0.95406773026E+03  0.95406773027E+03  0.25500000920E-02 0.  1.
       -2   -1    0    0    0  501  0.00000000000E+00  0.00000000000E+00 -0.52084161026E+03  0.52084161027E+03  0.25500000920E-02 0. -1.
    10030    2    1    2    0    0  0.00000000000E+00  0.00000000000E+00  0.43322612000E+03  0.14749093405E+04  0.14098484641E+04 0.  0.
        3    1    3    3  502    0 -0.58355127238E+03  0.36902493380E+03  0.36532310405E+03  0.78113537227E+03  0.10100000352E+00 0.  1.
       -3    1    3    3    0  502  0.58355127238E+03 -0.36902493380E+03  0.67903015950E+02  0.69377396826E+03  0.10100000352E+00 0. -1.
</event>
<event>
 5   0  0.9260916E-05  0.1400206E+04  0.7818609E-02  0.8953670E-01
       -1   -1    0    0    0  501  0.00000000000E+00  0.00000000000E+00  0.25355628581E+03  0.25355628586E+03  0.50400001928E-02 0.  1.
        1   -1    0    0  501    0  0.00000000000E+00  0.00000000000E+00 -0.19330777199E+04  0.19330777200E+04  0.50400001928E-02 0. -1.
    10030    2    1    2    0    0  0.00000000000E+00  0.00000000000E+00 -0.16795214341E+04  0.21866340058E+04  0.14002057091E+04 0.  0.
        1    1    3    3  502    0  0.44840146876E+03 -0.24414929974E+03 -0.15878413194E+04  0.16679067160E+04  0.50400001928E-02 0. -1.
       -1    1    3    3    0  502 -0.44840146876E+03  0.24414929974E+03 -0.91680114781E+02  0.51872728983E+03  0.50400001928E-02 0.  1.
</event>
<event>
 5   0  0.1766237E-04  0.1400972E+04  0.7818609E-02  0.8953115E-01
        2   -1    0    0  501    0  0.00000000000E+00  0.00000000000E+00  0.17043890259E+04  0.17043890259E+04  0.25500000920E-02 0.  1.
       -2   -1    0    0    0  501  0.00000000000E+00  0.00000000000E+00 -0.28789226833E+03  0.28789226834E+03  0.25500000920E-02 0. -1.
    10030    2    1    2    0    0  0.00000000000E+00  0.00000000000E+00  0.14164967576E+04  0.19922812943E+04  0.14009716954E+04 0.  0.
        3    1    3    3  502    0  0.68241115791E+03  0.15267314340E+03  0.76664574777E+03  0.10376607297E+04  0.10100000352E+00 0.  1.
       -3    1    3    3    0  502 -0.68241115791E+03 -0.15267314340E+03  0.64985100983E+03  0.95462056459E+03  0.10100000352E+00 0. -1.
</event>
<event>
 5   0  0.9828111E-05  0.1400908E+04  0.7818609E-02  0.8953161E-01
       -1   -1    0    0    0  501  0.00000000000E+00  0.00000000000E+00  0.41505534267E+03  0.41505534270E+03  0.50400001928E-02 0. -1.
        1   -1    0    0  501    0  0.00000000000E+00  0.00000000000E+00 -0.11820977645E+04  0.11820977645E+04  0.50400001928E-02 0.  1.
    10030    2    1    2    0    0  0.00000000000E+00  0.00000000000E+00 -0.76704242184E+03  0.15971531072E+04  0.14009082664E+04 0.  0.
        4    1    3    3  502    0 -0.42544219711E+03  0.54386771260E+03 -0.24939175488E+03  0.73416007259E+03  0.12699999809E+01 0. -1.
       -4    1    3    3    0  502  0.42544219711E+03 -0.54386771260E+03 -0.51765066697E+03  0.86299303462E+03  0.12699999809E+01 0.  1.
</event>
<event>
 5   0  0.1780171E-04  0.1398418E+04  0.7818609E-02  0.8954965E-01
       -2   -1    0    0    0  501  0.00000000000E+00  0.00000000000E+00  0.79521663233E+03  0.79521663234E+03  0.25500000920E-02 0. -1.
        2   -1    0    0  501    0  0.00000000000E+00  0.00000000000E+00 -0.61479236433E+03  0.61479236434E+03  0.25500000920E-02 0.  1.
    10030    2    1    2    0    0  0.00000000000E+00  0.00000000000E+00  0.18042426800E+03  0.14100089967E+04  0.13984178396E+04 0.  0.
        5    1    3    3  502    0  0.25469528864E+03 -0.11043024065E+03 -0.55682845414E+03  0.62220940642E+03  0.46999998093E+01 0.  1.
       -5    1    3    3    0  502 -0.25469528864E+03  0.11043024065E+03  0.73725272213E+03  0.78779959025E+03  0.46999998093E+01 0. -1.
</event>
<event>
 5   0  0.9900839E-05  0.1413358E+04  0.7818609E-02  0.8944206E-01
       -1   -1    0    0    0  501  0.00000000000E+00  0.00000000000E+00  0.23958940647E+03  0.23958940653E+03  0.50400001928E-02 0. -1.
        1   -1    0    0  501    0  0.00000000000E+00  0.00000000000E+00 -0.20843779874E+04  0.20843779874E+04  0.50400001928E-02 0.  1.
    10030    2    1    2    0    0  0.00000000000E+00  0.00000000000E+00 -0.18447885809E+04  0.23239673939E+04  0.14133575414E+04 0.  0.
        3    1    3    3  502    0 -0.33469963870E+03  0.18019753058E+02  0.10056760869E+03  0.34994630126E+03  0.10100000352E+00 0. -1.
       -3    1    3    3    0  502  0.33469963870E+03 -0.18019753058E+02 -0.19453561896E+04  0.19740210927E+04  0.10100000352E+00 0.  1.
</event>
<event>
 5   0  0.1794185E-04  0.1402841E+04  0.7818609E-02  0.8951765E-01
       -2   -1    0    0    0  501  0.00000000000E+00  0.00000000000E+00  0.68558600595E+03  0.68558600596E+03  0.25500000920E-02 0.  1.
        2   -1    0    0  501    0  0.00000000000E+00  0.00000000000E+00 -0.71762032686E+03  0.71762032686E+03  0.25500000920E-02 0. -1.
    10030    2    1    2    0    0  0.00000000000E+00  0.00000000000E+00 -0.32034320906E+02  0.14032063328E+04  0.14028406234E+04 0.  0.
        2    1    3    3  502    0 -0.22051606265E+03 -0.21365312578E+03 -0.64682842476E+03  0.71600419212E+03  0.25500000920E-02 0.  1.
       -2    1    3    3    0  502  0.22051606265E+03  0.21365312578E+03  0.61479410386E+03  0.68720214070E+03  0.25500000920E-02 0. -1.
</event>
<event>
 5   0  0.6671375E-05  0.1398147E+04  0.7818609E-02  0.8955161E-01
        1   -1    0    0  501    0  0.00000000000E+00  0.00000000000E+00  0.40968130461E+03  0.40968130464E+03  0.50400001928E-02 0.  1.
       -1   -1    0    0    0  501  0.00000000000E+00  0.00000000000E+00 -0.11928884602E+04  0.11928884602E+04  0.50400001928E-02 0. -1.
    10030    2    1    2    0    0  0.00000000000E+00  0.00000000000E+00 -0.78320715556E+03  0.16025697648E+04  0.13981474896E+04 0.  0.
        5    1    3    3  502    0  0.39171006647E+03  0.27577329181E+03 -0.97515173594E+03  0.10864762688E+04  0.46999998093E+01 0. -1.
       -5    1    3    3    0  502 -0.39171006647E+03 -0.27577329181E+03  0.19194458038E+03  0.51609349598E+03  0.46999998093E+01 0.  1.
</event>
<event>
 5   0  0.9978422E-05  0.1403579E+04  0.7818609E-02  0.8951232E-01
       -1   -1    0    0    0  501  0.00000000000E+00  0.00000000000E+00  0.44124748688E+03  0.44124748691E+03  0.50400001928E-02 0. -1.
        1   -1    0    0  501    0  0.00000000000E+00  0.00000000000E+00 -0.11161732635E+04  0.11161732635E+04  0.50400001928E-02 0.  1.
    10030    2    1    2    0    0  0.00000000000E+00  0.00000000000E+00 -0.67492577659E+03  0.15574207504E+04  0.14035792068E+04 0.  0.
        2    1    3    3  502    0  0.12462090766E+03  0.55114091758E+03 -0.79928052275E+03  0.97884423465E+03  0.25500000920E-02 0. -1.
       -2    1    3    3    0  502 -0.12462090766E+03 -0.55114091758E+03  0.12435474616E+03  0.57857651573E+03  0.25500000920E-02 0.  1.
</event>
<event>
 5   0  0.6671375E-05  0.1404317E+04  0.7818609E-02  0.8950699E-01
       -1   -1    0    0    0  501  0.00000000000E+00  0.00000000000E+00  0.21498085670E+03  0.21498085676E+03  0.50400001928E-02 0. -1.
        1   -1    0    0  501    0  0.00000000000E+00  0.00000000000E+00 -0.22933517305E+04  0.22933517305E+04  0.50400001928E-02 0.  1.
    10030    2    1    2    0    0  0.00000000000E+00  0.00000000000E+00 -0.20783708738E+04  0.25083325873E+04  0.14043172289E+04 0.  0.
        5    1    3    3  502    0 -0.38052050509E+03 -0.10450496968E+03 -0.20765227762E+04  0.21136901555E+04  0.46999998093E+01 0.  1.
       -5    1    3    3    0  502  0.38052050509E+03  0.10450496968E+03 -0.18480976176E+01  0.39464243175E+03  0.46999998093E+01 0. -1.
</event>
<event>
 5   0  0.1780171E-04  0.1395148E+04  0.7818609E-02  0.8957338E-01
       -2   -1    0    0    0  501  0.00000000000E+00  0.00000000000E+00  0.51584042330E+03  0.51584042331E+03  0.25500000920E-02 0.  1.
        2   -1    0    0  501    0  0.00000000000E+00  0.00000000000E+00 -0.94333291569E+03  0.94333291570E+03  0.25500000920E-02 0. -1.
    10030    2    1    2    0    0  0.00000000000E+00  0.00000000000E+00 -0.42749249239E+03  0.14591733390E+04  0.13951476632E+04 0.  0.
        5    1    3    3  502    0 -0.38439086015E+03  0.27151514752E+03  0.32477154148E+03  0.57181767448E+03  0.46999998093E+01 0.  1.
       -5    1    3    3    0  502  0.38439086015E+03 -0.27151514752E+03 -0.75226403387E+03  0.88735566452E+03  0.46999998093E+01 0. -1.
</event>
<event>
 5   0  0.6671375E-05  0.1399174E+04  0.7818609E-02  0.8954417E-01
        1   -1    0    0  501    0  0.00000000000E+00  0.00000000000E+00  0.79807015987E+03  0.79807015989E+03  0.50400001928E-02 0.  1.
       -1   -1    0    0    0  501  0.00000000000E+00  0.00000000000E+00 -0.61325657410E+03  0.61325657412E+03  0.50400001928E-02 0. -1.
    10030    2    1    2    0    0  0.00000000000E+00  0.00000000000E+00  0.18481358578E+03  0.14113267340E+04  0.13991737164E+04 0.  0.
        5    1    3    3  502    0 -0.20260283056E+03 -0.46790051715E+03  0.57554613296E+03  0.76893058339E+03  0.46999998093E+01 0.  1.
       -5    1    3    3    0  502  0.20260283056E+03  0.46790051715E+03 -0.39073254719E+03  0.64239615062E+03  0.46999998093E+01 0. -1.
</event>
<event>
 5   0  0.1712327E-04  0.1399366E+04  0.7818609E-02  0.8954277E-01
       -2   -1    0    0    0  501  0.00000000000E+00  0.00000000000E+00  0.37020674145E+03  0.37020674146E+03  0.25500000920E-02 0.  1.
        2   -1    0    0  501    0  0.00000000000E+00  0.00000000000E+00 -0.13223871598E+04  0.13223871598E+04  0.25500000920E-02 0. -1.
    10030    2    1    2    0    0  0.00000000000E+00  0.00000000000E+00 -0.95218041831E+03  0.16925939012E+04  0.13993664872E+04 0.  0.
        1    1    3    3  502    0  0.32324623006E+03 -0.59546527045E+03 -0.68729188697E+03  0.96510991678E+03  0.50400001928E-02 0. -1.
       -1    1    3    3    0  502 -0.32324623006E+03  0.59546527045E+03 -0.26488853134E+03  0.72748398444E+03  0.50400001928E-02 0.  1.
</event>
<event>
 5   0  0.1780171E-04  0.1408690E+04  0.7818609E-02  0.8947552E-01
       -2   -1    0    0    0  501  0.00000000000E+00  0.00000000000E+00  0.68792662536E+03  0.68792662537E+03  0.25500000920E-02 0.  1.
        2   -1    0    0  501    0  0.00000000000E+00  0.00000000000E+00 -0.72115544556E+03  0.72115544557E+03  0.25500000920E-02 0. -1.
    10030    2    1    2    0    0  0.00000000000E+00  0.00000000000E+00 -0.33228820203E+02  0.14090820709E+04  0.14086902172E+04 0.  0.
        5    1    3    3  502    0 -0.44012911815E+03  0.48969453857E+03 -0.26681507498E+03  0.71044124035E+03  0.46999998093E+01 0. -1.
       -5    1    3    3    0  502  0.44012911815E+03 -0.48969453857E+03  0.23358625478E+03  0.69864083059E+03  0.46999998093E+01 0.  1.
</event>
<event>
 5   0  0.1780171E-04  0.1399806E+04  0.7818609E-02  0.8953959E-01
        2   -1    0    0  501    0  0.00000000000E+00  0.00000000000E+00  0.75625833619E+03  0.75625833619E+03  0.25500000920E-02 0.  1.
       -2   -1    0    0    0  501  0.00000000000E+00  0.00000000000E+00 -0.64774699192E+03  0.64774699192E+03  0.25500000920E-02 0. -1.
    10030    2    1    2    0    0  0.00000000000E+00  0.00000000000E+00  0.10851134427E+03  0.14040053281E+04  0.13998057899E+04 0.  0.
        5    1    3    3  502    0 -0.28644634745E+03 -0.26012324555E+02 -0.58571326369E+03  0.65254139199E+03  0.46999998093E+01 0. -1.
       -5    1    3    3    0  502  0.28644634745E+03  0.26012324555E+02  0.69422460796E+03  0.75146393613E+03  0.46999998093E+01 0.  1.
</event>
<event>
 5   0  0.6671375E-05  0.1401819E+04  0.7818609E-02  0.8952503E-01
       -1   -1    0    0    0  501  0.00000000000E+00  0.00000000000E+00  0.88934620933E+03  0.88934620934E+03  0.50400001928E-02 0. -1.
        1   -1    0    0  501    0  0.00000000000E+00  0.00000000000E+00 -0.55239916919E+03  0.55239916922E+03  0.50400001928E-02 0.  1.
    10030    2    1    2    0    0  0.00000000000E+00  0.00000000000E+00  0.33694704014E+03  0.14417453786E+04  0.14018189715E+04 0.  0.
        5    1    3    3  502    0 -0.83875467649E+02  0.20200789649E+03 -0.51638244945E+03  0.56081655504E+03  0.46999998093E+01 0.  1.
       -5    1    3    3    0  502  0.83875467649E+02 -0.20200789649E+03  0.85332948958E+03  0.88092882352E+03  0.46999998093E+01 0. -1.
</event>
<event>
 5   0  0.6671375E-05  0.1399956E+04  0.7818609E-02  0.8953851E-01
        1   -1    0    0  501    0  0.00000000000E+00  0.00000000000E+00  0.15653001862E+04  0.15653001862E+04  0.50400001928E-02 0. -1.
       -1   -1    0    0    0  501  0.00000000000E+00  0.00000000000E+00 -0.31301919807E+03  0.31301919811E+03  0.50400001928E-02 0.  1.
    10030    2    1    2    0    0  0.00000000000E+00  0.00000000000E+00  0.12522809881E+04  0.18783193843E+04  0.13999557265E+04 0.  0.
        5    1    3    3  502    0  0.37908691318E+03 -0.47833029801E+03  0.16634633360E+03  0.63261359014E+03  0.46999998093E+01 0.  1.
       -5    1    3    3    0  502 -0.37908691318E+03  0.47833029801E+03  0.10859346545E+04  0.12457057942E+04  0.46999998093E+01 0. -1.
</event>
<event>
 5   0  0.1780171E-04  0.1400272E+04  0.7818609E-02  0.8953622E-01
        2   -1    0    0  501    0  0.00000000000E+00  0.00000000000E+00  0.95106760311E+03  0.95106760311E+03  0.25500000920E-02 0. -1.
       -2   -1    0    0    0  501  0.00000000000E+00  0.00000000000E+00 -0.51541072312E+03  0.51541072312E+03  0.25500000920E-02 0.  1.
    10030    2    1    2    0    0  0.00000000000E+00  0.00000000000E+00  0.43565687999E+03  0.14664783262E+04  0.14002720322E+04 0.  0.
        5    1    3    3  502    0 -0.24543621010E+02  0.68114972899E+03  0.38539670393E+03  0.78301982864E+03  0.46999998093E+01 0. -1.
       -5    1    3    3    0  502  0.24543621010E+02 -0.68114972899E+03  0.50260176061E+02  0.68345849760E+03  0.46999998093E+01 0.  1.
</event>
<event>
 5   0  0.9828111E-05  0.1402741E+04  0.7818609E-02  0.8951837E-01
        1   -1    0    0  501    0  0.00000000000E+00  0.00000000000E+00  0.90090737478E+03  0.90090737479E+03  0.50400001928E-02 0. -1.
       -1   -1    0    0    0  501  0.00000000000E+00  0.00000000000E+00 -0.54602759448E+03  0.54602759450E+03  0.50400001928E-02 0.  1.
    10030    2    1    2    0    0  0.00000000000E+00  0.00000000000E+00  0.35487978030E+03  0.14469349693E+04  0.14027405843E+04 0.  0.
        4    1    3    3  502    0 -0.52351313229E+03  0.45841021405E+03  0.26802905836E+03  0.74568566639E+03  0.12699999809E+01 0. -1.
       -4    1    3    3    0  502  0.52351313229E+03 -0.45841021405E+03  0.86850721936E+02  0.70124930291E+03  0.12699999809E+01 0.  1.
</event>
<event>
 5   0  0.1712327E-04  0.1402187E+04  0.7818609E-02  0.8952237E-01
        2   -1    0    0  501    0  0.00000000000E+00  0.00000000000E+00  0.87037642299E+03  0.87037642299E+03  0.25500000920E-02 0. -1.
       -2   -1    0    0    0  501  0.00000000000E+00  0.00000000000E+00 -0.56473496720E+03  0.56473496720E+03  0.25500000920E-02 0.  1.
    10030    2    1    2    0    0  0.00000000000E+00  0.00000000000E+00  0.30564145579E+03  0.14351113902E+04  0.14021868644E+04 0.  0.
        1    1    3    3  502    0  0.17211277873E+03 -0.67923744368E+03  0.17672918714E+03  0.72264757601E+03  0.50400001928E-02 0.  1.
       -1    1    3    3    0  502 -0.17211277873E+03  0.67923744368E+03  0.12891226865E+03  0.71246381419E+03  0.50400001928E-02 0. -1.
</event>
<event>
 5   0  0.6671375E-05  0.1395394E+04  0.7818609E-02  0.8957160E-01
        1   -1    0    0  501    0  0.00000000000E+00  0.00000000000E+00  0.10714977189E+04  0.10714977190E+04  0.50400001928E-02 0. -1.
       -1   -1    0    0    0  501  0.00000000000E+00  0.00000000000E+00 -0.45429938819E+03  0.45429938821E+03  0.50400001928E-02 0.  1.
    10030    2    1    2    0    0  0.00000000000E+00  0.00000000000E+00  0.61719833076E+03  0.15257971072E+04  0.13953935046E+04 0.  0.
        5    1    3    3  502    0 -0.26116781404E+03  0.52055326417E+03  0.72865354318E+03  0.93281423870E+03  0.46999998093E+01 0. -1.
       -5    1    3    3    0  502  0.26116781404E+03 -0.52055326417E+03 -0.11145521242E+03  0.59298286848E+03  0.46999998093E+01 0.  1.
</event>
<event>
 5   0  0.9260916E-05  0.1402029E+04  0.7818609E-02  0.8952351E-01
       -1   -1    0    0    0  501  0.00000000000E+00  0.00000000000E+00  0.65975283923E+03  0.65975283925E+03  0.50400001928E-02 0.  1.
        1   -1    0    0  501    0  0.00000000000E+00  0.00000000000E+00 -0.74485656402E+03  0.74485656404E+03  0.50400001928E-02 0. -1.
    10030    2    1    2    0    0  0.00000000000E+00  0.00000000000E+00 -0.85103724791E+02  0.14046094033E+04  0.14020288627E+04 0.  0.
        1    1    3    3  502    0  0.26405772888E+03  0.51299918767E+03  0.35633493817E+03  0.67813659311E+03  0.50400001928E-02 0.  1.
       -1    1    3    3    0  502 -0.26405772888E+03 -0.51299918767E+03 -0.44143866297E+03  0.72647281017E+03  0.50400001928E-02 0. -1.
</event>
<event>
 5   0  0.9260916E-05  0.1401772E+04  0.7818609E-02  0.8952537E-01
       -1   -1    0    0    0  501  0.00000000000E+00  0.00000000000E+00  0.76330041620E+03  0.76330041622E+03  0.50400001928E-02 0.  1.
        1   -1    0    0  501    0  0.00000000000E+00  0.00000000000E+00 -0.64357542271E+03  0.64357542273E+03  0.50400001928E-02 0. -1.
    10030    2    1    2    0    0  0.00000000000E+00  0.00000000000E+00  0.11972499350E+03  0.14068758389E+04  0.14017722897E+04 0.  0.
        1    1    3    3  502    0 -0.57316035490E+02 -0.49165743858E+03 -0.43815901036E+03  0.66105633892E+03  0.50400001928E-02 0. -1.
       -1    1    3    3    0  502  0.57316035490E+02  0.49165743858E+03  0.55788400386E+03  0.74581950003E+03  0.50400001928E-02 0.  1.
</event>
<event>
 5   0  0.9828111E-05  0.1402654E+04  0.7818609E-02  0.8951900E-01
       -1   -1    0    0    0  501  0.00000000000E+00  0.00000000000E+00  0.57296648863E+03  0.57296648865E+03  0.50400001928E-02 0.  1.
        1   -1    0    0  501    0  0.00000000000E+00  0.00000000000E+00 -0.85844414739E+03  0.85844414741E+03  0.50400001928E-02 0. -1.
    10030    2    1    2    0    0  0.00000000000E+00  0.00000000000E+00 -0.28547765876E+03  0.14314106361E+04  0.14026542394E+04 0.  0.
        4    1    3    3  502    0 -0.31806523656E+02 -0.27097100966E+03  0.51658815153E+03  0.58421047083E+03  0.12699999809E+01 0.  1.
       -4    1    3    3    0  502  0.31806523656E+02  0.27097100966E+03 -0.80206581029E+03  0.84720016523E+03  0.12699999809E+01 0. -1.
</event>
<event>
 5   0  0.1833681E-04  0.1400051E+04  0.7818609E-02  0.8953782E-01
        2   -1    0    0  501    0  0.00000000000E+00  0.00000000000E+00  0.68742413909E+03  0.68742413909E+03  0.25500000920E-02 0. -1.
       -2   -1    0    0    0  501  0.00000000000E+00  0.00000000000E+00 -0.71285791121E+03  0.71285791121E+03  0.25500000920E-02 0.  1.
    10030    2    1    2    0    0  0.00000000000E+00  0.00000000000E+00 -0.25433772117E+02  0.14002820503E+04  0.14000510504E+04 0.  0.
        4    1    3    3  502    0 -0.24586442267E+03 -0.21412920642E+03 -0.63228135363E+03  0.71139437334E+03  0.12699999809E+01 0.  1.
       -4    1    3    3    0  502  0.24586442267E+03  0.21412920642E+03  0.60684758151E+03  0.68888767696E+03  0.12699999809E+01 0. -1.
</event>
<event>
 5   0  0.1766237E-04  0.1398078E+04  0.7818609E-02  0.8955211E-01
        2   -1    0    0  501    0  0.00000000000E+00  0.00000000000E+00  0.71879286008E+03  0.71879286009E+03  0.25500000920E-02 0.  1.
       -2   -1    0    0    0  501  0.00000000000E+00  0.00000000000E+00 -0.67982832446E+03  0.67982832446E+03  0.25500000920E-02 0. -1.
    10030    2    1    2    0    0  0.00000000000E+00  0.00000000000E+00  0.38964535625E+02  0.13986211845E+04  0.13980783178E+04 0.  0.
        3    1    3    3  502    0  0.52203041283E+03 -0.26286266596E+03  0.40309329068E+03  0.70999770722E+03  0.10100000352E+00 0.  1.
       -3    1    3    3    0  502 -0.52203041283E+03  0.26286266596E+03 -0.36412875505E+03  0.68862347733E+03  0.10100000352E+00 0. -1.
</event>
<event>
 5   0  0.9828111E-05  0.1400199E+04  0.7818609E-02  0.8953675E-01
        1   -1    0    0  501    0  0.00000000000E+00  0.00000000000E+00  0.10534251683E+04  0.10534251683E+04  0.50400001928E-02 0. -1.
       -1   -1    0    0    0  501  0.00000000000E+00  0.00000000000E+00 -0.46528147432E+03  0.46528147434E+03  0.50400001928E-02 0.  1.
    10030    2    1    2    0    0  0.00000000000E+00  0.00000000000E+00  0.58814369394E+03  0.15187066426E+04  0.14001988650E+04 0.  0.
        4    1    3    3  502    0  0.68942664934E+03  0.11983613196E+03  0.31753108410E+03  0.76843829005E+03  0.12699999809E+01 0.  1.
       -4    1    3    3    0  502 -0.68942664934E+03 -0.11983613196E+03  0.27061260985E+03  0.75026835256E+03  0.12699999809E+01 0. -1.
</event>
<event>
 5   0  0.1780171E-04  0.1399375E+04  0.7818609E-02  0.8954271E-01
       -2   -1    0    0    0  501  0.00000000000E+00  0.00000000000E+00  0.66877589902E+03  0.66877589902E+03  0.25500000920E-02 0. -1.
        2   -1    0    0  501    0  0.00000000000E+00  0.00000000000E+00 -0.73202755899E+03  0.73202755899E+03  0.25500000920E-02 0.  1.
    10030    2    1    2    0    0  0.00000000000E+00  0.00000000000E+00 -0.63251659971E+02  0.14008034580E+04  0.13993747016E+04 0.  0.
        5    1    3    3  502    0  0.23103734392E+03 -0.14729459591E+03 -0.67607374556E+03  0.72950102926E+03  0.46999998093E+01 0.  1.
       -5    1    3    3    0  502 -0.23103734392E+03  0.14729459591E+03  0.61282208558E+03  0.67130242875E+03  0.46999998093E+01 0. -1.
</event>
<event>
 5   0  0.1766237E-04  0.1399238E+04  0.7818609E-02  0.8954370E-01
       -2   -1    0    0    0  501  0.00000000000E+00  0.00000000000E+00  0.10001529177E+04  0.10001529177E+04  0.25500000920E-02 0. -1.
        2   -1    0    0  501    0  0.00000000000E+00  0.00000000000E+00 -0.48939204058E+03  0.48939204059E+03  0.25500000920E-02 0.  1.
    10030    2    1    2    0    0  0.00000000000E+00  0.00000000000E+00  0.51076087710E+03  0.14895449583E+04  0.13992381889E+04 0.  0.
        3    1    3    3  502    0  0.31696576495E+03  0.34861988723E+03 -0.29516659506E+03  0.55599141267E+03  0.10100000352E+00 0.  1.
       -3    1    3    3    0  502 -0.31696576495E+03 -0.34861988723E+03  0.80592747216E+03  0.93355354560E+03  0.10100000352E+00 0. -1.
</event>
<event>
 5   0  0.1833681E-04  0.1400943E+04  0.7818609E-02  0.8953136E-01
       -2   -1    0    0    0  501  0.00000000000E+00  0.00000000000E+00  0.75521436772E+03  0.75521436772E+03  0.25500000920E-02 0.  1.
        2   -1    0    0  501    0  0.00000000000E+00  0.00000000000E+00 -0.64969691781E+03  0.64969691782E+03  0.25500000920E-02 0. -1.
    10030    2    1    2    0    0  0.00000000000E+00  0.00000000000E+00  0.10551744991E+03  0.14049112855E+04  0.14009431780E+04 0.  0.
        4    1    3    3  502    0 -0.25459871027E+02  0.67641797998E+03 -0.12794418535E+03  0.68888374646E+03  0.12699999809E+01 0.  1.
       -4    1    3    3    0  502  0.25459871027E+02 -0.67641797998E+03  0.23346163526E+03  0.71602753907E+03  0.12699999809E+01 0. -1.
</event>
<event>
 5   0  0.1794185E-04  0.1377368E+04  0.7818609E-02  0.8970366E-01
       -2   -1    0    0    0  501  0.00000000000E+00  0.00000000000E+00  0.40310935954E+03  0.40310935955E+03  0.25500000920E-02 0. -1.
        2   -1    0    0  501    0  0.00000000000E+00  0.00000000000E+00 -0.11765674621E+04  0.11765674621E+04  0.25500000920E-02 0.  1.
    10030    2    1    2    0    0  0.00000000000E+00  0.00000000000E+00 -0.77345810260E+03  0.15796768217E+04  0.13773675706E+04 0.  0.
        2    1    3    3  502    0  0.39251315474E+03  0.22789968765E+03  0.20730720914E+03  0.49898008301E+03  0.25500000920E-02 0. -1.
       -2    1    3    3    0  502 -0.39251315474E+03 -0.22789968765E+03 -0.98076531174E+03  0.10806967387E+04  0.25500000920E-02 0.  1.
</event>
<event>
 5   0  0.1794185E-04  0.1392487E+04  0.7818609E-02  0.8959275E-01
       -2   -1    0    0    0  501  0.00000000000E+00  0.00000000000E+00  0.46624378099E+03  0.46624378099E+03  0.25500000920E-02 0.  1.
        2   -1    0    0  501    0  0.00000000000E+00  0.00000000000E+00 -0.10397035662E+04  0.10397035662E+04  0.25500000920E-02 0. -1.
    10030    2    1    2    0    0  0.00000000000E+00  0.00000000000E+00 -0.57345978518E+03  0.15059473472E+04  0.13924874460E+04 0.  0.
        2    1    3    3  502    0  0.63604217297E+03  0.11898543891E+03 -0.56466845034E+03  0.85881176010E+03  0.25500000920E-02 0. -1.
       -2    1    3    3    0  502 -0.63604217297E+03 -0.11898543891E+03 -0.87913348458E+01  0.64713558707E+03  0.25500000920E-02 0.  1.
</event>
<event>
 5   0  0.1794185E-04  0.1412253E+04  0.7818609E-02  0.8944997E-01
       -2   -1    0    0    0  501  0.00000000000E+00  0.00000000000E+00  0.34260550953E+03  0.34260550954E+03  0.25500000920E-02 0. -1.
        2   -1    0    0  501    0  0.00000000000E+00  0.00000000000E+00 -0.14553598371E+04  0.14553598371E+04  0.25500000920E-02 0.  1.
    10030    2    1    2    0    0  0.00000000000E+00  0.00000000000E+00 -0.11127543276E+04  0.17979653467E+04  0.14122525249E+04 0.  0.
        2    1    3    3  502    0  0.59492453822E+03 -0.28857556034E+02 -0.10392339683E+04  0.11978210241E+04  0.25500000920E-02 0.  1.
       -2    1    3    3    0  502 -0.59492453822E+03  0.28857556034E+02 -0.73520359248E+02  0.60014432260E+03  0.25500000920E-02 0. -1.
</event>
<event>
 5   0  0.1766237E-04  0.1400030E+04  0.7818609E-02  0.8953797E-01
        2   -1    0    0  501    0  0.00000000000E+00  0.00000000000E+00  0.79373790760E+03  0.79373790761E+03  0.25500000920E-02 0. -1.
       -2   -1    0    0    0  501  0.00000000000E+00  0.00000000000E+00 -0.61735834381E+03  0.61735834381E+03  0.25500000920E-02 0.  1.
    10030    2    1    2    0    0  0.00000000000E+00  0.00000000000E+00  0.17637956380E+03  0.14110962514E+04  0.14000295998E+04 0.  0.
        3    1    3    3  502    0  0.44485974612E+03 -0.22992890961E+02 -0.45607108105E+03  0.63751839811E+03  0.10100000352E+00 0.  1.
       -3    1    3    3    0  502 -0.44485974612E+03  0.22992890961E+02  0.63245064485E+03  0.77357785331E+03  0.10100000352E+00 0. -1.
</event>
<event>
 5   0  0.1833681E-04  0.1400600E+04  0.7818609E-02  0.8953385E-01
        2   -1    0    0  501    0  0.00000000000E+00  0.00000000000E+00  0.16726001438E+04  0.16726001438E+04  0.25500000920E-02 0.  1.
       -2   -1    0    0    0  501  0.00000000000E+00  0.00000000000E+00 -0.29320800719E+03  0.29320800720E+03  0.25500000920E-02 0. -1.
    10030    2    1    2    0    0  0.00000000000E+00  0.00000000000E+00  0.13793921366E+04  0.19658081510E+04  0.14005995216E+04 0.  0.
        4    1    3    3  502    0  0.67847785148E+02  0.63209765838E+02  0.16639435111E+04  0.16665258527E+04  0.12699999809E+01 0.  1.
       -4    1    3    3    0  502 -0.67847785148E+02 -0.63209765838E+02 -0.28455137453E+03  0.29928229833E+03  0.12699999809E+01 0. -1.
</event>
<event>
 5   0  0.1712327E-04  0.1400194E+04  0.7818609E-02  0.8953678E-01
       -2   -1    0    0    0  501  0.00000000000E+00  0.00000000000E+00  0.87691041646E+03  0.87691041646E+03  0.25500000920E-02 0. -1.
        2   -1    0    0  501    0  0.00000000000E+00  0.00000000000E+00 -0.55893463631E+03  0.55893463631E+03  0.25500000920E-02 0.  1.
    10030    2    1    2    0    0  0.00000000000E+00  0.00000000000E+00  0.31797578015E+03  0.14358450528E+04  0.14001937076E+04 0.  0.
        1    1    3    3  502    0 -0.37006862135E+03 -0.28372404903E+03  0.69447677965E+03  0.83650948471E+03  0.50400001928E-02 0. -1.
       -1    1    3    3    0  502  0.37006862135E+03  0.28372404903E+03 -0.37650099950E+03  0.59933556807E+03  0.50400001928E-02 0.  1.
</event>
<event>
 5   0  0.9260916E-05  0.1400491E+04  0.7818609E-02  0.8953463E-01
       -1   -1    0    0    0  501  0.00000000000E+00  0.00000000000E+00  0.17337728102E+04  0.17337728102E+04  0.50400001928E-02 0. -1.
        1   -1    0    0  501    0  0.00000000000E+00  0.00000000000E+00 -0.28281878447E+03  0.28281878452E+03  0.50400001928E-02 0.  1.
    10030    2    1    2    0    0  0.00000000000E+00  0.00000000000E+00  0.14509540257E+04  0.20165915947E+04  0.14004906551E+04 0.  0.
        1    1    3    3  502    0  0.26844058130E+03 -0.54141000374E+03  0.21606673203E+03  0.64177096425E+03  0.50400001928E-02 0.  1.
       -1    1    3    3    0  502 -0.26844058130E+03  0.54141000374E+03  0.12348872937E+04  0.13748206305E+04  0.50400001928E-02 0. -1.
</event>
<event>
 5   0  0.9900839E-05  0.1400595E+04  0.7818609E-02  0.8953388E-01
        1   -1    0    0  501    0  0.00000000000E+00  0.00000000000E+00  0.75559417327E+03  0.75559417329E+03  0.50400001928E-02 0.  1.
       -1   -1    0    0    0  501  0.00000000000E+00  0.00000000000E+00 -0.64904739945E+03  0.64904739947E+03  0.50400001928E-02 0. -1.
    10030    2    1    2    0    0  0.00000000000E+00  0.00000000000E+00  0.10654677382E+03  0.14046415728E+04  0.14005947783E+04 0.  0.
        3    1    3    3  502    0 -0.87881010021E+02 -0.60464953415E+03  0.39644959291E+03  0.72835185246E+03  0.10100000352E+00 0.  1.
       -3    1    3    3    0  502  0.87881010021E+02  0.60464953415E+03 -0.28990281909E+03  0.67628972030E+03  0.10100000352E+00 0. -1.
</event>
<event>
 5   0  0.9260916E-05  0.1398375E+04  0.7818609E-02  0.8954996E-01
       -1   -1    0    0    0  501  0.00000000000E+00  0.00000000000E+00  0.87608683827E+03  0.87608683828E+03  0.50400001928E-02 0. -1.
        1   -1    0    0  501    0  0.00000000000E+00  0.00000000000E+00 -0.55800725947E+03  0.55800725949E+03  0.50400001928E-02 0.  1.
    10030    2    1    2    0    0  0.00000000000E+00  0.00000000000E+00  0.31807957880E+03  0.14340940978E+04  0.13983745074E+04 0.  0.
        1    1    3    3  502    0  0.98478619499E+02 -0.27252079559E+03 -0.49352935246E+03  0.57230834722E+03  0.50400001928E-02 0.  1.
       -1    1    3    3    0  502 -0.98478619499E+02  0.27252079559E+03  0.81160893126E+03  0.86178575055E+03  0.50400001928E-02 0. -1.
</event>
<event>
 5   0  0.1833681E-04  0.1395259E+04  0.7818609E-02  0.8957257E-01
        2   -1    0    0  501    0  0.00000000000E+00  0.00000000000E+00  0.69339633109E+03  0.69339633110E+03  0.25500000920E-02 0.  1.
       -2   -1    0    0    0  501  0.00000000000E+00  0.00000000000E+00 -0.70188888781E+03  0.70188888782E+03  0.25500000920E-02 0. -1.
    10030    2    1    2    0    0  0.00000000000E+00  0.00000000000E+00 -0.84925567158E+01  0.13952852189E+04  0.13952593732E+04 0.  0.
        4    1    3    3  502    0  0.58353157217E+03 -0.31907761104E+03 -0.21488244061E+03  0.69892466959E+03  0.12699999809E+01 0. -1.
       -4    1    3    3    0  502 -0.58353157217E+03  0.31907761104E+03  0.20638988389E+03  0.69636054932E+03  0.12699999809E+01 0.  1.
</event>
<event>
 5   0  0.1794185E-04  0.1399854E+04  0.7818609E-02  0.8953924E-01
       -2   -1    0    0    0  501  0.00000000000E+00  0.00000000000E+00  0.35909518441E+03  0.35909518442E+03  0.25500000920E-02 0.  1.
        2   -1    0    0  501    0  0.00000000000E+00  0.00000000000E+00 -0.13642561765E+04  0.13642561765E+04  0.25500000920E-02 0. -1.
    10030    2    1    2    0    0  0.00000000000E+00  0.00000000000E+00 -0.10051609921E+04  0.17233513609E+04  0.13998540257E+04 0.  0.
        2    1    3    3  502    0  0.34723422482E+03 -0.32592456273E+03 -0.11340480001E+04  0.12299850788E+04  0.25500000920E-02 0. -1.
       -2    1    3    3    0  502 -0.34723422482E+03  0.32592456273E+03  0.12888700805E+03  0.49336628211E+03  0.25500000920E-02 0.  1.
</event>
<event>
 5   0  0.1794185E-04  0.1401204E+04  0.7818609E-02  0.8952947E-01
       -2   -1    0    0    0  501  0.00000000000E+00  0.00000000000E+00  0.28646931295E+03  0.28646931296E+03  0.25500000920E-02 0. -1.
        2   -1    0    0  501    0  0.00000000000E+00  0.00000000000E+00 -0.17134239529E+04  0.17134239529E+04  0.25500000920E-02 0.  1.
    10030    2    1    2    0    0  0.00000000000E+00  0.00000000000E+00 -0.14269546400E+04  0.19998932659E+04  0.14012043143E+04 0.  0.
        2    1    3    3  502    0  0.67906841801E+03  0.13594102797E+03 -0.86472392087E+03  0.11078634116E+04  0.25500000920E-02 0. -1.
       -2    1    3    3    0  502 -0.67906841801E+03 -0.13594102797E+03 -0.56223071911E+03  0.89202985429E+03  0.25500000920E-02 0.  1.
</event>
<event>
 5   0  0.1712327E-04  0.1400120E+04  0.7818609E-02  0.8953731E-01
       -2   -1    0    0    0  501  0.00000000000E+00  0.00000000000E+00  0.30247489771E+03  0.30247489772E+03  0.25500000920E-02 0. -1.
        2   -1    0    0  501    0  0.00000000000E+00  0.00000000000E+00 -0.16202477818E+04  0.16202477818E+04  0.25500000920E-02 0.  1.
    10030    2    1    2    0    0  0.00000000000E+00  0.00000000000E+00 -0.13177728841E+04  0.19227226795E+04  0.14001203978E+04 0.  0.
        1    1    3    3  502    0  0.45392292967E+03 -0.33840176665E+03 -0.12242983372E+04  0.13488766438E+04  0.50400001928E-02 0.  1.
       -1    1    3    3    0  502 -0.45392292967E+03  0.33840176665E+03 -0.93474546903E+02  0.57384603571E+03  0.50400001928E-02 0. -1.
</event>
<event>
 5   0  0.1780171E-04  0.1399956E+04  0.7818609E-02  0.8953851E-01
        2   -1    0    0  501    0  0.00000000000E+00  0.00000000000E+00  0.68268721096E+03  0.68268721097E+03  0.25500000920E-02 0.  1.
       -2   -1    0    0    0  501  0.00000000000E+00  0.00000000000E+00 -0.71770645527E+03  0.71770645527E+03  0.25500000920E-02 0. -1.
    10030    2    1    2    0    0  0.00000000000E+00  0.00000000000E+00 -0.35019244303E+02  0.14003936662E+04  0.13999557396E+04 0.  0.
        5    1    3    3  502    0 -0.45821128421E+03  0.59269866169E+02  0.50846511965E+03  0.68704393303E+03  0.46999998093E+01 0.  1.
       -5    1    3    3    0  502  0.45821128421E+03 -0.59269866169E+02 -0.54348436395E+03  0.71334973321E+03  0.46999998093E+01 0. -1.
</event>
<event>
 5   0  0.9978422E-05  0.1398481E+04  0.7818609E-02  0.8954919E-01
       -1   -1    0    0    0  501  0.00000000000E+00  0.00000000000E+00  0.39546202677E+03  0.39546202680E+03  0.50400001928E-02 0.  1.
        1   -1    0    0  501    0  0.00000000000E+00  0.00000000000E+00 -0.12363699811E+04  0.12363699811E+04  0.50400001928E-02 0. -1.
    10030    2    1    2    0    0  0.00000000000E+00  0.00000000000E+00 -0.84090795437E+03  0.16318320079E+04  0.13984811455E+04 0.  0.
        2    1    3    3  502    0  0.12427817280E+03 -0.47985398018E+03  0.15502519309E+03  0.51936279904E+03  0.25500000920E-02 0.  1.
       -2    1    3    3    0  502 -0.12427817280E+03  0.47985398018E+03 -0.99593314746E+03  0.11124692089E+04  0.25500000920E-02 0. -1.
</event>
<event>
 5   0  0.9900839E-05  0.1400064E+04  0.7818609E-02  0.8953773E-01
        1   -1    0    0  501    0  0.00000000000E+00  0.00000000000E+00  0.62515692434E+03  0.62515692436E+03  0.50400001928E-02 0. -1.
       -1   -1    0    0    0  501  0.00000000000E+00  0.00000000000E+00 -0.78387435980E+03  0.78387435982E+03  0.50400001928E-02 0.  1.
    10030    2    1    2    0    0  0.00000000000E+00  0.00000000000E+00 -0.15871743546E+03  0.14090312842E+04  0.14000635469E+04 0.  0.
        3    1    3    3  502    0 -0.25134568190E+03  0.75962969491E+02 -0.73243697351E+03  0.77808030107E+03  0.10100000352E+00 0.  1.
       -3    1    3    3    0  502  0.25134568190E+03 -0.75962969491E+02  0.57371953805E+03  0.63095098311E+03  0.10100000352E+00 0. -1.
</event>
<event>
 5   0  0.9260916E-05  0.1396730E+04  0.7818609E-02  0.8956189E-01
       -1   -1    0    0    0  501  0.00000000000E+00  0.00000000000E+00  0.67699185419E+03  0.67699185421E+03  0.50400001928E-02 0.  1.
        1   -1    0    0  501    0  0.00000000000E+00  0.00000000000E+00 -0.72041239837E+03  0.72041239839E+03  0.50400001928E-02 0. -1.
    10030    2    1    2    0    0  0.00000000000E+00  0.00000000000E+00 -0.43420544184E+02  0.13974042526E+04  0.13967295019E+04 0.  0.
        1    1    3    3  502    0  0.11910484784E+03  0.65207587657E+03  0.19822406685E+03  0.69186826368E+03  0.50400001928E-02 0. -1.
       -1    1    3    3    0  502 -0.11910484784E+03 -0.65207587657E+03 -0.24164461103E+03  0.70553598892E+03  0.50400001928E-02 0.  1.
</event>
<event>
 5   0  0.9978422E-05  0.1399906E+04  0.7818609E-02  0.8953887E-01
        1   -1    0    0  501    0  0.00000000000E+00  0.00000000000E+00  0.18870828042E+04  0.18870828042E+04  0.50400001928E-02 0.  1.
       -1   -1    0    0    0  501  0.00000000000E+00  0.00000000000E+00 -0.25962515789E+03  0.25962515794E+03  0.50400001928E-02 0. -1.
    10030    2    1    2    0    0  0.00000000000E+00  0.00000000000E+00  0.16274576464E+04  0.21467079622E+04  0.13999059555E+04 0.  0.
        2    1    3    3  502    0 -0.29969627120E+03  0.26919875630E+03  0.16914934916E+04  0.17388030531E+04  0.25500000920E-02 0.  1.
       -2    1    3    3    0  502  0.29969627120E+03 -0.26919875630E+03 -0.64035845244E+02  0.40790490908E+03  0.25500000920E-02 0. -1.
</event>
<event>
 5   0  0.1766237E-04  0.1396823E+04  0.7818609E-02  0.8956122E-01
        2   -1    0    0  501    0  0.00000000000E+00  0.00000000000E+00  0.54522838968E+03  0.54522838969E+03  0.25500000920E-02 0.  1.
       -2   -1    0    0    0  501  0.00000000000E+00  0.00000000000E+00 -0.89463128874E+03  0.89463128874E+03  0.25500000920E-02 0. -1.
    10030    2    1    2    0    0  0.00000000000E+00  0.00000000000E+00 -0.34940289906E+03  0.14398596784E+04  0.13968226472E+04 0.  0.
        3    1    3    3  502    0 -0.16744194644E+03  0.18051220601E+03 -0.84841086613E+03  0.88341523075E+03  0.10100000352E+00 0. -1.
       -3    1    3    3    0  502  0.16744194644E+03 -0.18051220601E+03  0.49900796708E+03  0.55644444768E+03  0.10100000352E+00 0.  1.
</event>
<event>
 5   0  0.9978422E-05  0.1394291E+04  0.7818609E-02  0.8957962E-01
       -1   -1    0    0    0  501  0.00000000000E+00  0.00000000000E+00  0.37143658249E+03  0.37143658253E+03  0.50400001928E-02 0. -1.
        1   -1    0    0  501    0  0.00000000000E+00  0.00000000000E+00 -0.13084648433E+04  0.13084648433E+04  0.50400001928E-02 0.  1.
    10030    2    1    2    0    0  0.00000000000E+00  0.00000000000E+00 -0.93702826079E+03  0.16799014258E+04  0.13942908014E+04 0.  0.
        2    1    3    3  502    0  0.29409136033E+02 -0.52277152212E+02  0.36832185671E+03  0.37317393808E+03  0.25500000920E-02 0. -1.
       -2    1    3    3    0  502 -0.29409136033E+02  0.52277152212E+02 -0.13053501175E+04  0.13067274877E+04  0.25500000920E-02 0.  1.
</event>
<event>
 5   0  0.1780171E-04  0.1399693E+04  0.7818609E-02  0.8954041E-01
        2   -1    0    0  501    0  0.00000000000E+00  0.00000000000E+00  0.10684305977E+04  0.10684305977E+04  0.25500000920E-02 0. -1.
       -2   -1    0    0    0  501  0.00000000000E+00  0.00000000000E+00 -0.45841526913E+03  0.45841526914E+03  0.25500000920E-02 0.  1.
    10030    2    1    2    0    0  0.00000000000E+00  0.00000000000E+00  0.61001532857E+03  0.15268458668E+04  0.13996926806E+04 0.  0.
        5    1    3    3  502    0  0.66435127637E+03  0.11429800550E+03  0.99951812551E+02  0.68149769428E+03  0.46999998093E+01 0.  1.
       -5    1    3    3    0  502 -0.66435127637E+03 -0.11429800550E+03  0.51006351602E+03  0.84534817256E+03  0.46999998093E+01 0. -1.
</event>
<event>
 5   0  0.1712327E-04  0.1383902E+04  0.7818609E-02  0.8965554E-01
        2   -1    0    0  501    0  0.00000000000E+00  0.00000000000E+00  0.25526497033E+04  0.25526497033E+04  0.25500000920E-02 0. -1.
       -2   -1    0    0    0  501  0.00000000000E+00  0.00000000000E+00 -0.18756834976E+03  0.18756834978E+03  0.25500000920E-02 0.  1.
    10030    2    1    2    0    0  0.00000000000E+00  0.00000000000E+00  0.23650813535E+04  0.27402180531E+04  0.13839021532E+04 0.  0.
        1    1    3    3  502    0 -0.44099917458E+03 -0.98538957692E+02  0.14492906383E+03  0.47454676454E+03  0.50400001928E-02 0.  1.
       -1    1    3    3    0  502  0.44099917458E+03  0.98538957692E+02  0.22201522897E+04  0.22656712885E+04  0.50400001928E-02 0. -1.
</event>
<event>
 5   0  0.6671375E-05  0.1400508E+04  0.7818609E-02  0.8953451E-01
        1   -1    0    0  501    0  0.00000000000E+00  0.00000000000E+00  0.14920271826E+04  0.14920271827E+04  0.50400001928E-02 0.  1.
       -1   -1    0    0    0  501  0.00000000000E+00  0.00000000000E+00 -0.32865079119E+03  0.32865079123E+03  0.50400001928E-02 0. -1.
    10030    2    1    2    0    0  0.00000000000E+00  0.00000000000E+00  0.11633763915E+04  0.18206779739E+04  0.14005083564E+04 0.  0.
        5    1    3    3  502    0  0.15002283253E+03  0.51964731443E+03  0.11598555925E+04  0.12797762567E+04  0.46999998093E+01 0.  1.
       -5    1    3    3    0  502 -0.15002283253E+03 -0.51964731443E+03  0.35207989730E+01  0.54090171723E+03  0.46999998093E+01 0. -1.
</event>
<event>
 5   0  0.9900839E-05  0.1399159E+04  0.7818609E-02  0.8954427E-01
        1   -1    0    0  501    0  0.00000000000E+00  0.00000000000E+00  0.16740470734E+04  0.16740470734E+04  0.50400001928E-02 0.  1.
       -1   -1    0    0    0  501  0.00000000000E+00  0.00000000000E+00 -0.29235235511E+03  0.29235235516E+03  0.50400001928E-02 0. -1.
    10030    2    1    2    0    0  0.00000000000E+00  0.00000000000E+00  0.13816947183E+04  0.19663994286E+04  0.13991591826E+04 0.  0.
        3    1    3    3  502    0 -0.26428107043E+03 -0.54941624804E+03  0.20866728823E+03  0.64439486744E+03  0.10100000352E+00 0. -1.
       -3    1    3    3    0  502  0.26428107043E+03  0.54941624804E+03  0.11730274301E+04  0.13220045611E+04  0.10100000352E+00 0.  1.
</event>
<event>
 5   0  0.9828111E-05  0.1403352E+04  0.7818609E-02  0.8951395E-01
        1   -1    0    0  501    0  0.00000000000E+00  0.00000000000E+00  0.93792941873E+03  0.93792941874E+03  0.50400001928E-02 0. -1.
       -1   -1    0    0    0  501  0.00000000000E+00  0.00000000000E+00 -0.52493235745E+03  0.52493235748E+03  0.50400001928E-02 0.  1.
    10030    2    1    2    0    0  0.00000000000E+00  0.00000000000E+00  0.41299706127E+03  0.14628617762E+04  0.14033524161E+04 0.  0.
        4    1    3    3  502    0  0.31389012329E+03 -0.22218048475E+03  0.81829063890E+03  0.90415284102E+03  0.12699999809E+01 0. -1.
       -4    1    3    3    0  502 -0.31389012329E+03  0.22218048475E+03 -0.40529357763E+03  0.55870893520E+03  0.12699999809E+01 0.  1.
</event>
<event>
 5   0  0.6671375E-05  0.1400913E+04  0.7818609E-02  0.8953158E-01
        1   -1    0    0  501    0  0.00000000000E+00  0.00000000000E+00  0.60349838638E+03  0.60349838641E+03  0.50400001928E-02 0.  1.
       -1   -1    0    0    0  501  0.00000000000E+00  0.00000000000E+00 -0.81299216986E+03  0.81299216988E+03  0.50400001928E-02 0. -1.
    10030    2    1    2    0    0  0.00000000000E+00  0.00000000000E+00 -0.20949378347E+03  0.14164905563E+04  0.14009132203E+04 0.  0.
        5    1    3    3  502    0  0.26105801533E+03  0.48203167376E+03 -0.54561298827E+03  0.77344776478E+03  0.46999998093E+01 0. -1.
       -5    1    3    3    0  502 -0.26105801533E+03 -0.48203167376E+03  0.33611920479E+03  0.64304279150E+03  0.46999998093E+01 0.  1.
</event>
<event>
 5   0  0.1794185E-04  0.1397904E+04  0.7818609E-02  0.8955337E-01
       -2   -1    0    0    0  501  0.00000000000E+00  0.00000000000E+00  0.12302837556E+04  0.12302837556E+04  0.25500000920E-02 0. -1.
        2   -1    0    0  501    0  0.00000000000E+00  0.00000000000E+00 -0.39709030084E+03  0.39709030084E+03  0.25500000920E-02 0.  1.
    10030    2    1    2    0    0  0.00000000000E+00  0.00000000000E+00  0.83319345473E+03  0.16273740564E+04  0.13979037830E+04 0.  0.
        2    1    3    3  502    0 -0.60338730586E+03 -0.31792126830E+03  0.23857806103E+03  0.72254388443E+03  0.25500000920E-02 0.  1.
       -2    1    3    3    0  502  0.60338730586E+03  0.31792126830E+03  0.59461539370E+03  0.90483017199E+03  0.25500000920E-02 0. -1.
</event>
<event>
 5   0  0.9978422E-05  0.1394883E+04  0.7818609E-02  0.8957531E-01
       -1   -1    0    0    0  501  0.00000000000E+00  0.00000000000E+00  0.40915241416E+03  0.40915241419E+03  0.50400001928E-02 0. -1.
        1   -1    0    0  501    0  0.00000000000E+00  0.00000000000E+00 -0.11888585719E+04  0.11888585719E+04  0.50400001928E-02 0.  1.
    10030    2    1    2    0    0  0.00000000000E+00  0.00000000000E+00 -0.77970615778E+03  0.15980109861E+04  0.13948825826E+04 0.  0.
        2    1    3    3  502    0 -0.11579770542E+03  0.17310255675E+03  0.37269783842E+03  0.42693943657E+03  0.25500000920E-02 0. -1.
       -2    1    3    3    0  502  0.11579770542E+03 -0.17310255675E+03 -0.11524039962E+04  0.11710715496E+04  0.25500000920E-02 0.  1.
</event>
<event>
 5   0  0.1780171E-04  0.1399824E+04  0.7818609E-02  0.8953946E-01
       -2   -1    0    0    0  501  0.00000000000E+00  0.00000000000E+00  0.12402185283E+04  0.12402185283E+04  0.25500000920E-02 0. -1.
        2   -1    0    0  501    0  0.00000000000E+00  0.00000000000E+00 -0.39499212023E+03  0.39499212024E+03  0.25500000920E-02 0.  1.
    10030    2    1    2    0    0  0.00000000000E+00  0.00000000000E+00  0.84522640805E+03  0.16352106485E+04  0.13998236261E+04 0.  0.
        5    1    3    3  502    0 -0.46056201139E+03  0.30879297142E+03  0.92149050540E+03  0.10754707374E+04  0.46999998093E+01 0. -1.
       -5    1    3    3    0  502  0.46056201139E+03 -0.30879297142E+03 -0.76264097351E+02  0.55973991109E+03  0.46999998093E+01 0.  1.
</event>
<event>
 5   0  0.9260916E-05  0.1395396E+04  0.7818609E-02  0.8957158E-01
       -1   -1    0    0    0  501  0.00000000000E+00  0.00000000000E+00  0.46619575461E+03  0.46619575464E+03  0.50400001928E-02 0. -1.
        1   -1    0    0  501    0  0.00000000000E+00  0.00000000000E+00 -0.10441588519E+04  0.10441588519E+04  0.50400001928E-02 0.  1.
    10030    2    1    2    0    0  0.00000000000E+00  0.00000000000E+00 -0.57796309729E+03  0.15103546066E+04  0.13953958921E+04 0.  0.
        1    1    3    3  502    0 -0.40069466930E+03 -0.15610816848E+03 -0.88365932843E+03  0.98274095621E+03  0.50400001928E-02 0.  1.
       -1    1    3    3    0  502  0.40069466930E+03  0.15610816848E+03  0.30569623113E+03  0.52761365034E+03  0.50400001928E-02 0. -1.
</event>
<event>
 5   0  0.1766237E-04  0.1398475E+04  0.7818609E-02  0.8954923E-01
       -2   -1    0    0    0  501  0.00000000000E+00  0.00000000000E+00  0.19539919040E+03  0.19539919041E+03  0.25500000920E-02 0. -1.
        2   -1    0    0  501    0  0.00000000000E+00  0.00000000000E+00 -0.25022252182E+04  0.25022252182E+04  0.25500000920E-02 0.  1.
    10030    2    1    2    0    0  0.00000000000E+00  0.00000000000E+00 -0.23068260278E+04  0.26976244086E+04  0.13984745716E+04 0.  0.
        3    1    3    3  502    0  0.88788315859E+01  0.59080300280E+03 -0.43215703687E+03  0.73204285153E+03  0.10100000352E+00 0. -1.
       -3    1    3    3    0  502 -0.88788315859E+01 -0.59080300280E+03 -0.18746689909E+04  0.19655815571E+04  0.10100000352E+00 0.  1.
</event>
<event>
 5   0  0.1780171E-04  0.1408643E+04  0.7818609E-02  0.8947586E-01
       -2   -1    0    0    0  501  0.00000000000E+00  0.00000000000E+00  0.24687571373E+03  0.24687571375E+03  0.25500000920E-02 0. -1.
        2   -1    0    0  501    0  0.00000000000E+00  0.00000000000E+00 -0.20093874587E+04  0.20093874587E+04  0.25500000920E-02 0.  1.
    10030    2    1    2    0    0  0.00000000000E+00  0.00000000000E+00 -0.17625117450E+04  0.22562631725E+04  0.14086432665E+04 0.  0.
        5    1    3    3  502    0  0.36072819024E+03  0.46288517141E+03 -0.25748750624E+03  0.64086614438E+03  0.46999998093E+01 0. -1.
       -5    1    3    3    0  502 -0.36072819024E+03 -0.46288517141E+03 -0.15050242387E+04  0.16153970281E+04  0.46999998093E+01 0.  1.
</event>
<event>
 5   0  0.1780171E-04  0.1363835E+04  0.7818609E-02  0.8980420E-01
       -2   -1    0    0    0  501  0.00000000000E+00  0.00000000000E+00  0.43143899185E+03  0.43143899186E+03  0.25500000920E-02 0. -1.
        2   -1    0    0  501    0  0.00000000000E+00  0.00000000000E+00 -0.10778158696E+04  0.10778158696E+04  0.25500000920E-02 0.  1.
    10030    2    1    2    0    0  0.00000000000E+00  0.00000000000E+00 -0.64637687771E+03  0.15092548614E+04  0.13638354625E+04 0.  0.
        5    1    3    3  502    0  0.14138748287E+03  0.21186987651E+03  0.37679948056E+03  0.45483975578E+03  0.46999998093E+01 0. -1.
       -5    1    3    3    0  502 -0.14138748287E+03 -0.21186987651E+03 -0.10231763583E+04  0.10544151056E+04  0.46999998093E+01 0.  1.
</event>
<event>
 5   0  0.1766237E-04  0.1399519E+04  0.7818609E-02  0.8954167E-01
       -2   -1    0    0    0  501  0.00000000000E+00  0.00000000000E+00  0.93026751587E+03  0.93026751587E+03  0.25500000920E-02 0. -1.
        2   -1    0    0  501    0  0.00000000000E+00  0.00000000000E+00 -0.52636799888E+03  0.52636799888E+03  0.25500000920E-02 0.  1.
    10030    2    1    2    0    0  0.00000000000E+00  0.00000000000E+00  0.40389951699E+03  0.14566355148E+04  0.13995185612E+04 0.  0.
        3    1    3    3  502    0  0.41187568931E+03  0.24293933423E+01 -0.38683664991E+03  0.56505759823E+03  0.10100000352E+00 0.  1.
       -3    1    3    3    0  502 -0.41187568931E+03 -0.24293933423E+01  0.79073616690E+03  0.89157791653E+03  0.10100000352E+00 0. -1.
</event>
<event>
 5   0  0.9260916E-05  0.1400437E+04  0.7818609E-02  0.8953502E-01
        1   -1    0    0  501    0  0.00000000000E+00  0.00000000000E+00  0.13327067330E+04  0.13327067330E+04  0.50400001928E-02 0.  1.
       -1   -1    0    0    0  501  0.00000000000E+00  0.00000000000E+00 -0.36790223540E+03  0.36790223543E+03  0.50400001928E-02 0. -1.
    10030    2    1    2    0    0  0.00000000000E+00  0.00000000000E+00  0.96480449758E+03  0.17006089684E+04  0.14004367693E+04 0.  0.
        1    1    3    3  502    0  0.91886109941E+02  0.63534480112E+03  0.14282112683E+03  0.65765032335E+03  0.50400001928E-02 0. -1.
       -1    1    3    3    0  502 -0.91886109941E+02 -0.63534480112E+03  0.82198337075E+03  0.10429586451E+04  0.50400001928E-02 0.  1.
</event>
<event>
 5   0  0.9978422E-05  0.1390493E+04  0.7818609E-02  0.8960729E-01
       -1   -1    0    0    0  501  0.00000000000E+00  0.00000000000E+00  0.50728696722E+03  0.50728696724E+03  0.50400001928E-02 0.  1.
        1   -1    0    0  501    0  0.00000000000E+00  0.00000000000E+00 -0.95284832728E+03  0.95284832729E+03  0.50400001928E-02 0. -1.
    10030    2    1    2    0    0  0.00000000000E+00  0.00000000000E+00 -0.44556136006E+03  0.14601352945E+04  0.13904927734E+04 0.  0.
        2    1    3    3  502    0 -0.61079885645E+03 -0.25919995759E+03 -0.47580001748E+01  0.66353786601E+03  0.25500000920E-02 0. -1.
       -2    1    3    3    0  502  0.61079885645E+03  0.25919995759E+03 -0.44080335989E+03  0.79659742853E+03  0.25500000920E-02 0.  1.
</event>
<event>
 5   0  0.6671375E-05  0.1400060E+04  0.7818609E-02  0.8953775E-01
        1   -1    0    0  501    0  0.00000000000E+00  0.00000000000E+00  0.66267703460E+03  0.66267703462E+03  0.50400001928E-02 0. -1.
       -1   -1    0    0    0  501  0.00000000000E+00  0.00000000000E+00 -0.73948840692E+03  0.73948840693E+03  0.50400001928E-02 0.  1.
    10030    2    1    2    0    0  0.00000000000E+00  0.00000000000E+00 -0.76811372317E+02  0.14021654416E+04  0.14000599768E+04 0.  0.
        5    1    3    3  502    0 -0.27140878006E+03 -0.47571310044E+03 -0.47501336647E+03  0.72500032286E+03  0.46999998093E+01 0.  1.
       -5    1    3    3    0  502  0.27140878006E+03  0.47571310044E+03  0.39820199415E+03  0.67716511869E+03  0.46999998093E+01 0. -1.
</event>
<event>
 5   0  0.1794185E-04  0.1402463E+04  0.7818609E-02  0.8952037E-01
        2   -1    0    0  501    0  0.00000000000E+00  0.00000000000E+00  0.11326654586E+04  0.11326654586E+04  0.25500000920E-02 0.  1.
       -2   -1    0    0    0  501  0.00000000000E+00  0.00000000000E+00 -0.43413166824E+03  0.43413166824E+03  0.25500000920E-02 0. -1.
    10030    2    1    2    0    0  0.00000000000E+00  0.00000000000E+00  0.69853379040E+03  0.15667971269E+04  0.14024634685E+04 0.  0.
        2    1    3    3  502    0 -0.12609054505E+03 -0.35501927732E+03 -0.31146295929E+03  0.48882173421E+03  0.25500000920E-02 0. -1.
       -2    1    3    3    0  502  0.12609054505E+03  0.35501927732E+03  0.10099967497E+04  0.10779753927E+04  0.25500000920E-02 0.  1.
</event>
<event>
 5   0  0.9900839E-05  0.1399019E+04  0.7818609E-02  0.8954529E-01
       -1   -1    0    0    0  501  0.00000000000E+00  0.00000000000E+00  0.62992937105E+03  0.62992937107E+03  0.50400001928E-02 0.  1.
        1   -1    0    0  501    0  0.00000000000E+00  0.00000000000E+00 -0.77677492455E+03  0.77677492457E+03  0.50400001928E-02 0. -1.
    10030    2    1    2    0    0  0.00000000000E+00  0.00000000000E+00 -0.14684555350E+03  0.14067042956E+04  0.13990187128E+04 0.  0.
        3    1    3    3  502    0 -0.39542406407E+03  0.14581770058E+03 -0.63478212537E+03  0.76195232734E+03  0.10100000352E+00 0. -1.
       -3    1    3    3    0  502  0.39542406407E+03 -0.14581770058E+03  0.48793657188E+03  0.64475196830E+03  0.10100000352E+00 0.  1.
</event>
<event>
 5   0  0.9828111E-05  0.1399826E+04  0.7818609E-02  0.8953944E-01
        1   -1    0    0  501    0  0.00000000000E+00  0.00000000000E+00  0.65649223518E+03  0.65649223520E+03  0.50400001928E-02 0. -1.
       -1   -1    0    0    0  501  0.00000000000E+00  0.00000000000E+00 -0.74620603480E+03  0.74620603481E+03  0.50400001928E-02 0.  1.
    10030    2    1    2    0    0  0.00000000000E+00  0.00000000000E+00 -0.89713799613E+02  0.14026982700E+04  0.13998263717E+04 0.  0.
        4    1    3    3  502    0 -0.83056891098E+01 -0.17030195553E+03 -0.72507586381E+03  0.74485459098E+03  0.12699999809E+01 0.  1.
       -4    1    3    3    0  502  0.83056891098E+01  0.17030195553E+03  0.63536206420E+03  0.65784367904E+03  0.12699999809E+01 0. -1.
</event>
<event>
 5   0  0.1833681E-04  0.1399678E+04  0.7818609E-02  0.8954051E-01
        2   -1    0    0  501    0  0.00000000000E+00  0.00000000000E+00  0.61352646836E+03  0.61352646837E+03  0.25500000920E-02 0. -1.
       -2   -1    0    0    0  501  0.00000000000E+00  0.00000000000E+00 -0.79829457425E+03  0.79829457425E+03  0.25500000920E-02 0.  1.
    10030    2    1    2    0    0  0.00000000000E+00  0.00000000000E+00 -0.18476810588E+03  0.14118210426E+04  0.13996783214E+04 0.  0.
        4    1    3    3  502    0 -0.67794065860E+03  0.24534134845E+02 -0.26582864207E+03  0.72860959381E+03  0.12699999809E+01 0. -1.
       -4    1    3    3    0  502  0.67794065860E+03 -0.24534134845E+02  0.81060536188E+02  0.68321144881E+03  0.12699999809E+01 0.  1.
</event>
<event>
 5   0  0.6671375E-05  0.1403170E+04  0.7818609E-02  0.8951527E-01
        1   -1    0    0  501    0  0.00000000000E+00  0.00000000000E+00  0.91888812878E+03  0.91888812879E+03  0.50400001928E-02 0. -1.
       -1   -1    0    0    0  501  0.00000000000E+00  0.00000000000E+00 -0.53567053864E+03  0.53567053866E+03  0.50400001928E-02 0.  1.
    10030    2    1    2    0    0  0.00000000000E+00  0.00000000000E+00  0.38321759014E+03  0.14545586675E+04  0.14031696960E+04 0.  0.
        5    1    3    3  502    0 -0.28581964449E+03  0.63239313130E+03  0.84956069400E+02  0.69918063862E+03  0.46999998093E+01 0.  1.
       -5    1    3    3    0  502  0.28581964449E+03 -0.63239313130E+03  0.29826152074E+03  0.75537802884E+03  0.46999998093E+01 0. -1.
</event>
<event>
 5   0  0.9828111E-05  0.1408173E+04  0.7818609E-02  0.8947923E-01
        1   -1    0    0  501    0  0.00000000000E+00  0.00000000000E+00  0.20434109352E+04  0.20434109352E+04  0.50400001928E-02 0. -1.
       -1   -1    0    0    0  501  0.00000000000E+00  0.00000000000E+00 -0.24260322906E+03  0.24260322911E+03  0.50400001928E-02 0.  1.
    10030    2    1    2    0    0  0.00000000000E+00  0.00000000000E+00  0.18008077062E+04  0.22860141643E+04  0.14081734144E+04 0.  0.
        4    1    3    3  502    0 -0.68935785969E+03  0.52614304480E+02  0.11167107308E+04  0.13134028297E+04  0.12699999809E+01 0. -1.
       -4    1    3    3    0  502  0.68935785969E+03 -0.52614304480E+02  0.68409697536E+03  0.97261133468E+03  0.12699999809E+01 0.  1.
</event>
<event>
 5   0  0.6671375E-05  0.1400122E+04  0.7818609E-02  0.8953730E-01
       -3   -1    0    0    0  501  0.00000000000E+00  0.00000000000E+00  0.12236393498E+04  0.12236393539E+04  0.10100000352E+00 0.  1.
        3   -1    0    0  501    0  0.00000000000E+00  0.00000000000E+00 -0.40051462221E+03  0.40051463495E+03  0.10100000352E+00 0. -1.
    10030    2    1    2    0    0  0.00000000000E+00  0.00000000000E+00  0.82312472754E+03  0.16241539889E+04  0.14001220884E+04 0.  0.
        3    1    3    3  502    0  0.31654179162E+03  0.27417683599E+03  0.10623198873E+04  0.11418823041E+04  0.10100000352E+00 0.  1.
       -3    1    3    3    0  502 -0.31654179162E+03 -0.27417683599E+03 -0.23919515979E+03  0.48227168475E+03  0.10100000352E+00 0. -1.
</event>
<event>
 5   0  0.9828111E-05  0.1399109E+04  0.7818609E-02  0.8954464E-01
        1   -1    0    0  501    0  0.00000000000E+00  0.00000000000E+00  0.83687958735E+03  0.83687958737E+03  0.50400001928E-02 0.  1.
       -1   -1    0    0    0  501  0.00000000000E+00  0.00000000000E+00 -0.58476340620E+03  0.58476340622E+03  0.50400001928E-02 0. -1.
    10030    2    1    2    0    0  0.00000000000E+00  0.00000000000E+00  0.25211618115E+03  0.14216429936E+04  0.13991090852E+04 0.  0.
        4    1    3    3  502    0 -0.47475170752E+03  0.33549146006E+03  0.52146723966E+03  0.78094391509E+03  0.12699999809E+01 0.  1.
       -4    1    3    3    0  502  0.47475170752E+03 -0.33549146006E+03 -0.26935105851E+03  0.64069907850E+03  0.12699999809E+01 0. -1.
</event>
<event>
 5   0  0.9260916E-05  0.1399548E+04  0.7818609E-02  0.8954146E-01
       -1   -1    0    0    0  501  0.00000000000E+00  0.00000000000E+00  0.82886918965E+03  0.82886918966E+03  0.50400001928E-02 0.  1.
        1   -1    0    0  501    0  0.00000000000E+00  0.00000000000E+00 -0.59078478879E+03  0.59078478882E+03  0.50400001928E-02 0. -1.
    10030    2    1    2    0    0  0.00000000000E+00  0.00000000000E+00  0.23808440085E+03  0.14196539785E+04  0.13995475114E+04 0.  0.
        1    1    3    3  502    0 -0.68242907541E+03 -0.15064031548E+03  0.82731828344E+02  0.70373752426E+03  0.50400001928E-02 0.  1.
       -1    1    3    3    0  502  0.68242907541E+03  0.15064031548E+03  0.15535257251E+03  0.71591645422E+03  0.50400001928E-02 0. -1.
</event>
<event>
 5   0  0.1712327E-04  0.1401920E+04  0.7818609E-02  0.8952430E-01
       -2   -1    0    0    0  501  0.00000000000E+00  0.00000000000E+00  0.44270885518E+03  0.44270885519E+03  0.25500000920E-02 0. -1.
        2   -1    0    0  501    0  0.00000000000E+00  0.00000000000E+00 -0.11098596459E+04  0.11098596459E+04  0.25500000920E-02 0.  1.
    10030    2    1    2    0    0  0.00000000000E+00  0.00000000000E+00 -0.66715079068E+03  0.15525685011E+04  0.14019196742E+04 0.  0.
        1    1    3    3  502    0  0.11689562652E+03  0.15297979071E+03  0.41285300136E+03  0.45553814837E+03  0.50400001928E-02 0. -1.
       -1    1    3    3    0  502 -0.11689562652E+03 -0.15297979071E+03 -0.10800037920E+04  0.10970303527E+04  0.50400001928E-02 0.  1.
</event>
<event>
 5   0  0.9900839E-05  0.1399056E+04  0.7818609E-02  0.8954502E-01
       -1   -1    0    0    0  501  0.00000000000E+00  0.00000000000E+00  0.40669581025E+03  0.40669581028E+03  0.50400001928E-02 0.  1.
        1   -1    0    0  501    0  0.00000000000E+00  0.00000000000E+00 -0.12032076695E+04  0.12032076696E+04  0.50400001928E-02 0. -1.
    10030    2    1    2    0    0  0.00000000000E+00  0.00000000000E+00 -0.79651185930E+03  0.16099034798E+04  0.13990561362E+04 0.  0.
        3    1    3    3  502    0 -0.68451120734E+02  0.40948202790E+03 -0.10461135138E+04  0.11254841540E+04  0.10100000352E+00 0. -1.
       -3    1    3    3    0  502  0.68451120734E+02 -0.40948202790E+03  0.24960165446E+03  0.48441932580E+03  0.10100000352E+00 0.  1.
</event>
<event>
 5   0  0.1794185E-04  0.1400397E+04  0.7818609E-02  0.8953532E-01
       -2   -1    0    0    0  501  0.00000000000E+00  0.00000000000E+00  0.29442588482E+03  0.29442588484E+03  0.25500000920E-02 0.  1.
        2   -1    0    0  501    0  0.00000000000E+00  0.00000000000E+00 -0.16651987336E+04  0.16651987336E+04  0.25500000920E-02 0. -1.
    10030    2    1    2    0    0  0.00000000000E+00  0.00000000000E+00 -0.13707728488E+04  0.19596246184E+04  0.14003965304E+04 0.  0.
        2    1    3    3  502    0  0.53885182914E+03 -0.62020957475E+02 -0.65764006093E+02  0.54638154932E+03  0.25500000920E-02 0.  1.
       -2    1    3    3    0  502 -0.53885182914E+03  0.62020957475E+02 -0.13050088427E+04  0.14132430691E+04  0.25500000920E-02 0. -1.
</event>
<event>
 5   0  0.1766237E-04  0.1398274E+04  0.7818609E-02  0.8955069E-01
        2   -1    0    0  501    0  0.00000000000E+00  0.00000000000E+00  0.59568858451E+03  0.59568858452E+03  0.25500000920E-02 0. -1.
       -2   -1    0    0    0  501  0.00000000000E+00  0.00000000000E+00 -0.82055065101E+03  0.82055065101E+03  0.25500000920E-02 0.  1.
    10030    2    1    2    0    0  0.00000000000E+00  0.00000000000E+00 -0.22486206649E+03  0.14162392355E+04  0.13982741588E+04 0.  0.
        3    1    3    3  502    0  0.44356443521E+03  0.23071706617E+03  0.38253244713E+03  0.62953225184E+03  0.10100000352E+00 0. -1.
       -3    1    3    3    0  502 -0.44356443521E+03 -0.23071706617E+03 -0.60739451362E+03  0.78670698369E+03  0.10100000352E+00 0.  1.
</event>
<event>
 5   0  0.6671375E-05  0.1397334E+04  0.7818609E-02  0.8955751E-01
       -1   -1    0    0    0  501  0.00000000000E+00  0.00000000000E+00  0.55968563687E+03  0.55968563689E+03  0.50400001928E-02 0. -1.
        1   -1    0    0  501    0  0.00000000000E+00  0.00000000000E+00 -0.87216039006E+03  0.87216039007E+03  0.50400001928E-02 0.  1.
    10030    2    1    2    0    0  0.00000000000E+00  0.00000000000E+00 -0.31247475318E+03  0.14318460270E+04  0.13973340952E+04 0.  0.
        5    1    3    3  502    0  0.12253070994E+03 -0.24469882582E+03  0.50246301058E+03  0.57217345031E+03  0.46999998093E+01 0. -1.
       -5    1    3    3    0  502 -0.12253070994E+03  0.24469882582E+03 -0.81493776377E+03  0.85967257665E+03  0.46999998093E+01 0.  1.
</event>
<event>
 5   0  0.6671375E-05  0.1397978E+04  0.7818609E-02  0.8955284E-01
        1   -1    0    0  501    0  0.00000000000E+00  0.00000000000E+00  0.90068042203E+03  0.90068042205E+03  0.50400001928E-02 0. -1.
       -1   -1    0    0    0  501  0.00000000000E+00  0.00000000000E+00 -0.54246260255E+03  0.54246260258E+03  0.50400001928E-02 0.  1.
    10030    2    1    2    0    0  0.00000000000E+00  0.00000000000E+00  0.35821781948E+03  0.14431430246E+04  0.13979777478E+04 0.  0.
        5    1    3    3  502    0  0.12191899045E+03 -0.67120733617E+03  0.33627694191E+03  0.76058385469E+03  0.46999998093E+01 0. -1.
       -5    1    3    3    0  502 -0.12191899045E+03  0.67120733617E+03  0.21940877572E+02  0.68255916994E+03  0.46999998093E+01 0.  1.
</event>
<event>
 5   0  0.1833681E-04  0.1400309E+04  0.7818609E-02  0.8953595E-01
        2   -1    0    0  501    0  0.00000000000E+00  0.00000000000E+00  0.98497652804E+03  0.98497652804E+03  0.25500000920E-02 0. -1.
       -2   -1    0    0    0  501  0.00000000000E+00  0.00000000000E+00 -0.49769371372E+03  0.49769371373E+03  0.25500000920E-02 0.  1.
    10030    2    1    2    0    0  0.00000000000E+00  0.00000000000E+00  0.48728281432E+03  0.14826702418E+04  0.14003094318E+04 0.  0.
        4    1    3    3  502    0  0.20212827539E+01 -0.18133688714E+03  0.95967663103E+03  0.97666166162E+03  0.12699999809E+01 0. -1.
       -4    1    3    3    0  502 -0.20212827539E+01  0.18133688714E+03 -0.47239381671E+03  0.50600858015E+03  0.12699999809E+01 0.  1.
</event>
<event>
 5   0  0.1833681E-04  0.1400165E+04  0.7818609E-02  0.8953699E-01
       -2   -1    0    0    0  501  0.00000000000E+00  0.00000000000E+00  0.87611034851E+03  0.87611034851E+03  0.25500000920E-02 0. -1.
        2   -1    0    0  501    0  0.00000000000E+00  0.00000000000E+00 -0.55942208368E+03  0.55942208368E+03  0.25500000920E-02 0.  1.
    10030    2    1    2    0    0  0.00000000000E+00  0.00000000000E+00  0.31668826483E+03  0.14355324322E+04  0.14001649570E+04 0.  0.
        4    1    3    3  502    0  0.43159716234E+03  0.36310098774E+02 -0.40556661222E+03  0.59336365212E+03  0.12699999809E+01 0.  1.
       -4    1    3    3    0  502 -0.43159716234E+03 -0.36310098774E+02  0.72225487705E+03  0.84216878007E+03  0.12699999809E+01 0. -1.
</event>
<event>
 5   0  0.1794185E-04  0.1404250E+04  0.7818609E-02  0.8950748E-01
       -2   -1    0    0    0  501  0.00000000000E+00  0.00000000000E+00  0.19493818949E+03  0.19493818951E+03  0.25500000920E-02 0.  1.
        2   -1    0    0  501    0  0.00000000000E+00  0.00000000000E+00 -0.25289002662E+04  0.25289002662E+04  0.25500000920E-02 0. -1.
    10030    2    1    2    0    0  0.00000000000E+00  0.00000000000E+00 -0.23339620767E+04  0.27238384557E+04  0.14042496065E+04 0.  0.
        2    1    3    3  502    0 -0.16665444922E+03 -0.38121814780E+03 -0.69923522473E+02  0.42188894351E+03  0.25500000920E-02 0.  1.
       -2    1    3    3    0  502  0.16665444922E+03  0.38121814780E+03 -0.22640385542E+04  0.23019495122E+04  0.25500000920E-02 0. -1.
</event>
<event>
 5   0  0.6671375E-05  0.1402669E+04  0.7818609E-02  0.8951889E-01
       -1   -1    0    0    0  501  0.00000000000E+00  0.00000000000E+00  0.40206986264E+03  0.40206986267E+03  0.50400001928E-02 0. -1.
        1   -1    0    0  501    0  0.00000000000E+00  0.00000000000E+00 -0.12233455556E+04  0.12233455556E+04  0.50400001928E-02 0.  1.
    10030    2    1    2    0    0  0.00000000000E+00  0.00000000000E+00 -0.82127569292E+03  0.16254154182E+04  0.14026694258E+04 0.  0.
        5    1    3    3  502    0  0.15617692424E+02 -0.62324155068E+03 -0.78285373543E+03  0.10007776995E+04  0.46999998093E+01 0.  1.
       -5    1    3    3    0  502 -0.15617692424E+02  0.62324155068E+03 -0.38421957488E+02  0.62463771871E+03  0.46999998093E+01 0. -1.
</event>
<event>
 5   0  0.1766237E-04  0.1401319E+04  0.7818609E-02  0.8952865E-01
       -2   -1    0    0    0  501  0.00000000000E+00  0.00000000000E+00  0.12558310287E+04  0.12558310288E+04  0.25500000920E-02 0.  1.
        2   -1    0    0  501    0  0.00000000000E+00  0.00000000000E+00 -0.39091523928E+03  0.39091523929E+03  0.25500000920E-02 0. -1.
    10030    2    1    2    0    0  0.00000000000E+00  0.00000000000E+00  0.86491578947E+03  0.16467462680E+04  0.14013186463E+04 0.  0.
        3    1    3    3  502    0  0.10792745686E+03 -0.43900663898E+03 -0.19659724360E+03  0.49297631932E+03  0.10100000352E+00 0. -1.
       -3    1    3    3    0  502 -0.10792745686E+03  0.43900663898E+03  0.10615130331E+04  0.11537699487E+04  0.10100000352E+00 0.  1.
</event>
<event>
 5   0  0.6671375E-05  0.1400491E+04  0.7818609E-02  0.8953463E-01
       -1   -1    0    0    0  501  0.00000000000E+00  0.00000000000E+00  0.29347044427E+03  0.29347044431E+03  0.50400001928E-02 0. -1.
        1   -1    0    0  501    0  0.00000000000E+00  0.00000000000E+00 -0.16708453774E+04  0.16708453774E+04  0.50400001928E-02 0.  1.
    10030    2    1    2    0    0  0.00000000000E+00  0.00000000000E+00 -0.13773749331E+04  0.19643158217E+04  0.14004909643E+04 0.  0.
        5    1    3    3  502    0  0.45309888488E+02  0.58109916315E+03 -0.12329802327E+04  0.13638150783E+04  0.46999998093E+01 0.  1.
       -5    1    3    3    0  502 -0.45309888488E+02 -0.58109916315E+03 -0.14439470043E+03  0.60050074348E+03  0.46999998093E+01 0. -1.
</event>
<event>
 5   0  0.9900839E-05  0.1400862E+04  0.7818609E-02  0.8953195E-01
        1   -1    0    0  501    0  0.00000000000E+00  0.00000000000E+00  0.15032043861E+04  0.15032043861E+04  0.50400001928E-02 0. -1.
       -1   -1    0    0    0  501  0.00000000000E+00  0.00000000000E+00 -0.32637183516E+03  0.32637183520E+03  0.50400001928E-02 0.  1.
    10030    2    1    2    0    0  0.00000000000E+00  0.00000000000E+00  0.11768325509E+04  0.18295762213E+04  0.14008619834E+04 0.  0.
        3    1    3    3  502    0 -0.51601008128E+03  0.19569203161E+03  0.11517430726E+04  0.12771350323E+04  0.10100000352E+00 0. -1.
       -3    1    3    3    0  502  0.51601008128E+03 -0.19569203161E+03  0.25089478362E+02  0.55244118904E+03  0.10100000352E+00 0.  1.
</event>
<event>
 5   0  0.6671375E-05  0.1383960E+04  0.7818609E-02  0.8965511E-01
        1   -1    0    0  501    0  0.00000000000E+00  0.00000000000E+00  0.85854030086E+03  0.85854030087E+03  0.50400001928E-02 0. -1.
       -1   -1    0    0    0  501  0.00000000000E+00  0.00000000000E+00 -0.55773333370E+03  0.55773333372E+03  0.50400001928E-02 0.  1.
    10030    2    1    2    0    0  0.00000000000E+00  0.00000000000E+00  0.30080696716E+03  0.14162736346E+04  0.13839603233E+04 0.  0.
        5    1    3    3  502    0 -0.31841289457E+03  0.56530941131E+03  0.39654580581E+03  0.76041578630E+03  0.46999998093E+01 0. -1.
       -5    1    3    3    0  502  0.31841289457E+03 -0.56530941131E+03 -0.95738838655E+02  0.65585784830E+03  0.46999998093E+01 0.  1.
</event>
<event>
 5   0  0.1833681E-04  0.1400446E+04  0.7818609E-02  0.8953496E-01
        2   -1    0    0  501    0  0.00000000000E+00  0.00000000000E+00  0.10897750601E+04  0.10897750601E+04  0.25500000920E-02 0. -1.
       -2   -1    0    0    0  501  0.00000000000E+00  0.00000000000E+00 -0.44992060322E+03  0.44992060323E+03  0.25500000920E-02 0.  1.
    10030    2    1    2    0    0  0.00000000000E+00  0.00000000000E+00  0.63985445685E+03  0.15396956633E+04  0.14004460038E+04 0.  0.
        4    1    3    3  502    0 -0.42211681923E+03  0.36899498698E+03 -0.14127217385E+03  0.57818625848E+03  0.12699999809E+01 0.  1.
       -4    1    3    3    0  502  0.42211681923E+03 -0.36899498698E+03  0.78112663070E+03  0.96150940483E+03  0.12699999809E+01 0. -1.
</event>
<event>
 5   0  0.9828111E-05  0.1399189E+04  0.7818609E-02  0.8954406E-01
        1   -1    0    0  501    0  0.00000000000E+00  0.00000000000E+00  0.15309324505E+04  0.15309324505E+04  0.50400001928E-02 0. -1.
       -1   -1    0    0    0  501  0.00000000000E+00  0.00000000000E+00 -0.31969565813E+03  0.31969565817E+03  0.50400001928E-02 0.  1.
    10030    2    1    2    0    0  0.00000000000E+00  0.00000000000E+00  0.12112367924E+04  0.18506281087E+04  0.13991889899E+04 0.  0.
        4    1    3    3  502    0 -0.43985933190E+03 -0.95573558199E+02 -0.10273131930E+03  0.46169889945E+03  0.12699999809E+01 0.  1.
       -4    1    3    3    0  502  0.43985933190E+03  0.95573558199E+02  0.13139681117E+04  0.13889292092E+04  0.12699999809E+01 0. -1.
</event>
<event>
 5   0  0.9900839E-05  0.1397390E+04  0.7818609E-02  0.8955710E-01
       -1   -1    0    0    0  501  0.00000000000E+00  0.00000000000E+00  0.26936479941E+03  0.26936479946E+03  0.50400001928E-02 0.  1.
        1   -1    0    0  501    0  0.00000000000E+00  0.00000000000E+00 -0.18123174650E+04  0.18123174650E+04  0.50400001928E-02 0. -1.
    10030    2    1    2    0    0  0.00000000000E+00  0.00000000000E+00 -0.15429526656E+04  0.20816822645E+04  0.13973897531E+04 0.  0.
        3    1    3    3  502    0 -0.12103815175E+02  0.57925121813E+03 -0.18974001596E+03  0.60965544360E+03  0.10100000352E+00 0. -1.
       -3    1    3    3    0  502  0.12103815175E+02 -0.57925121813E+03 -0.13532126496E+04  0.14720268209E+04  0.10100000352E+00 0.  1.
</event>
<event>
 5   0  0.1794185E-04  0.1422495E+04  0.7818609E-02  0.8937695E-01
       -2   -1    0    0    0  501  0.00000000000E+00  0.00000000000E+00  0.32782814196E+03  0.32782814197E+03  0.25500000920E-02 0. -1.
        2   -1    0    0  501    0  0.00000000000E+00  0.00000000000E+00 -0.15431044732E+04  0.15431044732E+04  0.25500000920E-02 0.  1.
    10030    2    1    2    0    0  0.00000000000E+00  0.00000000000E+00 -0.12152763312E+04  0.18709326152E+04  0.14224950929E+04 0.  0.
        2    1    3    3  502    0 -0.47795564356E+03 -0.44184904002E+03 -0.23054760801E+03  0.69052470697E+03  0.25500000920E-02 0. -1.
       -2    1    3    3    0  502  0.47795564356E+03  0.44184904002E+03 -0.98472872322E+03  0.11804079082E+04  0.25500000920E-02 0.  1.
</event>
<event>
 5   0  0.9900839E-05  0.1400813E+04  0.7818609E-02  0.8953231E-01
       -1   -1    0    0    0  501  0.00000000000E+00  0.00000000000E+00  0.24211577916E+03  0.24211577921E+03  0.50400001928E-02 0. -1.
        1   -1    0    0  501    0  0.00000000000E+00  0.00000000000E+00 -0.20261751425E+04  0.20261751425E+04  0.50400001928E-02 0.  1.
    10030    2    1    2    0    0  0.00000000000E+00  0.00000000000E+00 -0.17840593634E+04  0.22682909218E+04  0.14008125834E+04 0.  0.
        3    1    3    3  502    0  0.12000084839E+03  0.29114924871E+03 -0.19050767316E+04  0.19309286502E+04  0.10100000352E+00 0.  1.
       -3    1    3    3    0  502 -0.12000084839E+03 -0.29114924871E+03  0.12101736825E+03  0.33736227154E+03  0.10100000352E+00 0. -1.
</event>
<event>
 5   0  0.1712327E-04  0.1404244E+04  0.7818609E-02  0.8950752E-01
        2   -1    0    0  501    0  0.00000000000E+00  0.00000000000E+00  0.62756290083E+03  0.62756290083E+03  0.25500000920E-02 0. -1.
       -2   -1    0    0    0  501  0.00000000000E+00  0.00000000000E+00 -0.78553966920E+03  0.78553966921E+03  0.25500000920E-02 0.  1.
    10030    2    1    2    0    0  0.00000000000E+00  0.00000000000E+00 -0.15797676837E+03  0.14131025700E+04  0.14042443570E+04 0.  0.
        1    1    3    3  502    0  0.39936496751E+03 -0.57639638616E+03 -0.11457219024E+03  0.71052935059E+03  0.50400001928E-02 0. -1.
       -1    1    3    3    0  502 -0.39936496751E+03  0.57639638616E+03 -0.43404578134E+02  0.70257321945E+03  0.50400001928E-02 0.  1.
</event>
<event>
 5   0  0.1712327E-04  0.1399233E+04  0.7818609E-02  0.8954374E-01
       -2   -1    0    0    0  501  0.00000000000E+00  0.00000000000E+00  0.39825026188E+03  0.39825026189E+03  0.25500000920E-02 0.  1.
        2   -1    0    0  501    0  0.00000000000E+00  0.00000000000E+00 -0.12290337853E+04  0.12290337853E+04  0.25500000920E-02 0. -1.
    10030    2    1    2    0    0  0.00000000000E+00  0.00000000000E+00 -0.83078352343E+03  0.16272840472E+04  0.13992326852E+04 0.  0.
        1    1    3    3  502    0 -0.17918105082E+03 -0.77973440868E+02 -0.11966510245E+04  0.12125012911E+04  0.50400001928E-02 0. -1.
       -1    1    3    3    0  502  0.17918105082E+03  0.77973440868E+02  0.36586750103E+03  0.41478275614E+03  0.50400001928E-02 0.  1.
</event>
<event>
 5   0  0.1766237E-04  0.1394645E+04  0.7818609E-02  0.8957704E-01
        2   -1    0    0  501    0  0.00000000000E+00  0.00000000000E+00  0.71316518433E+03  0.71316518434E+03  0.25500000920E-02 0. -1.
       -2   -1    0    0    0  501  0.00000000000E+00  0.00000000000E+00 -0.68183147833E+03  0.68183147833E+03  0.25500000920E-02 0.  1.
    10030    2    1    2    0    0  0.00000000000E+00  0.00000000000E+00  0.31333706008E+02  0.13949966627E+04  0.13946447174E+04 0.  0.
        3    1    3    3  502    0 -0.15974983022E+03 -0.18648027749E+02  0.69435904941E+03  0.71274277049E+03  0.10100000352E+00 0. -1.
       -3    1    3    3    0  502  0.15974983022E+03  0.18648027749E+02 -0.66302534340E+03  0.68225389218E+03  0.10100000352E+00 0.  1.
</event>
<event>
 5   0  0.1766237E-04  0.1403082E+04  0.7818609E-02  0.8951591E-01
       -2   -1    0    0    0  501  0.00000000000E+00  0.00000000000E+00  0.68281170373E+03  0.68281170373E+03  0.25500000920E-02 0. -1.
        2   -1    0    0  501    0  0.00000000000E+00  0.00000000000E+00 -0.72078371967E+03  0.72078371967E+03  0.25500000920E-02 0.  1.
    10030    2    1    2    0    0  0.00000000000E+00  0.00000000000E+00 -0.37972015939E+02  0.14035954234E+04  0.14030816935E+04 0.  0.
        3    1    3    3  502    0 -0.45994123934E+03 -0.17563545183E+03 -0.51893473317E+03  0.71532302010E+03  0.10100000352E+00 0.  1.
       -3    1    3    3    0  502  0.45994123934E+03  0.17563545183E+03  0.48096271724E+03  0.68827240331E+03  0.10100000352E+00 0. -1.
</event>
<event>
 5   0  0.1780171E-04  0.1400531E+04  0.7818609E-02  0.8953434E-01
       -2   -1    0    0    0  501  0.00000000000E+00  0.00000000000E+00  0.36309248312E+03  0.36309248313E+03  0.25500000920E-02 0.  1.
        2   -1    0    0  501    0  0.00000000000E+00  0.00000000000E+00 -0.13505427618E+04  0.13505427618E+04  0.25500000920E-02 0. -1.
    10030    2    1    2    0    0  0.00000000000E+00  0.00000000000E+00 -0.98745027871E+03  0.17136352450E+04  0.14005312206E+04 0.  0.
        5    1    3    3  502    0 -0.46041881107E+02 -0.69842436058E+03 -0.51919733549E+03  0.87149549938E+03  0.46999998093E+01 0. -1.
       -5    1    3    3    0  502  0.46041881107E+02  0.69842436058E+03 -0.46825294322E+03  0.84213974559E+03  0.46999998093E+01 0.  1.
</event>
<event>
 5   0  0.9900839E-05  0.1403795E+04  0.7818609E-02  0.8951076E-01
        1   -1    0    0  501    0  0.00000000000E+00  0.00000000000E+00  0.19060710676E+04  0.19060710676E+04  0.50400001928E-02 0.  1.
       -1   -1    0    0    0  501  0.00000000000E+00  0.00000000000E+00 -0.25846896381E+03  0.25846896386E+03  0.50400001928E-02 0. -1.
    10030    2    1    2    0    0  0.00000000000E+00  0.00000000000E+00  0.16476021038E+04  0.21645400315E+04  0.14037951615E+04 0.  0.
        3    1    3    3  502    0 -0.66031986275E+03 -0.12515126309E+03  0.51168105457E+03  0.84469087340E+03  0.10100000352E+00 0. -1.
       -3    1    3    3    0  502  0.66031986275E+03  0.12515126309E+03  0.11359210493E+04  0.13198491581E+04  0.10100000352E+00 0.  1.
</event>
<event>
 5   0  0.9828111E-05  0.1434389E+04  0.7818609E-02  0.8929295E-01
        1   -1    0    0  501    0  0.00000000000E+00  0.00000000000E+00  0.66356446820E+03  0.66356446822E+03  0.50400001928E-02 0. -1.
       -1   -1    0    0    0  501  0.00000000000E+00  0.00000000000E+00 -0.77515915606E+03  0.77515915607E+03  0.50400001928E-02 0.  1.
    10030    2    1    2    0    0  0.00000000000E+00  0.00000000000E+00 -0.11159468785E+03  0.14387236243E+04  0.14343891706E+04 0.  0.
        4    1    3    3  502    0 -0.48866618405E+03  0.49393792826E+03  0.12249565546E+03  0.70553250451E+03  0.12699999809E+01 0. -1.
       -4    1    3    3    0  502  0.48866618405E+03 -0.49393792826E+03 -0.23409034331E+03  0.73319111979E+03  0.12699999809E+01 0.  1.
</event>
<event>
 5   0  0.1833681E-04  0.1400957E+04  0.7818609E-02  0.8953126E-01
        2   -1    0    0  501    0  0.00000000000E+00  0.00000000000E+00  0.13769485786E+04  0.13769485786E+04  0.25500000920E-02 0.  1.
       -2   -1    0    0    0  501  0.00000000000E+00  0.00000000000E+00 -0.35634593195E+03  0.35634593196E+03  0.25500000920E-02 0. -1.
    10030    2    1    2    0    0  0.00000000000E+00  0.00000000000E+00  0.10206026467E+04  0.17332945106E+04  0.14009568509E+04 0.  0.
        4    1    3    3  502    0  0.41144996403E+03  0.51545502663E+03  0.80225280679E+03  0.10385548307E+04  0.12699999809E+01 0.  1.
       -4    1    3    3    0  502 -0.41144996403E+03 -0.51545502663E+03  0.21834983988E+03  0.69473967992E+03  0.12699999809E+01 0. -1.
</event>
<event>
 5   0  0.9900839E-05  0.1390225E+04  0.7818609E-02  0.8960925E-01
       -1   -1    0    0    0  501  0.00000000000E+00  0.00000000000E+00  0.59999687640E+03  0.59999687642E+03  0.50400001928E-02 0.  1.
        1   -1    0    0  501    0  0.00000000000E+00  0.00000000000E+00 -0.80530675106E+03  0.80530675107E+03  0.50400001928E-02 0. -1.
    10030    2    1    2    0    0  0.00000000000E+00  0.00000000000E+00 -0.20530987466E+03  0.14053036275E+04  0.13902252123E+04 0.  0.
        3    1    3    3  502    0 -0.16297665423E+03 -0.67434570901E+03 -0.14646085587E+03  0.70905170304E+03  0.10100000352E+00 0. -1.
       -3    1    3    3    0  502  0.16297665423E+03  0.67434570901E+03 -0.58849018788E+02  0.69625192445E+03  0.10100000352E+00 0.  1.
</event>
<event>
 5   0  0.9978422E-05  0.1399554E+04  0.7818609E-02  0.8954142E-01
       -1   -1    0    0    0  501  0.00000000000E+00  0.00000000000E+00  0.39279778094E+03  0.39279778097E+03  0.50400001928E-02 0.  1.
        1   -1    0    0  501    0  0.00000000000E+00  0.00000000000E+00 -0.12466661594E+04  0.12466661594E+04  0.50400001928E-02 0. -1.
    10030    2    1    2    0    0  0.00000000000E+00  0.00000000000E+00 -0.85386837845E+03  0.16394639404E+04  0.13995537875E+04 0.  0.
        2    1    3    3  502    0 -0.33964341178E+03  0.51062582923E+03 -0.32127191901E+02  0.61410792301E+03  0.25500000920E-02 0. -1.
       -2    1    3    3    0  502  0.33964341178E+03 -0.51062582923E+03 -0.82174118655E+03  0.10253560174E+04  0.25500000920E-02 0.  1.
</event>
<event>
 5   0  0.9900839E-05  0.1400371E+04  0.7818609E-02  0.8953550E-01
        1   -1    0    0  501    0  0.00000000000E+00  0.00000000000E+00  0.62790556886E+03  0.62790556888E+03  0.50400001928E-02 0.  1.
       -1   -1    0    0    0  501  0.00000000000E+00  0.00000000000E+00 -0.78078607611E+03  0.78078607613E+03  0.50400001928E-02 0. -1.
    10030    2    1    2    0    0  0.00000000000E+00  0.00000000000E+00 -0.15288050725E+03  0.14086916450E+04  0.14003712726E+04 0.  0.
        3    1    3    3  502    0  0.52763486455E+03 -0.45946052605E+03 -0.48756021989E+02  0.70134134712E+03  0.10100000352E+00 0. -1.
       -3    1    3    3    0  502 -0.52763486455E+03  0.45946052605E+03 -0.10412448526E+03  0.70735029789E+03  0.10100000352E+00 0.  1.
</event>
<event>
 5   0  0.9900839E-05  0.1397969E+04  0.7818609E-02  0.8955290E-01
        1   -1    0    0  501    0  0.00000000000E+00  0.00000000000E+00  0.76809137008E+03  0.76809137009E+03  0.50400001928E-02 0.  1.
       -1   -1    0    0    0  501  0.00000000000E+00  0.00000000000E+00 -0.63609571661E+03  0.63609571663E+03  0.50400001928E-02 0. -1.
    10030    2    1    2    0    0  0.00000000000E+00  0.00000000000E+00  0.13199565347E+03  0.14041870867E+04  0.13979694281E+04 0.  0.
        3    1    3    3  502    0 -0.51681754380E+03  0.17673660071E+03  0.50410677529E+03  0.74327642953E+03  0.10100000352E+00 0.  1.
       -3    1    3    3    0  502  0.51681754380E+03 -0.17673660071E+03 -0.37211112182E+03  0.66091065719E+03  0.10100000352E+00 0. -1.
</event>
<event>
 5   0  0.6671375E-05  0.1397634E+04  0.7818609E-02  0.8955533E-01
        1   -1    0    0  501    0  0.00000000000E+00  0.00000000000E+00  0.10810327188E+04  0.10810327188E+04  0.50400001928E-02 0.  1.
       -1   -1    0    0    0  501  0.00000000000E+00  0.00000000000E+00 -0.45173936977E+03  0.45173936980E+03  0.50400001928E-02 0. -1.
    10030    2    1    2    0    0  0.00000000000E+00  0.00000000000E+00  0.62929334900E+03  0.15327720886E+04  0.13976337705E+04 0.  0.
        5    1    3    3  502    0 -0.37061862694E+03 -0.26415664351E+03 -0.26689532217E+03  0.52762875389E+03  0.46999998093E+01 0. -1.
       -5    1    3    3    0  502  0.37061862694E+03  0.26415664351E+03  0.89618867118E+03  0.10051433347E+04  0.46999998093E+01 0.  1.
</event>
<event>
 5   0  0.9978422E-05  0.1393107E+04  0.7818609E-02  0.8958823E-01
       -1   -1    0    0    0  501  0.00000000000E+00  0.00000000000E+00  0.62653552880E+03  0.62653552882E+03  0.50400001928E-02 0. -1.
        1   -1    0    0  501    0  0.00000000000E+00  0.00000000000E+00 -0.77439633224E+03  0.77439633226E+03  0.50400001928E-02 0.  1.
    10030    2    1    2    0    0  0.00000000000E+00  0.00000000000E+00 -0.14786080344E+03  0.14009318611E+04  0.13931070534E+04 0.  0.
        2    1    3    3  502    0 -0.55082321702E+03 -0.68777715897E+02  0.34920636461E+03  0.65580612661E+03  0.25500000920E-02 0. -1.
       -2    1    3    3    0  502  0.55082321702E+03  0.68777715897E+02 -0.49706716805E+03  0.74512573447E+03  0.25500000920E-02 0.  1.
</event>
<event>
 5   0  0.6671375E-05  0.1401172E+04  0.7818609E-02  0.8952971E-01
        1   -1    0    0  501    0  0.00000000000E+00  0.00000000000E+00  0.86163234207E+03  0.86163234208E+03  0.50400001928E-02 0. -1.
       -1   -1    0    0    0  501  0.00000000000E+00  0.00000000000E+00 -0.56964033221E+03  0.56964033223E+03  0.50400001928E-02 0.  1.
    10030    2    1    2    0    0  0.00000000000E+00  0.00000000000E+00  0.29199200986E+03  0.14312726743E+04  0.14011717005E+04 0.  0.
        5    1    3    3  502    0  0.11456724479E+03 -0.16053566263E+03 -0.54068133724E+03  0.57554821778E+03  0.46999998093E+01 0.  1.
       -5    1    3    3    0  502 -0.11456724479E+03  0.16053566263E+03  0.83267334710E+03  0.85572445654E+03  0.46999998093E+01 0. -1.
</event>
<event>
 5   0  0.9978422E-05  0.1397531E+04  0.7818609E-02  0.8955608E-01
       -1   -1    0    0    0  501  0.00000000000E+00  0.00000000000E+00  0.71588950918E+03  0.71588950920E+03  0.50400001928E-02 0.  1.
        1   -1    0    0  501    0  0.00000000000E+00  0.00000000000E+00 -0.68205094498E+03  0.68205094500E+03  0.50400001928E-02 0. -1.
    10030    2    1    2    0    0  0.00000000000E+00  0.00000000000E+00  0.33838564201E+02  0.13979404542E+04  0.13975308458E+04 0.  0.
        2    1    3    3  502    0 -0.21744922163E+02  0.64982856483E+03  0.27296913170E+03  0.70516817298E+03  0.25500000920E-02 0.  1.
       -2    1    3    3    0  502  0.21744922163E+02 -0.64982856483E+03 -0.23913056750E+03  0.69277228122E+03  0.25500000920E-02 0. -1.
</event>
<event>
 5   0  0.1780171E-04  0.1400278E+04  0.7818609E-02  0.8953617E-01
        2   -1    0    0  501    0  0.00000000000E+00  0.00000000000E+00  0.62420398334E+03  0.62420398334E+03  0.25500000920E-02 0.  1.
       -2   -1    0    0    0  501  0.00000000000E+00  0.00000000000E+00 -0.78531148399E+03  0.78531148399E+03  0.25500000920E-02 0. -1.
    10030    2    1    2    0    0  0.00000000000E+00  0.00000000000E+00 -0.16110750065E+03  0.14095154673E+04  0.14002779102E+04 0.  0.
        5    1    3    3  502    0 -0.26243004595E+02  0.34512190615E+03  0.53204517420E+03  0.63473772756E+03  0.46999998093E+01 0.  1.
       -5    1    3    3    0  502  0.26243004595E+02 -0.34512190615E+03 -0.69315267485E+03  0.77477773978E+03  0.46999998093E+01 0. -1.
</event>
<event>
 5   0  0.9900839E-05  0.1400190E+04  0.7818609E-02  0.8953681E-01
        1   -1    0    0  501    0  0.00000000000E+00  0.00000000000E+00  0.70997519215E+03  0.70997519217E+03  0.50400001928E-02 0.  1.
       -1   -1    0    0    0  501  0.00000000000E+00  0.00000000000E+00 -0.69035229874E+03  0.69035229876E+03  0.50400001928E-02 0. -1.
    10030    2    1    2    0    0  0.00000000000E+00  0.00000000000E+00  0.19622893414E+02  0.14003274909E+04  0.14001899956E+04 0.  0.
        3    1    3    3  502    0  0.64893164413E+02 -0.59784492074E+03 -0.34869735710E+03  0.69513993490E+03  0.10100000352E+00 0. -1.
       -3    1    3    3    0  502 -0.64893164413E+02  0.59784492074E+03  0.36832025052E+03  0.70518755603E+03  0.10100000352E+00 0.  1.
</event>
<event>
 5   0  0.1780171E-04  0.1377462E+04  0.7818609E-02  0.8970296E-01
       -2   -1    0    0    0  501  0.00000000000E+00  0.00000000000E+00  0.71217501989E+03  0.71217501989E+03  0.25500000920E-02 0.  1.
        2   -1    0    0  501    0  0.00000000000E+00  0.00000000000E+00 -0.66605866799E+03  0.66605866800E+03  0.25500000920E-02 0. -1.
    10030    2    1    2    0    0  0.00000000000E+00  0.00000000000E+00  0.46116351895E+02  0.13782336879E+04  0.13774619343E+04 0.  0.
        5    1    3    3  502    0  0.16306797576E+02  0.13346382350E+03  0.69889923905E+03  0.71173080598E+03  0.46999998093E+01 0.  1.
       -5    1    3    3    0  502 -0.16306797576E+02 -0.13346382350E+03 -0.65278288716E+03  0.66650288191E+03  0.46999998093E+01 0. -1.
</event>
<event>
 5   0  0.9900839E-05  0.1400674E+04  0.7818609E-02  0.8953331E-01
        1   -1    0    0  501    0  0.00000000000E+00  0.00000000000E+00  0.70696148561E+03  0.70696148563E+03  0.50400001928E-02 0. -1.
       -1   -1    0    0    0  501  0.00000000000E+00  0.00000000000E+00 -0.69377412509E+03  0.69377412511E+03  0.50400001928E-02 0.  1.
    10030    2    1    2    0    0  0.00000000000E+00  0.00000000000E+00  0.13187360516E+02  0.14007356107E+04  0.14006735325E+04 0.  0.
        3    1    3    3  502    0 -0.24213871322E+03  0.56170589959E+03  0.34767609466E+03  0.70357895866E+03  0.10100000352E+00 0. -1.
       -3    1    3    3    0  502  0.24213871322E+03 -0.56170589959E+03 -0.33448873414E+03  0.69715665208E+03  0.10100000352E+00 0.  1.
</event>
<event>
 5   0  0.1833681E-04  0.1399091E+04  0.7818609E-02  0.8954477E-01
       -2   -1    0    0    0  501  0.00000000000E+00  0.00000000000E+00  0.21841562414E+03  0.21841562415E+03  0.25500000920E-02 0.  1.
        2   -1    0    0  501    0  0.00000000000E+00  0.00000000000E+00 -0.22405162494E+04  0.22405162494E+04  0.25500000920E-02 0. -1.
    10030    2    1    2    0    0  0.00000000000E+00  0.00000000000E+00 -0.20221006253E+04  0.24589318736E+04  0.13990907834E+04 0.  0.
        4    1    3    3  502    0  0.66337754949E+03 -0.21785486633E+03 -0.93583279057E+03  0.11676108687E+04  0.12699999809E+01 0. -1.
       -4    1    3    3    0  502 -0.66337754949E+03  0.21785486633E+03 -0.10862678347E+04  0.12913210048E+04  0.12699999809E+01 0.  1.
</event>
<event>
 5   0  0.9828111E-05  0.1397731E+04  0.7818609E-02  0.8955462E-01
        1   -1    0    0  501    0  0.00000000000E+00  0.00000000000E+00  0.13982183610E+04  0.13982183610E+04  0.50400001928E-02 0. -1.
       -1   -1    0    0    0  501  0.00000000000E+00  0.00000000000E+00 -0.34931102952E+03  0.34931102956E+03  0.50400001928E-02 0.  1.
    10030    2    1    2    0    0  0.00000000000E+00  0.00000000000E+00  0.10489073314E+04  0.17475293905E+04  0.13977311547E+04 0.  0.
        4    1    3    3  502    0 -0.10419687208E+01  0.65761761367E+03  0.82018601593E+03  0.10512700534E+04  0.12699999809E+01 0. -1.
       -4    1    3    3    0  502  0.10419687208E+01 -0.65761761367E+03  0.22872131551E+03  0.69625933716E+03  0.12699999809E+01 0.  1.
</event>
<event>
 5   0  0.1833681E-04  0.1398179E+04  0.7818609E-02  0.8955138E-01
       -2   -1    0    0    0  501  0.00000000000E+00  0.00000000000E+00  0.56070150674E+03  0.56070150674E+03  0.25500000920E-02 0.  1.
        2   -1    0    0  501    0  0.00000000000E+00  0.00000000000E+00 -0.87163316376E+03  0.87163316376E+03  0.25500000920E-02 0. -1.
    10030    2    1    2    0    0  0.00000000000E+00  0.00000000000E+00 -0.31093165702E+03  0.14323346705E+04  0.13981788559E+04 0.  0.
        4    1    3    3  502    0  0.38292898968E+02 -0.67332352210E+03 -0.34406509874E+03  0.75710852366E+03  0.12699999809E+01 0. -1.
       -4    1    3    3    0  502 -0.38292898968E+02  0.67332352210E+03  0.33133441721E+02  0.67522614685E+03  0.12699999809E+01 0.  1.
</event>
<event>
 5   0  0.1794185E-04  0.1395372E+04  0.7818609E-02  0.8957175E-01
       -2   -1    0    0    0  501  0.00000000000E+00  0.00000000000E+00  0.69146878670E+03  0.69146878670E+03  0.25500000920E-02 0. -1.
        2   -1    0    0  501    0  0.00000000000E+00  0.00000000000E+00 -0.70395932822E+03  0.70395932822E+03  0.25500000920E-02 0.  1.
    10030    2    1    2    0    0  0.00000000000E+00  0.00000000000E+00 -0.12490541522E+02  0.13954281149E+04  0.13953722121E+04 0.  0.
        2    1    3    3  502    0  0.18893934700E+03  0.29263284638E+02 -0.67725015918E+03  0.70372025322E+03  0.25500000920E-02 0.  1.
       -2    1    3    3    0  502 -0.18893934700E+03 -0.29263284638E+02  0.66475961766E+03  0.69170786171E+03  0.25500000920E-02 0. -1.
</event>
<event>
 5   0  0.9260916E-05  0.1418588E+04  0.7818609E-02  0.8940472E-01
       -1   -1    0    0    0  501  0.00000000000E+00  0.00000000000E+00  0.27709168210E+03  0.27709168215E+03  0.50400001928E-02 0. -1.
        1   -1    0    0  501    0  0.00000000000E+00  0.00000000000E+00 -0.18156370689E+04  0.18156370690E+04  0.50400001928E-02 0.  1.
    10030    2    1    2    0    0  0.00000000000E+00  0.00000000000E+00 -0.15385453868E+04  0.20927287511E+04  0.14185879311E+04 0.  0.
        1    1    3    3  502    0  0.59046465416E+03 -0.22546684459E+03 -0.29441206873E+03  0.69725337723E+03  0.50400001928E-02 0.  1.
       -1    1    3    3    0  502 -0.59046465416E+03  0.22546684459E+03 -0.12441333181E+04  0.13954753739E+04  0.50400001928E-02 0. -1.
</event>
<event>
 5   0  0.6671375E-05  0.1400409E+04  0.7818609E-02  0.8953523E-01
        1   -1    0    0  501    0  0.00000000000E+00  0.00000000000E+00  0.82847227882E+03  0.82847227884E+03  0.50400001928E-02 0.  1.
       -1   -1    0    0    0  501  0.00000000000E+00  0.00000000000E+00 -0.59179549320E+03  0.59179549322E+03  0.50400001928E-02 0. -1.
    10030    2    1    2    0    0  0.00000000000E+00  0.00000000000E+00  0.23667678563E+03  0.14202677721E+04  0.14004087416E+04 0.  0.
        5    1    3    3  502    0 -0.40664759813E+03  0.39611056194E+03 -0.29734987304E+03  0.64086260879E+03  0.46999998093E+01 0. -1.
       -5    1    3    3    0  502  0.40664759813E+03 -0.39611056194E+03  0.53402665867E+03  0.77940516326E+03  0.46999998093E+01 0.  1.
</event>
<event>
 5   0  0.9260916E-05  0.1405085E+04  0.7818609E-02  0.8950146E-01
        1   -1    0    0  501    0  0.00000000000E+00  0.00000000000E+00  0.53114513865E+03  0.53114513868E+03  0.50400001928E-02 0.  1.
       -1   -1    0    0    0  501  0.00000000000E+00  0.00000000000E+00 -0.92924919898E+03  0.92924919899E+03  0.50400001928E-02 0. -1.
    10030    2    1    2    0    0  0.00000000000E+00  0.00000000000E+00 -0.39810406032E+03  0.14603943377E+04  0.14050853279E+04 0.  0.
        1    1    3    3  502    0  0.66537153923E+03 -0.16434353651E+03 -0.38578515602E+02  0.68645202681E+03  0.50400001928E-02 0.  1.
       -1    1    3    3    0  502 -0.66537153923E+03  0.16434353651E+03 -0.35952554472E+03  0.77394231087E+03  0.50400001928E-02 0. -1.
</event>
<event>
 5   0  0.1780171E-04  0.1402748E+04  0.7818609E-02  0.8951832E-01
       -2   -1    0    0    0  501  0.00000000000E+00  0.00000000000E+00  0.48979463158E+03  0.48979463159E+03  0.25500000920E-02 0.  1.
        2   -1    0    0  501    0  0.00000000000E+00  0.00000000000E+00 -0.10043500762E+04  0.10043500762E+04  0.25500000920E-02 0. -1.
    10030    2    1    2    0    0  0.00000000000E+00  0.00000000000E+00 -0.51455544462E+03  0.14941447078E+04  0.14027476973E+04 0.  0.
        5    1    3    3  502    0 -0.12768849113E+03  0.72344860128E+02 -0.98779521771E+03  0.99864889310E+03  0.46999998093E+01 0. -1.
       -5    1    3    3    0  502  0.12768849113E+03 -0.72344860128E+02  0.47323977309E+03  0.49549581470E+03  0.46999998093E+01 0.  1.
</event>
<event>
 5   0  0.1766237E-04  0.1392546E+04  0.7818609E-02  0.8959232E-01
        2   -1    0    0  501    0  0.00000000000E+00  0.00000000000E+00  0.16023617529E+04  0.16023617529E+04  0.25500000920E-02 0.  1.
       -2   -1    0    0    0  501  0.00000000000E+00  0.00000000000E+00 -0.30255077156E+03  0.30255077157E+03  0.25500000920E-02 0. -1.
    10030    2    1    2    0    0  0.00000000000E+00  0.00000000000E+00  0.12998109813E+04  0.19049125244E+04  0.13925455607E+04 0.  0.
        3    1    3    3  502    0 -0.93061689045E+02 -0.20191637081E+03 -0.25268845883E+03  0.33657416151E+03  0.10100000352E+00 0. -1.
       -3    1    3    3    0  502  0.93061689045E+02  0.20191637081E+03  0.15524994401E+04  0.15683383629E+04  0.10100000352E+00 0.  1.
</event>
<event>
 5   0  0.1780171E-04  0.1409428E+04  0.7818609E-02  0.8947022E-01
        2   -1    0    0  501    0  0.00000000000E+00  0.00000000000E+00  0.60185533625E+03  0.60185533625E+03  0.25500000920E-02 0. -1.
       -2   -1    0    0    0  501  0.00000000000E+00  0.00000000000E+00 -0.82515157583E+03  0.82515157584E+03  0.25500000920E-02 0.  1.
    10030    2    1    2    0    0  0.00000000000E+00  0.00000000000E+00 -0.22329623959E+03  0.14270069121E+04  0.14094280814E+04 0.  0.
        5    1    3    3  502    0  0.54023360455E+02 -0.65256431252E+03  0.15206366921E+03  0.67223816832E+03  0.46999998093E+01 0. -1.
       -5    1    3    3    0  502 -0.54023360455E+02  0.65256431252E+03 -0.37535990879E+03  0.75476874377E+03  0.46999998093E+01 0.  1.
</event>
<event>
 5   0  0.9978422E-05  0.1393711E+04  0.7818609E-02  0.8958384E-01
        1   -1    0    0  501    0  0.00000000000E+00  0.00000000000E+00  0.11638134270E+04  0.11638134270E+04  0.50400001928E-02 0.  1.
       -1   -1    0    0    0  501  0.00000000000E+00  0.00000000000E+00 -0.41725541051E+03  0.41725541054E+03  0.50400001928E-02 0. -1.
    10030    2    1    2    0    0  0.00000000000E+00  0.00000000000E+00  0.74655801648E+03  0.15810688375E+04  0.13937108011E+04 0.  0.
        2    1    3    3  502    0  0.20264373579E+03 -0.41922783107E+03  0.96142544145E+03  0.10682487245E+04  0.25500000920E-02 0.  1.
       -2    1    3    3    0  502 -0.20264373579E+03  0.41922783107E+03 -0.21486742497E+03  0.51282011302E+03  0.25500000920E-02 0. -1.
</event>
<event>
 5   0  0.1833681E-04  0.1398121E+04  0.7818609E-02  0.8955180E-01
       -2   -1    0    0    0  501  0.00000000000E+00  0.00000000000E+00  0.60139503946E+03  0.60139503946E+03  0.25500000920E-02 0.  1.
        2   -1    0    0  501    0  0.00000000000E+00  0.00000000000E+00 -0.81258635619E+03  0.81258635619E+03  0.25500000920E-02 0. -1.
    10030    2    1    2    0    0  0.00000000000E+00  0.00000000000E+00 -0.21119131673E+03  0.14139813957E+04  0.13981207441E+04 0.  0.
        4    1    3    3  502    0  0.56299130988E+03 -0.30992198144E+03 -0.38380347192E+03  0.74854363102E+03  0.12699999809E+01 0. -1.
       -4    1    3    3    0  502 -0.56299130988E+03  0.30992198144E+03  0.17261215519E+03  0.66543776464E+03  0.12699999809E+01 0.  1.
</event>
<event>
 5   0  0.9260916E-05  0.1400499E+04  0.7818609E-02  0.8953457E-01
        1   -1    0    0  501    0  0.00000000000E+00  0.00000000000E+00  0.56034641619E+03  0.56034641621E+03  0.50400001928E-02 0. -1.
       -1   -1    0    0    0  501  0.00000000000E+00  0.00000000000E+00 -0.87508244108E+03  0.87508244109E+03  0.50400001928E-02 0.  1.
    10030    2    1    2    0    0  0.00000000000E+00  0.00000000000E+00 -0.31473602489E+03  0.14354288573E+04  0.14004989250E+04 0.  0.
        1    1    3    3  502    0 -0.35416674094E+03  0.53947178871E+03  0.12123015918E+03  0.65662823784E+03  0.50400001928E-02 0. -1.
       -1    1    3    3    0  502  0.35416674094E+03 -0.53947178871E+03 -0.43596618407E+03  0.77880061947E+03  0.50400001928E-02 0.  1.
</event>
<event>
 5   0  0.1766237E-04  0.1398496E+04  0.7818609E-02  0.8954908E-01
       -2   -1    0    0    0  501  0.00000000000E+00  0.00000000000E+00  0.31525391694E+03  0.31525391695E+03  0.25500000920E-02 0. -1.
        2   -1    0    0  501    0  0.00000000000E+00  0.00000000000E+00 -0.15509656905E+04  0.15509656905E+04  0.25500000920E-02 0.  1.
    10030    2    1    2    0    0  0.00000000000E+00  0.00000000000E+00 -0.12357117736E+04  0.18662196074E+04  0.13984963482E+04 0.  0.
        3    1    3    3  502    0  0.36322507468E+03 -0.58578710650E+03 -0.46070235767E+03  0.82905106090E+03  0.10100000352E+00 0. -1.
       -3    1    3    3    0  502 -0.36322507468E+03  0.58578710650E+03 -0.77500941588E+03  0.10371685465E+04  0.10100000352E+00 0.  1.
</event>
<event>
 5   0  0.9260916E-05  0.1399603E+04  0.7818609E-02  0.8954106E-01
       -1   -1    0    0    0  501  0.00000000000E+00  0.00000000000E+00  0.52779074127E+03  0.52779074130E+03  0.50400001928E-02 0. -1.
        1   -1    0    0  501    0  0.00000000000E+00  0.00000000000E+00 -0.92787205669E+03  0.92787205671E+03  0.50400001928E-02 0.  1.
    10030    2    1    2    0    0  0.00000000000E+00  0.00000000000E+00 -0.40008131542E+03  0.14556627980E+04  0.13996032018E+04 0.  0.
        1    1    3    3  502    0  0.31833290862E+03 -0.41256748215E+03  0.28575973646E+03  0.59431169856E+03  0.50400001928E-02 0. -1.
       -1    1    3    3    0  502 -0.31833290862E+03  0.41256748215E+03 -0.68584105188E+03  0.86135109944E+03  0.50400001928E-02 0.  1.
</event>
<event>
 5   0  0.6671375E-05  0.1400854E+04  0.7818609E-02  0.8953201E-01
        3   -1    0    0  501    0  0.00000000000E+00  0.00000000000E+00  0.30846041680E+03  0.30846043333E+03  0.10100000352E+00 0.  1.
       -3   -1    0    0    0  501  0.00000000000E+00  0.00000000000E+00 -0.15904725928E+04  0.15904725960E+04  0.10100000352E+00 0. -1.
    10030    2    1    2    0    0  0.00000000000E+00  0.00000000000E+00 -0.12820121760E+04  0.18989330293E+04  0.14008538219E+04 0.  0.
        5    1    3    3  502    0 -0.49456220674E+03  0.43921251832E+03 -0.95330277310E+03  0.11603049943E+04  0.46999998093E+01 0. -1.
       -5    1    3    3    0  502  0.49456220674E+03 -0.43921251832E+03 -0.32870940287E+03  0.73862803502E+03  0.46999998093E+01 0.  1.
</event>
<event>
 5   0  0.1780171E-04  0.1399623E+04  0.7818609E-02  0.8954092E-01
       -2   -1    0    0    0  501  0.00000000000E+00  0.00000000000E+00  0.71489303574E+03  0.71489303575E+03  0.25500000920E-02 0. -1.
        2   -1    0    0  501    0  0.00000000000E+00  0.00000000000E+00 -0.68504805735E+03  0.68504805736E+03  0.25500000920E-02 0.  1.
    10030    2    1    2    0    0  0.00000000000E+00  0.00000000000E+00  0.29844978390E+02  0.13999410931E+04  0.13996229283E+04 0.  0.
        5    1    3    3  502    0 -0.29092885506E+03 -0.51102488158E+03  0.39438712579E+03  0.70806025399E+03  0.46999998093E+01 0. -1.
       -5    1    3    3    0  502  0.29092885506E+03  0.51102488158E+03 -0.36454214740E+03  0.69188083911E+03  0.46999998093E+01 0.  1.
</event>
<event>
 5   0  0.6671375E-05  0.1399726E+04  0.7818609E-02  0.8954017E-01
        1   -1    0    0  501    0  0.00000000000E+00  0.00000000000E+00  0.84421806765E+03  0.84421806767E+03  0.50400001928E-02 0. -1.
       -1   -1    0    0    0  501  0.00000000000E+00  0.00000000000E+00 -0.58019149042E+03  0.58019149044E+03  0.50400001928E-02 0.  1.
    10030    2    1    2    0    0  0.00000000000E+00  0.00000000000E+00  0.26402657724E+03  0.14244095581E+04  0.13997258859E+04 0.  0.
        5    1    3    3  502    0  0.14021133055E+03  0.36740500604E+03 -0.45710875364E+03  0.60300593557E+03  0.46999998093E+01 0.  1.
       -5    1    3    3    0  502 -0.14021133055E+03 -0.36740500604E+03  0.72113533088E+03  0.82140362254E+03  0.46999998093E+01 0. -1.
</event>
<event>
 5   0  0.9828111E-05  0.1400560E+04  0.7818609E-02  0.8953413E-01
       -1   -1    0    0    0  501  0.00000000000E+00  0.00000000000E+00  0.70977752800E+03  0.70977752802E+03  0.50400001928E-02 0. -1.
        1   -1    0    0  501    0  0.00000000000E+00  0.00000000000E+00 -0.69090941388E+03  0.69090941390E+03  0.50400001928E-02 0.  1.
    10030    2    1    2    0    0  0.00000000000E+00  0.00000000000E+00  0.18868114121E+02  0.14006869419E+04  0.14005598536E+04 0.  0.
        4    1    3    3  502    0  0.44729486628E+03  0.53578086125E+03  0.66505287385E+02  0.70111225551E+03  0.12699999809E+01 0. -1.
       -4    1    3    3    0  502 -0.44729486628E+03 -0.53578086125E+03 -0.47637173265E+02  0.69957468640E+03  0.12699999809E+01 0.  1.
</event>
<event>
 5   0  0.1794185E-04  0.1400245E+04  0.7818609E-02  0.8953641E-01
        2   -1    0    0  501    0  0.00000000000E+00  0.00000000000E+00  0.19388884949E+04  0.19388884949E+04  0.25500000920E-02 0. -1.
       -2   -1    0    0    0  501  0.00000000000E+00  0.00000000000E+00 -0.25281071162E+03  0.25281071163E+03  0.25500000920E-02 0.  1.
    10030    2    1    2    0    0  0.00000000000E+00  0.00000000000E+00  0.16860777833E+04  0.21916992065E+04  0.14002453787E+04 0.  0.
        2    1    3    3  502    0  0.22959763973E+03  0.53139745535E+03  0.14594146142E+04  0.15700284545E+04  0.25500000920E-02 0. -1.
       -2    1    3    3    0  502 -0.22959763973E+03 -0.53139745535E+03  0.22666316905E+03  0.62167075203E+03  0.25500000920E-02 0.  1.
</event>
<event>
 5   0  0.1766237E-04  0.1401268E+04  0.7818609E-02  0.8952901E-01
       -2   -1    0    0    0  501  0.00000000000E+00  0.00000000000E+00  0.34632403642E+03  0.34632403643E+03  0.25500000920E-02 0.  1.
        2   -1    0    0  501    0  0.00000000000E+00  0.00000000000E+00 -0.14174242306E+04  0.14174242307E+04  0.25500000920E-02 0. -1.
    10030    2    1    2    0    0  0.00000000000E+00  0.00000000000E+00 -0.10711001942E+04  0.17637482671E+04  0.14012681127E+04 0.  0.
        3    1    3    3  502    0  0.56511925885E+03 -0.10547405336E+03 -0.31443587778E+02  0.57573714669E+03  0.10100000352E+00 0.  1.
       -3    1    3    3    0  502 -0.56511925885E+03  0.10547405336E+03 -0.10396566064E+04  0.11880111204E+04  0.10100000352E+00 0. -1.
</event>
<event>
 5   0  0.6671375E-05  0.1399401E+04  0.7818609E-02  0.8954252E-01
        1   -1    0    0  501    0  0.00000000000E+00  0.00000000000E+00  0.13543273324E+04  0.13543273324E+04  0.50400001928E-02 0. -1.
       -1   -1    0    0    0  501  0.00000000000E+00  0.00000000000E+00 -0.36149389063E+03  0.36149389067E+03  0.50400001928E-02 0.  1.
    10030    2    1    2    0    0  0.00000000000E+00  0.00000000000E+00  0.99283344178E+03  0.17158212231E+04  0.13994013815E+04 0.  0.
        5    1    3    3  502    0 -0.44992313827E+03 -0.52000549805E+03  0.33786196325E+03  0.76616535067E+03  0.46999998093E+01 0.  1.
       -5    1    3    3    0  502  0.44992313827E+03  0.52000549805E+03  0.65497147852E+03  0.94965587242E+03  0.46999998093E+01 0. -1.
</event>
<event>
 5   0  0.6671375E-05  0.1398826E+04  0.7818609E-02  0.8954669E-01
       -4   -1    0    0    0  501  0.00000000000E+00  0.00000000000E+00  0.74682711859E+03  0.74682819842E+03  0.12699999809E+01 0. -1.
        4   -1    0    0  501    0  0.00000000000E+00  0.00000000000E+00 -0.65500696648E+03  0.65500819769E+03  0.12699999809E+01 0.  1.
    10030    2    1    2    0    0  0.00000000000E+00  0.00000000000E+00  0.91820152102E+02  0.14018363961E+04  0.13988260582E+04 0.  0.
        4    1    3    3  502    0 -0.29451816020E+03 -0.19305730435E+03  0.65149929111E+03  0.74058423469E+03  0.12699999809E+01 0. -1.
       -4    1    3    3    0  502  0.29451816020E+03  0.19305730435E+03 -0.55967913901E+03  0.66125216143E+03  0.12699999809E+01 0.  1.
</event>
<event>
 5   0  0.1712327E-04  0.1401971E+04  0.7818609E-02  0.8952393E-01
       -2   -1    0    0    0  501  0.00000000000E+00  0.00000000000E+00  0.41961383575E+03  0.41961383576E+03  0.25500000920E-02 0. -1.
        2   -1    0    0  501    0  0.00000000000E+00  0.00000000000E+00 -0.11710314472E+04  0.11710314472E+04  0.25500000920E-02 0.  1.
    10030    2    1    2    0    0  0.00000000000E+00  0.00000000000E+00 -0.75141761146E+03  0.15906452830E+04  0.14019714653E+04 0.  0.
        1    1    3    3  502    0 -0.80574065856E+02 -0.59016471173E+03 -0.79503371630E+03  0.99341088033E+03  0.50400001928E-02 0.  1.
       -1    1    3    3    0  502  0.80574065856E+02  0.59016471173E+03  0.43616104846E+02  0.59723440264E+03  0.50400001928E-02 0. -1.
</event>
<event>
 5   0  0.1794185E-04  0.1403066E+04  0.7818609E-02  0.8951602E-01
        2   -1    0    0  501    0  0.00000000000E+00  0.00000000000E+00  0.13388013795E+04  0.13388013795E+04  0.25500000920E-02 0. -1.
       -2   -1    0    0    0  501  0.00000000000E+00  0.00000000000E+00 -0.36760391856E+03  0.36760391857E+03  0.25500000920E-02 0.  1.
    10030    2    1    2    0    0  0.00000000000E+00  0.00000000000E+00  0.97119746090E+03  0.17064052980E+04  0.14030661186E+04 0.  0.
        2    1    3    3  502    0 -0.13839518196E+03  0.25437556502E+03  0.12627178892E+04  0.12954985999E+04  0.25500000920E-02 0. -1.
       -2    1    3    3    0  502  0.13839518196E+03 -0.25437556502E+03 -0.29152042832E+03  0.41090669817E+03  0.25500000920E-02 0.  1.
</event>
<event>
 5   0  0.9978422E-05  0.1396460E+04  0.7818609E-02  0.8956385E-01
       -1   -1    0    0    0  501  0.00000000000E+00  0.00000000000E+00  0.71343977802E+03  0.71343977804E+03  0.50400001928E-02 0. -1.
        1   -1    0    0  501    0  0.00000000000E+00  0.00000000000E+00 -0.68334468044E+03  0.68334468046E+03  0.50400001928E-02 0.  1.
    10030    2    1    2    0    0  0.00000000000E+00  0.00000000000E+00  0.30095097582E+02  0.13967844585E+04  0.13964602066E+04 0.  0.
        2    1    3    3  502    0  0.26204154933E+03 -0.42314003743E+03  0.50486730319E+03  0.70894587853E+03  0.25500000920E-02 0. -1.
       -2    1    3    3    0  502 -0.26204154933E+03  0.42314003743E+03 -0.47477220561E+03  0.68783857996E+03  0.25500000920E-02 0.  1.
</event>
<event>
 5   0  0.1833681E-04  0.1400897E+04  0.7818609E-02  0.8953169E-01
        2   -1    0    0  501    0  0.00000000000E+00  0.00000000000E+00  0.99820603653E+03  0.99820603653E+03  0.25500000920E-02 0.  1.
       -2   -1    0    0    0  501  0.00000000000E+00  0.00000000000E+00 -0.49151017309E+03  0.49151017310E+03  0.25500000920E-02 0. -1.
    10030    2    1    2    0    0  0.00000000000E+00  0.00000000000E+00  0.50669586344E+03  0.14897162096E+04  0.14008974578E+04 0.  0.
        4    1    3    3  502    0  0.35098361348E+03  0.21100866886E+03  0.85763002919E+03  0.95039204286E+03  0.12699999809E+01 0.  1.
       -4    1    3    3    0  502 -0.35098361348E+03 -0.21100866886E+03 -0.35093416576E+03  0.53932416677E+03  0.12699999809E+01 0. -1.
</event>
<event>
 5   0  0.1780171E-04  0.1400607E+04  0.7818609E-02  0.8953379E-01
       -2   -1    0    0    0  501  0.00000000000E+00  0.00000000000E+00  0.46011606975E+03  0.46011606975E+03  0.25500000920E-02 0.  1.
        2   -1    0    0  501    0  0.00000000000E+00  0.00000000000E+00 -0.10658721585E+04  0.10658721585E+04  0.25500000920E-02 0. -1.
    10030    2    1    2    0    0  0.00000000000E+00  0.00000000000E+00 -0.60575608875E+03  0.15259882283E+04  0.14006068805E+04 0.  0.
        5    1    3    3  502    0  0.61362568410E+03 -0.13351520643E+02  0.64482394006E+02  0.61716676225E+03  0.46999998093E+01 0.  1.
       -5    1    3    3    0  502 -0.61362568410E+03  0.13351520643E+02 -0.67023848276E+03  0.90882146600E+03  0.46999998093E+01 0. -1.
</event>
<event>
 5   0  0.1833681E-04  0.1402378E+04  0.7818609E-02  0.8952099E-01
       -2   -1    0    0    0  501  0.00000000000E+00  0.00000000000E+00  0.24541414039E+03  0.24541414040E+03  0.25500000920E-02 0.  1.
        2   -1    0    0  501    0  0.00000000000E+00  0.00000000000E+00 -0.20034141172E+04  0.20034141172E+04  0.25500000920E-02 0. -1.
    10030    2    1    2    0    0  0.00000000000E+00  0.00000000000E+00 -0.17579999768E+04  0.22488282576E+04  0.14023781992E+04 0.  0.
        4    1    3    3  502    0  0.62284023549E+03 -0.33690671972E+02 -0.36535411557E+03  0.72287638154E+03  0.12699999809E+01 0.  1.
       -4    1    3    3    0  502 -0.62284023549E+03  0.33690671972E+02 -0.13926458612E+04  0.15259518761E+04  0.12699999809E+01 0. -1.
</event>
<event>
 5   0  0.1794185E-04  0.1400927E+04  0.7818609E-02  0.8953148E-01
        2   -1    0    0  501    0  0.00000000000E+00  0.00000000000E+00  0.10739860114E+04  0.10739860114E+04  0.25500000920E-02 0. -1.
       -2   -1    0    0    0  501  0.00000000000E+00  0.00000000000E+00 -0.45684846823E+03  0.45684846824E+03  0.25500000920E-02 0.  1.
    10030    2    1    2    0    0  0.00000000000E+00  0.00000000000E+00  0.61713754318E+03  0.15308344796E+04  0.14009266422E+04 0.  0.
        2    1    3    3  502    0 -0.16997624587E+03 -0.67905143716E+03  0.28079352529E+03  0.75421998271E+03  0.25500000920E-02 0.  1.
       -2    1    3    3    0  502  0.16997624587E+03  0.67905143716E+03  0.33634401789E+03  0.77661449694E+03  0.25500000920E-02 0. -1.
</event>
<event>
 5   0  0.1780171E-04  0.1416028E+04  0.7818609E-02  0.8942298E-01
       -2   -1    0    0    0  501  0.00000000000E+00  0.00000000000E+00  0.20435551785E+03  0.20435551786E+03  0.25500000920E-02 0.  1.
        2   -1    0    0  501    0  0.00000000000E+00  0.00000000000E+00 -0.24529981227E+04  0.24529981227E+04  0.25500000920E-02 0. -1.
    10030    2    1    2    0    0  0.00000000000E+00  0.00000000000E+00 -0.22486426048E+04  0.26573536405E+04  0.14160278269E+04 0.  0.
        5    1    3    3  502    0 -0.62887079481E+03  0.28503339567E+03 -0.83034869277E+03  0.10799183093E+04  0.46999998093E+01 0.  1.
       -5    1    3    3    0  502  0.62887079481E+03 -0.28503339567E+03 -0.14182939120E+04  0.15774353312E+04  0.46999998093E+01 0. -1.
</event>
<event>
 5   0  0.9260916E-05  0.1400720E+04  0.7818609E-02  0.8953298E-01
       -1   -1    0    0    0  501  0.00000000000E+00  0.00000000000E+00  0.25351705584E+03  0.25351705589E+03  0.50400001928E-02 0. -1.
        1   -1    0    0  501    0  0.00000000000E+00  0.00000000000E+00 -0.19347972033E+04  0.19347972033E+04  0.50400001928E-02 0.  1.
    10030    2    1    2    0    0  0.00000000000E+00  0.00000000000E+00 -0.16812801474E+04  0.21883142592E+04  0.14007199444E+04 0.  0.
        1    1    3    3  502    0 -0.54074091122E+03 -0.61680937039E+02 -0.15199814944E+03  0.56507407348E+03  0.50400001928E-02 0. -1.
       -1    1    3    3    0  502  0.54074091122E+03  0.61680937039E+02 -0.15292819980E+04  0.16232401857E+04  0.50400001928E-02 0.  1.
</event>
<event>
 5   0  0.1766237E-04  0.1398618E+04  0.7818609E-02  0.8954820E-01
        2   -1    0    0  501    0  0.00000000000E+00  0.00000000000E+00  0.66221922353E+03  0.66221922353E+03  0.25500000920E-02 0. -1.
       -2   -1    0    0    0  501  0.00000000000E+00  0.00000000000E+00 -0.73847609237E+03  0.73847609237E+03  0.25500000920E-02 0.  1.
    10030    2    1    2    0    0  0.00000000000E+00  0.00000000000E+00 -0.76256868838E+02  0.14006953159E+04  0.13986179814E+04 0.  0.
        3    1    3    3  502    0 -0.21040734380E+03 -0.66243013611E+03 -0.11536703266E+03  0.70455269354E+03  0.10100000352E+00 0. -1.
       -3    1    3    3    0  502  0.21040734380E+03  0.66243013611E+03  0.39110163823E+02  0.69614262236E+03  0.10100000352E+00 0.  1.
</event>
<event>
 5   0  0.9260916E-05  0.1406707E+04  0.7818609E-02  0.8948978E-01
       -1   -1    0    0    0  501  0.00000000000E+00  0.00000000000E+00  0.39194172015E+03  0.39194172018E+03  0.50400001928E-02 0.  1.
        1   -1    0    0  501    0  0.00000000000E+00  0.00000000000E+00 -0.12621926245E+04  0.12621926245E+04  0.50400001928E-02 0. -1.
    10030    2    1    2    0    0  0.00000000000E+00  0.00000000000E+00 -0.87025090439E+03  0.16541343447E+04  0.14067067192E+04 0.  0.
        1    1    3    3  502    0  0.15828732791E+03  0.12837404361E+03 -0.12267119104E+04  0.12435259886E+04  0.50400001928E-02 0. -1.
       -1    1    3    3    0  502 -0.15828732791E+03 -0.12837404361E+03  0.35646100602E+03  0.41060835609E+03  0.50400001928E-02 0.  1.
</event>
<event>
 5   0  0.1794185E-04  0.1400180E+04  0.7818609E-02  0.8953688E-01
       -2   -1    0    0    0  501  0.00000000000E+00  0.00000000000E+00  0.21570024348E+03  0.21570024349E+03  0.25500000920E-02 0.  1.
        2   -1    0    0  501    0  0.00000000000E+00  0.00000000000E+00 -0.22722568386E+04  0.22722568386E+04  0.25500000920E-02 0. -1.
    10030    2    1    2    0    0  0.00000000000E+00  0.00000000000E+00 -0.20565565951E+04  0.24879570821E+04  0.14001804931E+04 0.  0.
        2    1    3    3  502    0 -0.45706392237E+02 -0.17498742986E+03 -0.22300303138E+04  0.22373522019E+04  0.25500000920E-02 0. -1.
       -2    1    3    3    0  502  0.45706392237E+02  0.17498742986E+03  0.17347371867E+03  0.25060488020E+03  0.25500000920E-02 0.  1.
</event>
<event>
 5   0  0.1780171E-04  0.1401531E+04  0.7818609E-02  0.8952711E-01
        2   -1    0    0  501    0  0.00000000000E+00  0.00000000000E+00  0.17200907787E+04  0.17200907787E+04  0.25500000920E-02 0. -1.
       -2   -1    0    0    0  501  0.00000000000E+00  0.00000000000E+00 -0.28549225072E+03  0.28549225073E+03  0.25500000920E-02 0.  1.
    10030    2    1    2    0    0  0.00000000000E+00  0.00000000000E+00  0.14345985280E+04  0.20055830294E+04  0.14015314308E+04 0.  0.
        5    1    3    3  502    0 -0.49995236318E+03 -0.42371873940E+03  0.36224961028E+03  0.74882361455E+03  0.46999998093E+01 0.  1.
       -5    1    3    3    0  502  0.49995236318E+03  0.42371873940E+03  0.10723489177E+04  0.12567594149E+04  0.46999998093E+01 0. -1.
</event>
<event>
 5   0  0.9260916E-05  0.1401319E+04  0.7818609E-02  0.8952864E-01
       -1   -1    0    0    0  501  0.00000000000E+00  0.00000000000E+00  0.58421277548E+03  0.58421277550E+03  0.50400001928E-02 0.  1.
        1   -1    0    0  501    0  0.00000000000E+00  0.00000000000E+00 -0.84031653914E+03  0.84031653916E+03  0.50400001928E-02 0. -1.
    10030    2    1    2    0    0  0.00000000000E+00  0.00000000000E+00 -0.25610376366E+03  0.14245293147E+04  0.14013188897E+04 0.  0.
        1    1    3    3  502    0  0.12982589956E+03  0.49153011735E+02  0.57009315905E+03  0.58675121882E+03  0.50400001928E-02 0.  1.
       -1    1    3    3    0  502 -0.12982589956E+03 -0.49153011735E+02 -0.82619692271E+03  0.83777809585E+03  0.50400001928E-02 0. -1.
</event>
<event>
 5   0  0.9828111E-05  0.1395908E+04  0.7818609E-02  0.8956786E-01
        1   -1    0    0  501    0  0.00000000000E+00  0.00000000000E+00  0.93972247728E+03  0.93972247729E+03  0.50400001928E-02 0.  1.
       -1   -1    0    0    0  501  0.00000000000E+00  0.00000000000E+00 -0.51838676737E+03  0.51838676739E+03  0.50400001928E-02 0. -1.
    10030    2    1    2    0    0  0.00000000000E+00  0.00000000000E+00  0.42133570991E+03  0.14581092447E+04  0.13959078727E+04 0.  0.
        4    1    3    3  502    0 -0.14273348467E+03 -0.61630336302E+03  0.51865432543E+03  0.81805049055E+03  0.12699999809E+01 0. -1.
       -4    1    3    3    0  502  0.14273348467E+03  0.61630336302E+03 -0.97318615518E+02  0.64005875413E+03  0.12699999809E+01 0.  1.
</event>
<event>
 5   0  0.6671375E-05  0.1402936E+04  0.7818609E-02  0.8951696E-01
        1   -1    0    0  501    0  0.00000000000E+00  0.00000000000E+00  0.64606985101E+03  0.64606985103E+03  0.50400001928E-02 0.  1.
       -1   -1    0    0    0  501  0.00000000000E+00  0.00000000000E+00 -0.76161609460E+03  0.76161609462E+03  0.50400001928E-02 0. -1.
    10030    2    1    2    0    0  0.00000000000E+00  0.00000000000E+00 -0.11554624359E+03  0.14076859457E+04  0.14029357744E+04 0.  0.
        5    1    3    3  502    0 -0.14830333599E+03 -0.59600834506E+03 -0.39776444164E+03  0.73175027700E+03  0.46999998093E+01 0.  1.
       -5    1    3    3    0  502  0.14830333599E+03  0.59600834506E+03  0.28221819805E+03  0.67593566866E+03  0.46999998093E+01 0. -1.
</event>
<event>
 5   0  0.6671375E-05  0.1398346E+04  0.7818609E-02  0.8955017E-01
       -1   -1    0    0    0  501  0.00000000000E+00  0.00000000000E+00  0.90048379150E+03  0.90048379151E+03  0.50400001928E-02 0.  1.
        1   -1    0    0  501    0  0.00000000000E+00  0.00000000000E+00 -0.54286696370E+03  0.54286696372E+03  0.50400001928E-02 0. -1.
    10030    2    1    2    0    0  0.00000000000E+00  0.00000000000E+00  0.35761682780E+03  0.14433507552E+04  0.13983460255E+04 0.  0.
        5    1    3    3  502    0  0.34540763078E+02 -0.14767862703E+02  0.89942507079E+03  0.90022147389E+03  0.46999998093E+01 0.  1.
       -5    1    3    3    0  502 -0.34540763078E+02  0.14767862703E+02 -0.54180824299E+03  0.54312928134E+03  0.46999998093E+01 0. -1.
</event>
<event>
 5   0  0.6671375E-05  0.1399781E+04  0.7818609E-02  0.8953977E-01
        1   -1    0    0  501    0  0.00000000000E+00  0.00000000000E+00  0.14279958293E+04  0.14279958293E+04  0.50400001928E-02 0.  1.
       -1   -1    0    0    0  501  0.00000000000E+00  0.00000000000E+00 -0.34303075256E+03  0.34303075260E+03  0.50400001928E-02 0. -1.
    10030    2    1    2    0    0  0.00000000000E+00  0.00000000000E+00  0.10849650767E+04  0.17710265819E+04  0.13997806743E+04 0.  0.
        5    1    3    3  502    0 -0.69834341615E+03  0.39697570448E+02  0.51240946644E+03  0.86708994648E+03  0.46999998093E+01 0. -1.
       -5    1    3    3    0  502  0.69834341615E+03 -0.39697570448E+02  0.57255561030E+03  0.90393663543E+03  0.46999998093E+01 0.  1.
</event>
<event>
 5   0  0.9900839E-05  0.1398925E+04  0.7818609E-02  0.8954597E-01
        1   -1    0    0  501    0  0.00000000000E+00  0.00000000000E+00  0.14619352492E+04  0.14619352492E+04  0.50400001928E-02 0.  1.
       -1   -1    0    0    0  501  0.00000000000E+00  0.00000000000E+00 -0.33465739344E+03  0.33465739348E+03  0.50400001928E-02 0. -1.
    10030    2    1    2    0    0  0.00000000000E+00  0.00000000000E+00  0.11272778558E+04  0.17965926427E+04  0.13989245011E+04 0.  0.
        3    1    3    3  502    0  0.28137423848E+03 -0.49447588897E+03  0.10862102725E+04  0.12261853992E+04  0.10100000352E+00 0.  1.
       -3    1    3    3    0  502 -0.28137423848E+03  0.49447588897E+03  0.41067583247E+02  0.57040724351E+03  0.10100000352E+00 0. -1.
</event>
<event>
 5   0  0.1780171E-04  0.1399759E+04  0.7818609E-02  0.8953993E-01
       -2   -1    0    0    0  501  0.00000000000E+00  0.00000000000E+00  0.39256566681E+03  0.39256566682E+03  0.25500000920E-02 0. -1.
        2   -1    0    0  501    0  0.00000000000E+00  0.00000000000E+00 -0.12477684625E+04  0.12477684625E+04  0.25500000920E-02 0.  1.
    10030    2    1    2    0    0  0.00000000000E+00  0.00000000000E+00 -0.85520279571E+03  0.16403341293E+04  0.13997586342E+04 0.  0.
        5    1    3    3  502    0 -0.65728338872E+03 -0.21958255823E+03 -0.31295559049E+03  0.76039545277E+03  0.46999998093E+01 0. -1.
       -5    1    3    3    0  502  0.65728338872E+03  0.21958255823E+03 -0.54224720522E+03  0.87993867658E+03  0.46999998093E+01 0.  1.
</event>
<event>
 5   0  0.6671375E-05  0.1399208E+04  0.7818609E-02  0.8954392E-01
        3   -1    0    0  501    0  0.00000000000E+00  0.00000000000E+00  0.15021563474E+04  0.15021563508E+04  0.10100000352E+00 0.  1.
       -3   -1    0    0    0  501  0.00000000000E+00  0.00000000000E+00 -0.32582885491E+03  0.32582887056E+03  0.10100000352E+00 0. -1.
    10030    2    1    2    0    0  0.00000000000E+00  0.00000000000E+00  0.11763274925E+04  0.18279852213E+04  0.13992082046E+04 0.  0.
        4    1    3    3  502    0 -0.47176667094E+03  0.43655150450E+03  0.94904301859E+03  0.11462221739E+04  0.12699999809E+01 0.  1.
       -4    1    3    3    0  502  0.47176667094E+03 -0.43655150450E+03  0.22728447387E+03  0.68176304744E+03  0.12699999809E+01 0. -1.
</event>
<event>
 5   0  0.6671375E-05  0.1398918E+04  0.7818609E-02  0.8954602E-01
       -1   -1    0    0    0  501  0.00000000000E+00  0.00000000000E+00  0.64471688023E+03  0.64471688025E+03  0.50400001928E-02 0.  1.
        1   -1    0    0  501    0  0.00000000000E+00  0.00000000000E+00 -0.75884943233E+03  0.75884943234E+03  0.50400001928E-02 0. -1.
    10030    2    1    2    0    0  0.00000000000E+00  0.00000000000E+00 -0.11413255210E+03  0.14035663126E+04  0.13989182086E+04 0.  0.
        5    1    3    3  502    0  0.28309454298E+03  0.54871116917E+03 -0.38678331739E+03  0.72859446336E+03  0.46999998093E+01 0. -1.
       -5    1    3    3    0  502 -0.28309454298E+03 -0.54871116917E+03  0.27265076528E+03  0.67497184923E+03  0.46999998093E+01 0.  1.
</event>
<event>
 5   0  0.1780171E-04  0.1400759E+04  0.7818609E-02  0.8953270E-01
        2   -1    0    0  501    0  0.00000000000E+00  0.00000000000E+00  0.10302350891E+04  0.10302350891E+04  0.25500000920E-02 0. -1.
       -2   -1    0    0    0  501  0.00000000000E+00  0.00000000000E+00 -0.47613523052E+03  0.47613523053E+03  0.25500000920E-02 0.  1.
    10030    2    1    2    0    0  0.00000000000E+00  0.00000000000E+00  0.55409985861E+03  0.15063703197E+04  0.14007586825E+04 0.  0.
        5    1    3    3  502    0 -0.58969753476E+03  0.36934500815E+03  0.19135352263E+03  0.72166278702E+03  0.46999998093E+01 0. -1.
       -5    1    3    3    0  502  0.58969753476E+03 -0.36934500815E+03  0.36274633598E+03  0.78470753266E+03  0.46999998093E+01 0.  1.
</event>
<event>
 5   0  0.9828111E-05  0.1399086E+04  0.7818609E-02  0.8954480E-01
       -1   -1    0    0    0  501  0.00000000000E+00  0.00000000000E+00  0.67733160887E+03  0.67733160889E+03  0.50400001928E-02 0.  1.
        1   -1    0    0  501    0  0.00000000000E+00  0.00000000000E+00 -0.72248310522E+03  0.72248310524E+03  0.50400001928E-02 0. -1.
    10030    2    1    2    0    0  0.00000000000E+00  0.00000000000E+00 -0.45151496346E+02  0.13998147141E+04  0.13990863362E+04 0.  0.
        4    1    3    3  502    0  0.55686027542E+03 -0.27719684190E+03 -0.34278544977E+03  0.71023582913E+03  0.12699999809E+01 0. -1.
       -4    1    3    3    0  502 -0.55686027542E+03  0.27719684190E+03  0.29763395343E+03  0.68957888500E+03  0.12699999809E+01 0.  1.
</event>
<event>
 5   0  0.6671375E-05  0.1401903E+04  0.7818609E-02  0.8952443E-01
        1   -1    0    0  501    0  0.00000000000E+00  0.00000000000E+00  0.16742005534E+04  0.16742005534E+04  0.50400001928E-02 0.  1.
       -1   -1    0    0    0  501  0.00000000000E+00  0.00000000000E+00 -0.29347300689E+03  0.29347300694E+03  0.50400001928E-02 0. -1.
    10030    2    1    2    0    0  0.00000000000E+00  0.00000000000E+00  0.13807275465E+04  0.19676735603E+04  0.14019025224E+04 0.  0.
        5    1    3    3  502    0  0.57855670598E+03 -0.34664685500E+03  0.42251028149E+03  0.79588248635E+03  0.46999998093E+01 0.  1.
       -5    1    3    3    0  502 -0.57855670598E+03  0.34664685500E+03  0.95821726501E+03  0.11717910740E+04  0.46999998093E+01 0. -1.
</event>
<event>
 5   0  0.1766237E-04  0.1397314E+04  0.7818609E-02  0.8955765E-01
        2   -1    0    0  501    0  0.00000000000E+00  0.00000000000E+00  0.13282000541E+04  0.13282000541E+04  0.25500000920E-02 0. -1.
       -2   -1    0    0    0  501  0.00000000000E+00  0.00000000000E+00 -0.36750629595E+03  0.36750629596E+03  0.25500000920E-02 0.  1.
    10030    2    1    2    0    0  0.00000000000E+00  0.00000000000E+00  0.96069375818E+03  0.16957063501E+04  0.13973143987E+04 0.  0.
        3    1    3    3  502    0 -0.88992372202E+02  0.31825171613E+03 -0.26666786430E+03  0.42463579357E+03  0.10100000352E+00 0.  1.
       -3    1    3    3    0  502  0.88992372202E+02 -0.31825171613E+03  0.12273616225E+04  0.12710705565E+04  0.10100000352E+00 0. -1.
</event>
<event>
 5   0  0.1780171E-04  0.1402747E+04  0.7818609E-02  0.8951833E-01
       -2   -1    0    0    0  501  0.00000000000E+00  0.00000000000E+00  0.75894082338E+03  0.75894082339E+03  0.25500000920E-02 0. -1.
        2   -1    0    0  501    0  0.00000000000E+00  0.00000000000E+00 -0.64817256372E+03  0.64817256372E+03  0.25500000920E-02 0.  1.
    10030    2    1    2    0    0  0.00000000000E+00  0.00000000000E+00  0.11076825966E+03  0.14071133871E+04  0.14027467615E+04 0.  0.
        5    1    3    3  502    0  0.94767145020E+02 -0.24195220255E+03  0.70885722107E+03  0.75499823175E+03  0.46999998093E+01 0. -1.
       -5    1    3    3    0  502 -0.94767145020E+02  0.24195220255E+03 -0.59808896141E+03  0.65211515536E+03  0.46999998093E+01 0.  1.
</event>
<event>
 5   0  0.6671375E-05  0.1399464E+04  0.7818609E-02  0.8954207E-01
        1   -1    0    0  501    0  0.00000000000E+00  0.00000000000E+00  0.13872450344E+04  0.13872450344E+04  0.50400001928E-02 0.  1.
       -1   -1    0    0    0  501  0.00000000000E+00  0.00000000000E+00 -0.35294749819E+03  0.35294749823E+03  0.50400001928E-02 0. -1.
    10030    2    1    2    0    0  0.00000000000E+00  0.00000000000E+00  0.10342975362E+04  0.17401925327E+04  0.13994637034E+04 0.  0.
        5    1    3    3  502    0  0.29490980994E+03 -0.56426748124E+03  0.87804036076E+03  0.10845951095E+04  0.46999998093E+01 0.  1.
       -5    1    3    3    0  502 -0.29490980994E+03  0.56426748124E+03  0.15625717547E+03  0.65559742317E+03  0.46999998093E+01 0. -1.
</event>
<event>
 5   0  0.1833681E-04  0.1397055E+04  0.7818609E-02  0.8955953E-01
       -2   -1    0    0    0  501  0.00000000000E+00  0.00000000000E+00  0.57152292464E+03  0.57152292465E+03  0.25500000920E-02 0.  1.
        2   -1    0    0  501    0  0.00000000000E+00  0.00000000000E+00 -0.85375473882E+03  0.85375473882E+03  0.25500000920E-02 0. -1.
    10030    2    1    2    0    0  0.00000000000E+00  0.00000000000E+00 -0.28223181417E+03  0.14252776635E+04  0.13970546235E+04 0.  0.
        4    1    3    3  502    0 -0.42816798368E+03  0.17439743605E+03  0.39310028711E+03  0.60685396643E+03  0.12699999809E+01 0.  1.
       -4    1    3    3    0  502  0.42816798368E+03 -0.17439743605E+03 -0.67533210128E+03  0.81842369704E+03  0.12699999809E+01 0. -1.
</event>
<event>
 5   0  0.9260916E-05  0.1400338E+04  0.7818609E-02  0.8953574E-01
        1   -1    0    0  501    0  0.00000000000E+00  0.00000000000E+00  0.10186400288E+04  0.10186400289E+04  0.50400001928E-02 0. -1.
       -1   -1    0    0    0  501  0.00000000000E+00  0.00000000000E+00 -0.48126616020E+03  0.48126616022E+03  0.50400001928E-02 0.  1.
    10030    2    1    2    0    0  0.00000000000E+00  0.00000000000E+00  0.53737386864E+03  0.14999061891E+04  0.14003384953E+04 0.  0.
        1    1    3    3  502    0  0.61213088650E+03  0.23119708472E+03  0.53556276002E+03  0.84556713757E+03  0.50400001928E-02 0. -1.
       -1    1    3    3    0  502 -0.61213088650E+03 -0.23119708472E+03  0.18111086223E+01  0.65433905151E+03  0.50400001928E-02 0.  1.
</event>
<event>
 5   0  0.9828111E-05  0.1401480E+04  0.7818609E-02  0.8952748E-01
        1   -1    0    0  501    0  0.00000000000E+00  0.00000000000E+00  0.67117006529E+03  0.67117006531E+03  0.50400001928E-02 0.  1.
       -1   -1    0    0    0  501  0.00000000000E+00  0.00000000000E+00 -0.73161299348E+03  0.73161299350E+03  0.50400001928E-02 0. -1.
    10030    2    1    2    0    0  0.00000000000E+00  0.00000000000E+00 -0.60442928185E+02  0.14027830588E+04  0.14014802755E+04 0.  0.
        4    1    3    3  502    0  0.25195704825E+02  0.52416991931E+02 -0.72919199693E+03  0.73150867792E+03  0.12699999809E+01 0. -1.
       -4    1    3    3    0  502 -0.25195704825E+02 -0.52416991931E+02  0.66874906875E+03  0.67127438089E+03  0.12699999809E+01 0.  1.
</event>
<event>
 5   0  0.9828111E-05  0.1400283E+04  0.7818609E-02  0.8953614E-01
       -1   -1    0    0    0  501  0.00000000000E+00  0.00000000000E+00  0.41691395404E+03  0.41691395407E+03  0.50400001928E-02 0.  1.
        1   -1    0    0  501    0  0.00000000000E+00  0.00000000000E+00 -0.11757781911E+04  0.11757781911E+04  0.50400001928E-02 0. -1.
    10030    2    1    2    0    0  0.00000000000E+00  0.00000000000E+00 -0.75886423701E+03  0.15926921451E+04  0.14002833067E+04 0.  0.
        4    1    3    3  502    0  0.18378866375E+03 -0.10144843829E+02  0.38889922815E+03  0.43026202869E+03  0.12699999809E+01 0.  1.
       -4    1    3    3    0  502 -0.18378866375E+03  0.10144843829E+02 -0.11477634652E+04  0.11624301164E+04  0.12699999809E+01 0. -1.
</event>
<event>
 5   0  0.9828111E-05  0.1400491E+04  0.7818609E-02  0.8953463E-01
       -1   -1    0    0    0  501  0.00000000000E+00  0.00000000000E+00  0.69401000108E+03  0.69401000110E+03  0.50400001928E-02 0. -1.
        1   -1    0    0  501    0  0.00000000000E+00  0.00000000000E+00 -0.70653730453E+03  0.70653730454E+03  0.50400001928E-02 0.  1.
    10030    2    1    2    0    0  0.00000000000E+00  0.00000000000E+00 -0.12527303448E+02  0.14005473056E+04  0.14004912788E+04 0.  0.
        4    1    3    3  502    0  0.44646288839E+03  0.41803877504E+03  0.33471452409E+03  0.69722374722E+03  0.12699999809E+01 0. -1.
       -4    1    3    3    0  502 -0.44646288839E+03 -0.41803877504E+03 -0.34724182754E+03  0.70332355843E+03  0.12699999809E+01 0.  1.
</event>
<event>
 5   0  0.9260916E-05  0.1400978E+04  0.7818609E-02  0.8953111E-01
       -1   -1    0    0    0  501  0.00000000000E+00  0.00000000000E+00  0.13118343630E+04  0.13118343630E+04  0.50400001928E-02 0. -1.
        1   -1    0    0  501    0  0.00000000000E+00  0.00000000000E+00 -0.37404496319E+03  0.37404496322E+03  0.50400001928E-02 0.  1.
    10030    2    1    2    0    0  0.00000000000E+00  0.00000000000E+00  0.93778939982E+03  0.16858793262E+04  0.14009782811E+04 0.  0.
        1    1    3    3  502    0 -0.12579912426E+03 -0.35825477334E+03  0.11772561730E+04  0.12369737262E+04  0.50400001928E-02 0. -1.
       -1    1    3    3    0  502  0.12579912426E+03  0.35825477334E+03 -0.23946677320E+03  0.44890560008E+03  0.50400001928E-02 0.  1.
</event>
<event>
 5   0  0.6671375E-05  0.1399654E+04  0.7818609E-02  0.8954069E-01
       -1   -1    0    0    0  501  0.00000000000E+00  0.00000000000E+00  0.57442765031E+03  0.57442765033E+03  0.50400001928E-02 0. -1.
        1   -1    0    0  501    0  0.00000000000E+00  0.00000000000E+00 -0.85260183303E+03  0.85260183304E+03  0.50400001928E-02 0.  1.
    10030    2    1    2    0    0  0.00000000000E+00  0.00000000000E+00 -0.27817418272E+03  0.14270294834E+04  0.13996543396E+04 0.  0.
        5    1    3    3  502    0 -0.25405708217E+03 -0.32481821233E+02  0.52490769905E+03  0.58408068983E+03  0.46999998093E+01 0. -1.
       -5    1    3    3    0  502  0.25405708217E+03  0.32481821233E+02 -0.80308188177E+03  0.84294879354E+03  0.46999998093E+01 0.  1.
</event>
<event>
 5   0  0.1833681E-04  0.1399031E+04  0.7818609E-02  0.8954520E-01
       -2   -1    0    0    0  501  0.00000000000E+00  0.00000000000E+00  0.26517254958E+03  0.26517254959E+03  0.25500000920E-02 0. -1.
        2   -1    0    0  501    0  0.00000000000E+00  0.00000000000E+00 -0.18452966200E+04  0.18452966200E+04  0.25500000920E-02 0.  1.
    10030    2    1    2    0    0  0.00000000000E+00  0.00000000000E+00 -0.15801240704E+04  0.21104691696E+04  0.13990311068E+04 0.  0.
        4    1    3    3  502    0  0.66155460973E+03 -0.11833957257E+03 -0.49730910013E+03  0.83604827017E+03  0.12699999809E+01 0. -1.
       -4    1    3    3    0  502 -0.66155460973E+03  0.11833957257E+03 -0.10828149703E+04  0.12744208994E+04  0.12699999809E+01 0.  1.
</event>
<event>
 5   0  0.6671375E-05  0.1401350E+04  0.7818609E-02  0.8952842E-01
       -1   -1    0    0    0  501  0.00000000000E+00  0.00000000000E+00  0.11492942897E+04  0.11492942897E+04  0.50400001928E-02 0.  1.
        1   -1    0    0  501    0  0.00000000000E+00  0.00000000000E+00 -0.42717099084E+03  0.42717099087E+03  0.50400001928E-02 0. -1.
    10030    2    1    2    0    0  0.00000000000E+00  0.00000000000E+00  0.72212329888E+03  0.15764652806E+04  0.14013496074E+04 0.  0.
        5    1    3    3  502    0  0.16565856421E+03 -0.65362561151E+03  0.14686374173E+03  0.69011611237E+03  0.46999998093E+01 0. -1.
       -5    1    3    3    0  502 -0.16565856421E+03  0.65362561151E+03  0.57525955715E+03  0.88634916822E+03  0.46999998093E+01 0.  1.
</event>
<event>
 5   0  0.1833681E-04  0.1399640E+04  0.7818609E-02  0.8954079E-01
       -2   -1    0    0    0  501  0.00000000000E+00  0.00000000000E+00  0.73128893635E+03  0.73128893636E+03  0.25500000920E-02 0.  1.
        2   -1    0    0  501    0  0.00000000000E+00  0.00000000000E+00 -0.66970510406E+03  0.66970510407E+03  0.25500000920E-02 0. -1.
    10030    2    1    2    0    0  0.00000000000E+00  0.00000000000E+00  0.61583832288E+02  0.14009940404E+04  0.13996398583E+04 0.  0.
        4    1    3    3  502    0  0.16838499878E+03 -0.60743216367E+03  0.33509094724E+03  0.71387316597E+03  0.12699999809E+01 0.  1.
       -4    1    3    3    0  502 -0.16838499878E+03  0.60743216367E+03 -0.27350711495E+03  0.68712087445E+03  0.12699999809E+01 0. -1.
</event>
<event>
 5   0  0.9260916E-05  0.1401959E+04  0.7818609E-02  0.8952402E-01
       -1   -1    0    0    0  501  0.00000000000E+00  0.00000000000E+00  0.22962373760E+03  0.22962373766E+03  0.50400001928E-02 0.  1.
        1   -1    0    0  501    0  0.00000000000E+00  0.00000000000E+00 -0.21399025262E+04  0.21399025263E+04  0.50400001928E-02 0. -1.
    10030    2    1    2    0    0  0.00000000000E+00  0.00000000000E+00 -0.19102787886E+04  0.23695262639E+04  0.14019592237E+04 0.  0.
        1    1    3    3  502    0  0.58082777320E+03 -0.22113438735E+03 -0.40717741150E+03  0.74300387876E+03  0.50400001928E-02 0.  1.
       -1    1    3    3    0  502 -0.58082777320E+03  0.22113438735E+03 -0.15031013771E+04  0.16265223851E+04  0.50400001928E-02 0. -1.
</event>
<event>
 5   0  0.6671375E-05  0.1397998E+04  0.7818609E-02  0.8955269E-01
        1   -1    0    0  501    0  0.00000000000E+00  0.00000000000E+00  0.27729844561E+03  0.27729844565E+03  0.50400001928E-02 0.  1.
       -1   -1    0    0    0  501  0.00000000000E+00  0.00000000000E+00 -0.17619996166E+04  0.17619996166E+04  0.50400001928E-02 0. -1.
    10030    2    1    2    0    0  0.00000000000E+00  0.00000000000E+00 -0.14847011710E+04  0.20392980623E+04  0.13979982187E+04 0.  0.
        5    1    3    3  502    0 -0.17333409483E+03 -0.44392101159E+03 -0.14882540200E+04  0.15627004482E+04  0.46999998093E+01 0. -1.
       -5    1    3    3    0  502  0.17333409483E+03  0.44392101159E+03  0.35528489706E+01  0.47659761403E+03  0.46999998093E+01 0.  1.
</event>
<event>
 5   0  0.1712327E-04  0.1400499E+04  0.7818609E-02  0.8953457E-01
        2   -1    0    0  501    0  0.00000000000E+00  0.00000000000E+00  0.11118585768E+04  0.11118585768E+04  0.25500000920E-02 0. -1.
       -2   -1    0    0    0  501  0.00000000000E+00  0.00000000000E+00 -0.44101797290E+03  0.44101797291E+03  0.25500000920E-02 0.  1.
    10030    2    1    2    0    0  0.00000000000E+00  0.00000000000E+00  0.67084060385E+03  0.15528765497E+04  0.14004993619E+04 0.  0.
        1    1    3    3  502    0 -0.87144094259E+02  0.17466577660E+03 -0.41024176509E+03  0.45431325375E+03  0.50400001928E-02 0.  1.
       -1    1    3    3    0  502  0.87144094259E+02 -0.17466577660E+03  0.10810823689E+04  0.10985632959E+04  0.50400001928E-02 0. -1.
</event>
<event>
 5   0  0.9900839E-05  0.1391859E+04  0.7818609E-02  0.8959732E-01
        1   -1    0    0  501    0  0.00000000000E+00  0.00000000000E+00  0.14522509617E+04  0.14522509617E+04  0.50400001928E-02 0. -1.
       -1   -1    0    0    0  501  0.00000000000E+00  0.00000000000E+00 -0.33349481902E+03  0.33349481906E+03  0.50400001928E-02 0.  1.
    10030    2    1    2    0    0  0.00000000000E+00  0.00000000000E+00  0.11187561427E+04  0.17857457807E+04  0.13918594350E+04 0.  0.
        3    1    3    3  502    0 -0.18866029908E+03 -0.58859489478E+03  0.14905795870E+03  0.63581046222E+03  0.10100000352E+00 0.  1.
       -3    1    3    3    0  502  0.18866029908E+03  0.58859489478E+03  0.96969818396E+03  0.11499353185E+04  0.10100000352E+00 0. -1.
</event>
<event>
 5   0  0.1794185E-04  0.1397811E+04  0.7818609E-02  0.8955404E-01
       -2   -1    0    0    0  501  0.00000000000E+00  0.00000000000E+00  0.23817740967E+03  0.23817740969E+03  0.25500000920E-02 0. -1.
        2   -1    0    0  501    0  0.00000000000E+00  0.00000000000E+00 -0.20508623738E+04  0.20508623738E+04  0.25500000920E-02 0.  1.
    10030    2    1    2    0    0  0.00000000000E+00  0.00000000000E+00 -0.18126849641E+04  0.22890397834E+04  0.13978112717E+04 0.  0.
        2    1    3    3  502    0 -0.18897701340E+03  0.17740395714E+03 -0.19692429561E+04  0.19862281580E+04  0.25500000920E-02 0.  1.
       -2    1    3    3    0  502  0.18897701340E+03 -0.17740395714E+03  0.15655799203E+03  0.30281162540E+03  0.25500000920E-02 0. -1.
</event>
<event>
 5   0  0.9260916E-05  0.1399546E+04  0.7818609E-02  0.8954147E-01
       -1   -1    0    0    0  501  0.00000000000E+00  0.00000000000E+00  0.46731819143E+03  0.46731819146E+03  0.50400001928E-02 0.  1.
        1   -1    0    0  501    0  0.00000000000E+00  0.00000000000E+00 -0.10478564576E+04  0.10478564577E+04  0.50400001928E-02 0. -1.
    10030    2    1    2    0    0  0.00000000000E+00  0.00000000000E+00 -0.58053826621E+03  0.15151746491E+04  0.13995461903E+04 0.  0.
        1    1    3    3  502    0 -0.88843324701E+02  0.49257710619E+03 -0.81970949458E+03  0.96044208436E+03  0.50400001928E-02 0. -1.
       -1    1    3    3    0  502  0.88843324701E+02 -0.49257710619E+03  0.23917122836E+03  0.55473256475E+03  0.50400001928E-02 0.  1.
</event>
<event>
 5   0  0.9900839E-05  0.1402123E+04  0.7818609E-02  0.8952283E-01
        1   -1    0    0  501    0  0.00000000000E+00  0.00000000000E+00  0.11360053470E+04  0.11360053471E+04  0.50400001928E-02 0.  1.
       -1   -1    0    0    0  501  0.00000000000E+00  0.00000000000E+00 -0.43264537333E+03  0.43264537336E+03  0.50400001928E-02 0. -1.
    10030    2    1    2    0    0  0.00000000000E+00  0.00000000000E+00  0.70335997372E+03  0.15686507204E+04  0.14021233291E+04 0.  0.
        3    1    3    3  502    0 -0.53450194558E+03 -0.11750863588E+03  0.84188276234E+03  0.10041250943E+04  0.10100000352E+00 0.  1.
       -3    1    3    3    0  502  0.53450194558E+03  0.11750863588E+03 -0.13852278862E+03  0.56452562608E+03  0.10100000352E+00 0. -1.
</event>
<event>
 5   0  0.9260916E-05  0.1400051E+04  0.7818609E-02  0.8953781E-01
        1   -1    0    0  501    0  0.00000000000E+00  0.00000000000E+00  0.11805966918E+04  0.11805966918E+04  0.50400001928E-02 0. -1.
       -1   -1    0    0    0  501  0.00000000000E+00  0.00000000000E+00 -0.41507471251E+03  0.41507471254E+03  0.50400001928E-02 0.  1.
    10030    2    1    2    0    0  0.00000000000E+00  0.00000000000E+00  0.76552197924E+03  0.15956714043E+04  0.14000511883E+04 0.  0.
        1    1    3    3  502    0  0.72175773595E+02 -0.28368475752E+03  0.11074938866E+04  0.11455256841E+04  0.50400001928E-02 0. -1.
       -1    1    3    3    0  502 -0.72175773595E+02  0.28368475752E+03 -0.34197190740E+03  0.45014572021E+03  0.50400001928E-02 0.  1.
</event>
<event>
 5   0  0.1780171E-04  0.1402740E+04  0.7818609E-02  0.8951837E-01
       -2   -1    0    0    0  501  0.00000000000E+00  0.00000000000E+00  0.87968381963E+03  0.87968381963E+03  0.25500000920E-02 0.  1.
        2   -1    0    0  501    0  0.00000000000E+00  0.00000000000E+00 -0.55920087241E+03  0.55920087242E+03  0.25500000920E-02 0. -1.
    10030    2    1    2    0    0  0.00000000000E+00  0.00000000000E+00  0.32048294721E+03  0.14388846920E+04  0.14027401176E+04 0.  0.
        5    1    3    3  502    0 -0.49997502829E+02  0.57397774400E+03 -0.24999826941E+03  0.62806960252E+03  0.46999998093E+01 0. -1.
       -5    1    3    3    0  502  0.49997502829E+02 -0.57397774400E+03  0.57048121662E+03  0.81081508953E+03  0.46999998093E+01 0.  1.
</event>
<event>
 5   0  0.1766237E-04  0.1398283E+04  0.7818609E-02  0.8955062E-01
       -2   -1    0    0    0  501  0.00000000000E+00  0.00000000000E+00  0.33528827573E+03  0.33528827574E+03  0.25500000920E-02 0.  1.
        2   -1    0    0  501    0  0.00000000000E+00  0.00000000000E+00 -0.14578463098E+04  0.14578463098E+04  0.25500000920E-02 0. -1.
    10030    2    1    2    0    0  0.00000000000E+00  0.00000000000E+00 -0.11225580341E+04  0.17931345856E+04  0.13982829120E+04 0.  0.
        3    1    3    3  502    0  0.12497553791E+03 -0.68686441977E+03 -0.60921252484E+03  0.92657515985E+03  0.10100000352E+00 0.  1.
       -3    1    3    3    0  502 -0.12497553791E+03  0.68686441977E+03 -0.51334550926E+03  0.86655942572E+03  0.10100000352E+00 0. -1.
</event>
<event>
 5   0  0.1712327E-04  0.1398773E+04  0.7818609E-02  0.8954707E-01
        2   -1    0    0  501    0  0.00000000000E+00  0.00000000000E+00  0.49636683703E+03  0.49636683704E+03  0.25500000920E-02 0. -1.
       -2   -1    0    0    0  501  0.00000000000E+00  0.00000000000E+00 -0.98544301408E+03  0.98544301408E+03  0.25500000920E-02 0.  1.
    10030    2    1    2    0    0  0.00000000000E+00  0.00000000000E+00 -0.48907617705E+03  0.14818098511E+04  0.13987726506E+04 0.  0.
        1    1    3    3  502    0 -0.43711794275E+03 -0.53201639129E+03 -0.37440291468E+03  0.78376723523E+03  0.50400001928E-02 0. -1.
       -1    1    3    3    0  502  0.43711794275E+03  0.53201639129E+03 -0.11467326237E+03  0.69804261589E+03  0.50400001928E-02 0.  1.
</event>
<event>
 5   0  0.9978422E-05  0.1388774E+04  0.7818609E-02  0.8961985E-01
        1   -1    0    0  501    0  0.00000000000E+00  0.00000000000E+00  0.12540247859E+04  0.12540247859E+04  0.50400001928E-02 0.  1.
       -1   -1    0    0    0  501  0.00000000000E+00  0.00000000000E+00 -0.38450084543E+03  0.38450084546E+03  0.50400001928E-02 0. -1.
    10030    2    1    2    0    0  0.00000000000E+00  0.00000000000E+00  0.86952394050E+03  0.16385256314E+04  0.13887744099E+04 0.  0.
        2    1    3    3  502    0  0.52600828849E+03  0.35889154607E+03  0.10803964650E+03  0.64587957594E+03  0.25500000920E-02 0. -1.
       -2    1    3    3    0  502 -0.52600828849E+03 -0.35889154607E+03  0.76148429400E+03  0.99264605546E+03  0.25500000920E-02 0.  1.
</event>
<event>
 5   0  0.9260916E-05  0.1366389E+04  0.7818609E-02  0.8978514E-01
       -1   -1    0    0    0  501  0.00000000000E+00  0.00000000000E+00  0.60981667887E+03  0.60981667889E+03  0.50400001928E-02 0. -1.
        1   -1    0    0  501    0  0.00000000000E+00  0.00000000000E+00 -0.76540206743E+03  0.76540206745E+03  0.50400001928E-02 0.  1.
    10030    2    1    2    0    0  0.00000000000E+00  0.00000000000E+00 -0.15558538856E+03  0.13752187463E+04  0.13663893249E+04 0.  0.
        1    1    3    3  502    0  0.58599462119E+03 -0.13273725020E+03  0.24949482765E+03  0.65058169564E+03  0.50400001928E-02 0. -1.
       -1    1    3    3    0  502 -0.58599462119E+03  0.13273725020E+03 -0.40508021621E+03  0.72463705070E+03  0.50400001928E-02 0.  1.
</event>
<event>
 5   0  0.1780171E-04  0.1401414E+04  0.7818609E-02  0.8952796E-01
        2   -1    0    0  501    0  0.00000000000E+00  0.00000000000E+00  0.12660803886E+04  0.12660803886E+04  0.25500000920E-02 0. -1.
       -2   -1    0    0    0  501  0.00000000000E+00  0.00000000000E+00 -0.38780351944E+03  0.38780351944E+03  0.25500000920E-02 0.  1.
    10030    2    1    2    0    0  0.00000000000E+00  0.00000000000E+00  0.87827686917E+03  0.16538839080E+04  0.14014141866E+04 0.  0.
        5    1    3    3  502    0 -0.41628393154E+03  0.11219331848E+03  0.10909942808E+04  0.11731028357E+04  0.46999998093E+01 0. -1.
       -5    1    3    3    0  502  0.41628393154E+03 -0.11219331848E+03 -0.21271741160E+03  0.48078107239E+03  0.46999998093E+01 0.  1.
</event>
<event>
 5   0  0.9900839E-05  0.1393818E+04  0.7818609E-02  0.8958306E-01
       -1   -1    0    0    0  501  0.00000000000E+00  0.00000000000E+00  0.33702002407E+03  0.33702002410E+03  0.50400001928E-02 0. -1.
        1   -1    0    0  501    0  0.00000000000E+00  0.00000000000E+00 -0.14411073288E+04  0.14411073288E+04  0.50400001928E-02 0.  1.
    10030    2    1    2    0    0  0.00000000000E+00  0.00000000000E+00 -0.11040873048E+04  0.17781273530E+04  0.13938178169E+04 0.  0.
        3    1    3    3  502    0  0.33943876370E+03  0.55548549438E+03 -0.86943815196E+03  0.10861424948E+04  0.10100000352E+00 0.  1.
       -3    1    3    3    0  502 -0.33943876370E+03 -0.55548549438E+03 -0.23464915282E+03  0.69198485813E+03  0.10100000352E+00 0. -1.
</event>
<event>
 5   0  0.9828111E-05  0.1400561E+04  0.7818609E-02  0.8953413E-01
        1   -1    0    0  501    0  0.00000000000E+00  0.00000000000E+00  0.74412287107E+03  0.74412287109E+03  0.50400001928E-02 0. -1.
       -1   -1    0    0    0  501  0.00000000000E+00  0.00000000000E+00 -0.65902094456E+03  0.65902094458E+03  0.50400001928E-02 0.  1.
    10030    2    1    2    0    0  0.00000000000E+00  0.00000000000E+00  0.85101926510E+02  0.14031438157E+04  0.14005606840E+04 0.  0.
        4    1    3    3  502    0  0.45319115930E+03 -0.53354406573E+03  0.61009046376E+02  0.70269140708E+03  0.12699999809E+01 0.  1.
       -4    1    3    3    0  502 -0.45319115930E+03  0.53354406573E+03  0.24092880134E+02  0.70045240860E+03  0.12699999809E+01 0. -1.
</event>
<event>
 5   0  0.1780171E-04  0.1401810E+04  0.7818609E-02  0.8952510E-01
       -2   -1    0    0    0  501  0.00000000000E+00  0.00000000000E+00  0.91293330347E+03  0.91293330347E+03  0.25500000920E-02 0. -1.
        2   -1    0    0  501    0  0.00000000000E+00  0.00000000000E+00 -0.53812002618E+03  0.53812002618E+03  0.25500000920E-02 0.  1.
    10030    2    1    2    0    0  0.00000000000E+00  0.00000000000E+00  0.37481327729E+03  0.14510533297E+04  0.14018098204E+04 0.  0.
        5    1    3    3  502    0  0.20701921424E+03  0.12208839873E+03  0.86892937144E+03  0.90156689974E+03  0.46999998093E+01 0. -1.
       -5    1    3    3    0  502 -0.20701921424E+03 -0.12208839873E+03 -0.49411609414E+03  0.54948642991E+03  0.46999998093E+01 0.  1.
</event>
<event>
 5   0  0.6671375E-05  0.1399417E+04  0.7818609E-02  0.8954241E-01
        1   -1    0    0  501    0  0.00000000000E+00  0.00000000000E+00  0.77627809188E+03  0.77627809190E+03  0.50400001928E-02 0.  1.
       -1   -1    0    0    0  501  0.00000000000E+00  0.00000000000E+00 -0.63069137781E+03  0.63069137783E+03  0.50400001928E-02 0. -1.
    10030    2    1    2    0    0  0.00000000000E+00  0.00000000000E+00  0.14558671407E+03  0.14069694697E+04  0.13994168776E+04 0.  0.
        5    1    3    3  502    0 -0.78435849741E+02 -0.66495963723E+03  0.27698130510E+03  0.72461316234E+03  0.46999998093E+01 0.  1.
       -5    1    3    3    0  502  0.78435849741E+02  0.66495963723E+03 -0.13139459103E+03  0.68235630738E+03  0.46999998093E+01 0. -1.
</event>
<event>
 5   0  0.1780171E-04  0.1399841E+04  0.7818609E-02  0.8953934E-01
        2   -1    0    0  501    0  0.00000000000E+00  0.00000000000E+00  0.73902544817E+03  0.73902544818E+03  0.25500000920E-02 0. -1.
       -2   -1    0    0    0  501  0.00000000000E+00  0.00000000000E+00 -0.66288460884E+03  0.66288460885E+03  0.25500000920E-02 0.  1.
    10030    2    1    2    0    0  0.00000000000E+00  0.00000000000E+00  0.76140839332E+02  0.14019100570E+04  0.13998408412E+04 0.  0.
        5    1    3    3  502    0 -0.67700465420E+03  0.15531774713E+03  0.12426506263E+03  0.70563645042E+03  0.46999998093E+01 0. -1.
       -5    1    3    3    0  502  0.67700465420E+03 -0.15531774713E+03 -0.48124223296E+02  0.69627360660E+03  0.46999998093E+01 0.  1.
</event>
<event>
 5   0  0.1833681E-04  0.1442292E+04  0.7818609E-02  0.8923762E-01
        2   -1    0    0  501    0  0.00000000000E+00  0.00000000000E+00  0.41724428711E+03  0.41724428711E+03  0.25500000920E-02 0.  1.
       -2   -1    0    0    0  501  0.00000000000E+00  0.00000000000E+00 -0.12463961644E+04  0.12463961644E+04  0.25500000920E-02 0. -1.
    10030    2    1    2    0    0  0.00000000000E+00  0.00000000000E+00 -0.82915187732E+03  0.16636404515E+04  0.14422921744E+04 0.  0.
        4    1    3    3  502    0 -0.35523532952E+03  0.62273566378E+03 -0.50435576090E+03  0.87656613712E+03  0.12699999809E+01 0. -1.
       -4    1    3    3    0  502  0.35523532952E+03 -0.62273566378E+03 -0.32479611642E+03  0.78707431442E+03  0.12699999809E+01 0.  1.
</event>
<event>
 5   0  0.1712327E-04  0.1399545E+04  0.7818609E-02  0.8954148E-01
        2   -1    0    0  501    0  0.00000000000E+00  0.00000000000E+00  0.61562992995E+03  0.61562992996E+03  0.25500000920E-02 0.  1.
       -2   -1    0    0    0  501  0.00000000000E+00  0.00000000000E+00 -0.79541565749E+03  0.79541565749E+03  0.25500000920E-02 0. -1.
    10030    2    1    2    0    0  0.00000000000E+00  0.00000000000E+00 -0.17978572754E+03  0.14110455874E+04  0.13995451911E+04 0.  0.
        1    1    3    3  502    0 -0.47747810997E+03  0.44461513522E+03 -0.34498123262E+03  0.73802439990E+03  0.50400001928E-02 0. -1.
       -1    1    3    3    0  502  0.47747810997E+03 -0.44461513522E+03  0.16519550508E+03  0.67302118755E+03  0.50400001928E-02 0.  1.
</event>
<event>
 5   0  0.1712327E-04  0.1400917E+04  0.7818609E-02  0.8953155E-01
       -2   -1    0    0    0  501  0.00000000000E+00  0.00000000000E+00  0.30474547331E+03  0.30474547332E+03  0.25500000920E-02 0. -1.
        2   -1    0    0  501    0  0.00000000000E+00  0.00000000000E+00 -0.16100069508E+04  0.16100069508E+04  0.25500000920E-02 0.  1.
    10030    2    1    2    0    0  0.00000000000E+00  0.00000000000E+00 -0.13052614775E+04  0.19147524242E+04  0.14009173142E+04 0.  0.
        1    1    3    3  502    0  0.30433138305E+03  0.32381892812E+03 -0.13926737414E+04  0.14618537679E+04  0.50400001928E-02 0.  1.
       -1    1    3    3    0  502 -0.30433138305E+03 -0.32381892812E+03  0.87412263829E+02  0.45289865623E+03  0.50400001928E-02 0. -1.
</event>
<event>
 5   0  0.6671375E-05  0.1400096E+04  0.7818609E-02  0.8953749E-01
       -3   -1    0    0    0  501  0.00000000000E+00  0.00000000000E+00  0.82386310353E+03  0.82386310972E+03  0.10100000352E+00 0.  1.
        3   -1    0    0  501    0  0.00000000000E+00  0.00000000000E+00 -0.59484043116E+03  0.59484043974E+03  0.10100000352E+00 0. -1.
    10030    2    1    2    0    0  0.00000000000E+00  0.00000000000E+00  0.22902267237E+03  0.14187035495E+04  0.14000958456E+04 0.  0.
        5    1    3    3  502    0 -0.67010025648E+03  0.12835702599E+03 -0.44207335431E+02  0.68372966760E+03  0.46999998093E+01 0. -1.
       -5    1    3    3    0  502  0.67010025648E+03 -0.12835702599E+03  0.27323000780E+03  0.73497388186E+03  0.46999998093E+01 0.  1.
</event>
<event>
 5   0  0.9978422E-05  0.1402877E+04  0.7818609E-02  0.8951739E-01
        1   -1    0    0  501    0  0.00000000000E+00  0.00000000000E+00  0.67477597688E+03  0.67477597689E+03  0.50400001928E-02 0.  1.
       -1   -1    0    0    0  501  0.00000000000E+00  0.00000000000E+00 -0.72915464618E+03  0.72915464620E+03  0.50400001928E-02 0. -1.
    10030    2    1    2    0    0  0.00000000000E+00  0.00000000000E+00 -0.54378669307E+02  0.14039306231E+04  0.14028770990E+04 0.  0.
        2    1    3    3  502    0 -0.39863493088E+03  0.44408076679E+03  0.34173164909E+03  0.68767583609E+03  0.25500000920E-02 0.  1.
       -2    1    3    3    0  502  0.39863493088E+03 -0.44408076679E+03 -0.39611031840E+03  0.71625478700E+03  0.25500000920E-02 0. -1.
</event>
<event>
 5   0  0.1712327E-04  0.1403930E+04  0.7818609E-02  0.8950979E-01
       -2   -1    0    0    0  501  0.00000000000E+00  0.00000000000E+00  0.28433912914E+03  0.28433912915E+03  0.25500000920E-02 0. -1.
        2   -1    0    0  501    0  0.00000000000E+00  0.00000000000E+00 -0.17329830946E+04  0.17329830946E+04  0.25500000920E-02 0.  1.
    10030    2    1    2    0    0  0.00000000000E+00  0.00000000000E+00 -0.14486439655E+04  0.20173222237E+04  0.14039300608E+04 0.  0.
        1    1    3    3  502    0  0.22356376103E+03  0.19021366188E+03 -0.16405629394E+04  0.16666159578E+04  0.50400001928E-02 0.  1.
       -1    1    3    3    0  502 -0.22356376103E+03 -0.19021366188E+03  0.19191897397E+03  0.35070626599E+03  0.50400001928E-02 0. -1.
</event>
<event>
 5   0  0.6671375E-05  0.1402036E+04  0.7818609E-02  0.8952346E-01
        1   -1    0    0  501    0  0.00000000000E+00  0.00000000000E+00  0.57166661573E+03  0.57166661575E+03  0.50400001928E-02 0. -1.
       -1   -1    0    0    0  501  0.00000000000E+00  0.00000000000E+00 -0.85963777395E+03  0.85963777397E+03  0.50400001928E-02 0.  1.
    10030    2    1    2    0    0  0.00000000000E+00  0.00000000000E+00 -0.28797115822E+03  0.14313043897E+04  0.14020359725E+04 0.  0.
        5    1    3    3  502    0 -0.18504981368E+03  0.61836557152E+03 -0.42316233965E+03  0.77182113814E+03  0.46999998093E+01 0.  1.
       -5    1    3    3    0  502  0.18504981368E+03 -0.61836557152E+03  0.13519118143E+03  0.65948325158E+03  0.46999998093E+01 0. -1.
</event>
<event>
 5   0  0.9900839E-05  0.1402821E+04  0.7818609E-02  0.8951779E-01
        1   -1    0    0  501    0  0.00000000000E+00  0.00000000000E+00  0.79094909388E+03  0.79094909390E+03  0.50400001928E-02 0. -1.
       -1   -1    0    0    0  501  0.00000000000E+00  0.00000000000E+00 -0.62200803435E+03  0.62200803437E+03  0.50400001928E-02 0.  1.
    10030    2    1    2    0    0  0.00000000000E+00  0.00000000000E+00  0.16894105953E+03  0.14129571283E+04  0.14028210024E+04 0.  0.
        3    1    3    3  502    0 -0.21831869120E+03  0.38036279156E+03  0.63581752050E+03  0.77240069505E+03  0.10100000352E+00 0. -1.
       -3    1    3    3    0  502  0.21831869120E+03 -0.38036279156E+03 -0.46687646097E+03  0.64055643322E+03  0.10100000352E+00 0.  1.
</event>
<event>
 5   0  0.1833681E-04  0.1422616E+04  0.7818609E-02  0.8937609E-01
        2   -1    0    0  501    0  0.00000000000E+00  0.00000000000E+00  0.94769539862E+03  0.94769539862E+03  0.25500000920E-02 0.  1.
       -2   -1    0    0    0  501  0.00000000000E+00  0.00000000000E+00 -0.53388357181E+03  0.53388357182E+03  0.25500000920E-02 0. -1.
    10030    2    1    2    0    0  0.00000000000E+00  0.00000000000E+00  0.41381182680E+03  0.14815789704E+04  0.14226159066E+04 0.  0.
        4    1    3    3  502    0 -0.14220945938E+03 -0.26566713703E+03  0.87793631079E+03  0.92821136426E+03  0.12699999809E+01 0.  1.
       -4    1    3    3    0  502  0.14220945938E+03  0.26566713703E+03 -0.46412448399E+03  0.55336760618E+03  0.12699999809E+01 0. -1.
</event>
<event>
 5   0  0.9828111E-05  0.1400241E+04  0.7818609E-02  0.8953644E-01
       -1   -1    0    0    0  501  0.00000000000E+00  0.00000000000E+00  0.65848844240E+03  0.65848844242E+03  0.50400001928E-02 0. -1.
        1   -1    0    0  501    0  0.00000000000E+00  0.00000000000E+00 -0.74438416303E+03  0.74438416305E+03  0.50400001928E-02 0.  1.
    10030    2    1    2    0    0  0.00000000000E+00  0.00000000000E+00 -0.85895720630E+02  0.14028726055E+04  0.14002405052E+04 0.  0.
        4    1    3    3  502    0  0.12750671160E+03 -0.51380922305E+03 -0.50196721674E+03  0.72954134823E+03  0.12699999809E+01 0.  1.
       -4    1    3    3    0  502 -0.12750671160E+03  0.51380922305E+03  0.41607149611E+03  0.67333125724E+03  0.12699999809E+01 0. -1.
</event>
<event>
 5   0  0.1766237E-04  0.1401861E+04  0.7818609E-02  0.8952473E-01
        2   -1    0    0  501    0  0.00000000000E+00  0.00000000000E+00  0.10073392415E+04  0.10073392415E+04  0.25500000920E-02 0.  1.
       -2   -1    0    0    0  501  0.00000000000E+00  0.00000000000E+00 -0.48772403291E+03  0.48772403292E+03  0.25500000920E-02 0. -1.
    10030    2    1    2    0    0  0.00000000000E+00  0.00000000000E+00  0.51961520863E+03  0.14950632745E+04  0.14018609880E+04 0.  0.
        3    1    3    3  502    0  0.34665981070E+02 -0.41377355439E+03  0.86205827909E+03  0.95684626315E+03  0.10100000352E+00 0.  1.
       -3    1    3    3    0  502 -0.34665981070E+02  0.41377355439E+03 -0.34244307046E+03  0.53821701131E+03  0.10100000352E+00 0. -1.
</event>
<event>
 5   0  0.1766237E-04  0.1401414E+04  0.7818609E-02  0.8952796E-01
        2   -1    0    0  501    0  0.00000000000E+00  0.00000000000E+00  0.32141632743E+03  0.32141632744E+03  0.25500000920E-02 0. -1.
       -2   -1    0    0    0  501  0.00000000000E+00  0.00000000000E+00 -0.15275831454E+04  0.15275831454E+04  0.25500000920E-02 0.  1.
    10030    2    1    2    0    0  0.00000000000E+00  0.00000000000E+00 -0.12061668180E+04  0.18489994729E+04  0.14014138068E+04 0.  0.
        3    1    3    3  502    0 -0.38913601654E+02  0.67728586084E+03 -0.83448257322E+03  0.10754494785E+04  0.10100000352E+00 0.  1.
       -3    1    3    3    0  502  0.38913601654E+02 -0.67728586084E+03 -0.37168424478E+03  0.77354999432E+03  0.10100000352E+00 0. -1.
</event>
<event>
 5   0  0.1766237E-04  0.1402385E+04  0.7818609E-02  0.8952094E-01
       -2   -1    0    0    0  501  0.00000000000E+00  0.00000000000E+00  0.45180913907E+03  0.45180913908E+03  0.25500000920E-02 0. -1.
        2   -1    0    0  501    0  0.00000000000E+00  0.00000000000E+00 -0.10882264672E+04  0.10882264672E+04  0.25500000920E-02 0.  1.
    10030    2    1    2    0    0  0.00000000000E+00  0.00000000000E+00 -0.63641732808E+03  0.15400356062E+04  0.14023846309E+04 0.  0.
        3    1    3    3  502    0  0.60803097091E+03  0.15373083457E+03 -0.66257405232E+03  0.91232626625E+03  0.10100000352E+00 0.  1.
       -3    1    3    3    0  502 -0.60803097091E+03 -0.15373083457E+03  0.26156724232E+02  0.62770933999E+03  0.10100000352E+00 0. -1.
</event>
<event>
 5   0  0.9978422E-05  0.1404702E+04  0.7818609E-02  0.8950422E-01
       -1   -1    0    0    0  501  0.00000000000E+00  0.00000000000E+00  0.57039404542E+03  0.57039404544E+03  0.50400001928E-02 0.  1.
        1   -1    0    0  501    0  0.00000000000E+00  0.00000000000E+00 -0.86483526170E+03  0.86483526172E+03  0.50400001928E-02 0. -1.
    10030    2    1    2    0    0  0.00000000000E+00  0.00000000000E+00 -0.29444121629E+03  0.14352293072E+04  0.14047019379E+04 0.  0.
        2    1    3    3  502    0  0.56781615357E+03 -0.90081801048E+02 -0.55943224683E+03  0.80218099824E+03  0.25500000920E-02 0. -1.
       -2    1    3    3    0  502 -0.56781615357E+03  0.90081801048E+02  0.26499103055E+03  0.63304830891E+03  0.25500000920E-02 0.  1.
</event>
<event>
 5   0  0.1780171E-04  0.1401385E+04  0.7818609E-02  0.8952817E-01
       -2   -1    0    0    0  501  0.00000000000E+00  0.00000000000E+00  0.22925914418E+03  0.22925914419E+03  0.25500000920E-02 0.  1.
        2   -1    0    0  501    0  0.00000000000E+00  0.00000000000E+00 -0.21415495598E+04  0.21415495598E+04  0.25500000920E-02 0. -1.
    10030    2    1    2    0    0  0.00000000000E+00  0.00000000000E+00 -0.19122904157E+04  0.23708087040E+04  0.14013847713E+04 0.  0.
        5    1    3    3  502    0  0.24877701388E+03 -0.22331034947E+03  0.85614796705E+02  0.34512243947E+03  0.46999998093E+01 0.  1.
       -5    1    3    3    0  502 -0.24877701388E+03  0.22331034947E+03 -0.19979052124E+04  0.20256862646E+04  0.46999998093E+01 0. -1.
</event>
<event>
 5   0  0.1780171E-04  0.1401228E+04  0.7818609E-02  0.8952930E-01
        2   -1    0    0  501    0  0.00000000000E+00  0.00000000000E+00  0.13834371824E+04  0.13834371824E+04  0.25500000920E-02 0. -1.
       -2   -1    0    0    0  501  0.00000000000E+00  0.00000000000E+00 -0.35481177464E+03  0.35481177465E+03  0.25500000920E-02 0.  1.
    10030    2    1    2    0    0  0.00000000000E+00  0.00000000000E+00  0.10286254078E+04  0.17382489570E+04  0.14012277499E+04 0.  0.
        5    1    3    3  502    0  0.35908927213E+03 -0.24962271573E+03  0.11932981385E+04  0.12709205887E+04  0.46999998093E+01 0. -1.
       -5    1    3    3    0  502 -0.35908927213E+03  0.24962271573E+03 -0.16467273074E+03  0.46732836830E+03  0.46999998093E+01 0.  1.
</event>
<event>
 5   0  0.1833681E-04  0.1386737E+04  0.7818609E-02  0.8963475E-01
        2   -1    0    0  501    0  0.00000000000E+00  0.00000000000E+00  0.63061028570E+03  0.63061028571E+03  0.25500000920E-02 0.  1.
       -2   -1    0    0    0  501  0.00000000000E+00  0.00000000000E+00 -0.76237221668E+03  0.76237221669E+03  0.25500000920E-02 0. -1.
    10030    2    1    2    0    0  0.00000000000E+00  0.00000000000E+00 -0.13176193098E+03  0.13929825024E+04  0.13867368336E+04 0.  0.
        4    1    3    3  502    0  0.67259472538E+03 -0.16623763067E+03 -0.38564111036E+02  0.69390735550E+03  0.12699999809E+01 0. -1.
       -4    1    3    3    0  502 -0.67259472538E+03  0.16623763067E+03 -0.93197819944E+02  0.69907514689E+03  0.12699999809E+01 0.  1.
</event>
<event>
 5   0  0.1833681E-04  0.1404288E+04  0.7818609E-02  0.8950720E-01
       -2   -1    0    0    0  501  0.00000000000E+00  0.00000000000E+00  0.41335592318E+03  0.41335592319E+03  0.25500000920E-02 0. -1.
        2   -1    0    0  501    0  0.00000000000E+00  0.00000000000E+00 -0.11926925584E+04  0.11926925584E+04  0.25500000920E-02 0.  1.
    10030    2    1    2    0    0  0.00000000000E+00  0.00000000000E+00 -0.77933663519E+03  0.16060484816E+04  0.14042884797E+04 0.  0.
        4    1    3    3  502    0  0.30675353691E+02  0.53640403245E+03 -0.90664783280E+03  0.10538890686E+04  0.12699999809E+01 0.  1.
       -4    1    3    3    0  502 -0.30675353691E+02 -0.53640403245E+03  0.12731119761E+03  0.55215941293E+03  0.12699999809E+01 0. -1.
</event>
<event>
 5   0  0.9978422E-05  0.1405614E+04  0.7818609E-02  0.8949765E-01
       -1   -1    0    0    0  501  0.00000000000E+00  0.00000000000E+00  0.20497105245E+03  0.20497105251E+03  0.50400001928E-02 0. -1.
        1   -1    0    0  501    0  0.00000000000E+00  0.00000000000E+00 -0.24097938459E+04  0.24097938459E+04  0.50400001928E-02 0.  1.
    10030    2    1    2    0    0  0.00000000000E+00  0.00000000000E+00 -0.22048227935E+04  0.26147648985E+04  0.14056144292E+04 0.  0.
        2    1    3    3  502    0 -0.42180805103E+03  0.19999912756E+03 -0.12509811073E+03  0.48329206517E+03  0.25500000920E-02 0. -1.
       -2    1    3    3    0  502  0.42180805103E+03 -0.19999912756E+03 -0.20797246828E+04  0.21314728333E+04  0.25500000920E-02 0.  1.
</event>
<event>
 5   0  0.1766237E-04  0.1405662E+04  0.7818609E-02  0.8949730E-01
       -2   -1    0    0    0  501  0.00000000000E+00  0.00000000000E+00  0.63598443205E+03  0.63598443205E+03  0.25500000920E-02 0.  1.
        2   -1    0    0  501    0  0.00000000000E+00  0.00000000000E+00 -0.77670380203E+03  0.77670380204E+03  0.25500000920E-02 0. -1.
    10030    2    1    2    0    0  0.00000000000E+00  0.00000000000E+00 -0.14071936999E+03  0.14126882341E+04  0.14056621591E+04 0.  0.
        3    1    3    3  502    0 -0.61861822694E+03  0.54431917006E+02 -0.40112506306E+03  0.73929200639E+03  0.10100000352E+00 0. -1.
       -3    1    3    3    0  502  0.61861822694E+03 -0.54431917006E+02  0.26040569308E+03  0.67339622770E+03  0.10100000352E+00 0.  1.
</event>
<event>
 5   0  0.9828111E-05  0.1398690E+04  0.7818609E-02  0.8954768E-01
       -1   -1    0    0    0  501  0.00000000000E+00  0.00000000000E+00  0.23090496517E+03  0.23090496522E+03  0.50400001928E-02 0.  1.
        1   -1    0    0  501    0  0.00000000000E+00  0.00000000000E+00 -0.21181143190E+04  0.21181143190E+04  0.50400001928E-02 0. -1.
    10030    2    1    2    0    0  0.00000000000E+00  0.00000000000E+00 -0.18872093538E+04  0.23490192842E+04  0.13986895483E+04 0.  0.
        4    1    3    3  502    0 -0.56001510678E+03 -0.34356188133E+03 -0.13460750883E+04  0.14978556147E+04  0.12699999809E+01 0. -1.
       -4    1    3    3    0  502  0.56001510678E+03  0.34356188133E+03 -0.54113426547E+03  0.85116366951E+03  0.12699999809E+01 0.  1.
</event>
<event>
 5   0  0.1712327E-04  0.1400506E+04  0.7818609E-02  0.8953452E-01
       -2   -1    0    0    0  501  0.00000000000E+00  0.00000000000E+00  0.39493861996E+03  0.39493861997E+03  0.25500000920E-02 0.  1.
        2   -1    0    0  501    0  0.00000000000E+00  0.00000000000E+00 -0.12415958566E+04  0.12415958566E+04  0.25500000920E-02 0. -1.
    10030    2    1    2    0    0  0.00000000000E+00  0.00000000000E+00 -0.84665723667E+03  0.16365344766E+04  0.14005058432E+04 0.  0.
        1    1    3    3  502    0  0.79853091075E+02  0.50222837142E+03  0.13920018572E+03  0.52724429342E+03  0.50400001928E-02 0.  1.
       -1    1    3    3    0  502 -0.79853091075E+02 -0.50222837142E+03 -0.98585742239E+03  0.11092901832E+04  0.50400001928E-02 0. -1.
</event>
<event>
 5   0  0.1794185E-04  0.1396542E+04  0.7818609E-02  0.8956326E-01
        2   -1    0    0  501    0  0.00000000000E+00  0.00000000000E+00  0.74863927382E+03  0.74863927383E+03  0.25500000920E-02 0.  1.
       -2   -1    0    0    0  501  0.00000000000E+00  0.00000000000E+00 -0.65129128796E+03  0.65129128796E+03  0.25500000920E-02 0. -1.
    10030    2    1    2    0    0  0.00000000000E+00  0.00000000000E+00  0.97347985866E+02  0.13999305618E+04  0.13965417815E+04 0.  0.
        2    1    3    3  502    0  0.34617521503E+02 -0.40749374983E+03 -0.51867880876E+03  0.66051285802E+03  0.25500000920E-02 0. -1.
       -2    1    3    3    0  502 -0.34617521503E+02  0.40749374983E+03  0.61602679462E+03  0.73941770377E+03  0.25500000920E-02 0.  1.
</event>
<event>
 5   0  0.9828111E-05  0.1399832E+04  0.7818609E-02  0.8953940E-01
        1   -1    0    0  501    0  0.00000000000E+00  0.00000000000E+00  0.10050038084E+04  0.10050038085E+04  0.50400001928E-02 0.  1.
       -1   -1    0    0    0  501  0.00000000000E+00  0.00000000000E+00 -0.48744360452E+03  0.48744360455E+03  0.50400001928E-02 0. -1.
    10030    2    1    2    0    0  0.00000000000E+00  0.00000000000E+00  0.51756020393E+03  0.14924474130E+04  0.13998323885E+04 0.  0.
        4    1    3    3  502    0  0.66910444914E+02 -0.63882224573E+03 -0.37663027379E+02  0.64342131284E+03  0.12699999809E+01 0. -1.
       -4    1    3    3    0  502 -0.66910444914E+02  0.63882224573E+03  0.55522323131E+03  0.84902610017E+03  0.12699999809E+01 0.  1.
</event>
<event>
 5   0  0.9978422E-05  0.1402052E+04  0.7818609E-02  0.8952334E-01
        1   -1    0    0  501    0  0.00000000000E+00  0.00000000000E+00  0.11915172620E+04  0.11915172620E+04  0.50400001928E-02 0.  1.
       -1   -1    0    0    0  501  0.00000000000E+00  0.00000000000E+00 -0.41244698465E+03  0.41244698468E+03  0.50400001928E-02 0. -1.
    10030    2    1    2    0    0  0.00000000000E+00  0.00000000000E+00  0.77907027733E+03  0.16039642467E+04  0.14020523555E+04 0.  0.
        2    1    3    3  502    0 -0.41018560328E+03 -0.55396647952E+03  0.53562239242E+03  0.87293896513E+03  0.25500000920E-02 0. -1.
       -2    1    3    3    0  502  0.41018560328E+03  0.55396647952E+03  0.24344788491E+03  0.73102528153E+03  0.25500000920E-02 0.  1.
</event>
<event>
 5   0  0.1833681E-04  0.1399300E+04  0.7818609E-02  0.8954325E-01
       -2   -1    0    0    0  501  0.00000000000E+00  0.00000000000E+00  0.32020768031E+03  0.32020768032E+03  0.25500000920E-02 0.  1.
        2   -1    0    0  501    0  0.00000000000E+00  0.00000000000E+00 -0.15287271621E+04  0.15287271621E+04  0.25500000920E-02 0. -1.
    10030    2    1    2    0    0  0.00000000000E+00  0.00000000000E+00 -0.12085194818E+04  0.18489348425E+04  0.13993000799E+04 0.  0.
        4    1    3    3  502    0  0.72931978415E+02  0.55291131007E+03 -0.11624776850E+04  0.12893354766E+04  0.12699999809E+01 0. -1.
       -4    1    3    3    0  502 -0.72931978415E+02 -0.55291131007E+03 -0.46041796831E+02  0.55959936582E+03  0.12699999809E+01 0.  1.
</event>
<event>
 5   0  0.1833681E-04  0.1400402E+04  0.7818609E-02  0.8953528E-01
        2   -1    0    0  501    0  0.00000000000E+00  0.00000000000E+00  0.11469598228E+04  0.11469598228E+04  0.25500000920E-02 0.  1.
       -2   -1    0    0    0  501  0.00000000000E+00  0.00000000000E+00 -0.42746176437E+03  0.42746176438E+03  0.25500000920E-02 0. -1.
    10030    2    1    2    0    0  0.00000000000E+00  0.00000000000E+00  0.71949805846E+03  0.15744215872E+04  0.14004020416E+04 0.  0.
        4    1    3    3  502    0  0.29419592390E+03  0.61793137539E+03  0.52608475213E+03  0.86322488707E+03  0.12699999809E+01 0. -1.
       -4    1    3    3    0  502 -0.29419592390E+03 -0.61793137539E+03  0.19341330632E+03  0.71119670014E+03  0.12699999809E+01 0.  1.
</event>
<event>
 5   0  0.9828111E-05  0.1388082E+04  0.7818609E-02  0.8962491E-01
        1   -1    0    0  501    0  0.00000000000E+00  0.00000000000E+00  0.57058464686E+03  0.57058464689E+03  0.50400001928E-02 0.  1.
       -1   -1    0    0    0  501  0.00000000000E+00  0.00000000000E+00 -0.84420901146E+03  0.84420901148E+03  0.50400001928E-02 0. -1.
    10030    2    1    2    0    0  0.00000000000E+00  0.00000000000E+00 -0.27362436460E+03  0.14147936584E+04  0.13880816989E+04 0.  0.
        4    1    3    3  502    0 -0.39816241871E+03 -0.45471893111E+03  0.21091052749E+03  0.64014645316E+03  0.12699999809E+01 0. -1.
       -4    1    3    3    0  502  0.39816241871E+03  0.45471893111E+03 -0.48453489209E+03  0.77464720521E+03  0.12699999809E+01 0.  1.
</event>
<event>
 5   0  0.9978422E-05  0.1421370E+04  0.7818609E-02  0.8938493E-01
        1   -1    0    0  501    0  0.00000000000E+00  0.00000000000E+00  0.10266290107E+04  0.10266290107E+04  0.50400001928E-02 0. -1.
       -1   -1    0    0    0  501  0.00000000000E+00  0.00000000000E+00 -0.49197255205E+03  0.49197255208E+03  0.50400001928E-02 0.  1.
    10030    2    1    2    0    0  0.00000000000E+00  0.00000000000E+00  0.53465645864E+03  0.15186015628E+04  0.14213701762E+04 0.  0.
        2    1    3    3  502    0  0.11216519547E+03 -0.27345754231E+03 -0.42319097627E+03  0.51618859046E+03  0.25500000920E-02 0.  1.
       -2    1    3    3    0  502 -0.11216519547E+03  0.27345754231E+03  0.95784743490E+03  0.10024129723E+04  0.25500000920E-02 0. -1.
</event>
<event>
 5   0  0.1780171E-04  0.1389139E+04  0.7818609E-02  0.8961718E-01
        2   -1    0    0  501    0  0.00000000000E+00  0.00000000000E+00  0.70693780630E+03  0.70693780630E+03  0.25500000920E-02 0. -1.
       -2   -1    0    0    0  501  0.00000000000E+00  0.00000000000E+00 -0.68241714822E+03  0.68241714823E+03  0.25500000920E-02 0.  1.
    10030    2    1    2    0    0  0.00000000000E+00  0.00000000000E+00  0.24520658078E+02  0.13893549545E+04  0.13891385557E+04 0.  0.
        5    1    3    3  502    0 -0.17263078586E+02  0.49621698831E+02  0.70493161731E+03  0.70690239917E+03  0.46999998093E+01 0. -1.
       -5    1    3    3    0  502  0.17263078586E+02 -0.49621698831E+02 -0.68041095923E+03  0.68245255536E+03  0.46999998093E+01 0.  1.
</event>
<event>
 5   0  0.1780171E-04  0.1399674E+04  0.7818609E-02  0.8954055E-01
        2   -1    0    0  501    0  0.00000000000E+00  0.00000000000E+00  0.11376345286E+04  0.11376345286E+04  0.25500000920E-02 0.  1.
       -2   -1    0    0    0  501  0.00000000000E+00  0.00000000000E+00 -0.43051745911E+03  0.43051745912E+03  0.25500000920E-02 0. -1.
    10030    2    1    2    0    0  0.00000000000E+00  0.00000000000E+00  0.70711706944E+03  0.15681519877E+04  0.13996735714E+04 0.  0.
        5    1    3    3  502    0 -0.41146853148E+03 -0.12183950550E+03 -0.26579240384E+03  0.50479590870E+03  0.46999998093E+01 0. -1.
       -5    1    3    3    0  502  0.41146853148E+03  0.12183950550E+03  0.97290947329E+03  0.10633560790E+04  0.46999998093E+01 0.  1.
</event>
<event>
 5   0  0.6671375E-05  0.1400264E+04  0.7818609E-02  0.8953627E-01
        1   -1    0    0  501    0  0.00000000000E+00  0.00000000000E+00  0.88705122501E+03  0.88705122502E+03  0.50400001928E-02 0. -1.
       -1   -1    0    0    0  501  0.00000000000E+00  0.00000000000E+00 -0.55260055282E+03  0.55260055285E+03  0.50400001928E-02 0.  1.
    10030    2    1    2    0    0  0.00000000000E+00  0.00000000000E+00  0.33445067218E+03  0.14396517779E+04  0.14002642570E+04 0.  0.
        5    1    3    3  502    0 -0.11724797703E+02 -0.65236163094E+03  0.42823587059E+03  0.78046218311E+03  0.46999998093E+01 0.  1.
       -5    1    3    3    0  502  0.11724797703E+02  0.65236163094E+03 -0.93785198405E+02  0.65918959476E+03  0.46999998093E+01 0. -1.
</event>
<event>
 5   0  0.1794185E-04  0.1398171E+04  0.7818609E-02  0.8955144E-01
        2   -1    0    0  501    0  0.00000000000E+00  0.00000000000E+00  0.46724035894E+03  0.46724035895E+03  0.25500000920E-02 0.  1.
       -2   -1    0    0    0  501  0.00000000000E+00  0.00000000000E+00 -0.10459717276E+04  0.10459717276E+04  0.25500000920E-02 0. -1.
    10030    2    1    2    0    0  0.00000000000E+00  0.00000000000E+00 -0.57873136867E+03  0.15132120866E+04  0.13981705267E+04 0.  0.
        2    1    3    3  502    0 -0.60072603215E+01  0.41801384594E+03 -0.89577923089E+03  0.98853026917E+03  0.25500000920E-02 0. -1.
       -2    1    3    3    0  502  0.60072603215E+01 -0.41801384594E+03  0.31704786221E+03  0.52468181740E+03  0.25500000920E-02 0.  1.
</event>
<event>
 5   0  0.9828111E-05  0.1400695E+04  0.7818609E-02  0.8953316E-01
        1   -1    0    0  501    0  0.00000000000E+00  0.00000000000E+00  0.10448547416E+04  0.10448547416E+04  0.50400001928E-02 0. -1.
       -1   -1    0    0    0  501  0.00000000000E+00  0.00000000000E+00 -0.46943014116E+03  0.46943014119E+03  0.50400001928E-02 0.  1.
    10030    2    1    2    0    0  0.00000000000E+00  0.00000000000E+00  0.57542460046E+03  0.15142848828E+04  0.14006945547E+04 0.  0.
        4    1    3    3  502    0 -0.27779067966E+03 -0.11314223589E+02 -0.40721365696E+03  0.49307225502E+03  0.12699999809E+01 0.  1.
       -4    1    3    3    0  502  0.27779067966E+03  0.11314223589E+02  0.98263825742E+03  0.10212126278E+04  0.12699999809E+01 0. -1.
</event>
<event>
 5   0  0.1766237E-04  0.1403007E+04  0.7818609E-02  0.8951645E-01
        2   -1    0    0  501    0  0.00000000000E+00  0.00000000000E+00  0.13465407978E+04  0.13465407978E+04  0.25500000920E-02 0. -1.
       -2   -1    0    0    0  501  0.00000000000E+00  0.00000000000E+00 -0.36546018961E+03  0.36546018962E+03  0.25500000920E-02 0.  1.
    10030    2    1    2    0    0  0.00000000000E+00  0.00000000000E+00  0.98108060820E+03  0.17120009874E+04  0.14030068500E+04 0.  0.
        3    1    3    3  502    0 -0.42218779714E+03 -0.27056754720E+02 -0.19228286866E+03  0.46470131892E+03  0.10100000352E+00 0.  1.
       -3    1    3    3    0  502  0.42218779714E+03  0.27056754720E+02  0.11733634769E+04  0.12472996685E+04  0.10100000352E+00 0. -1.
</event>
<event>
 5   0  0.6671375E-05  0.1394178E+04  0.7818609E-02  0.8958044E-01
        4   -1    0    0  501    0  0.00000000000E+00  0.00000000000E+00  0.10421985539E+04  0.10421993277E+04  0.12699999809E+01 0. -1.
       -4   -1    0    0    0  501  0.00000000000E+00  0.00000000000E+00 -0.46625583685E+03  0.46625756648E+03  0.12699999809E+01 0.  1.
    10030    2    1    2    0    0  0.00000000000E+00  0.00000000000E+00  0.57594271702E+03  0.15084568941E+04  0.13941779615E+04 0.  0.
        4    1    3    3  502    0 -0.18531281078E+03  0.66781285045E+03  0.20688436997E+03  0.72326868900E+03  0.12699999809E+01 0. -1.
       -4    1    3    3    0  502  0.18531281078E+03 -0.66781285045E+03  0.36905834706E+03  0.78518820514E+03  0.12699999809E+01 0.  1.
</event>
<event>
 5   0  0.1794185E-04  0.1417196E+04  0.7818609E-02  0.8941464E-01
       -2   -1    0    0    0  501  0.00000000000E+00  0.00000000000E+00  0.46466815598E+03  0.46466815599E+03  0.25500000920E-02 0.  1.
        2   -1    0    0  501    0  0.00000000000E+00  0.00000000000E+00 -0.10805805298E+04  0.10805805298E+04  0.25500000920E-02 0. -1.
    10030    2    1    2    0    0  0.00000000000E+00  0.00000000000E+00 -0.61591237378E+03  0.15452486857E+04  0.14171963338E+04 0.  0.
        2    1    3    3  502    0  0.34461684976E+03 -0.30683613447E+03  0.27841029979E+03  0.53890767445E+03  0.25500000920E-02 0.  1.
       -2    1    3    3    0  502 -0.34461684976E+03  0.30683613447E+03 -0.89432267356E+03  0.10063410113E+04  0.25500000920E-02 0. -1.
</event>
<event>
 5   0  0.9900839E-05  0.1399959E+04  0.7818609E-02  0.8953848E-01
       -1   -1    0    0    0  501  0.00000000000E+00  0.00000000000E+00  0.19049869082E+03  0.19049869088E+03  0.50400001928E-02 0.  1.
        1   -1    0    0  501    0  0.00000000000E+00  0.00000000000E+00 -0.25720447366E+04  0.25720447366E+04  0.50400001928E-02 0. -1.
    10030    2    1    2    0    0  0.00000000000E+00  0.00000000000E+00 -0.23815460458E+04  0.27625434275E+04  0.13999587925E+04 0.  0.
        3    1    3    3  502    0  0.68814299923E+03 -0.11648411917E+03 -0.12963365939E+04  0.14722764389E+04  0.10100000352E+00 0.  1.
       -3    1    3    3    0  502 -0.68814299923E+03  0.11648411917E+03 -0.10852094519E+04  0.12902669887E+04  0.10100000352E+00 0. -1.
</event>
<event>
 5   0  0.1794185E-04  0.1397069E+04  0.7818609E-02  0.8955943E-01
        2   -1    0    0  501    0  0.00000000000E+00  0.00000000000E+00  0.15914998591E+04  0.15914998591E+04  0.25500000920E-02 0.  1.
       -2   -1    0    0    0  501  0.00000000000E+00  0.00000000000E+00 -0.30659778549E+03  0.30659778550E+03  0.25500000920E-02 0. -1.
    10030    2    1    2    0    0  0.00000000000E+00  0.00000000000E+00  0.12849020736E+04  0.18980976446E+04  0.13970688350E+04 0.  0.
        2    1    3    3  502    0 -0.13650234790E+03  0.53105703651E+03  0.12304341328E+04  0.13470792932E+04  0.25500000920E-02 0.  1.
       -2    1    3    3    0  502  0.13650234790E+03 -0.53105703651E+03  0.54467940822E+02  0.55101835141E+03  0.25500000920E-02 0. -1.
</event>
<event>
 5   0  0.6671375E-05  0.1401405E+04  0.7818609E-02  0.8952802E-01
        1   -1    0    0  501    0  0.00000000000E+00  0.00000000000E+00  0.11846849178E+04  0.11846849178E+04  0.50400001928E-02 0. -1.
       -1   -1    0    0    0  501  0.00000000000E+00  0.00000000000E+00 -0.41444251790E+03  0.41444251793E+03  0.50400001928E-02 0.  1.
    10030    2    1    2    0    0  0.00000000000E+00  0.00000000000E+00  0.77024239992E+03  0.15991274358E+04  0.14014047243E+04 0.  0.
        5    1    3    3  502    0 -0.12951420482E+03  0.19304179040E+03  0.11393824140E+04  0.11628643246E+04  0.46999998093E+01 0. -1.
       -5    1    3    3    0  502  0.12951420482E+03 -0.19304179040E+03 -0.36914001413E+03  0.43626311112E+03  0.46999998093E+01 0.  1.
</event>
<event>
 5   0  0.9828111E-05  0.1399321E+04  0.7818609E-02  0.8954311E-01
        1   -1    0    0  501    0  0.00000000000E+00  0.00000000000E+00  0.13452159541E+04  0.13452159541E+04  0.50400001928E-02 0.  1.
       -1   -1    0    0    0  501  0.00000000000E+00  0.00000000000E+00 -0.36390030956E+03  0.36390030959E+03  0.50400001928E-02 0. -1.
    10030    2    1    2    0    0  0.00000000000E+00  0.00000000000E+00  0.98131564454E+03  0.17091162637E+04  0.13993205525E+04 0.  0.
        4    1    3    3  502    0  0.28203128383E+03 -0.12402433400E+03 -0.27658440792E+03  0.41403409049E+03  0.12699999809E+01 0. -1.
       -4    1    3    3    0  502 -0.28203128383E+03  0.12402433400E+03  0.12579000525E+04  0.12950821732E+04  0.12699999809E+01 0.  1.
</event>
<event>
 5   0  0.1766237E-04  0.1399354E+04  0.7818609E-02  0.8954286E-01
        2   -1    0    0  501    0  0.00000000000E+00  0.00000000000E+00  0.15532070539E+04  0.15532070539E+04  0.25500000920E-02 0. -1.
       -2   -1    0    0    0  501  0.00000000000E+00  0.00000000000E+00 -0.31518511655E+03  0.31518511656E+03  0.25500000920E-02 0.  1.
    10030    2    1    2    0    0  0.00000000000E+00  0.00000000000E+00  0.12380219373E+04  0.18683921704E+04  0.13993537742E+04 0.  0.
        3    1    3    3  502    0  0.62884060311E+03  0.36043508604E+02  0.21225545348E+03  0.66467437619E+03  0.10100000352E+00 0. -1.
       -3    1    3    3    0  502 -0.62884060311E+03 -0.36043508604E+02  0.10257664838E+04  0.12037177943E+04  0.10100000352E+00 0.  1.
</event>
<event>
 5   0  0.9900839E-05  0.1392530E+04  0.7818609E-02  0.8959243E-01
       -1   -1    0    0    0  501  0.00000000000E+00  0.00000000000E+00  0.46467193948E+03  0.46467193951E+03  0.50400001928E-02 0. -1.
        1   -1    0    0  501    0  0.00000000000E+00  0.00000000000E+00 -0.10432850728E+04  0.10432850728E+04  0.50400001928E-02 0.  1.
    10030    2    1    2    0    0  0.00000000000E+00  0.00000000000E+00 -0.57861313335E+03  0.15079570123E+04  0.13925304998E+04 0.  0.
        3    1    3    3  502    0 -0.63530747233E+03  0.20060734784E+03 -0.50837812338E+03  0.83803771928E+03  0.10100000352E+00 0.  1.
       -3    1    3    3    0  502  0.63530747233E+03 -0.20060734784E+03 -0.70235009966E+02  0.66991929307E+03  0.10100000352E+00 0. -1.
</event>
<event>
 5   0  0.9978422E-05  0.1399208E+04  0.7818609E-02  0.8954392E-01
        1   -1    0    0  501    0  0.00000000000E+00  0.00000000000E+00  0.10295684920E+04  0.10295684920E+04  0.50400001928E-02 0.  1.
       -1   -1    0    0    0  501  0.00000000000E+00  0.00000000000E+00 -0.47538913057E+03  0.47538913060E+03  0.50400001928E-02 0. -1.
    10030    2    1    2    0    0  0.00000000000E+00  0.00000000000E+00  0.55417936138E+03  0.15049576226E+04  0.13992078763E+04 0.  0.
        2    1    3    3  502    0  0.34825304796E+03 -0.51432899171E+03 -0.69158290289E+02  0.62497789261E+03  0.25500000920E-02 0. -1.
       -2    1    3    3    0  502 -0.34825304796E+03  0.51432899171E+03  0.62333765167E+03  0.87997972995E+03  0.25500000920E-02 0.  1.
</event>
<event>
 5   0  0.9978422E-05  0.1400548E+04  0.7818609E-02  0.8953422E-01
       -1   -1    0    0    0  501  0.00000000000E+00  0.00000000000E+00  0.26685005731E+03  0.26685005736E+03  0.50400001928E-02 0.  1.
        1   -1    0    0  501    0  0.00000000000E+00  0.00000000000E+00 -0.18376743890E+04  0.18376743890E+04  0.50400001928E-02 0. -1.
    10030    2    1    2    0    0  0.00000000000E+00  0.00000000000E+00 -0.15708243317E+04  0.21045244464E+04  0.14005477730E+04 0.  0.
        2    1    3    3  502    0  0.66690858041E+03  0.20606638545E+03 -0.70103491905E+03  0.98928275410E+03  0.25500000920E-02 0.  1.
       -2    1    3    3    0  502 -0.66690858041E+03 -0.20606638545E+03 -0.86978941266E+03  0.11152416923E+04  0.25500000920E-02 0. -1.
</event>
<event>
 5   0  0.1833681E-04  0.1402677E+04  0.7818609E-02  0.8951883E-01
        2   -1    0    0  501    0  0.00000000000E+00  0.00000000000E+00  0.78039807918E+03  0.78039807918E+03  0.25500000920E-02 0.  1.
       -2   -1    0    0    0  501  0.00000000000E+00  0.00000000000E+00 -0.63028861213E+03  0.63028861213E+03  0.25500000920E-02 0. -1.
    10030    2    1    2    0    0  0.00000000000E+00  0.00000000000E+00  0.15010946705E+03  0.14106866913E+04  0.14026774715E+04 0.  0.
        4    1    3    3  502    0 -0.56828022440E+03  0.37714740094E+03 -0.89254493966E+02  0.68785939920E+03  0.12699999809E+01 0. -1.
       -4    1    3    3    0  502  0.56828022440E+03 -0.37714740094E+03  0.23936396102E+03  0.72282729211E+03  0.12699999809E+01 0.  1.
</event>
<event>
 5   0  0.9260916E-05  0.1391096E+04  0.7818609E-02  0.8960289E-01
       -1   -1    0    0    0  501  0.00000000000E+00  0.00000000000E+00  0.97743933254E+03  0.97743933255E+03  0.50400001928E-02 0.  1.
        1   -1    0    0  501    0  0.00000000000E+00  0.00000000000E+00 -0.49495341319E+03  0.49495341321E+03  0.50400001928E-02 0. -1.
    10030    2    1    2    0    0  0.00000000000E+00  0.00000000000E+00  0.48248591935E+03  0.14723927458E+04  0.13910958757E+04 0.  0.
        1    1    3    3  502    0 -0.17455060217E+03 -0.63448486082E+03  0.47968124870E+03  0.81432981752E+03  0.50400001928E-02 0.  1.
       -1    1    3    3    0  502  0.17455060217E+03  0.63448486082E+03  0.28046706504E+01  0.65806292824E+03  0.50400001928E-02 0. -1.
</event>
<event>
 5   0  0.9260916E-05  0.1399559E+04  0.7818609E-02  0.8954138E-01
        1   -1    0    0  501    0  0.00000000000E+00  0.00000000000E+00  0.60722062438E+03  0.60722062440E+03  0.50400001928E-02 0.  1.
       -1   -1    0    0    0  501  0.00000000000E+00  0.00000000000E+00 -0.80644659468E+03  0.80644659470E+03  0.50400001928E-02 0. -1.
    10030    2    1    2    0    0  0.00000000000E+00  0.00000000000E+00 -0.19922597030E+03  0.14136672191E+04  0.13995585086E+04 0.  0.
        1    1    3    3  502    0 -0.24656135843E+03 -0.60263078928E+03 -0.35858524716E+03  0.74333017641E+03  0.50400001928E-02 0. -1.
       -1    1    3    3    0  502  0.24656135843E+03  0.60263078928E+03  0.15935927685E+03  0.67033704269E+03  0.50400001928E-02 0.  1.
</event>
<event>
 5   0  0.1780171E-04  0.1396126E+04  0.7818609E-02  0.8956628E-01
        2   -1    0    0  501    0  0.00000000000E+00  0.00000000000E+00  0.12667921209E+04  0.12667921209E+04  0.25500000920E-02 0.  1.
       -2   -1    0    0    0  501  0.00000000000E+00  0.00000000000E+00 -0.38466587532E+03  0.38466587533E+03  0.25500000920E-02 0. -1.
    10030    2    1    2    0    0  0.00000000000E+00  0.00000000000E+00  0.88212624561E+03  0.16514579963E+04  0.13961256391E+04 0.  0.
        5    1    3    3  502    0 -0.64830896091E+03  0.16489302776E+03  0.20515100119E+03  0.69971654453E+03  0.46999998093E+01 0.  1.
       -5    1    3    3    0  502  0.64830896091E+03 -0.16489302776E+03  0.67697524442E+03  0.95174145174E+03  0.46999998093E+01 0. -1.
</event>
<event>
 5   0  0.1712327E-04  0.1399394E+04  0.7818609E-02  0.8954257E-01
       -2   -1    0    0    0  501  0.00000000000E+00  0.00000000000E+00  0.79321800389E+03  0.79321800389E+03  0.25500000920E-02 0. -1.
        2   -1    0    0  501    0  0.00000000000E+00  0.00000000000E+00 -0.61720213555E+03  0.61720213555E+03  0.25500000920E-02 0.  1.
    10030    2    1    2    0    0  0.00000000000E+00  0.00000000000E+00  0.17601586834E+03  0.14104201394E+04  0.13993939345E+04 0.  0.
        1    1    3    3  502    0 -0.36016559913E+03 -0.38587935870E+03  0.55092383088E+03  0.76298047533E+03  0.50400001928E-02 0. -1.
       -1    1    3    3    0  502  0.36016559913E+03  0.38587935870E+03 -0.37490796254E+03  0.64743966412E+03  0.50400001928E-02 0.  1.
</event>
<event>
 5   0  0.1712327E-04  0.1397973E+04  0.7818609E-02  0.8955287E-01
       -2   -1    0    0    0  501  0.00000000000E+00  0.00000000000E+00  0.37492410775E+03  0.37492410776E+03  0.25500000920E-02 0. -1.
        2   -1    0    0  501    0  0.00000000000E+00  0.00000000000E+00 -0.13031488136E+04  0.13031488136E+04  0.25500000920E-02 0.  1.
    10030    2    1    2    0    0  0.00000000000E+00  0.00000000000E+00 -0.92822470581E+03  0.16780729213E+04  0.13979726839E+04 0.  0.
        1    1    3    3  502    0 -0.21014432595E+03  0.65759296321E+03 -0.59556573764E+03  0.91174979620E+03  0.50400001928E-02 0. -1.
       -1    1    3    3    0  502  0.21014432595E+03 -0.65759296321E+03 -0.33265896817E+03  0.76632312514E+03  0.50400001928E-02 0.  1.
</event>
<event>
 5   0  0.6671375E-05  0.1399282E+04  0.7818609E-02  0.8954338E-01
       -3   -1    0    0    0  501  0.00000000000E+00  0.00000000000E+00  0.10709218059E+04  0.10709218107E+04  0.10100000352E+00 0. -1.
        3   -1    0    0  501    0  0.00000000000E+00  0.00000000000E+00 -0.45708071771E+03  0.45708072887E+03  0.10100000352E+00 0.  1.
    10030    2    1    2    0    0  0.00000000000E+00  0.00000000000E+00  0.61384108823E+03  0.15280025396E+04  0.13992822729E+04 0.  0.
        4    1    3    3  502    0 -0.51709459962E+03  0.42573363740E+03  0.86186798648E+02  0.67532638934E+03  0.12699999809E+01 0. -1.
       -4    1    3    3    0  502  0.51709459962E+03 -0.42573363740E+03  0.52765428958E+03  0.85267615024E+03  0.12699999809E+01 0.  1.
</event>
<event>
 5   0  0.9900839E-05  0.1399552E+04  0.7818609E-02  0.8954143E-01
        1   -1    0    0  501    0  0.00000000000E+00  0.00000000000E+00  0.17839115374E+04  0.17839115374E+04  0.50400001928E-02 0.  1.
       -1   -1    0    0    0  501  0.00000000000E+00  0.00000000000E+00 -0.27450134527E+03  0.27450134532E+03  0.50400001928E-02 0. -1.
    10030    2    1    2    0    0  0.00000000000E+00  0.00000000000E+00  0.15094101921E+04  0.20584128827E+04  0.13995515238E+04 0.  0.
        3    1    3    3  502    0 -0.26907835938E+03 -0.44136805299E+02  0.17025620601E+04  0.17242589132E+04  0.10100000352E+00 0.  1.
       -3    1    3    3    0  502  0.26907835938E+03  0.44136805299E+02 -0.19315186795E+03  0.33415396954E+03  0.10100000352E+00 0. -1.
</event>
<event>
 5   0  0.1780171E-04  0.1399151E+04  0.7818609E-02  0.8954433E-01
       -2   -1    0    0    0  501  0.00000000000E+00  0.00000000000E+00  0.11445151586E+04  0.11445151586E+04  0.25500000920E-02 0.  1.
        2   -1    0    0  501    0  0.00000000000E+00  0.00000000000E+00 -0.42760984155E+03  0.42760984156E+03  0.25500000920E-02 0. -1.
    10030    2    1    2    0    0  0.00000000000E+00  0.00000000000E+00  0.71690531701E+03  0.15721250001E+04  0.13991510935E+04 0.  0.
        5    1    3    3  502    0  0.50459089754E+02  0.64772924109E+02  0.11390644471E+04  0.11420295775E+04  0.46999998093E+01 0.  1.
       -5    1    3    3    0  502 -0.50459089754E+02 -0.64772924109E+02 -0.42215913005E+03  0.43009542257E+03  0.46999998093E+01 0. -1.
</event>
<event>
 5   0  0.1794185E-04  0.1403019E+04  0.7818609E-02  0.8951636E-01
       -2   -1    0    0    0  501  0.00000000000E+00  0.00000000000E+00  0.79059865212E+03  0.79059865213E+03  0.25500000920E-02 0.  1.
        2   -1    0    0  501    0  0.00000000000E+00  0.00000000000E+00 -0.62245938292E+03  0.62245938292E+03  0.25500000920E-02 0. -1.
    10030    2    1    2    0    0  0.00000000000E+00  0.00000000000E+00  0.16813926921E+03  0.14130580350E+04  0.14030189580E+04 0.  0.
        2    1    3    3  502    0  0.34418037956E+03 -0.38441293977E+03  0.56274091895E+03  0.76348594211E+03  0.25500000920E-02 0. -1.
       -2    1    3    3    0  502 -0.34418037956E+03  0.38441293977E+03 -0.39460164974E+03  0.64957209294E+03  0.25500000920E-02 0.  1.
</event>
<event>
 5   0  0.6671375E-05  0.1399398E+04  0.7818609E-02  0.8954255E-01
       -1   -1    0    0    0  501  0.00000000000E+00  0.00000000000E+00  0.72667250663E+03  0.72667250665E+03  0.50400001928E-02 0. -1.
        1   -1    0    0  501    0  0.00000000000E+00  0.00000000000E+00 -0.67372634914E+03  0.67372634916E+03  0.50400001928E-02 0.  1.
    10030    2    1    2    0    0  0.00000000000E+00  0.00000000000E+00  0.52946157487E+02  0.14003988558E+04  0.13993976060E+04 0.  0.
        5    1    3    3  502    0 -0.16286080214E+03 -0.61498996965E+03  0.31792022635E+03  0.71121843618E+03  0.46999998093E+01 0. -1.
       -5    1    3    3    0  502  0.16286080214E+03  0.61498996965E+03 -0.26497406886E+03  0.68918041963E+03  0.46999998093E+01 0.  1.
</event>
<event>
 5   0  0.1712327E-04  0.1399682E+04  0.7818609E-02  0.8954049E-01
        2   -1    0    0  501    0  0.00000000000E+00  0.00000000000E+00  0.13071313350E+04  0.13071313350E+04  0.25500000920E-02 0.  1.
       -2   -1    0    0    0  501  0.00000000000E+00  0.00000000000E+00 -0.37469630609E+03  0.37469630610E+03  0.25500000920E-02 0. -1.
    10030    2    1    2    0    0  0.00000000000E+00  0.00000000000E+00  0.93243502891E+03  0.16818276411E+04  0.13996817964E+04 0.  0.
        1    1    3    3  502    0 -0.30050169258E+03  0.52489750018E+02  0.12230411382E+04  0.12605102407E+04  0.50400001928E-02 0.  1.
       -1    1    3    3    0  502  0.30050169258E+03 -0.52489750018E+02 -0.29060610930E+03  0.42131740041E+03  0.50400001928E-02 0. -1.
</event>
<event>
 5   0  0.1833681E-04  0.1417132E+04  0.7818609E-02  0.8941510E-01
       -2   -1    0    0    0  501  0.00000000000E+00  0.00000000000E+00  0.32604609991E+03  0.32604609992E+03  0.25500000920E-02 0. -1.
        2   -1    0    0  501    0  0.00000000000E+00  0.00000000000E+00 -0.15398606511E+04  0.15398606511E+04  0.25500000920E-02 0.  1.
    10030    2    1    2    0    0  0.00000000000E+00  0.00000000000E+00 -0.12138145512E+04  0.18659067510E+04  0.14171316942E+04 0.  0.
        4    1    3    3  502    0  0.12081912113E+03  0.54759157699E+03 -0.11772132117E+04  0.13039502881E+04  0.12699999809E+01 0.  1.
       -4    1    3    3    0  502 -0.12081912113E+03 -0.54759157699E+03 -0.36601339489E+02  0.56195646288E+03  0.12699999809E+01 0. -1.
</event>
<event>
 5   0  0.1712327E-04  0.1404945E+04  0.7818609E-02  0.8950247E-01
       -2   -1    0    0    0  501  0.00000000000E+00  0.00000000000E+00  0.55725247761E+03  0.55725247762E+03  0.25500000920E-02 0. -1.
        2   -1    0    0  501    0  0.00000000000E+00  0.00000000000E+00 -0.88553664968E+03  0.88553664969E+03  0.25500000920E-02 0.  1.
    10030    2    1    2    0    0  0.00000000000E+00  0.00000000000E+00 -0.32828417207E+03  0.14427891273E+04  0.14049448275E+04 0.  0.
        1    1    3    3  502    0 -0.29800606727E+03  0.12428320952E+03  0.47653261103E+03  0.57561902479E+03  0.50400001928E-02 0. -1.
       -1    1    3    3    0  502  0.29800606727E+03 -0.12428320952E+03 -0.80481678311E+03  0.86717010251E+03  0.50400001928E-02 0.  1.
</event>
<event>
 5   0  0.1794185E-04  0.1400350E+04  0.7818609E-02  0.8953566E-01
        2   -1    0    0  501    0  0.00000000000E+00  0.00000000000E+00  0.86426277617E+03  0.86426277618E+03  0.25500000920E-02 0.  1.
       -2   -1    0    0    0  501  0.00000000000E+00  0.00000000000E+00 -0.56724034060E+03  0.56724034060E+03  0.25500000920E-02 0. -1.
    10030    2    1    2    0    0  0.00000000000E+00  0.00000000000E+00  0.29702243558E+03  0.14315031168E+04  0.14003495443E+04 0.  0.
        2    1    3    3  502    0 -0.51121804243E+03  0.45343846087E+03 -0.75092174195E+01  0.68337889421E+03  0.25500000920E-02 0.  1.
       -2    1    3    3    0  502  0.51121804243E+03 -0.45343846087E+03  0.30453165300E+03  0.74812422256E+03  0.25500000920E-02 0. -1.
</event>
<event>
 5   0  0.9978422E-05  0.1400626E+04  0.7818609E-02  0.8953366E-01
        1   -1    0    0  501    0  0.00000000000E+00  0.00000000000E+00  0.10253985875E+04  0.10253985875E+04  0.50400001928E-02 0.  1.
       -1   -1    0    0    0  501  0.00000000000E+00  0.00000000000E+00 -0.47829017110E+03  0.47829017113E+03  0.50400001928E-02 0. -1.
    10030    2    1    2    0    0  0.00000000000E+00  0.00000000000E+00  0.54710841637E+03  0.15036887586E+04  0.14006256686E+04 0.  0.
        2    1    3    3  502    0 -0.17984460451E+03 -0.12638636149E+03 -0.44029451027E+03  0.49211467151E+03  0.25500000920E-02 0. -1.
       -2    1    3    3    0  502  0.17984460451E+03  0.12638636149E+03  0.98740292664E+03  0.10115740871E+04  0.25500000920E-02 0.  1.
</event>
<event>
 5   0  0.9978422E-05  0.1398996E+04  0.7818609E-02  0.8954546E-01
        1   -1    0    0  501    0  0.00000000000E+00  0.00000000000E+00  0.18434879984E+04  0.18434879984E+04  0.50400001928E-02 0. -1.
       -1   -1    0    0    0  501  0.00000000000E+00  0.00000000000E+00 -0.26541934465E+03  0.26541934469E+03  0.50400001928E-02 0.  1.
    10030    2    1    2    0    0  0.00000000000E+00  0.00000000000E+00  0.15780686537E+04  0.21089073431E+04  0.13989958920E+04 0.  0.
        2    1    3    3  502    0 -0.21227358510E+02 -0.21619542598E+03  0.17913497618E+04  0.18044736163E+04  0.25500000920E-02 0. -1.
       -2    1    3    3    0  502  0.21227358510E+02  0.21619542598E+03 -0.21328110802E+03  0.30443372679E+03  0.25500000920E-02 0.  1.
</event>
<event>
 5   0  0.1712327E-04  0.1400252E+04  0.7818609E-02  0.8953636E-01
       -2   -1    0    0    0  501  0.00000000000E+00  0.00000000000E+00  0.60316506810E+03  0.60316506811E+03  0.25500000920E-02 0. -1.
        2   -1    0    0  501    0  0.00000000000E+00  0.00000000000E+00 -0.81267357844E+03  0.81267357844E+03  0.25500000920E-02 0.  1.
    10030    2    1    2    0    0  0.00000000000E+00  0.00000000000E+00 -0.20950851034E+03  0.14158386466E+04  0.14002518549E+04 0.  0.
        1    1    3    3  502    0 -0.10887877927E+03  0.69081288785E+03 -0.71229801853E+02  0.70295854735E+03  0.50400001928E-02 0. -1.
       -1    1    3    3    0  502  0.10887877927E+03 -0.69081288785E+03 -0.13827870848E+03  0.71288009920E+03  0.50400001928E-02 0.  1.
</event>
<event>
 5   0  0.9260916E-05  0.1421451E+04  0.7818609E-02  0.8938436E-01
       -1   -1    0    0    0  501  0.00000000000E+00  0.00000000000E+00  0.20190405984E+04  0.20190405984E+04  0.50400001928E-02 0.  1.
        1   -1    0    0  501    0  0.00000000000E+00  0.00000000000E+00 -0.25018366200E+03  0.25018366205E+03  0.50400001928E-02 0. -1.
    10030    2    1    2    0    0  0.00000000000E+00  0.00000000000E+00  0.17688569364E+04  0.22692242605E+04  0.14214513297E+04 0.  0.
        1    1    3    3  502    0  0.68941407758E+03 -0.68247327523E+02  0.11377582474E+04  0.13320823164E+04  0.50400001928E-02 0.  1.
       -1    1    3    3    0  502 -0.68941407758E+03  0.68247327523E+02  0.63109868902E+03  0.93714194410E+03  0.50400001928E-02 0. -1.
</event>
<event>
 5   0  0.6671375E-05  0.1402086E+04  0.7818609E-02  0.8952310E-01
       -1   -1    0    0    0  501  0.00000000000E+00  0.00000000000E+00  0.76478960284E+03  0.76478960286E+03  0.50400001928E-02 0.  1.
        1   -1    0    0  501    0  0.00000000000E+00  0.00000000000E+00 -0.64260997015E+03  0.64260997017E+03  0.50400001928E-02 0. -1.
    10030    2    1    2    0    0  0.00000000000E+00  0.00000000000E+00  0.12217963269E+03  0.14073995730E+04  0.14020861940E+04 0.  0.
        5    1    3    3  502    0  0.52600534324E+02  0.33619827268E+03  0.67630988008E+03  0.75710847218E+03  0.46999998093E+01 0.  1.
       -5    1    3    3    0  502 -0.52600534324E+02 -0.33619827268E+03 -0.55413024739E+03  0.65029110084E+03  0.46999998093E+01 0. -1.
</event>
<event>
 5   0  0.1766237E-04  0.1403649E+04  0.7818609E-02  0.8951182E-01
        2   -1    0    0  501    0  0.00000000000E+00  0.00000000000E+00  0.68662713272E+03  0.68662713272E+03  0.25500000920E-02 0. -1.
       -2   -1    0    0    0  501  0.00000000000E+00  0.00000000000E+00 -0.71735809470E+03  0.71735809470E+03  0.25500000920E-02 0.  1.
    10030    2    1    2    0    0  0.00000000000E+00  0.00000000000E+00 -0.30730961981E+02  0.14039852274E+04  0.14036488616E+04 0.  0.
        3    1    3    3  502    0 -0.46967402395E+02  0.13743335953E+03 -0.70216213456E+03  0.71702547975E+03  0.10100000352E+00 0.  1.
       -3    1    3    3    0  502  0.46967402395E+02 -0.13743335953E+03  0.67143117258E+03  0.68695974767E+03  0.10100000352E+00 0. -1.
</event>
<event>
 5   0  0.9828111E-05  0.1400684E+04  0.7818609E-02  0.8953323E-01
       -1   -1    0    0    0  501  0.00000000000E+00  0.00000000000E+00  0.54419257587E+03  0.54419257590E+03  0.50400001928E-02 0. -1.
        1   -1    0    0  501    0  0.00000000000E+00  0.00000000000E+00 -0.90129696066E+03  0.90129696067E+03  0.50400001928E-02 0.  1.
    10030    2    1    2    0    0  0.00000000000E+00  0.00000000000E+00 -0.35710438478E+03  0.14454895366E+04  0.14006842823E+04 0.  0.
        4    1    3    3  502    0 -0.68993438683E+03  0.78493642113E+02 -0.84495141044E+02  0.69950822135E+03  0.12699999809E+01 0.  1.
       -4    1    3    3    0  502  0.68993438683E+03 -0.78493642113E+02 -0.27260924374E+03  0.74598131522E+03  0.12699999809E+01 0. -1.
</event>
<event>
 5   0  0.1794185E-04  0.1399164E+04  0.7818609E-02  0.8954424E-01
        2   -1    0    0  501    0  0.00000000000E+00  0.00000000000E+00  0.12694745946E+04  0.12694745946E+04  0.25500000920E-02 0. -1.
       -2   -1    0    0    0  501  0.00000000000E+00  0.00000000000E+00 -0.38552559084E+03  0.38552559085E+03  0.25500000920E-02 0.  1.
    10030    2    1    2    0    0  0.00000000000E+00  0.00000000000E+00  0.88394900380E+03  0.16550001855E+04  0.13991639549E+04 0.  0.
        2    1    3    3  502    0 -0.24645542353E+03  0.59187400723E+02 -0.32930452294E+03  0.41555371858E+03  0.25500000920E-02 0.  1.
       -2    1    3    3    0  502  0.24645542353E+03 -0.59187400723E+02  0.12132535267E+04  0.12394464669E+04  0.25500000920E-02 0. -1.
</event>
<event>
 5   0  0.9828111E-05  0.1399889E+04  0.7818609E-02  0.8953899E-01
       -1   -1    0    0    0  501  0.00000000000E+00  0.00000000000E+00  0.49854319638E+03  0.49854319640E+03  0.50400001928E-02 0.  1.
        1   -1    0    0  501    0  0.00000000000E+00  0.00000000000E+00 -0.98270831468E+03  0.98270831469E+03  0.50400001928E-02 0. -1.
    10030    2    1    2    0    0  0.00000000000E+00  0.00000000000E+00 -0.48416511831E+03  0.14812515111E+04  0.13998893447E+04 0.  0.
        4    1    3    3  502    0 -0.15595549590E+03 -0.59438582431E+03  0.11251300941E+03  0.62472187014E+03  0.12699999809E+01 0.  1.
       -4    1    3    3    0  502  0.15595549590E+03  0.59438582431E+03 -0.59667812771E+03  0.85652964095E+03  0.12699999809E+01 0. -1.
</event>
<event>
 5   0  0.9260916E-05  0.1402100E+04  0.7818609E-02  0.8952300E-01
       -1   -1    0    0    0  501  0.00000000000E+00  0.00000000000E+00  0.33733215076E+03  0.33733215080E+03  0.50400001928E-02 0. -1.
        1   -1    0    0  501    0  0.00000000000E+00  0.00000000000E+00 -0.14569348890E+04  0.14569348891E+04  0.50400001928E-02 0.  1.
    10030    2    1    2    0    0  0.00000000000E+00  0.00000000000E+00 -0.11196027383E+04  0.17942670399E+04  0.14020998248E+04 0.  0.
        1    1    3    3  502    0 -0.29332103307E+02  0.69400031317E+03 -0.68103004336E+03  0.97277886847E+03  0.50400001928E-02 0.  1.
       -1    1    3    3    0  502  0.29332103307E+02 -0.69400031317E+03 -0.43857269493E+03  0.82148817138E+03  0.50400001928E-02 0. -1.
</event>
<event>
 5   0  0.1780171E-04  0.1394914E+04  0.7818609E-02  0.8957508E-01
        2   -1    0    0  501    0  0.00000000000E+00  0.00000000000E+00  0.17381081601E+04  0.17381081601E+04  0.25500000920E-02 0. -1.
       -2   -1    0    0    0  501  0.00000000000E+00  0.00000000000E+00 -0.27987105425E+03  0.27987105426E+03  0.25500000920E-02 0.  1.
    10030    2    1    2    0    0  0.00000000000E+00  0.00000000000E+00  0.14582371058E+04  0.20179792144E+04  0.13949138514E+04 0.  0.
        5    1    3    3  502    0  0.22724161051E+03  0.63198835286E+03  0.45702143379E+03  0.81236611736E+03  0.46999998093E+01 0.  1.
       -5    1    3    3    0  502 -0.22724161051E+03 -0.63198835286E+03  0.10012156721E+04  0.12056130970E+04  0.46999998093E+01 0. -1.
</event>
<event>
 5   0  0.9900839E-05  0.1400222E+04  0.7818609E-02  0.8953658E-01
       -1   -1    0    0    0  501  0.00000000000E+00  0.00000000000E+00  0.43039424360E+03  0.43039424363E+03  0.50400001928E-02 0.  1.
        1   -1    0    0  501    0  0.00000000000E+00  0.00000000000E+00 -0.11388529237E+04  0.11388529237E+04  0.50400001928E-02 0. -1.
    10030    2    1    2    0    0  0.00000000000E+00  0.00000000000E+00 -0.70845868007E+03  0.15692471673E+04  0.14002224719E+04 0.  0.
        3    1    3    3  502    0  0.54895688991E+03 -0.42770076583E+03 -0.44012391454E+03  0.82340189605E+03  0.10100000352E+00 0. -1.
       -3    1    3    3    0  502 -0.54895688991E+03  0.42770076583E+03 -0.26833476553E+03  0.74584527126E+03  0.10100000352E+00 0.  1.
</event>
<event>
 5   0  0.6671375E-05  0.1399501E+04  0.7818609E-02  0.8954180E-01
       -3   -1    0    0    0  501  0.00000000000E+00  0.00000000000E+00  0.10543808746E+04  0.10543808795E+04  0.10100000352E+00 0.  1.
        3   -1    0    0  501    0  0.00000000000E+00  0.00000000000E+00 -0.46439637171E+03  0.46439638269E+03  0.10100000352E+00 0. -1.
    10030    2    1    2    0    0  0.00000000000E+00  0.00000000000E+00  0.58998450293E+03  0.15187772622E+04  0.13995008604E+04 0.  0.
        3    1    3    3  502    0  0.28412083913E+03 -0.30620537753E+03  0.90423364766E+03  0.99605465925E+03  0.10100000352E+00 0.  1.
       -3    1    3    3    0  502 -0.28412083913E+03  0.30620537753E+03 -0.31424914472E+03  0.52272260293E+03  0.10100000352E+00 0. -1.
</event>
<event>
 5   0  0.9900839E-05  0.1390249E+04  0.7818609E-02  0.8960907E-01
        1   -1    0    0  501    0  0.00000000000E+00  0.00000000000E+00  0.87092733239E+03  0.87092733240E+03  0.50400001928E-02 0.  1.
       -1   -1    0    0    0  501  0.00000000000E+00  0.00000000000E+00 -0.55480909251E+03  0.55480909253E+03  0.50400001928E-02 0. -1.
    10030    2    1    2    0    0  0.00000000000E+00  0.00000000000E+00  0.31611823988E+03  0.14257364249E+04  0.13902494783E+04 0.  0.
        3    1    3    3  502    0  0.31868838078E+03 -0.14141310973E+03  0.77477310745E+03  0.84960775060E+03  0.10100000352E+00 0.  1.
       -3    1    3    3    0  502 -0.31868838078E+03  0.14141310973E+03 -0.45865486757E+03  0.57612867434E+03  0.10100000352E+00 0. -1.
</event>
<event>
 5   0  0.1794185E-04  0.1405284E+04  0.7818609E-02  0.8950003E-01
        2   -1    0    0  501    0  0.00000000000E+00  0.00000000000E+00  0.11840601086E+04  0.11840601086E+04  0.25500000920E-02 0. -1.
       -2   -1    0    0    0  501  0.00000000000E+00  0.00000000000E+00 -0.41696002686E+03  0.41696002687E+03  0.25500000920E-02 0.  1.
    10030    2    1    2    0    0  0.00000000000E+00  0.00000000000E+00  0.76710008169E+03  0.16010201354E+04  0.14052839353E+04 0.  0.
        2    1    3    3  502    0  0.49005353853E+03 -0.40166672416E+03  0.37580027328E+02  0.63474474112E+03  0.25500000920E-02 0.  1.
       -2    1    3    3    0  502 -0.49005353853E+03  0.40166672416E+03  0.72952005436E+03  0.96627539431E+03  0.25500000920E-02 0. -1.
</event>
<event>
 5   0  0.1833681E-04  0.1404037E+04  0.7818609E-02  0.8950902E-01
       -2   -1    0    0    0  501  0.00000000000E+00  0.00000000000E+00  0.48730965349E+03  0.48730965349E+03  0.25500000920E-02 0. -1.
        2   -1    0    0  501    0  0.00000000000E+00  0.00000000000E+00 -0.10113277935E+04  0.10113277935E+04  0.25500000920E-02 0.  1.
    10030    2    1    2    0    0  0.00000000000E+00  0.00000000000E+00 -0.52401814002E+03  0.14986374470E+04  0.14040367468E+04 0.  0.
        4    1    3    3  502    0  0.51795741011E+03 -0.42987312810E+03 -0.49181891872E+02  0.67490092335E+03  0.12699999809E+01 0.  1.
       -4    1    3    3    0  502 -0.51795741011E+03  0.42987312810E+03 -0.47483624815E+03  0.82373652366E+03  0.12699999809E+01 0. -1.
</event>
<event>
 5   0  0.9900839E-05  0.1409273E+04  0.7818609E-02  0.8947134E-01
       -1   -1    0    0    0  501  0.00000000000E+00  0.00000000000E+00  0.38320086646E+03  0.38320086649E+03  0.50400001928E-02 0.  1.
        1   -1    0    0  501    0  0.00000000000E+00  0.00000000000E+00 -0.12956973132E+04  0.12956973132E+04  0.50400001928E-02 0. -1.
    10030    2    1    2    0    0  0.00000000000E+00  0.00000000000E+00 -0.91249644672E+03  0.16788981797E+04  0.14092726253E+04 0.  0.
        3    1    3    3  502    0  0.28445628311E+03 -0.62564372792E+03 -0.27104883000E+03  0.73879153334E+03  0.10100000352E+00 0. -1.
       -3    1    3    3    0  502 -0.28445628311E+03  0.62564372792E+03 -0.64144761672E+03  0.94010664634E+03  0.10100000352E+00 0.  1.
</event>
<event>
 5   0  0.1794185E-04  0.1400312E+04  0.7818609E-02  0.8953593E-01
        2   -1    0    0  501    0  0.00000000000E+00  0.00000000000E+00  0.98019899199E+03  0.98019899199E+03  0.25500000920E-02 0.  1.
       -2   -1    0    0    0  501  0.00000000000E+00  0.00000000000E+00 -0.50012144909E+03  0.50012144909E+03  0.25500000920E-02 0. -1.
    10030    2    1    2    0    0  0.00000000000E+00  0.00000000000E+00  0.48007754290E+03  0.14803204411E+04  0.14003121656E+04 0.  0.
        2    1    3    3  502    0 -0.13420101956E+03  0.54697711235E+03 -0.19969000061E+03  0.59755332100E+03  0.25500000920E-02 0. -1.
       -2    1    3    3    0  502  0.13420101956E+03 -0.54697711235E+03  0.67976754351E+03  0.88276712008E+03  0.25500000920E-02 0.  1.
</event>
<event>
 5   0  0.1833681E-04  0.1400099E+04  0.7818609E-02  0.8953747E-01
       -2   -1    0    0    0  501  0.00000000000E+00  0.00000000000E+00  0.80860563690E+03  0.80860563690E+03  0.25500000920E-02 0.  1.
        2   -1    0    0  501    0  0.00000000000E+00  0.00000000000E+00 -0.60606753781E+03  0.60606753781E+03  0.25500000920E-02 0. -1.
    10030    2    1    2    0    0  0.00000000000E+00  0.00000000000E+00  0.20253809909E+03  0.14146731747E+04  0.14000994642E+04 0.  0.
        4    1    3    3  502    0  0.39731236641E+03 -0.76970811101E+02 -0.47589159535E+03  0.62470476682E+03  0.12699999809E+01 0. -1.
       -4    1    3    3    0  502 -0.39731236641E+03  0.76970811101E+02  0.67842969445E+03  0.78996840789E+03  0.12699999809E+01 0.  1.
</event>
<event>
 5   0  0.1766237E-04  0.1400042E+04  0.7818609E-02  0.8953788E-01
       -2   -1    0    0    0  501  0.00000000000E+00  0.00000000000E+00  0.30362587111E+03  0.30362587112E+03  0.25500000920E-02 0.  1.
        2   -1    0    0  501    0  0.00000000000E+00  0.00000000000E+00 -0.16139261798E+04  0.16139261798E+04  0.25500000920E-02 0. -1.
    10030    2    1    2    0    0  0.00000000000E+00  0.00000000000E+00 -0.13103003087E+04  0.19175520509E+04  0.14000424883E+04 0.  0.
        3    1    3    3  502    0  0.26876865879E+03 -0.25926994672E+02 -0.15397297905E+04  0.15632263556E+04  0.10100000352E+00 0. -1.
       -3    1    3    3    0  502 -0.26876865879E+03  0.25926994672E+02  0.22942948182E+03  0.35432569527E+03  0.10100000352E+00 0.  1.
</event>
<event>
 5   0  0.9900839E-05  0.1389684E+04  0.7818609E-02  0.8961320E-01
        1   -1    0    0  501    0  0.00000000000E+00  0.00000000000E+00  0.10134311690E+04  0.10134311690E+04  0.50400001928E-02 0.  1.
       -1   -1    0    0    0  501  0.00000000000E+00  0.00000000000E+00 -0.47640693748E+03  0.47640693751E+03  0.50400001928E-02 0. -1.
    10030    2    1    2    0    0  0.00000000000E+00  0.00000000000E+00  0.53702423151E+03  0.14898381065E+04  0.13896843377E+04 0.  0.
        3    1    3    3  502    0 -0.46831123397E+02 -0.27266030446E+03  0.95184082754E+03  0.99123043079E+03  0.10100000352E+00 0.  1.
       -3    1    3    3    0  502  0.46831123397E+02  0.27266030446E+03 -0.41481659604E+03  0.49860767573E+03  0.10100000352E+00 0. -1.
</event>
<event>
 5   0  0.1794185E-04  0.1398843E+04  0.7818609E-02  0.8954656E-01
        2   -1    0    0  501    0  0.00000000000E+00  0.00000000000E+00  0.40276718990E+03  0.40276718991E+03  0.25500000920E-02 0. -1.
       -2   -1    0    0    0  501  0.00000000000E+00  0.00000000000E+00 -0.12145743367E+04  0.12145743367E+04  0.25500000920E-02 0.  1.
    10030    2    1    2    0    0  0.00000000000E+00  0.00000000000E+00 -0.81180714680E+03  0.16173415266E+04  0.13988433687E+04 0.  0.
        2    1    3    3  502    0 -0.38090415408E+03  0.55690417240E+03 -0.19283498154E+03  0.70172328017E+03  0.25500000920E-02 0. -1.
       -2    1    3    3    0  502  0.38090415408E+03 -0.55690417240E+03 -0.61897216527E+03  0.91561824644E+03  0.25500000920E-02 0.  1.
</event>
<event>
 5   0  0.6671375E-05  0.1399110E+04  0.7818609E-02  0.8954463E-01
       -1   -1    0    0    0  501  0.00000000000E+00  0.00000000000E+00  0.33789270948E+03  0.33789270952E+03  0.50400001928E-02 0.  1.
        1   -1    0    0  501    0  0.00000000000E+00  0.00000000000E+00 -0.14483204589E+04  0.14483204589E+04  0.50400001928E-02 0. -1.
    10030    2    1    2    0    0  0.00000000000E+00  0.00000000000E+00 -0.11104277494E+04  0.17862131684E+04  0.13991096084E+04 0.  0.
        5    1    3    3  502    0  0.26010738257E+03 -0.26640626116E+03  0.20086299912E+03  0.42307940256E+03  0.46999998093E+01 0.  1.
       -5    1    3    3    0  502 -0.26010738257E+03  0.26640626116E+03 -0.13112907485E+04  0.13631337659E+04  0.46999998093E+01 0. -1.
</event>
<event>
 5   0  0.9828111E-05  0.1400839E+04  0.7818609E-02  0.8953212E-01
        1   -1    0    0  501    0  0.00000000000E+00  0.00000000000E+00  0.13107848724E+04  0.13107848724E+04  0.50400001928E-02 0.  1.
       -1   -1    0    0    0  501  0.00000000000E+00  0.00000000000E+00 -0.37426997139E+03  0.37426997143E+03  0.50400001928E-02 0. -1.
    10030    2    1    2    0    0  0.00000000000E+00  0.00000000000E+00  0.93651490102E+03  0.16850548439E+04  0.14008389154E+04 0.  0.
        4    1    3    3  502    0 -0.67674049129E+03 -0.10899951890E+03  0.64143689048E+03  0.93877658952E+03  0.12699999809E+01 0. -1.
       -4    1    3    3    0  502  0.67674049129E+03  0.10899951890E+03  0.29507801055E+03  0.74627825433E+03  0.12699999809E+01 0.  1.
</event>
<event>
 5   0  0.1794185E-04  0.1402311E+04  0.7818609E-02  0.8952147E-01
       -2   -1    0    0    0  501  0.00000000000E+00  0.00000000000E+00  0.27046561116E+03  0.27046561117E+03  0.25500000920E-02 0.  1.
        2   -1    0    0  501    0  0.00000000000E+00  0.00000000000E+00 -0.18176771000E+04  0.18176771000E+04  0.25500000920E-02 0. -1.
    10030    2    1    2    0    0  0.00000000000E+00  0.00000000000E+00 -0.15472114888E+04  0.20881427111E+04  0.14023111605E+04 0.  0.
        2    1    3    3  502    0  0.31360614274E+03  0.55406969494E+03 -0.33622105555E+03  0.71999072065E+03  0.25500000920E-02 0.  1.
       -2    1    3    3    0  502 -0.31360614274E+03 -0.55406969494E+03 -0.12109904333E+04  0.13681519905E+04  0.25500000920E-02 0. -1.
</event>
<event>
 5   0  0.6671375E-05  0.1380740E+04  0.7818609E-02  0.8967879E-01
        1   -1    0    0  501    0  0.00000000000E+00  0.00000000000E+00  0.44581698866E+03  0.44581698869E+03  0.50400001928E-02 0. -1.
       -1   -1    0    0    0  501  0.00000000000E+00  0.00000000000E+00 -0.10690729842E+04  0.10690729842E+04  0.50400001928E-02 0.  1.
    10030    2    1    2    0    0  0.00000000000E+00  0.00000000000E+00 -0.62325599554E+03  0.15148899729E+04  0.13807402341E+04 0.  0.
        5    1    3    3  502    0  0.64963211705E+03 -0.22896102096E+03 -0.36242737583E+03  0.77834486532E+03  0.46999998093E+01 0. -1.
       -5    1    3    3    0  502 -0.64963211705E+03  0.22896102096E+03 -0.26082861971E+03  0.73654510757E+03  0.46999998093E+01 0.  1.
</event>
<event>
 5   0  0.6671375E-05  0.1417985E+04  0.7818609E-02  0.8940902E-01
        1   -1    0    0  501    0  0.00000000000E+00  0.00000000000E+00  0.16421818567E+04  0.16421818567E+04  0.50400001928E-02 0. -1.
       -1   -1    0    0    0  501  0.00000000000E+00  0.00000000000E+00 -0.30609898719E+03  0.30609898723E+03  0.50400001928E-02 0.  1.
    10030    2    1    2    0    0  0.00000000000E+00  0.00000000000E+00  0.13360828695E+04  0.19482808439E+04  0.14179847716E+04 0.  0.
        5    1    3    3  502    0 -0.10187603639E+03  0.29165297899E+03  0.15448163278E+04  0.15754109825E+04  0.46999998093E+01 0. -1.
       -5    1    3    3    0  502  0.10187603639E+03 -0.29165297899E+03 -0.20873345834E+03  0.37286986144E+03  0.46999998093E+01 0.  1.
</event>
<event>
 5   0  0.9900839E-05  0.1402318E+04  0.7818609E-02  0.8952142E-01
       -1   -1    0    0    0  501  0.00000000000E+00  0.00000000000E+00  0.48002645364E+03  0.48002645366E+03  0.50400001928E-02 0. -1.
        1   -1    0    0  501    0  0.00000000000E+00  0.00000000000E+00 -0.10241602846E+04  0.10241602847E+04  0.50400001928E-02 0.  1.
    10030    2    1    2    0    0  0.00000000000E+00  0.00000000000E+00 -0.54413383101E+03  0.15041867383E+04  0.14023181229E+04 0.  0.
        3    1    3    3  502    0  0.35495660488E+03 -0.15529337717E+03 -0.89891071481E+03  0.97885172919E+03  0.10100000352E+00 0.  1.
       -3    1    3    3    0  502 -0.35495660488E+03  0.15529337717E+03  0.35477688380E+03  0.52533500913E+03  0.10100000352E+00 0. -1.
</event>
<event>
 5   0  0.9978422E-05  0.1400337E+04  0.7818609E-02  0.8953575E-01
       -1   -1    0    0    0  501  0.00000000000E+00  0.00000000000E+00  0.68131946449E+03  0.68131946451E+03  0.50400001928E-02 0. -1.
        1   -1    0    0  501    0  0.00000000000E+00  0.00000000000E+00 -0.71953917644E+03  0.71953917645E+03  0.50400001928E-02 0.  1.
    10030    2    1    2    0    0  0.00000000000E+00  0.00000000000E+00 -0.38219711944E+02  0.14008586410E+04  0.14003371685E+04 0.  0.
        2    1    3    3  502    0  0.10044276112E+02  0.61678997904E+03  0.31223136138E+03  0.69138931779E+03  0.25500000920E-02 0. -1.
       -2    1    3    3    0  502 -0.10044276112E+02 -0.61678997904E+03 -0.35045107333E+03  0.70946932317E+03  0.25500000920E-02 0.  1.
</event>
<event>
 5   0  0.1780171E-04  0.1399361E+04  0.7818609E-02  0.8954281E-01
       -2   -1    0    0    0  501  0.00000000000E+00  0.00000000000E+00  0.47839774572E+03  0.47839774573E+03  0.25500000920E-02 0.  1.
        2   -1    0    0  501    0  0.00000000000E+00  0.00000000000E+00 -0.10233174740E+04  0.10233174740E+04  0.25500000920E-02 0. -1.
    10030    2    1    2    0    0  0.00000000000E+00  0.00000000000E+00 -0.54491972832E+03  0.15017152198E+04  0.13993609581E+04 0.  0.
        5    1    3    3  502    0  0.21771882673E+02  0.50521165627E+03  0.24645565696E+03  0.56256138629E+03  0.46999998093E+01 0.  1.
       -5    1    3    3    0  502 -0.21771882673E+02 -0.50521165627E+03 -0.79137538528E+03  0.93915383347E+03  0.46999998093E+01 0. -1.
</event>
<event>
 5   0  0.9828111E-05  0.1402266E+04  0.7818609E-02  0.8952180E-01
        1   -1    0    0  501    0  0.00000000000E+00  0.00000000000E+00  0.91835848765E+03  0.91835848766E+03  0.50400001928E-02 0. -1.
       -1   -1    0    0    0  501  0.00000000000E+00  0.00000000000E+00 -0.53528937856E+03  0.53528937858E+03  0.50400001928E-02 0.  1.
    10030    2    1    2    0    0  0.00000000000E+00  0.00000000000E+00  0.38306910909E+03  0.14536478662E+04  0.14022660863E+04 0.  0.
        4    1    3    3  502    0  0.50381460302E+03 -0.47034793816E+03  0.32481298795E+03  0.76194581644E+03  0.12699999809E+01 0. -1.
       -4    1    3    3    0  502 -0.50381460302E+03  0.47034793816E+03  0.58256121142E+02  0.69170204980E+03  0.12699999809E+01 0.  1.
</event>
<event>
 5   0  0.6671375E-05  0.1397293E+04  0.7818609E-02  0.8955780E-01
        1   -1    0    0  501    0  0.00000000000E+00  0.00000000000E+00  0.63933896530E+03  0.63933896532E+03  0.50400001928E-02 0. -1.
       -1   -1    0    0    0  501  0.00000000000E+00  0.00000000000E+00 -0.76345616122E+03  0.76345616124E+03  0.50400001928E-02 0.  1.
    10030    2    1    2    0    0  0.00000000000E+00  0.00000000000E+00 -0.12411719592E+03  0.14027951266E+04  0.13972934870E+04 0.  0.
        5    1    3    3  502    0  0.39534783102E+03  0.93105924446E+02 -0.63273014932E+03  0.75188972098E+03  0.46999998093E+01 0.  1.
       -5    1    3    3    0  502 -0.39534783102E+03 -0.93105924446E+02  0.50861295340E+03  0.65090540558E+03  0.46999998093E+01 0. -1.
</event>
<event>
 5   0  0.1794185E-04  0.1410692E+04  0.7818609E-02  0.8946115E-01
       -2   -1    0    0    0  501  0.00000000000E+00  0.00000000000E+00  0.81536588063E+03  0.81536588063E+03  0.25500000920E-02 0.  1.
        2   -1    0    0  501    0  0.00000000000E+00  0.00000000000E+00 -0.61017164997E+03  0.61017164997E+03  0.25500000920E-02 0. -1.
    10030    2    1    2    0    0  0.00000000000E+00  0.00000000000E+00  0.20519423066E+03  0.14255375306E+04  0.14106922339E+04 0.  0.
        2    1    3    3  502    0 -0.26392273833E+03  0.29167190311E+03 -0.48904292717E+03  0.62760711874E+03  0.25500000920E-02 0. -1.
       -2    1    3    3    0  502  0.26392273833E+03 -0.29167190311E+03  0.69423715782E+03  0.79793041187E+03  0.25500000920E-02 0.  1.
</event>
<event>
 5   0  0.9978422E-05  0.1400608E+04  0.7818609E-02  0.8953379E-01
        1   -1    0    0  501    0  0.00000000000E+00  0.00000000000E+00  0.94896272378E+03  0.94896272380E+03  0.50400001928E-02 0. -1.
       -1   -1    0    0    0  501  0.00000000000E+00  0.00000000000E+00 -0.51680189801E+03  0.51680189803E+03  0.50400001928E-02 0.  1.
    10030    2    1    2    0    0  0.00000000000E+00  0.00000000000E+00  0.43216082578E+03  0.14657646218E+04  0.14006080634E+04 0.  0.
        2    1    3    3  502    0 -0.14798949004E+03  0.26944025232E+01  0.93240616139E+03  0.94408124585E+03  0.25500000920E-02 0. -1.
       -2    1    3    3    0  502  0.14798949004E+03 -0.26944025232E+01 -0.50024533561E+03  0.52168337598E+03  0.25500000920E-02 0.  1.
</event>
<event>
 5   0  0.1780171E-04  0.1393505E+04  0.7818609E-02  0.8958533E-01
       -2   -1    0    0    0  501  0.00000000000E+00  0.00000000000E+00  0.24958901638E+03  0.24958901640E+03  0.25500000920E-02 0.  1.
        2   -1    0    0  501    0  0.00000000000E+00  0.00000000000E+00 -0.19450544695E+04  0.19450544695E+04  0.25500000920E-02 0. -1.
    10030    2    1    2    0    0  0.00000000000E+00  0.00000000000E+00 -0.16954654531E+04  0.21946434859E+04  0.13935052664E+04 0.  0.
        5    1    3    3  502    0  0.61748029914E+03  0.16123027140E+03 -0.12880458119E+04  0.14374843386E+04  0.46999998093E+01 0. -1.
       -5    1    3    3    0  502 -0.61748029914E+03 -0.16123027140E+03 -0.40741964121E+03  0.75715914726E+03  0.46999998093E+01 0.  1.
</event>
<event>
 5   0  0.9260916E-05  0.1399009E+04  0.7818609E-02  0.8954536E-01
       -1   -1    0    0    0  501  0.00000000000E+00  0.00000000000E+00  0.41965738135E+03  0.41965738139E+03  0.50400001928E-02 0. -1.
        1   -1    0    0  501    0  0.00000000000E+00  0.00000000000E+00 -0.11659667533E+04  0.11659667533E+04  0.50400001928E-02 0.  1.
    10030    2    1    2    0    0  0.00000000000E+00  0.00000000000E+00 -0.74630937195E+03  0.15856241347E+04  0.13990090128E+04 0.  0.
        1    1    3    3  502    0 -0.37341859273E+03  0.17450839210E+03  0.26739865660E+03  0.49132134686E+03  0.50400001928E-02 0. -1.
       -1    1    3    3    0  502  0.37341859273E+03 -0.17450839210E+03 -0.10137080286E+04  0.10943027878E+04  0.50400001928E-02 0.  1.
</event>
<event>
 5   0  0.1766237E-04  0.1401346E+04  0.7818609E-02  0.8952845E-01
       -2   -1    0    0    0  501  0.00000000000E+00  0.00000000000E+00  0.83761593491E+03  0.83761593492E+03  0.25500000920E-02 0. -1.
        2   -1    0    0  501    0  0.00000000000E+00  0.00000000000E+00 -0.58611939449E+03  0.58611939449E+03  0.25500000920E-02 0.  1.
    10030    2    1    2    0    0  0.00000000000E+00  0.00000000000E+00  0.25149654043E+03  0.14237353294E+04  0.14013464163E+04 0.  0.
        3    1    3    3  502    0  0.35683606239E+03  0.51664546662E+03  0.44166380929E+03  0.76767274554E+03  0.10100000352E+00 0. -1.
       -3    1    3    3    0  502 -0.35683606239E+03 -0.51664546662E+03 -0.19016726886E+03  0.65606258387E+03  0.10100000352E+00 0.  1.
</event>
<event>
 5   0  0.1780171E-04  0.1401656E+04  0.7818609E-02  0.8952621E-01
       -2   -1    0    0    0  501  0.00000000000E+00  0.00000000000E+00  0.37094705748E+03  0.37094705748E+03  0.25500000920E-02 0. -1.
        2   -1    0    0  501    0  0.00000000000E+00  0.00000000000E+00 -0.13240703341E+04  0.13240703341E+04  0.25500000920E-02 0.  1.
    10030    2    1    2    0    0  0.00000000000E+00  0.00000000000E+00 -0.95312327658E+03  0.16950173915E+04  0.14016561552E+04 0.  0.
        5    1    3    3  502    0  0.64598020312E+03 -0.20344449905E+03 -0.25869420059E+03  0.72499990789E+03  0.46999998093E+01 0. -1.
       -5    1    3    3    0  502 -0.64598020312E+03  0.20344449905E+03 -0.69442907599E+03  0.97001748365E+03  0.46999998093E+01 0.  1.
</event>
<event>
 5   0  0.9260916E-05  0.1394320E+04  0.7818609E-02  0.8957940E-01
       -1   -1    0    0    0  501  0.00000000000E+00  0.00000000000E+00  0.47864378982E+03  0.47864378984E+03  0.50400001928E-02 0.  1.
        1   -1    0    0  501    0  0.00000000000E+00  0.00000000000E+00 -0.10154363414E+04  0.10154363414E+04  0.50400001928E-02 0. -1.
    10030    2    1    2    0    0  0.00000000000E+00  0.00000000000E+00 -0.53679255157E+03  0.14940801312E+04  0.13943203345E+04 0.  0.
        1    1    3    3  502    0 -0.24259224784E+03  0.65298787652E+03 -0.23831396921E+03  0.73623210575E+03  0.50400001928E-02 0. -1.
       -1    1    3    3    0  502  0.24259224784E+03 -0.65298787652E+03 -0.29847858236E+03  0.75784802549E+03  0.50400001928E-02 0.  1.
</event>
<event>
 5   0  0.1794185E-04  0.1398769E+04  0.7818609E-02  0.8954710E-01
       -2   -1    0    0    0  501  0.00000000000E+00  0.00000000000E+00  0.29767625779E+03  0.29767625780E+03  0.25500000920E-02 0. -1.
        2   -1    0    0  501    0  0.00000000000E+00  0.00000000000E+00 -0.16431902465E+04  0.16431902465E+04  0.25500000920E-02 0.  1.
    10030    2    1    2    0    0  0.00000000000E+00  0.00000000000E+00 -0.13455139887E+04  0.19408665043E+04  0.13987690638E+04 0.  0.
        2    1    3    3  502    0  0.97293525085E+02 -0.42071679408E+03  0.90611772523E+02  0.44122459607E+03  0.25500000920E-02 0. -1.
       -2    1    3    3    0  502 -0.97293525085E+02  0.42071679408E+03 -0.14361257613E+04  0.14996419083E+04  0.25500000920E-02 0.  1.
</event>
<event>
 5   0  0.1780171E-04  0.1399626E+04  0.7818609E-02  0.8954089E-01
        2   -1    0    0  501    0  0.00000000000E+00  0.00000000000E+00  0.14611639304E+04  0.14611639304E+04  0.25500000920E-02 0. -1.
       -2   -1    0    0    0  501  0.00000000000E+00  0.00000000000E+00 -0.33516997452E+03  0.33516997453E+03  0.25500000920E-02 0.  1.
    10030    2    1    2    0    0  0.00000000000E+00  0.00000000000E+00  0.11259939559E+04  0.17963339049E+04  0.13996260605E+04 0.  0.
        5    1    3    3  502    0 -0.61398612926E+03  0.30550845051E+03  0.74176759444E+03  0.10102255364E+04  0.46999998093E+01 0. -1.
       -5    1    3    3    0  502  0.61398612926E+03 -0.30550845051E+03  0.38422636146E+03  0.78610836854E+03  0.46999998093E+01 0.  1.
</event>
<event>
 5   0  0.9978422E-05  0.1415567E+04  0.7818609E-02  0.8942627E-01
       -1   -1    0    0    0  501  0.00000000000E+00  0.00000000000E+00  0.38258645484E+03  0.38258645487E+03  0.50400001928E-02 0.  1.
        1   -1    0    0  501    0  0.00000000000E+00  0.00000000000E+00 -0.13093968456E+04  0.13093968456E+04  0.50400001928E-02 0. -1.
    10030    2    1    2    0    0  0.00000000000E+00  0.00000000000E+00 -0.92681039076E+03  0.16919833005E+04  0.14155670202E+04 0.  0.
        2    1    3    3  502    0  0.23465543056E+03  0.37996727381E+03 -0.11197365019E+04  0.12055074176E+04  0.25500000920E-02 0. -1.
       -2    1    3    3    0  502 -0.23465543056E+03 -0.37996727381E+03  0.19292611112E+03  0.48647588287E+03  0.25500000920E-02 0.  1.
</event>
<event>
 5   0  0.1780171E-04  0.1401263E+04  0.7818609E-02  0.8952905E-01
        2   -1    0    0  501    0  0.00000000000E+00  0.00000000000E+00  0.94596958433E+03  0.94596958433E+03  0.25500000920E-02 0.  1.
       -2   -1    0    0    0  501  0.00000000000E+00  0.00000000000E+00 -0.51892200284E+03  0.51892200284E+03  0.25500000920E-02 0. -1.
    10030    2    1    2    0    0  0.00000000000E+00  0.00000000000E+00  0.42704758149E+03  0.14648915872E+04  0.14012629037E+04 0.  0.
        5    1    3    3  502    0  0.48629568697E+03 -0.49459704958E+03  0.31676335690E+03  0.76254236007E+03  0.46999998093E+01 0.  1.
       -5    1    3    3    0  502 -0.48629568697E+03  0.49459704958E+03  0.11028422459E+03  0.70234922711E+03  0.46999998093E+01 0. -1.
</event>
<event>
 5   0  0.9828111E-05  0.1407682E+04  0.7818609E-02  0.8948277E-01
        1   -1    0    0  501    0  0.00000000000E+00  0.00000000000E+00  0.91162631359E+03  0.91162631360E+03  0.50400001928E-02 0. -1.
       -1   -1    0    0    0  501  0.00000000000E+00  0.00000000000E+00 -0.54341559322E+03  0.54341559324E+03  0.50400001928E-02 0.  1.
    10030    2    1    2    0    0  0.00000000000E+00  0.00000000000E+00  0.36821072037E+03  0.14550419068E+04  0.14076817169E+04 0.  0.
        4    1    3    3  502    0 -0.51409465889E+02  0.63340829710E+03  0.49684264227E+03  0.80666178049E+03  0.12699999809E+01 0. -1.
       -4    1    3    3    0  502  0.51409465889E+02 -0.63340829710E+03 -0.12863192190E+03  0.64838012636E+03  0.12699999809E+01 0.  1.
</event>
<event>
 5   0  0.6671375E-05  0.1400455E+04  0.7818609E-02  0.8953490E-01
       -1   -1    0    0    0  501  0.00000000000E+00  0.00000000000E+00  0.41420708198E+03  0.41420708201E+03  0.50400001928E-02 0.  1.
        1   -1    0    0  501    0  0.00000000000E+00  0.00000000000E+00 -0.11837515479E+04  0.11837515479E+04  0.50400001928E-02 0. -1.
    10030    2    1    2    0    0  0.00000000000E+00  0.00000000000E+00 -0.76954446592E+03  0.15979586299E+04  0.14004546040E+04 0.  0.
        5    1    3    3  502    0 -0.44861424333E+03 -0.53653345822E+03 -0.42385630481E+03  0.81780141125E+03  0.46999998093E+01 0.  1.
       -5    1    3    3    0  502  0.44861424333E+03  0.53653345822E+03 -0.34568816111E+03  0.78015721867E+03  0.46999998093E+01 0. -1.
</event>
<event>
 5   0  0.6671375E-05  0.1399576E+04  0.7818609E-02  0.8954125E-01
       -1   -1    0    0    0  501  0.00000000000E+00  0.00000000000E+00  0.27628260133E+03  0.27628260138E+03  0.50400001928E-02 0.  1.
        1   -1    0    0  501    0  0.00000000000E+00  0.00000000000E+00 -0.17724733969E+04  0.17724733969E+04  0.50400001928E-02 0. -1.
    10030    2    1    2    0    0  0.00000000000E+00  0.00000000000E+00 -0.14961907955E+04  0.20487559983E+04  0.13995764515E+04 0.  0.
        5    1    3    3  502    0  0.28541809724E+03  0.60243386908E+03 -0.10596266004E+04  0.12518868475E+04  0.46999998093E+01 0. -1.
       -5    1    3    3    0  502 -0.28541809724E+03 -0.60243386908E+03 -0.43656419516E+03  0.79686915070E+03  0.46999998093E+01 0.  1.
</event>
<event>
 5   0  0.6671375E-05  0.1399778E+04  0.7818609E-02  0.8953980E-01
        1   -1    0    0  501    0  0.00000000000E+00  0.00000000000E+00  0.13698493846E+04  0.13698493846E+04  0.50400001928E-02 0. -1.
       -1   -1    0    0    0  501  0.00000000000E+00  0.00000000000E+00 -0.35758991997E+03  0.35758992001E+03  0.50400001928E-02 0.  1.
    10030    2    1    2    0    0  0.00000000000E+00  0.00000000000E+00  0.10122594647E+04  0.17274393046E+04  0.13997775993E+04 0.  0.
        5    1    3    3  502    0  0.43726373656E+03  0.52826451282E+03  0.67872150540E+03  0.96485643631E+03  0.46999998093E+01 0. -1.
       -5    1    3    3    0  502 -0.43726373656E+03 -0.52826451282E+03  0.33353795926E+03  0.76258286834E+03  0.46999998093E+01 0.  1.
</event>
<event>
 5   0  0.1766237E-04  0.1403070E+04  0.7818609E-02  0.8951600E-01
        2   -1    0    0  501    0  0.00000000000E+00  0.00000000000E+00  0.14685688307E+04  0.14685688307E+04  0.25500000920E-02 0. -1.
       -2   -1    0    0    0  501  0.00000000000E+00  0.00000000000E+00 -0.33512287919E+03  0.33512287920E+03  0.25500000920E-02 0.  1.
    10030    2    1    2    0    0  0.00000000000E+00  0.00000000000E+00  0.11334459515E+04  0.18036917099E+04  0.14030695134E+04 0.  0.
        3    1    3    3  502    0 -0.23547029000E+03 -0.10299491395E+03  0.14058684464E+04  0.14291676978E+04  0.10100000352E+00 0. -1.
       -3    1    3    3    0  502  0.23547029000E+03  0.10299491395E+03 -0.27242249482E+03  0.37452401213E+03  0.10100000352E+00 0.  1.
</event>
<event>
 5   0  0.6671375E-05  0.1398287E+04  0.7818609E-02  0.8955059E-01
       -1   -1    0    0    0  501  0.00000000000E+00  0.00000000000E+00  0.29712232753E+03  0.29712232757E+03  0.50400001928E-02 0.  1.
        1   -1    0    0  501    0  0.00000000000E+00  0.00000000000E+00 -0.16451196131E+04  0.16451196131E+04  0.50400001928E-02 0. -1.
    10030    2    1    2    0    0  0.00000000000E+00  0.00000000000E+00 -0.13479972856E+04  0.19422419407E+04  0.13982871930E+04 0.  0.
        5    1    3    3  502    0  0.47002343801E+03  0.50694009915E+03 -0.81881225177E+03  0.10716276826E+04  0.46999998093E+01 0.  1.
       -5    1    3    3    0  502 -0.47002343801E+03 -0.50694009915E+03 -0.52918503380E+03  0.87061425810E+03  0.46999998093E+01 0. -1.
</event>
<event>
 5   0  0.6671375E-05  0.1397034E+04  0.7818609E-02  0.8955968E-01
       -1   -1    0    0    0  501  0.00000000000E+00  0.00000000000E+00  0.63001046930E+03  0.63001046932E+03  0.50400001928E-02 0. -1.
        1   -1    0    0  501    0  0.00000000000E+00  0.00000000000E+00 -0.77447265474E+03  0.77447265475E+03  0.50400001928E-02 0.  1.
    10030    2    1    2    0    0  0.00000000000E+00  0.00000000000E+00 -0.14446218544E+03  0.14044831241E+04  0.13970338302E+04 0.  0.
        5    1    3    3  502    0 -0.45180078258E+03  0.43807872782E+03  0.23248056248E+03  0.67089956092E+03  0.46999998093E+01 0.  1.
       -5    1    3    3    0  502  0.45180078258E+03 -0.43807872782E+03 -0.37694274792E+03  0.73358356315E+03  0.46999998093E+01 0. -1.
</event>
<event>
 5   0  0.1766237E-04  0.1400556E+04  0.7818609E-02  0.8953416E-01
       -2   -1    0    0    0  501  0.00000000000E+00  0.00000000000E+00  0.74372577892E+03  0.74372577893E+03  0.25500000920E-02 0.  1.
        2   -1    0    0  501    0  0.00000000000E+00  0.00000000000E+00 -0.65936884084E+03  0.65936884084E+03  0.25500000920E-02 0. -1.
    10030    2    1    2    0    0  0.00000000000E+00  0.00000000000E+00  0.84356938086E+02  0.14030946198E+04  0.14005564676E+04 0.  0.
        3    1    3    3  502    0 -0.49998765443E+03 -0.39351962719E+03  0.33518798812E+03  0.71916364560E+03  0.10100000352E+00 0. -1.
       -3    1    3    3    0  502  0.49998765443E+03  0.39351962719E+03 -0.25083105004E+03  0.68393097417E+03  0.10100000352E+00 0.  1.
</event>
<event>
 5   0  0.1712327E-04  0.1399856E+04  0.7818609E-02  0.8953923E-01
        2   -1    0    0  501    0  0.00000000000E+00  0.00000000000E+00  0.19244384172E+04  0.19244384172E+04  0.25500000920E-02 0.  1.
       -2   -1    0    0    0  501  0.00000000000E+00  0.00000000000E+00 -0.25456747335E+03  0.25456747336E+03  0.25500000920E-02 0. -1.
    10030    2    1    2    0    0  0.00000000000E+00  0.00000000000E+00  0.16698709438E+04  0.21790058905E+04  0.13998563148E+04 0.  0.
        1    1    3    3  502    0 -0.14317653204E+03  0.68510515343E+03  0.82629184279E+03  0.10828789406E+04  0.50400001928E-02 0. -1.
       -1    1    3    3    0  502  0.14317653204E+03 -0.68510515343E+03  0.84357910102E+03  0.10961269499E+04  0.50400001928E-02 0.  1.
</event>
<event>
 5   0  0.1833681E-04  0.1401006E+04  0.7818609E-02  0.8953090E-01
       -2   -1    0    0    0  501  0.00000000000E+00  0.00000000000E+00  0.24578766027E+03  0.24578766028E+03  0.25500000920E-02 0. -1.
        2   -1    0    0  501    0  0.00000000000E+00  0.00000000000E+00 -0.19964580874E+04  0.19964580874E+04  0.25500000920E-02 0.  1.
    10030    2    1    2    0    0  0.00000000000E+00  0.00000000000E+00 -0.17506704272E+04  0.22422457477E+04  0.14010064413E+04 0.  0.
        4    1    3    3  502    0 -0.11433325417E+03  0.42789918309E+03 -0.17439161878E+04  0.17992818253E+04  0.12699999809E+01 0.  1.
       -4    1    3    3    0  502  0.11433325417E+03 -0.42789918309E+03 -0.67542393432E+01  0.44296392240E+03  0.12699999809E+01 0. -1.
</event>
<event>
 5   0  0.9978422E-05  0.1402050E+04  0.7818609E-02  0.8952336E-01
       -1   -1    0    0    0  501  0.00000000000E+00  0.00000000000E+00  0.16325843011E+04  0.16325843011E+04  0.50400001928E-02 0.  1.
        1   -1    0    0  501    0  0.00000000000E+00  0.00000000000E+00 -0.30101731481E+03  0.30101731485E+03  0.50400001928E-02 0. -1.
    10030    2    1    2    0    0  0.00000000000E+00  0.00000000000E+00  0.13315669863E+04  0.19336016159E+04  0.14020501311E+04 0.  0.
        2    1    3    3  502    0  0.85900725679E+02  0.69141261890E+03  0.77266161897E+03  0.10404020000E+04  0.25500000920E-02 0. -1.
       -2    1    3    3    0  502 -0.85900725679E+02 -0.69141261890E+03  0.55890536730E+03  0.89319961590E+03  0.25500000920E-02 0.  1.
</event>
<event>
 5   0  0.1780171E-04  0.1399810E+04  0.7818609E-02  0.8953956E-01
       -2   -1    0    0    0  501  0.00000000000E+00  0.00000000000E+00  0.12593746296E+04  0.12593746296E+04  0.25500000920E-02 0. -1.
        2   -1    0    0  501    0  0.00000000000E+00  0.00000000000E+00 -0.38897625542E+03  0.38897625543E+03  0.25500000920E-02 0.  1.
    10030    2    1    2    0    0  0.00000000000E+00  0.00000000000E+00  0.87039837416E+03  0.16483508850E+04  0.13998097408E+04 0.  0.
        5    1    3    3  502    0 -0.51526808330E+03 -0.23858280519E+03 -0.46622826556E+02  0.56975321899E+03  0.46999998093E+01 0.  1.
       -5    1    3    3    0  502  0.51526808330E+03  0.23858280519E+03  0.91702120072E+03  0.10785976660E+04  0.46999998093E+01 0. -1.
</event>
<event>
 5   0  0.9828111E-05  0.1398607E+04  0.7818609E-02  0.8954827E-01
       -1   -1    0    0    0  501  0.00000000000E+00  0.00000000000E+00  0.64272191907E+03  0.64272191909E+03  0.50400001928E-02 0.  1.
        1   -1    0    0  501    0  0.00000000000E+00  0.00000000000E+00 -0.76086621109E+03  0.76086621111E+03  0.50400001928E-02 0. -1.
    10030    2    1    2    0    0  0.00000000000E+00  0.00000000000E+00 -0.11814429202E+03  0.14035881302E+04  0.13986070090E+04 0.  0.
        4    1    3    3  502    0  0.42899506821E+03 -0.27131188252E+03  0.42365748722E+03  0.66116124018E+03  0.12699999809E+01 0.  1.
       -4    1    3    3    0  502 -0.42899506821E+03  0.27131188252E+03 -0.54180177924E+03  0.74242689002E+03  0.12699999809E+01 0. -1.
</event>
<event>
 5   0  0.1712327E-04  0.1382469E+04  0.7818609E-02  0.8966607E-01
        2   -1    0    0  501    0  0.00000000000E+00  0.00000000000E+00  0.13750935611E+04  0.13750935611E+04  0.25500000920E-02 0.  1.
       -2   -1    0    0    0  501  0.00000000000E+00  0.00000000000E+00 -0.34747119643E+03  0.34747119643E+03  0.25500000920E-02 0. -1.
    10030    2    1    2    0    0  0.00000000000E+00  0.00000000000E+00  0.10276223647E+04  0.17225647575E+04  0.13824693919E+04 0.  0.
        1    1    3    3  502    0 -0.56771715640E+03  0.10616908800E+03  0.98701580523E+03  0.11435798375E+04  0.50400001928E-02 0. -1.
       -1    1    3    3    0  502  0.56771715640E+03 -0.10616908800E+03  0.40606559426E+02  0.57898492003E+03  0.50400001928E-02 0.  1.
</event>
<event>
 5   0  0.1780171E-04  0.1388682E+04  0.7818609E-02  0.8962052E-01
       -2   -1    0    0    0  501  0.00000000000E+00  0.00000000000E+00  0.27500595785E+03  0.27500595786E+03  0.25500000920E-02 0. -1.
        2   -1    0    0  501    0  0.00000000000E+00  0.00000000000E+00 -0.17530872702E+04  0.17530872702E+04  0.25500000920E-02 0.  1.
    10030    2    1    2    0    0  0.00000000000E+00  0.00000000000E+00 -0.14780813123E+04  0.20280932281E+04  0.13886820283E+04 0.  0.
        5    1    3    3  502    0 -0.23033748795E+03 -0.19961975416E+03 -0.16501333422E+04  0.16780540937E+04  0.46999998093E+01 0.  1.
       -5    1    3    3    0  502  0.23033748795E+03  0.19961975416E+03  0.17205202981E+03  0.35003913433E+03  0.46999998093E+01 0. -1.
</event>
<event>
 5   0  0.1794185E-04  0.1421865E+04  0.7818609E-02  0.8938142E-01
       -2   -1    0    0    0  501  0.00000000000E+00  0.00000000000E+00  0.69866291836E+03  0.69866291837E+03  0.25500000920E-02 0. -1.
        2   -1    0    0  501    0  0.00000000000E+00  0.00000000000E+00 -0.72341734028E+03  0.72341734028E+03  0.25500000920E-02 0.  1.
    10030    2    1    2    0    0  0.00000000000E+00  0.00000000000E+00 -0.24754421918E+02  0.14220802587E+04  0.14218647899E+04 0.  0.
        2    1    3    3  502    0  0.39369122433E+03 -0.30975136239E+03 -0.51691989383E+03  0.71982279990E+03  0.25500000920E-02 0.  1.
       -2    1    3    3    0  502 -0.39369122433E+03  0.30975136239E+03  0.49216547192E+03  0.70225745875E+03  0.25500000920E-02 0. -1.
</event>
<event>
 5   0  0.9260916E-05  0.1399141E+04  0.7818609E-02  0.8954441E-01
       -1   -1    0    0    0  501  0.00000000000E+00  0.00000000000E+00  0.69149391373E+03  0.69149391375E+03  0.50400001928E-02 0. -1.
        1   -1    0    0  501    0  0.00000000000E+00  0.00000000000E+00 -0.70774127333E+03  0.70774127335E+03  0.50400001928E-02 0.  1.
    10030    2    1    2    0    0  0.00000000000E+00  0.00000000000E+00 -0.16247359601E+02  0.13992351871E+04  0.13991408550E+04 0.  0.
        1    1    3    3  502    0 -0.19861359357E+03  0.40517214641E+03  0.52650281867E+03  0.69340972439E+03  0.50400001928E-02 0. -1.
       -1    1    3    3    0  502  0.19861359357E+03 -0.40517214641E+03 -0.54275017828E+03  0.70582546272E+03  0.50400001928E-02 0.  1.
</event>
<event>
 5   0  0.9828111E-05  0.1400487E+04  0.7818609E-02  0.8953466E-01
       -1   -1    0    0    0  501  0.00000000000E+00  0.00000000000E+00  0.76188651265E+03  0.76188651267E+03  0.50400001928E-02 0. -1.
        1   -1    0    0  501    0  0.00000000000E+00  0.00000000000E+00 -0.64358754075E+03  0.64358754077E+03  0.50400001928E-02 0.  1.
    10030    2    1    2    0    0  0.00000000000E+00  0.00000000000E+00  0.11829897190E+03  0.14054740534E+04  0.14004865826E+04 0.  0.
        4    1    3    3  502    0  0.64322141791E+03  0.25524549921E+03  0.16655865739E+03  0.71177767356E+03  0.12699999809E+01 0. -1.
       -4    1    3    3    0  502 -0.64322141791E+03 -0.25524549921E+03 -0.48259685492E+02  0.69369637989E+03  0.12699999809E+01 0.  1.
</event>
<event>
 5   0  0.1794185E-04  0.1402498E+04  0.7818609E-02  0.8952012E-01
        2   -1    0    0  501    0  0.00000000000E+00  0.00000000000E+00  0.38825533912E+03  0.38825533913E+03  0.25500000920E-02 0. -1.
       -2   -1    0    0    0  501  0.00000000000E+00  0.00000000000E+00 -0.12665641189E+04  0.12665641189E+04  0.25500000920E-02 0.  1.
    10030    2    1    2    0    0  0.00000000000E+00  0.00000000000E+00 -0.87830877974E+03  0.16548194580E+04  0.14024981733E+04 0.  0.
        2    1    3    3  502    0  0.28349795592E+03  0.61218527854E+03 -0.66490999487E+03  0.94723133793E+03  0.25500000920E-02 0.  1.
       -2    1    3    3    0  502 -0.28349795592E+03 -0.61218527854E+03 -0.21339878487E+03  0.70758812007E+03  0.25500000920E-02 0. -1.
</event>
<event>
 5   0  0.1780171E-04  0.1399061E+04  0.7818609E-02  0.8954499E-01
        2   -1    0    0  501    0  0.00000000000E+00  0.00000000000E+00  0.70618402738E+03  0.70618402739E+03  0.25500000920E-02 0.  1.
       -2   -1    0    0    0  501  0.00000000000E+00  0.00000000000E+00 -0.69293926582E+03  0.69293926582E+03  0.25500000920E-02 0. -1.
    10030    2    1    2    0    0  0.00000000000E+00  0.00000000000E+00  0.13244761566E+02  0.13991232932E+04  0.13990606012E+04 0.  0.
        5    1    3    3  502    0 -0.24350536713E+03 -0.33063949883E+03  0.57295439609E+03  0.70492281280E+03  0.46999998093E+01 0.  1.
       -5    1    3    3    0  502  0.24350536713E+03  0.33063949883E+03 -0.55970963453E+03  0.69420048040E+03  0.46999998093E+01 0. -1.
</event>
<event>
 5   0  0.9828111E-05  0.1407936E+04  0.7818609E-02  0.8948094E-01
        1   -1    0    0  501    0  0.00000000000E+00  0.00000000000E+00  0.12578867595E+04  0.12578867595E+04  0.50400001928E-02 0. -1.
       -1   -1    0    0    0  501  0.00000000000E+00  0.00000000000E+00 -0.39397080169E+03  0.39397080173E+03  0.50400001928E-02 0.  1.
    10030    2    1    2    0    0  0.00000000000E+00  0.00000000000E+00  0.86391595783E+03  0.16518575613E+04  0.14079355882E+04 0.  0.
        4    1    3    3  502    0  0.16367767093E+01 -0.43099329890E+03  0.10849957836E+04  0.11674653596E+04  0.12699999809E+01 0. -1.
       -4    1    3    3    0  502 -0.16367767093E+01  0.43099329890E+03 -0.22107982573E+03  0.48439220161E+03  0.12699999809E+01 0.  1.
</event>
<event>
 5   0  0.9978422E-05  0.1400479E+04  0.7818609E-02  0.8953472E-01
       -1   -1    0    0    0  501  0.00000000000E+00  0.00000000000E+00  0.42174547304E+03  0.42174547307E+03  0.50400001928E-02 0.  1.
        1   -1    0    0  501    0  0.00000000000E+00  0.00000000000E+00 -0.11626338294E+04  0.11626338294E+04  0.50400001928E-02 0. -1.
    10030    2    1    2    0    0  0.00000000000E+00  0.00000000000E+00 -0.74088835639E+03  0.15843793025E+04  0.14004792814E+04 0.  0.
        2    1    3    3  502    0 -0.35327405684E+03 -0.51326867830E+03 -0.73191260662E+03  0.96121972467E+03  0.25500000920E-02 0. -1.
       -2    1    3    3    0  502  0.35327405684E+03  0.51326867830E+03 -0.89757497641E+01  0.62315957783E+03  0.25500000920E-02 0.  1.
</event>
<event>
 5   0  0.6671375E-05  0.1400386E+04  0.7818609E-02  0.8953539E-01
       -3   -1    0    0    0  501  0.00000000000E+00  0.00000000000E+00  0.16060511040E+04  0.16060511072E+04  0.10100000352E+00 0.  1.
        3   -1    0    0  501    0  0.00000000000E+00  0.00000000000E+00 -0.30526444214E+03  0.30526445885E+03  0.10100000352E+00 0. -1.
    10030    2    1    2    0    0  0.00000000000E+00  0.00000000000E+00  0.13007866619E+04  0.19113155661E+04  0.14003861087E+04 0.  0.
        2    1    3    3  502    0 -0.61118286541E+03 -0.27446850348E+03  0.37271159576E+03  0.76667554285E+03  0.25500000920E-02 0. -1.
       -2    1    3    3    0  502  0.61118286541E+03  0.27446850348E+03  0.92807506614E+03  0.11446400232E+04  0.25500000920E-02 0.  1.
</event>
<event>
 5   0  0.1833681E-04  0.1398514E+04  0.7818609E-02  0.8954895E-01
       -2   -1    0    0    0  501  0.00000000000E+00  0.00000000000E+00  0.32579189939E+03  0.32579189940E+03  0.25500000920E-02 0.  1.
        2   -1    0    0  501    0  0.00000000000E+00  0.00000000000E+00 -0.15008359505E+04  0.15008359505E+04  0.25500000920E-02 0. -1.
    10030    2    1    2    0    0  0.00000000000E+00  0.00000000000E+00 -0.11750440511E+04  0.18266278499E+04  0.13985137754E+04 0.  0.
        4    1    3    3  502    0  0.49729392956E+03 -0.14690608760E+02 -0.12293066389E+04  0.13261649564E+04  0.12699999809E+01 0. -1.
       -4    1    3    3    0  502 -0.49729392956E+03  0.14690608760E+02  0.54262587816E+02  0.50046289343E+03  0.12699999809E+01 0.  1.
</event>
<event>
 5   0  0.6671375E-05  0.1398893E+04  0.7818609E-02  0.8954621E-01
        1   -1    0    0  501    0  0.00000000000E+00  0.00000000000E+00  0.10301247383E+04  0.10301247383E+04  0.50400001928E-02 0. -1.
       -1   -1    0    0    0  501  0.00000000000E+00  0.00000000000E+00 -0.47491829979E+03  0.47491829982E+03  0.50400001928E-02 0.  1.
    10030    2    1    2    0    0  0.00000000000E+00  0.00000000000E+00  0.55520643853E+03  0.15050430382E+04  0.13988925467E+04 0.  0.
        5    1    3    3  502    0 -0.21034285340E+03 -0.15388889802E+03  0.97591357741E+03  0.10101263829E+04  0.46999998093E+01 0. -1.
       -5    1    3    3    0  502  0.21034285340E+03  0.15388889802E+03 -0.42070713889E+03  0.49491665522E+03  0.46999998093E+01 0.  1.
</event>
<event>
 5   0  0.1833681E-04  0.1398442E+04  0.7818609E-02  0.8954947E-01
       -2   -1    0    0    0  501  0.00000000000E+00  0.00000000000E+00  0.82049798662E+03  0.82049798662E+03  0.25500000920E-02 0.  1.
        2   -1    0    0  501    0  0.00000000000E+00  0.00000000000E+00 -0.59586984185E+03  0.59586984185E+03  0.25500000920E-02 0. -1.
    10030    2    1    2    0    0  0.00000000000E+00  0.00000000000E+00  0.22462814477E+03  0.14163678285E+04  0.13984419981E+04 0.  0.
        4    1    3    3  502    0 -0.30837504231E+03  0.55458540500E+03  0.40975912691E+03  0.75535706335E+03  0.12699999809E+01 0. -1.
       -4    1    3    3    0  502  0.30837504231E+03 -0.55458540500E+03 -0.18513098215E+03  0.66101076513E+03  0.12699999809E+01 0.  1.
</event>
<event>
 5   0  0.1833681E-04  0.1400853E+04  0.7818609E-02  0.8953201E-01
        2   -1    0    0  501    0  0.00000000000E+00  0.00000000000E+00  0.26069305706E+04  0.26069305706E+04  0.25500000920E-02 0. -1.
       -2   -1    0    0    0  501  0.00000000000E+00  0.00000000000E+00 -0.18818967358E+03  0.18818967359E+03  0.25500000920E-02 0.  1.
    10030    2    1    2    0    0  0.00000000000E+00  0.00000000000E+00  0.24187408970E+04  0.27951202442E+04  0.14008531874E+04 0.  0.
        4    1    3    3  502    0  0.27407635311E+03 -0.63666090209E+03  0.14103005593E+04  0.15714338141E+04  0.12699999809E+01 0. -1.
       -4    1    3    3    0  502 -0.27407635311E+03  0.63666090209E+03  0.10084403377E+04  0.12236864301E+04  0.12699999809E+01 0.  1.
</event>
<event>
 5   0  0.1766237E-04  0.1399536E+04  0.7818609E-02  0.8954155E-01
       -2   -1    0    0    0  501  0.00000000000E+00  0.00000000000E+00  0.26400719383E+03  0.26400719385E+03  0.25500000920E-02 0. -1.
        2   -1    0    0  501    0  0.00000000000E+00  0.00000000000E+00 -0.18547791621E+04  0.18547791621E+04  0.25500000920E-02 0.  1.
    10030    2    1    2    0    0  0.00000000000E+00  0.00000000000E+00 -0.15907719683E+04  0.21187863559E+04  0.13995356970E+04 0.  0.
        3    1    3    3  502    0 -0.49873499089E+03  0.43667885504E+03 -0.45601766434E+03  0.80459749811E+03  0.10100000352E+00 0. -1.
       -3    1    3    3    0  502  0.49873499089E+03 -0.43667885504E+03 -0.11347543039E+04  0.13141888578E+04  0.10100000352E+00 0.  1.
</event>
<event>
 5   0  0.9978422E-05  0.1402041E+04  0.7818609E-02  0.8952343E-01
       -1   -1    0    0    0  501  0.00000000000E+00  0.00000000000E+00  0.24650405780E+03  0.24650405785E+03  0.50400001928E-02 0.  1.
        1   -1    0    0  501    0  0.00000000000E+00  0.00000000000E+00 -0.19935966128E+04  0.19935966128E+04  0.50400001928E-02 0. -1.
    10030    2    1    2    0    0  0.00000000000E+00  0.00000000000E+00 -0.17470925550E+04  0.22401006706E+04  0.14020408763E+04 0.  0.
        2    1    3    3  502    0  0.67438389315E+03 -0.87600985892E+01 -0.56805017224E+03  0.88178873481E+03  0.25500000920E-02 0.  1.
       -2    1    3    3    0  502 -0.67438389315E+03  0.87600985892E+01 -0.11790423827E+04  0.13583119358E+04  0.25500000920E-02 0. -1.
</event>
<event>
 5   0  0.9260916E-05  0.1401829E+04  0.7818609E-02  0.8952496E-01
       -1   -1    0    0    0  501  0.00000000000E+00  0.00000000000E+00  0.35508941291E+03  0.35508941295E+03  0.50400001928E-02 0.  1.
        1   -1    0    0  501    0  0.00000000000E+00  0.00000000000E+00 -0.13835417458E+04  0.13835417458E+04  0.50400001928E-02 0. -1.
    10030    2    1    2    0    0  0.00000000000E+00  0.00000000000E+00 -0.10284523329E+04  0.17386311588E+04  0.14018288430E+04 0.  0.
        1    1    3    3  502    0  0.67015353806E+03  0.10753671367E+02 -0.25986831923E+03  0.71885530490E+03  0.50400001928E-02 0.  1.
       -1    1    3    3    0  502 -0.67015353806E+03 -0.10753671367E+02 -0.76858401366E+03  0.10197758539E+04  0.50400001928E-02 0. -1.
</event>
<event>
 5   0  0.6671375E-05  0.1398559E+04  0.7818609E-02  0.8954862E-01
        1   -1    0    0  501    0  0.00000000000E+00  0.00000000000E+00  0.16508405359E+04  0.16508405359E+04  0.50400001928E-02 0. -1.
       -1   -1    0    0    0  501  0.00000000000E+00  0.00000000000E+00 -0.29620787738E+03  0.29620787742E+03  0.50400001928E-02 0.  1.
    10030    2    1    2    0    0  0.00000000000E+00  0.00000000000E+00  0.13546326585E+04  0.19470484133E+04  0.13985592173E+04 0.  0.
        5    1    3    3  502    0 -0.36270515480E+03 -0.46055112162E+03  0.14662751951E+03  0.60430462883E+03  0.46999998093E+01 0.  1.
       -5    1    3    3    0  502  0.36270515480E+03  0.46055112162E+03  0.12080051390E+04  0.13427437845E+04  0.46999998093E+01 0. -1.
</event>
<event>
 5   0  0.1712327E-04  0.1401061E+04  0.7818609E-02  0.8953051E-01
       -2   -1    0    0    0  501  0.00000000000E+00  0.00000000000E+00  0.53666905322E+03  0.53666905322E+03  0.25500000920E-02 0. -1.
        2   -1    0    0  501    0  0.00000000000E+00  0.00000000000E+00 -0.91442409904E+03  0.91442409904E+03  0.25500000920E-02 0.  1.
    10030    2    1    2    0    0  0.00000000000E+00  0.00000000000E+00 -0.37775504582E+03  0.14510931523E+04  0.14010611914E+04 0.  0.
        1    1    3    3  502    0 -0.30069959423E+03  0.36323905564E+03  0.34767652065E+03  0.58586843280E+03  0.50400001928E-02 0. -1.
       -1    1    3    3    0  502  0.30069959423E+03 -0.36323905564E+03 -0.72543156647E+03  0.86522471946E+03  0.50400001928E-02 0.  1.
</event>
<event>
 5   0  0.1780171E-04  0.1399728E+04  0.7818609E-02  0.8954015E-01
       -2   -1    0    0    0  501  0.00000000000E+00  0.00000000000E+00  0.41230466022E+03  0.41230466022E+03  0.25500000920E-02 0.  1.
        2   -1    0    0  501    0  0.00000000000E+00  0.00000000000E+00 -0.11879797956E+04  0.11879797956E+04  0.25500000920E-02 0. -1.
    10030    2    1    2    0    0  0.00000000000E+00  0.00000000000E+00 -0.77567513537E+03  0.16002844558E+04  0.13997279821E+04 0.  0.
        5    1    3    3  502    0  0.61376469585E+03  0.29302833156E+03 -0.19923126420E+03  0.70872271842E+03  0.46999998093E+01 0.  1.
       -5    1    3    3    0  502 -0.61376469585E+03 -0.29302833156E+03 -0.57644387116E+03  0.89156173739E+03  0.46999998093E+01 0. -1.
</event>
<event>
 5   0  0.1833681E-04  0.1398327E+04  0.7818609E-02  0.8955030E-01
        2   -1    0    0  501    0  0.00000000000E+00  0.00000000000E+00  0.11015506858E+04  0.11015506858E+04  0.25500000920E-02 0.  1.
       -2   -1    0    0    0  501  0.00000000000E+00  0.00000000000E+00 -0.44376500030E+03  0.44376500031E+03  0.25500000920E-02 0. -1.
    10030    2    1    2    0    0  0.00000000000E+00  0.00000000000E+00  0.65778568549E+03  0.15453156861E+04  0.13983270582E+04 0.  0.
        4    1    3    3  502    0 -0.37543829278E+03 -0.32663969513E+03 -0.21383194819E+03  0.54163928688E+03  0.12699999809E+01 0. -1.
       -4    1    3    3    0  502  0.37543829278E+03  0.32663969513E+03  0.87161763369E+03  0.10036763992E+04  0.12699999809E+01 0.  1.
</event>
<event>
 5   0  0.6671375E-05  0.1402958E+04  0.7818609E-02  0.8951681E-01
       -1   -1    0    0    0  501  0.00000000000E+00  0.00000000000E+00  0.39075522601E+03  0.39075522604E+03  0.50400001928E-02 0. -1.
        1   -1    0    0  501    0  0.00000000000E+00  0.00000000000E+00 -0.12592856964E+04  0.12592856964E+04  0.50400001928E-02 0.  1.
    10030    2    1    2    0    0  0.00000000000E+00  0.00000000000E+00 -0.86853047036E+03  0.16500409224E+04  0.14029575431E+04 0.  0.
        5    1    3    3  502    0  0.24092975469E+02 -0.24808681014E+03  0.33689645379E+03  0.41910481673E+03  0.46999998093E+01 0. -1.
       -5    1    3    3    0  502 -0.24092975469E+02  0.24808681014E+03 -0.12054269241E+04  0.12309361057E+04  0.46999998093E+01 0.  1.
</event>
<event>
 5   0  0.9260916E-05  0.1417804E+04  0.7818609E-02  0.8941031E-01
       -1   -1    0    0    0  501  0.00000000000E+00  0.00000000000E+00  0.11561937271E+04  0.11561937271E+04  0.50400001928E-02 0.  1.
        1   -1    0    0  501    0  0.00000000000E+00  0.00000000000E+00 -0.43465203578E+03  0.43465203581E+03  0.50400001928E-02 0. -1.
    10030    2    1    2    0    0  0.00000000000E+00  0.00000000000E+00  0.72154169128E+03  0.15908457629E+04  0.14178038754E+04 0.  0.
        1    1    3    3  502    0  0.46476081701E+03 -0.16993521282E+03 -0.20878533223E+03  0.53709580948E+03  0.50400001928E-02 0. -1.
       -1    1    3    3    0  502 -0.46476081701E+03  0.16993521282E+03  0.93032702352E+03  0.10537499534E+04  0.50400001928E-02 0.  1.
</event>
<event>
 5   0  0.9978422E-05  0.1394914E+04  0.7818609E-02  0.8957508E-01
       -1   -1    0    0    0  501  0.00000000000E+00  0.00000000000E+00  0.49506095116E+03  0.49506095119E+03  0.50400001928E-02 0. -1.
        1   -1    0    0  501    0  0.00000000000E+00  0.00000000000E+00 -0.98259929208E+03  0.98259929209E+03  0.50400001928E-02 0.  1.
    10030    2    1    2    0    0  0.00000000000E+00  0.00000000000E+00 -0.48753834092E+03  0.14776602433E+04  0.13949143919E+04 0.  0.
        2    1    3    3  502    0 -0.16771832279E+03 -0.25201639439E+03  0.42183842383E+03  0.51921994826E+03  0.25500000920E-02 0. -1.
       -2    1    3    3    0  502  0.16771832279E+03  0.25201639439E+03 -0.90937676475E+03  0.95844029502E+03  0.25500000920E-02 0.  1.
</event>
<event>
 5   0  0.9978422E-05  0.1403521E+04  0.7818609E-02  0.8951273E-01
       -1   -1    0    0    0  501  0.00000000000E+00  0.00000000000E+00  0.43130277394E+03  0.43130277397E+03  0.50400001928E-02 0.  1.
        1   -1    0    0  501    0  0.00000000000E+00  0.00000000000E+00 -0.11418153094E+04  0.11418153094E+04  0.50400001928E-02 0. -1.
    10030    2    1    2    0    0  0.00000000000E+00  0.00000000000E+00 -0.71051253550E+03  0.15731180834E+04  0.14035214431E+04 0.  0.
        2    1    3    3  502    0  0.27220721014E+03  0.58216262587E+03 -0.39311515452E+02  0.64385983216E+03  0.25500000920E-02 0.  1.
       -2    1    3    3    0  502 -0.27220721014E+03 -0.58216262587E+03 -0.67120102005E+03  0.92925825126E+03  0.25500000920E-02 0. -1.
</event>
<event>
 5   0  0.6671375E-05  0.1398535E+04  0.7818609E-02  0.8954879E-01
        1   -1    0    0  501    0  0.00000000000E+00  0.00000000000E+00  0.14164550747E+04  0.14164550747E+04  0.50400001928E-02 0.  1.
       -1   -1    0    0    0  501  0.00000000000E+00  0.00000000000E+00 -0.34521054051E+03  0.34521054054E+03  0.50400001928E-02 0. -1.
    10030    2    1    2    0    0  0.00000000000E+00  0.00000000000E+00  0.10712445342E+04  0.17616656152E+04  0.13985352652E+04 0.  0.
        5    1    3    3  502    0  0.44757107267E+01 -0.47523924743E+03  0.11817146155E+04  0.12737126429E+04  0.46999998093E+01 0.  1.
       -5    1    3    3    0  502 -0.44757107267E+01  0.47523924743E+03 -0.11047008134E+03  0.48795297228E+03  0.46999998093E+01 0. -1.
</event>
<event>
 5   0  0.1712327E-04  0.1400790E+04  0.7818609E-02  0.8953247E-01
       -2   -1    0    0    0  501  0.00000000000E+00  0.00000000000E+00  0.47273277177E+03  0.47273277178E+03  0.25500000920E-02 0. -1.
        2   -1    0    0  501    0  0.00000000000E+00  0.00000000000E+00 -0.10376969726E+04  0.10376969726E+04  0.25500000920E-02 0.  1.
    10030    2    1    2    0    0  0.00000000000E+00  0.00000000000E+00 -0.56496420081E+03  0.15104297444E+04  0.14007903000E+04 0.  0.
        1    1    3    3  502    0 -0.34809023474E+03 -0.20750621042E+03  0.33348056815E+03  0.52481894806E+03  0.50400001928E-02 0. -1.
       -1    1    3    3    0  502  0.34809023474E+03  0.20750621042E+03 -0.89844476896E+03  0.98561079630E+03  0.50400001928E-02 0.  1.
</event>
<event>
 5   0  0.9978422E-05  0.1401344E+04  0.7818609E-02  0.8952846E-01
        1   -1    0    0  501    0  0.00000000000E+00  0.00000000000E+00  0.20863266286E+04  0.20863266286E+04  0.50400001928E-02 0.  1.
       -1   -1    0    0    0  501  0.00000000000E+00  0.00000000000E+00 -0.23531378337E+03  0.23531378343E+03  0.50400001928E-02 0. -1.
    10030    2    1    2    0    0  0.00000000000E+00  0.00000000000E+00  0.18510128452E+04  0.23216404120E+04  0.14013442295E+04 0.  0.
        2    1    3    3  502    0 -0.70010475374E+03 -0.21517145503E+02  0.95568239207E+03  0.11848791028E+04  0.25500000920E-02 0. -1.
       -2    1    3    3    0  502  0.70010475374E+03  0.21517145503E+02  0.89533045315E+03  0.11367613092E+04  0.25500000920E-02 0.  1.
</event>
<event>
 5   0  0.9260916E-05  0.1392656E+04  0.7818609E-02  0.8959151E-01
        1   -1    0    0  501    0  0.00000000000E+00  0.00000000000E+00  0.78176030697E+03  0.78176030699E+03  0.50400001928E-02 0. -1.
       -1   -1    0    0    0  501  0.00000000000E+00  0.00000000000E+00 -0.62023225290E+03  0.62023225292E+03  0.50400001928E-02 0.  1.
    10030    2    1    2    0    0  0.00000000000E+00  0.00000000000E+00  0.16152805408E+03  0.14019925599E+04  0.13926563919E+04 0.  0.
        1    1    3    3  502    0  0.45973745804E+03  0.27909181682E+03  0.52602105553E+03  0.75229576858E+03  0.50400001928E-02 0. -1.
       -1    1    3    3    0  502 -0.45973745804E+03 -0.27909181682E+03 -0.36449300145E+03  0.64969679133E+03  0.50400001928E-02 0.  1.
</event>
<event>
 5   0  0.1833681E-04  0.1393664E+04  0.7818609E-02  0.8958418E-01
       -2   -1    0    0    0  501  0.00000000000E+00  0.00000000000E+00  0.13019052772E+04  0.13019052772E+04  0.25500000920E-02 0. -1.
        2   -1    0    0  501    0  0.00000000000E+00  0.00000000000E+00 -0.37297243685E+03  0.37297243686E+03  0.25500000920E-02 0.  1.
    10030    2    1    2    0    0  0.00000000000E+00  0.00000000000E+00  0.92893284032E+03  0.16748777140E+04  0.13936639247E+04 0.  0.
        4    1    3    3  502    0 -0.33059664185E+03  0.23584313792E+02 -0.27217956662E+03  0.42887491048E+03  0.12699999809E+01 0.  1.
       -4    1    3    3    0  502  0.33059664185E+03 -0.23584313792E+02  0.12011124069E+04  0.12460028035E+04  0.12699999809E+01 0. -1.
</event>
<event>
 5   0  0.6671375E-05  0.1399401E+04  0.7818609E-02  0.8954252E-01
        1   -1    0    0  501    0  0.00000000000E+00  0.00000000000E+00  0.67423518855E+03  0.67423518857E+03  0.50400001928E-02 0. -1.
       -1   -1    0    0    0  501  0.00000000000E+00  0.00000000000E+00 -0.72612734233E+03  0.72612734235E+03  0.50400001928E-02 0.  1.
    10030    2    1    2    0    0  0.00000000000E+00  0.00000000000E+00 -0.51892153780E+02  0.14003625309E+04  0.13994007369E+04 0.  0.
        5    1    3    3  502    0  0.27345701139E+03 -0.16638020838E+03  0.59665305894E+03  0.67711008969E+03  0.46999998093E+01 0. -1.
       -5    1    3    3    0  502 -0.27345701139E+03  0.16638020838E+03 -0.64854521272E+03  0.72325244124E+03  0.46999998093E+01 0.  1.
</event>
<event>
 5   0  0.6671375E-05  0.1397987E+04  0.7818609E-02  0.8955277E-01
       -1   -1    0    0    0  501  0.00000000000E+00  0.00000000000E+00  0.12494683454E+04  0.12494683454E+04  0.50400001928E-02 0.  1.
        1   -1    0    0  501    0  0.00000000000E+00  0.00000000000E+00 -0.39103969421E+03  0.39103969424E+03  0.50400001928E-02 0. -1.
    10030    2    1    2    0    0  0.00000000000E+00  0.00000000000E+00  0.85842865121E+03  0.16405080397E+04  0.13979867235E+04 0.  0.
        5    1    3    3  502    0 -0.36245414988E+03 -0.54781471063E+03  0.70961359114E+03  0.96697854510E+03  0.46999998093E+01 0.  1.
       -5    1    3    3    0  502  0.36245414988E+03  0.54781471063E+03  0.14881506007E+03  0.67352949457E+03  0.46999998093E+01 0. -1.
</event>
<event>
 5   0  0.6671375E-05  0.1400485E+04  0.7818609E-02  0.8953468E-01
       -3   -1    0    0    0  501  0.00000000000E+00  0.00000000000E+00  0.15266566351E+04  0.15266566385E+04  0.10100000352E+00 0.  1.
        3   -1    0    0  501    0  0.00000000000E+00  0.00000000000E+00 -0.32118508896E+03  0.32118510484E+03  0.10100000352E+00 0. -1.
    10030    2    1    2    0    0  0.00000000000E+00  0.00000000000E+00  0.12054715462E+04  0.18478417433E+04  0.14004847231E+04 0.  0.
        2    1    3    3  502    0  0.23758152287E+03  0.59116435995E+03  0.98609570288E+03  0.11740123576E+04  0.25500000920E-02 0.  1.
       -2    1    3    3    0  502 -0.23758152287E+03 -0.59116435995E+03  0.21937584330E+03  0.67382938576E+03  0.25500000920E-02 0. -1.
</event>
<event>
 5   0  0.9978422E-05  0.1403745E+04  0.7818609E-02  0.8951112E-01
        1   -1    0    0  501    0  0.00000000000E+00  0.00000000000E+00  0.55318004468E+03  0.55318004470E+03  0.50400001928E-02 0.  1.
       -1   -1    0    0    0  501  0.00000000000E+00  0.00000000000E+00 -0.89053272298E+03  0.89053272300E+03  0.50400001928E-02 0. -1.
    10030    2    1    2    0    0  0.00000000000E+00  0.00000000000E+00 -0.33735267830E+03  0.14437127677E+04  0.14037448935E+04 0.  0.
        2    1    3    3  502    0 -0.61381365935E+03 -0.15036868733E+03 -0.48273443824E+03  0.79524240858E+03  0.25500000920E-02 0. -1.
       -2    1    3    3    0  502  0.61381365935E+03  0.15036868733E+03  0.14538175993E+03  0.64847035912E+03  0.25500000920E-02 0.  1.
</event>
<event>
 5   0  0.1712327E-04  0.1397538E+04  0.7818609E-02  0.8955603E-01
        2   -1    0    0  501    0  0.00000000000E+00  0.00000000000E+00  0.56402163342E+03  0.56402163342E+03  0.25500000920E-02 0. -1.
       -2   -1    0    0    0  501  0.00000000000E+00  0.00000000000E+00 -0.86570769882E+03  0.86570769883E+03  0.25500000920E-02 0.  1.
    10030    2    1    2    0    0  0.00000000000E+00  0.00000000000E+00 -0.30168606540E+03  0.14297293323E+04  0.13975376494E+04 0.  0.
        1    1    3    3  502    0 -0.58318392529E+03  0.15162397986E+02 -0.54433846504E+03  0.79789582878E+03  0.50400001928E-02 0.  1.
       -1    1    3    3    0  502  0.58318392529E+03 -0.15162397986E+02  0.24265239964E+03  0.63183350347E+03  0.50400001928E-02 0. -1.
</event>
<event>
 5   0  0.9978422E-05  0.1398528E+04  0.7818609E-02  0.8954885E-01
       -1   -1    0    0    0  501  0.00000000000E+00  0.00000000000E+00  0.69501729885E+03  0.69501729887E+03  0.50400001928E-02 0.  1.
        1   -1    0    0  501    0  0.00000000000E+00  0.00000000000E+00 -0.70353695211E+03  0.70353695213E+03  0.50400001928E-02 0. -1.
    10030    2    1    2    0    0  0.00000000000E+00  0.00000000000E+00 -0.85196532611E+01  0.13985542510E+04  0.13985283009E+04 0.  0.
        2    1    3    3  502    0 -0.68736935844E+03 -0.12841181475E+03 -0.22292643416E+01  0.69926475581E+03  0.25500000920E-02 0. -1.
       -2    1    3    3    0  502  0.68736935844E+03  0.12841181475E+03 -0.62903889195E+01  0.69928949519E+03  0.25500000920E-02 0.  1.
</event>
<event>
 5   0  0.1712327E-04  0.1407328E+04  0.7818609E-02  0.8948531E-01
        2   -1    0    0  501    0  0.00000000000E+00  0.00000000000E+00  0.89916906926E+03  0.89916906926E+03  0.25500000920E-02 0.  1.
       -2   -1    0    0    0  501  0.00000000000E+00  0.00000000000E+00 -0.55066750237E+03  0.55066750237E+03  0.25500000920E-02 0. -1.
    10030    2    1    2    0    0  0.00000000000E+00  0.00000000000E+00  0.34850156689E+03  0.14498365716E+04  0.14073282284E+04 0.  0.
        1    1    3    3  502    0 -0.37938183245E+03 -0.46542538790E+03 -0.20369802720E+03  0.63406959618E+03  0.50400001928E-02 0. -1.
       -1    1    3    3    0  502  0.37938183245E+03  0.46542538790E+03  0.55219959409E+03  0.81576697545E+03  0.50400001928E-02 0.  1.
</event>
<event>
 5   0  0.1766237E-04  0.1399154E+04  0.7818609E-02  0.8954431E-01
        2   -1    0    0  501    0  0.00000000000E+00  0.00000000000E+00  0.76081706524E+03  0.76081706525E+03  0.25500000920E-02 0.  1.
       -2   -1    0    0    0  501  0.00000000000E+00  0.00000000000E+00 -0.64326604340E+03  0.64326604340E+03  0.25500000920E-02 0. -1.
    10030    2    1    2    0    0  0.00000000000E+00  0.00000000000E+00  0.11755102185E+03  0.14040831087E+04  0.13991537204E+04 0.  0.
        3    1    3    3  502    0 -0.81428238481E+02  0.44661834304E+03  0.59291879989E+03  0.74676048089E+03  0.10100000352E+00 0.  1.
       -3    1    3    3    0  502  0.81428238481E+02 -0.44661834304E+03 -0.47536777804E+03  0.65732262776E+03  0.10100000352E+00 0. -1.
</event>
<event>
 5   0  0.1766237E-04  0.1401293E+04  0.7818609E-02  0.8952883E-01
        2   -1    0    0  501    0  0.00000000000E+00  0.00000000000E+00  0.18982742451E+04  0.18982742451E+04  0.25500000920E-02 0.  1.
       -2   -1    0    0    0  501  0.00000000000E+00  0.00000000000E+00 -0.25860614065E+03  0.25860614066E+03  0.25500000920E-02 0. -1.
    10030    2    1    2    0    0  0.00000000000E+00  0.00000000000E+00  0.16396681045E+04  0.21568803858E+04  0.14012927980E+04 0.  0.
        3    1    3    3  502    0  0.19176390862E+03  0.32997047630E+03  0.17242431648E+04  0.17659752018E+04  0.10100000352E+00 0.  1.
       -3    1    3    3    0  502 -0.19176390862E+03 -0.32997047630E+03 -0.84575060266E+02  0.39090518403E+03  0.10100000352E+00 0. -1.
</event>
<event>
 5   0  0.9260916E-05  0.1400825E+04  0.7818609E-02  0.8953222E-01
        1   -1    0    0  501    0  0.00000000000E+00  0.00000000000E+00  0.28355336245E+03  0.28355336249E+03  0.50400001928E-02 0. -1.
       -1   -1    0    0    0  501  0.00000000000E+00  0.00000000000E+00 -0.17301069503E+04  0.17301069503E+04  0.50400001928E-02 0.  1.
    10030    2    1    2    0    0  0.00000000000E+00  0.00000000000E+00 -0.14465535879E+04  0.20136603128E+04  0.14008249615E+04 0.  0.
        1    1    3    3  502    0  0.35668022269E+03  0.56798539547E+03 -0.43309963285E+03  0.79837552739E+03  0.50400001928E-02 0.  1.
       -1    1    3    3    0  502 -0.35668022269E+03 -0.56798539547E+03 -0.10134539550E+04  0.12152847854E+04  0.50400001928E-02 0. -1.
</event>
<event>
 5   0  0.6671375E-05  0.1398682E+04  0.7818609E-02  0.8954773E-01
       -1   -1    0    0    0  501  0.00000000000E+00  0.00000000000E+00  0.70604432432E+03  0.70604432434E+03  0.50400001928E-02 0.  1.
        1   -1    0    0  501    0  0.00000000000E+00  0.00000000000E+00 -0.69270151704E+03  0.69270151706E+03  0.50400001928E-02 0. -1.
    10030    2    1    2    0    0  0.00000000000E+00  0.00000000000E+00  0.13342807281E+02  0.13987458414E+04  0.13986822006E+04 0.  0.
        5    1    3    3  502    0  0.13097813850E+03 -0.52267244242E+03  0.45246531719E+03  0.70362540324E+03  0.46999998093E+01 0.  1.
       -5    1    3    3    0  502 -0.13097813850E+03  0.52267244242E+03 -0.43912250991E+03  0.69512043815E+03  0.46999998093E+01 0. -1.
</event>
<event>
 5   0  0.1766237E-04  0.1401164E+04  0.7818609E-02  0.8952977E-01
       -2   -1    0    0    0  501  0.00000000000E+00  0.00000000000E+00  0.76492545356E+03  0.76492545357E+03  0.25500000920E-02 0.  1.
        2   -1    0    0  501    0  0.00000000000E+00  0.00000000000E+00 -0.64165081652E+03  0.64165081652E+03  0.25500000920E-02 0. -1.
    10030    2    1    2    0    0  0.00000000000E+00  0.00000000000E+00  0.12327463704E+03  0.14065762701E+04  0.14011638617E+04 0.  0.
        3    1    3    3  502    0  0.68050697786E+03 -0.21225620160E+02 -0.10415133714E+03  0.68875814703E+03  0.10100000352E+00 0. -1.
       -3    1    3    3    0  502 -0.68050697786E+03  0.21225620160E+02  0.22742597418E+03  0.71781812306E+03  0.10100000352E+00 0.  1.
</event>
<event>
 5   0  0.6671375E-05  0.1398220E+04  0.7818609E-02  0.8955108E-01
       -1   -1    0    0    0  501  0.00000000000E+00  0.00000000000E+00  0.42830006164E+03  0.42830006167E+03  0.50400001928E-02 0.  1.
        1   -1    0    0  501    0  0.00000000000E+00  0.00000000000E+00 -0.11411502486E+04  0.11411502486E+04  0.50400001928E-02 0. -1.
    10030    2    1    2    0    0  0.00000000000E+00  0.00000000000E+00 -0.71285018698E+03  0.15694503103E+04  0.13982198995E+04 0.  0.
        5    1    3    3  502    0 -0.47152087866E+03  0.49865855762E+03 -0.50592916117E+03  0.85263046053E+03  0.46999998093E+01 0. -1.
       -5    1    3    3    0  502  0.47152087866E+03 -0.49865855762E+03 -0.20692102581E+03  0.71681984977E+03  0.46999998093E+01 0.  1.
</event>
<event>
 5   0  0.1794185E-04  0.1406053E+04  0.7818609E-02  0.8949449E-01
       -2   -1    0    0    0  501  0.00000000000E+00  0.00000000000E+00  0.33295484138E+03  0.33295484139E+03  0.25500000920E-02 0.  1.
        2   -1    0    0  501    0  0.00000000000E+00  0.00000000000E+00 -0.14844241079E+04  0.14844241079E+04  0.25500000920E-02 0. -1.
    10030    2    1    2    0    0  0.00000000000E+00  0.00000000000E+00 -0.11514692665E+04  0.18173789493E+04  0.14060529057E+04 0.  0.
        2    1    3    3  502    0  0.22510573990E+01 -0.59677741119E+03 -0.10560619498E+04  0.12130190384E+04  0.25500000920E-02 0. -1.
       -2    1    3    3    0  502 -0.22510573990E+01  0.59677741119E+03 -0.95407316729E+02  0.60435991087E+03  0.25500000920E-02 0.  1.
</event>
<event>
 5   0  0.9260916E-05  0.1401338E+04  0.7818609E-02  0.8952851E-01
        1   -1    0    0  501    0  0.00000000000E+00  0.00000000000E+00  0.89672176043E+03  0.89672176045E+03  0.50400001928E-02 0. -1.
       -1   -1    0    0    0  501  0.00000000000E+00  0.00000000000E+00 -0.54747959161E+03  0.54747959164E+03  0.50400001928E-02 0.  1.
    10030    2    1    2    0    0  0.00000000000E+00  0.00000000000E+00  0.34924216882E+03  0.14442013521E+04  0.14013377369E+04 0.  0.
        1    1    3    3  502    0 -0.25949358803E+03  0.25398254077E+03 -0.44295189284E+03  0.57275687044E+03  0.50400001928E-02 0.  1.
       -1    1    3    3    0  502  0.25949358803E+03 -0.25398254077E+03  0.79219406166E+03  0.87144448165E+03  0.50400001928E-02 0. -1.
</event>
<event>
 5   0  0.9260916E-05  0.1405805E+04  0.7818609E-02  0.8949627E-01
        1   -1    0    0  501    0  0.00000000000E+00  0.00000000000E+00  0.47899504518E+03  0.47899504521E+03  0.50400001928E-02 0. -1.
       -1   -1    0    0    0  501  0.00000000000E+00  0.00000000000E+00 -0.10314759780E+04  0.10314759780E+04  0.50400001928E-02 0.  1.
    10030    2    1    2    0    0  0.00000000000E+00  0.00000000000E+00 -0.55248093282E+03  0.15104710232E+04  0.14058049405E+04 0.  0.
        1    1    3    3  502    0  0.66291836279E+03 -0.71802882723E+02 -0.37297355932E+02  0.66783793129E+03  0.50400001928E-02 0.  1.
       -1    1    3    3    0  502 -0.66291836279E+03  0.71802882723E+02 -0.51518357689E+03  0.84263309192E+03  0.50400001928E-02 0. -1.
</event>
<event>
 5   0  0.9828111E-05  0.1403237E+04  0.7818609E-02  0.8951479E-01
        1   -1    0    0  501    0  0.00000000000E+00  0.00000000000E+00  0.11064706814E+04  0.11064706814E+04  0.50400001928E-02 0. -1.
       -1   -1    0    0    0  501  0.00000000000E+00  0.00000000000E+00 -0.44489956063E+03  0.44489956066E+03  0.50400001928E-02 0.  1.
    10030    2    1    2    0    0  0.00000000000E+00  0.00000000000E+00  0.66157112078E+03  0.15513702421E+04  0.14032367157E+04 0.  0.
        4    1    3    3  502    0  0.51504801603E+03  0.34813212703E+03 -0.28814450560E+02  0.62233618097E+03  0.12699999809E+01 0.  1.
       -4    1    3    3    0  502 -0.51504801603E+03 -0.34813212703E+03  0.69038557134E+03  0.92903406111E+03  0.12699999809E+01 0. -1.
</event>
<event>
 5   0  0.1833681E-04  0.1397171E+04  0.7818609E-02  0.8955869E-01
       -2   -1    0    0    0  501  0.00000000000E+00  0.00000000000E+00  0.95729457390E+03  0.95729457390E+03  0.25500000920E-02 0. -1.
        2   -1    0    0  501    0  0.00000000000E+00  0.00000000000E+00 -0.50979260516E+03  0.50979260517E+03  0.25500000920E-02 0.  1.
    10030    2    1    2    0    0  0.00000000000E+00  0.00000000000E+00  0.44750196874E+03  0.14670871791E+04  0.13971709913E+04 0.  0.
        4    1    3    3  502    0  0.37616738849E+03  0.26886322468E+03  0.77362656401E+03  0.90127077573E+03  0.12699999809E+01 0. -1.
       -4    1    3    3    0  502 -0.37616738849E+03 -0.26886322468E+03 -0.32612459527E+03  0.56581640334E+03  0.12699999809E+01 0.  1.
</event>
<event>
 5   0  0.9900839E-05  0.1399151E+04  0.7818609E-02  0.8954433E-01
        1   -1    0    0  501    0  0.00000000000E+00  0.00000000000E+00  0.78512177957E+03  0.78512177959E+03  0.50400001928E-02 0. -1.
       -1   -1    0    0    0  501  0.00000000000E+00  0.00000000000E+00 -0.62335021064E+03  0.62335021066E+03  0.50400001928E-02 0.  1.
    10030    2    1    2    0    0  0.00000000000E+00  0.00000000000E+00  0.16177156894E+03  0.14084719902E+04  0.13991509235E+04 0.  0.
        3    1    3    3  502    0  0.65503411444E+03  0.22949446476E+03 -0.72670914365E+01  0.69411110152E+03  0.10100000352E+00 0.  1.
       -3    1    3    3    0  502 -0.65503411444E+03 -0.22949446476E+03  0.16903866037E+03  0.71436088872E+03  0.10100000352E+00 0. -1.
</event>
<event>
 5   0  0.6671375E-05  0.1396620E+04  0.7818609E-02  0.8956269E-01
       -1   -1    0    0    0  501  0.00000000000E+00  0.00000000000E+00  0.42731923389E+03  0.42731923392E+03  0.50400001928E-02 0. -1.
        1   -1    0    0  501    0  0.00000000000E+00  0.00000000000E+00 -0.11411538721E+04  0.11411538721E+04  0.50400001928E-02 0.  1.
    10030    2    1    2    0    0  0.00000000000E+00  0.00000000000E+00 -0.71383463817E+03  0.15684731060E+04  0.13966202038E+04 0.  0.
        5    1    3    3  502    0  0.66955481829E+03  0.12060602913E+03 -0.53365199800E+03  0.86467104377E+03  0.46999998093E+01 0.  1.
       -5    1    3    3    0  502 -0.66955481829E+03 -0.12060602913E+03 -0.18018264017E+03  0.70380206222E+03  0.46999998093E+01 0. -1.
</event>
<event>
 5   0  0.9828111E-05  0.1411765E+04  0.7818609E-02  0.8945346E-01
        1   -1    0    0  501    0  0.00000000000E+00  0.00000000000E+00  0.13076492996E+04  0.13076492996E+04  0.50400001928E-02 0.  1.
       -1   -1    0    0    0  501  0.00000000000E+00  0.00000000000E+00 -0.38104250975E+03  0.38104250978E+03  0.50400001928E-02 0. -1.
    10030    2    1    2    0    0  0.00000000000E+00  0.00000000000E+00  0.92660678983E+03  0.16886918094E+04  0.14117648119E+04 0.  0.
        4    1    3    3  502    0 -0.20758843908E+03  0.66821823332E+03  0.35199145729E+03  0.78326762112E+03  0.12699999809E+01 0.  1.
       -4    1    3    3    0  502  0.20758843908E+03 -0.66821823332E+03  0.57461533254E+03  0.90542418825E+03  0.12699999809E+01 0. -1.
</event>
<event>
 5   0  0.1794185E-04  0.1400101E+04  0.7818609E-02  0.8953746E-01
        2   -1    0    0  501    0  0.00000000000E+00  0.00000000000E+00  0.11925489093E+04  0.11925489093E+04  0.25500000920E-02 0.  1.
       -2   -1    0    0    0  501  0.00000000000E+00  0.00000000000E+00 -0.41094382721E+03  0.41094382722E+03  0.25500000920E-02 0. -1.
    10030    2    1    2    0    0  0.00000000000E+00  0.00000000000E+00  0.78160508204E+03  0.16034927365E+04  0.14001008720E+04 0.  0.
        2    1    3    3  502    0 -0.50662756224E+03  0.28475681659E+03 -0.56164709053E+02  0.58387704696E+03  0.25500000920E-02 0. -1.
       -2    1    3    3    0  502  0.50662756224E+03 -0.28475681659E+03  0.83776979109E+03  0.10196156895E+04  0.25500000920E-02 0.  1.
</event>
<event>
 5   0  0.6671375E-05  0.1397800E+04  0.7818609E-02  0.8955413E-01
        1   -1    0    0  501    0  0.00000000000E+00  0.00000000000E+00  0.87092716654E+03  0.87092716655E+03  0.50400001928E-02 0.  1.
       -1   -1    0    0    0  501  0.00000000000E+00  0.00000000000E+00 -0.56085181964E+03  0.56085181966E+03  0.50400001928E-02 0. -1.
    10030    2    1    2    0    0  0.00000000000E+00  0.00000000000E+00  0.31007534690E+03  0.14317789862E+04  0.13977998228E+04 0.  0.
        5    1    3    3  502    0 -0.10469521449E+03 -0.30042237316E+03 -0.48236269185E+03  0.57784993443E+03  0.46999998093E+01 0. -1.
       -5    1    3    3    0  502  0.10469521449E+03  0.30042237316E+03  0.79243803875E+03  0.85392905179E+03  0.46999998093E+01 0.  1.
</event>
<event>
 5   0  0.1833681E-04  0.1401239E+04  0.7818609E-02  0.8952923E-01
        2   -1    0    0  501    0  0.00000000000E+00  0.00000000000E+00  0.13165300467E+04  0.13165300467E+04  0.25500000920E-02 0. -1.
       -2   -1    0    0    0  501  0.00000000000E+00  0.00000000000E+00 -0.37284933498E+03  0.37284933499E+03  0.25500000920E-02 0.  1.
    10030    2    1    2    0    0  0.00000000000E+00  0.00000000000E+00  0.94368071175E+03  0.16893793817E+04  0.14012385270E+04 0.  0.
        4    1    3    3  502    0 -0.76170025718E+02 -0.20478558084E+03 -0.33072257231E+03  0.39638117977E+03  0.12699999809E+01 0.  1.
       -4    1    3    3    0  502  0.76170025718E+02  0.20478558084E+03  0.12744032841E+04  0.12929982020E+04  0.12699999809E+01 0. -1.
</event>
<event>
 5   0  0.1833681E-04  0.1400907E+04  0.7818609E-02  0.8953163E-01
        2   -1    0    0  501    0  0.00000000000E+00  0.00000000000E+00  0.51138232082E+03  0.51138232083E+03  0.25500000920E-02 0.  1.
       -2   -1    0    0    0  501  0.00000000000E+00  0.00000000000E+00 -0.95942847690E+03  0.95942847691E+03  0.25500000920E-02 0. -1.
    10030    2    1    2    0    0  0.00000000000E+00  0.00000000000E+00 -0.44804615608E+03  0.14708107977E+04  0.14009065082E+04 0.  0.
        4    1    3    3  502    0 -0.58232469365E+03  0.28202094203E+02 -0.63164335265E+03  0.85957684054E+03  0.12699999809E+01 0. -1.
       -4    1    3    3    0  502  0.58232469365E+03 -0.28202094203E+02  0.18359719656E+03  0.61123395720E+03  0.12699999809E+01 0.  1.
</event>
<event>
 5   0  0.9828111E-05  0.1392886E+04  0.7818609E-02  0.8958984E-01
       -1   -1    0    0    0  501  0.00000000000E+00  0.00000000000E+00  0.28357917182E+03  0.28357917186E+03  0.50400001928E-02 0. -1.
        1   -1    0    0  501    0  0.00000000000E+00  0.00000000000E+00 -0.17103965820E+04  0.17103965820E+04  0.50400001928E-02 0.  1.
    10030    2    1    2    0    0  0.00000000000E+00  0.00000000000E+00 -0.14268174101E+04  0.19939757538E+04  0.13928859914E+04 0.  0.
        4    1    3    3  502    0 -0.49381108274E+03 -0.48476498840E+03 -0.60082759793E+03  0.91642888145E+03  0.12699999809E+01 0. -1.
       -4    1    3    3    0  502  0.49381108274E+03  0.48476498840E+03 -0.82598981221E+03  0.10775468724E+04  0.12699999809E+01 0.  1.
</event>
<event>
 5   0  0.1794185E-04  0.1399198E+04  0.7818609E-02  0.8954399E-01
       -2   -1    0    0    0  501  0.00000000000E+00  0.00000000000E+00  0.26352752148E+03  0.26352752149E+03  0.25500000920E-02 0. -1.
        2   -1    0    0  501    0  0.00000000000E+00  0.00000000000E+00 -0.18572592300E+04  0.18572592300E+04  0.25500000920E-02 0.  1.
    10030    2    1    2    0    0  0.00000000000E+00  0.00000000000E+00 -0.15937317085E+04  0.21207867515E+04  0.13991982299E+04 0.  0.
        2    1    3    3  502    0  0.29936156374E+03  0.15671012495E+03  0.13164273229E+03  0.36263648201E+03  0.25500000920E-02 0. -1.
       -2    1    3    3    0  502 -0.29936156374E+03 -0.15671012495E+03 -0.17253744408E+04  0.17581502695E+04  0.25500000920E-02 0.  1.
</event>
<event>
 5   0  0.6671375E-05  0.1402003E+04  0.7818609E-02  0.8952370E-01
        3   -1    0    0  501    0  0.00000000000E+00  0.00000000000E+00  0.33812405886E+03  0.33812407395E+03  0.10100000352E+00 0.  1.
       -3   -1    0    0    0  501  0.00000000000E+00  0.00000000000E+00 -0.14533219977E+04  0.14533220012E+04  0.10100000352E+00 0. -1.
    10030    2    1    2    0    0  0.00000000000E+00  0.00000000000E+00 -0.11151979388E+04  0.17914460752E+04  0.14020030661E+04 0.  0.
        2    1    3    3  502    0  0.13909258657E+03 -0.25617558726E+03 -0.13722055354E+04  0.14028259730E+04  0.25500000920E-02 0. -1.
       -2    1    3    3    0  502 -0.13909258657E+03  0.25617558726E+03  0.25700759653E+03  0.38862010219E+03  0.25500000920E-02 0.  1.
</event>
<event>
 5   0  0.1833681E-04  0.1399577E+04  0.7818609E-02  0.8954125E-01
       -2   -1    0    0    0  501  0.00000000000E+00  0.00000000000E+00  0.29648819731E+03  0.29648819732E+03  0.25500000920E-02 0. -1.
        2   -1    0    0  501    0  0.00000000000E+00  0.00000000000E+00 -0.16516801691E+04  0.16516801691E+04  0.25500000920E-02 0.  1.
    10030    2    1    2    0    0  0.00000000000E+00  0.00000000000E+00 -0.13551919718E+04  0.19481683664E+04  0.13995766158E+04 0.  0.
        4    1    3    3  502    0  0.68727720756E+03  0.84720815158E+02 -0.81800211234E+03  0.10717540041E+04  0.12699999809E+01 0. -1.
       -4    1    3    3    0  502 -0.68727720756E+03 -0.84720815158E+02 -0.53718985948E+03  0.87641436237E+03  0.12699999809E+01 0.  1.
</event>
<event>
 5   0  0.1780171E-04  0.1398591E+04  0.7818609E-02  0.8954839E-01
        2   -1    0    0  501    0  0.00000000000E+00  0.00000000000E+00  0.13066768184E+04  0.13066768184E+04  0.25500000920E-02 0. -1.
       -2   -1    0    0    0  501  0.00000000000E+00  0.00000000000E+00 -0.37424286733E+03  0.37424286734E+03  0.25500000920E-02 0.  1.
    10030    2    1    2    0    0  0.00000000000E+00  0.00000000000E+00  0.93243395112E+03  0.16809196858E+04  0.13985914045E+04 0.  0.
        5    1    3    3  502    0 -0.63020506600E+03 -0.17345699520E+03  0.16756681307E+03  0.67479365826E+03  0.46999998093E+01 0.  1.
       -5    1    3    3    0  502  0.63020506600E+03  0.17345699520E+03  0.76486713805E+03  0.10061260275E+04  0.46999998093E+01 0. -1.
</event>
<event>
 5   0  0.6671375E-05  0.1392328E+04  0.7818609E-02  0.8959391E-01
        4   -1    0    0  501    0  0.00000000000E+00  0.00000000000E+00  0.87749125325E+03  0.87749217229E+03  0.12699999809E+01 0. -1.
       -4   -1    0    0    0  501  0.00000000000E+00  0.00000000000E+00 -0.55230457583E+03  0.55230603599E+03  0.12699999809E+01 0.  1.
    10030    2    1    2    0    0  0.00000000000E+00  0.00000000000E+00  0.32518667742E+03  0.14297982083E+04  0.13923277420E+04 0.  0.
        1    1    3    3  502    0 -0.54310386280E+03  0.40651096738E+03  0.20821386850E+01  0.67839318077E+03  0.50400001928E-02 0.  1.
       -1    1    3    3    0  502  0.54310386280E+03 -0.40651096738E+03  0.32310453873E+03  0.75140502751E+03  0.50400001928E-02 0. -1.
</event>
<event>
 5   0  0.1780171E-04  0.1403406E+04  0.7818609E-02  0.8951357E-01
       -2   -1    0    0    0  501  0.00000000000E+00  0.00000000000E+00  0.50132426842E+03  0.50132426843E+03  0.25500000920E-02 0. -1.
        2   -1    0    0  501    0  0.00000000000E+00  0.00000000000E+00 -0.98217320212E+03  0.98217320213E+03  0.25500000920E-02 0.  1.
    10030    2    1    2    0    0  0.00000000000E+00  0.00000000000E+00 -0.48084893370E+03  0.14834974706E+04  0.14034062306E+04 0.  0.
        5    1    3    3  502    0  0.18366253496E+03 -0.31733298371E+03  0.39199363722E+03  0.53676181954E+03  0.46999998093E+01 0. -1.
       -5    1    3    3    0  502 -0.18366253496E+03  0.31733298371E+03 -0.87284257092E+03  0.94673565102E+03  0.46999998093E+01 0.  1.
</event>
<event>
 5   0  0.6671375E-05  0.1400235E+04  0.7818609E-02  0.8953648E-01
       -1   -1    0    0    0  501  0.00000000000E+00  0.00000000000E+00  0.89188986203E+03  0.89188986205E+03  0.50400001928E-02 0. -1.
        1   -1    0    0  501    0  0.00000000000E+00  0.00000000000E+00 -0.54957972195E+03  0.54957972198E+03  0.50400001928E-02 0.  1.
    10030    2    1    2    0    0  0.00000000000E+00  0.00000000000E+00  0.34231014008E+03  0.14414695840E+04  0.14002350980E+04 0.  0.
        5    1    3    3  502    0  0.11186186207E+03 -0.13886666807E+03  0.86810405953E+03  0.88624137561E+03  0.46999998093E+01 0. -1.
       -5    1    3    3    0  502 -0.11186186207E+03  0.13886666807E+03 -0.52579391945E+03  0.55522820841E+03  0.46999998093E+01 0.  1.
</event>
<event>
 5   0  0.9978422E-05  0.1398668E+04  0.7818609E-02  0.8954783E-01
        1   -1    0    0  501    0  0.00000000000E+00  0.00000000000E+00  0.20537328711E+04  0.20537328711E+04  0.50400001928E-02 0.  1.
       -1   -1    0    0    0  501  0.00000000000E+00  0.00000000000E+00 -0.23813622911E+03  0.23813622917E+03  0.50400001928E-02 0. -1.
    10030    2    1    2    0    0  0.00000000000E+00  0.00000000000E+00  0.18155966420E+04  0.22918691002E+04  0.13986682260E+04 0.  0.
        2    1    3    3  502    0  0.59201167004E+03 -0.36392539643E+03  0.77930918832E+03  0.10441466959E+04  0.25500000920E-02 0.  1.
       -2    1    3    3    0  502 -0.59201167004E+03  0.36392539643E+03  0.10362874536E+04  0.12477224043E+04  0.25500000920E-02 0. -1.
</event>
<event>
 5   0  0.1712327E-04  0.1402475E+04  0.7818609E-02  0.8952029E-01
       -2   -1    0    0    0  501  0.00000000000E+00  0.00000000000E+00  0.26978459609E+03  0.26978459610E+03  0.25500000920E-02 0.  1.
        2   -1    0    0  501    0  0.00000000000E+00  0.00000000000E+00 -0.18226920942E+04  0.18226920942E+04  0.25500000920E-02 0. -1.
    10030    2    1    2    0    0  0.00000000000E+00  0.00000000000E+00 -0.15529074981E+04  0.20924766903E+04  0.14024753124E+04 0.  0.
        1    1    3    3  502    0 -0.12960532410E+03  0.41818888991E+02 -0.18027723846E+04  0.18079089110E+04  0.50400001928E-02 0. -1.
       -1    1    3    3    0  502  0.12960532410E+03 -0.41818888991E+02  0.24986488651E+03  0.28456777936E+03  0.50400001928E-02 0.  1.
</event>
<event>
 5   0  0.9828111E-05  0.1400859E+04  0.7818609E-02  0.8953197E-01
       -1   -1    0    0    0  501  0.00000000000E+00  0.00000000000E+00  0.44423677431E+03  0.44423677434E+03  0.50400001928E-02 0.  1.
        1   -1    0    0  501    0  0.00000000000E+00  0.00000000000E+00 -0.11043694273E+04  0.11043694273E+04  0.50400001928E-02 0. -1.
    10030    2    1    2    0    0  0.00000000000E+00  0.00000000000E+00 -0.66013265296E+03  0.15486062016E+04  0.14008590394E+04 0.  0.
        4    1    3    3  502    0 -0.51224744490E+03  0.18060226723E+03  0.15882759233E+03  0.56589967372E+03  0.12699999809E+01 0.  1.
       -4    1    3    3    0  502  0.51224744490E+03 -0.18060226723E+03 -0.81896024529E+03  0.98270652791E+03  0.12699999809E+01 0. -1.
</event>
<event>
 5   0  0.1766237E-04  0.1400584E+04  0.7818609E-02  0.8953396E-01
        2   -1    0    0  501    0  0.00000000000E+00  0.00000000000E+00  0.74170205287E+03  0.74170205288E+03  0.25500000920E-02 0.  1.
       -2   -1    0    0    0  501  0.00000000000E+00  0.00000000000E+00 -0.66119417911E+03  0.66119417911E+03  0.25500000920E-02 0. -1.
    10030    2    1    2    0    0  0.00000000000E+00  0.00000000000E+00  0.80507873764E+02  0.14028962320E+04  0.14005842781E+04 0.  0.
        3    1    3    3  502    0 -0.58720822799E+03 -0.20961020682E+03  0.35962053469E+03  0.71977557683E+03  0.10100000352E+00 0.  1.
       -3    1    3    3    0  502  0.58720822799E+03  0.20961020682E+03 -0.27911266092E+03  0.68312065517E+03  0.10100000352E+00 0. -1.
</event>
<event>
 5   0  0.6671375E-05  0.1402004E+04  0.7818609E-02  0.8952369E-01
        1   -1    0    0  501    0  0.00000000000E+00  0.00000000000E+00  0.24946405072E+04  0.24946405072E+04  0.50400001928E-02 0. -1.
       -1   -1    0    0    0  501  0.00000000000E+00  0.00000000000E+00 -0.19698381651E+03  0.19698381658E+03  0.50400001928E-02 0.  1.
    10030    2    1    2    0    0  0.00000000000E+00  0.00000000000E+00  0.22976566907E+04  0.26916243238E+04  0.14020040057E+04 0.  0.
        5    1    3    3  502    0 -0.19719797086E+03 -0.82561212760E+02 -0.13284084976E+03  0.25173830643E+03  0.46999998093E+01 0.  1.
       -5    1    3    3    0  502  0.19719797086E+03  0.82561212760E+02  0.24304975404E+04  0.24398860173E+04  0.46999998093E+01 0. -1.
</event>
<event>
 5   0  0.9900839E-05  0.1399392E+04  0.7818609E-02  0.8954259E-01
       -1   -1    0    0    0  501  0.00000000000E+00  0.00000000000E+00  0.42293948938E+03  0.42293948941E+03  0.50400001928E-02 0. -1.
        1   -1    0    0  501    0  0.00000000000E+00  0.00000000000E+00 -0.11575513315E+04  0.11575513315E+04  0.50400001928E-02 0.  1.
    10030    2    1    2    0    0  0.00000000000E+00  0.00000000000E+00 -0.73461184209E+03  0.15804908209E+04  0.13993915379E+04 0.  0.
        3    1    3    3  502    0  0.18375358755E+03  0.26715814270E+03 -0.10675740593E+04  0.11157299120E+04  0.10100000352E+00 0.  1.
       -3    1    3    3    0  502 -0.18375358755E+03 -0.26715814270E+03  0.33296221723E+03  0.46476090891E+03  0.10100000352E+00 0. -1.
</event>
<event>
 5   0  0.6671375E-05  0.1398218E+04  0.7818609E-02  0.8955110E-01
       -1   -1    0    0    0  501  0.00000000000E+00  0.00000000000E+00  0.60200425096E+03  0.60200425098E+03  0.50400001928E-02 0.  1.
        1   -1    0    0  501    0  0.00000000000E+00  0.00000000000E+00 -0.81187682488E+03  0.81187682489E+03  0.50400001928E-02 0. -1.
    10030    2    1    2    0    0  0.00000000000E+00  0.00000000000E+00 -0.20987257392E+03  0.14138810759E+04  0.13982178655E+04 0.  0.
        5    1    3    3  502    0  0.10416671315E+03  0.45791195573E+03  0.41874265580E+03  0.62920709239E+03  0.46999998093E+01 0.  1.
       -5    1    3    3    0  502 -0.10416671315E+03 -0.45791195573E+03 -0.62861522972E+03  0.78467398348E+03  0.46999998093E+01 0. -1.
</event>
<event>
 5   0  0.1794185E-04  0.1400858E+04  0.7818609E-02  0.8953197E-01
        2   -1    0    0  501    0  0.00000000000E+00  0.00000000000E+00  0.20203505288E+04  0.20203505288E+04  0.25500000920E-02 0. -1.
       -2   -1    0    0    0  501  0.00000000000E+00  0.00000000000E+00 -0.24282967058E+03  0.24282967059E+03  0.25500000920E-02 0.  1.
    10030    2    1    2    0    0  0.00000000000E+00  0.00000000000E+00  0.17775208583E+04  0.22631801994E+04  0.14008583845E+04 0.  0.
        2    1    3    3  502    0 -0.26445223486E+03  0.60961249546E+03  0.12465224715E+04  0.14125794318E+04  0.25500000920E-02 0. -1.
       -2    1    3    3    0  502  0.26445223486E+03 -0.60961249546E+03  0.53099838673E+03  0.85060076761E+03  0.25500000920E-02 0.  1.
</event>
<event>
 5   0  0.1780171E-04  0.1402022E+04  0.7818609E-02  0.8952356E-01
       -2   -1    0    0    0  501  0.00000000000E+00  0.00000000000E+00  0.10412109517E+04  0.10412109518E+04  0.25500000920E-02 0. -1.
        2   -1    0    0  501    0  0.00000000000E+00  0.00000000000E+00 -0.47196626567E+03  0.47196626568E+03  0.25500000920E-02 0.  1.
    10030    2    1    2    0    0  0.00000000000E+00  0.00000000000E+00  0.56924468608E+03  0.15131772174E+04  0.14020220322E+04 0.  0.
        5    1    3    3  502    0  0.32936050276E+03  0.40689001214E+03  0.78779994778E+03  0.94587983935E+03  0.46999998093E+01 0. -1.
       -5    1    3    3    0  502 -0.32936050276E+03 -0.40689001214E+03 -0.21855526171E+03  0.56729737808E+03  0.46999998093E+01 0.  1.
</event>
<event>
 5   0  0.9828111E-05  0.1399724E+04  0.7818609E-02  0.8954018E-01
       -1   -1    0    0    0  501  0.00000000000E+00  0.00000000000E+00  0.30078210910E+03  0.30078210914E+03  0.50400001928E-02 0. -1.
        1   -1    0    0  501    0  0.00000000000E+00  0.00000000000E+00 -0.16284447131E+04  0.16284447131E+04  0.50400001928E-02 0.  1.
    10030    2    1    2    0    0  0.00000000000E+00  0.00000000000E+00 -0.13276626040E+04  0.19292268222E+04  0.13997243091E+04 0.  0.
        4    1    3    3  502    0 -0.58965930186E+03 -0.37643264709E+03 -0.63606661652E+03  0.94550620496E+03  0.12699999809E+01 0. -1.
       -4    1    3    3    0  502  0.58965930186E+03  0.37643264709E+03 -0.69159598745E+03  0.98372061726E+03  0.12699999809E+01 0.  1.
</event>
<event>
 5   0  0.1833681E-04  0.1408910E+04  0.7818609E-02  0.8947394E-01
        2   -1    0    0  501    0  0.00000000000E+00  0.00000000000E+00  0.12233786229E+04  0.12233786229E+04  0.25500000920E-02 0. -1.
       -2   -1    0    0    0  501  0.00000000000E+00  0.00000000000E+00 -0.40564469824E+03  0.40564469825E+03  0.25500000920E-02 0.  1.
    10030    2    1    2    0    0  0.00000000000E+00  0.00000000000E+00  0.81773392469E+03  0.16290233212E+04  0.14089102915E+04 0.  0.
        4    1    3    3  502    0 -0.31858490702E+03 -0.46102854176E+03 -0.84684207679E+02  0.56675981441E+03  0.12699999809E+01 0.  1.
       -4    1    3    3    0  502  0.31858490702E+03  0.46102854176E+03  0.90241813237E+03  0.10622635068E+04  0.12699999809E+01 0. -1.
</event>
<event>
 5   0  0.6671375E-05  0.1396559E+04  0.7818609E-02  0.8956313E-01
        1   -1    0    0  501    0  0.00000000000E+00  0.00000000000E+00  0.10443542258E+04  0.10443542258E+04  0.50400001928E-02 0.  1.
       -1   -1    0    0    0  501  0.00000000000E+00  0.00000000000E+00 -0.46688562166E+03  0.46688562169E+03  0.50400001928E-02 0. -1.
    10030    2    1    2    0    0  0.00000000000E+00  0.00000000000E+00  0.57746860416E+03  0.15112398475E+04  0.13965585874E+04 0.  0.
        5    1    3    3  502    0 -0.56959460698E+03  0.24510884038E+03  0.63611834920E+03  0.88836085243E+03  0.46999998093E+01 0.  1.
       -5    1    3    3    0  502  0.56959460698E+03 -0.24510884038E+03 -0.58649745043E+02  0.62287899509E+03  0.46999998093E+01 0. -1.
</event>
<event>
 5   0  0.1794185E-04  0.1398782E+04  0.7818609E-02  0.8954700E-01
       -2   -1    0    0    0  501  0.00000000000E+00  0.00000000000E+00  0.52624975613E+03  0.52624975613E+03  0.25500000920E-02 0.  1.
        2   -1    0    0  501    0  0.00000000000E+00  0.00000000000E+00 -0.92949774862E+03  0.92949774862E+03  0.25500000920E-02 0. -1.
    10030    2    1    2    0    0  0.00000000000E+00  0.00000000000E+00 -0.40324799249E+03  0.14557475048E+04  0.13987822755E+04 0.  0.
        2    1    3    3  502    0 -0.59148671014E+03  0.15515965550E+03  0.15163567306E+03  0.63001938408E+03  0.25500000920E-02 0.  1.
       -2    1    3    3    0  502  0.59148671014E+03 -0.15515965550E+03 -0.55488366556E+03  0.82572812068E+03  0.25500000920E-02 0. -1.
</event>
<event>
 5   0  0.1766237E-04  0.1401911E+04  0.7818609E-02  0.8952436E-01
        2   -1    0    0  501    0  0.00000000000E+00  0.00000000000E+00  0.95216807978E+03  0.95216807978E+03  0.25500000920E-02 0. -1.
       -2   -1    0    0    0  501  0.00000000000E+00  0.00000000000E+00 -0.51602094633E+03  0.51602094634E+03  0.25500000920E-02 0.  1.
    10030    2    1    2    0    0  0.00000000000E+00  0.00000000000E+00  0.43614713345E+03  0.14681890261E+04  0.14019110865E+04 0.  0.
        3    1    3    3  502    0 -0.61902599673E+03  0.18234023938E+03  0.50468612149E+03  0.81923698582E+03  0.10100000352E+00 0. -1.
       -3    1    3    3    0  502  0.61902599673E+03 -0.18234023938E+03 -0.68538988037E+02  0.64895204029E+03  0.10100000352E+00 0.  1.
</event>
<event>
 5   0  0.9978422E-05  0.1401554E+04  0.7818609E-02  0.8952694E-01
        1   -1    0    0  501    0  0.00000000000E+00  0.00000000000E+00  0.11848334115E+04  0.11848334115E+04  0.50400001928E-02 0.  1.
       -1   -1    0    0    0  501  0.00000000000E+00  0.00000000000E+00 -0.41447913687E+03  0.41447913690E+03  0.50400001928E-02 0. -1.
    10030    2    1    2    0    0  0.00000000000E+00  0.00000000000E+00  0.77035427462E+03  0.15993125484E+04  0.14015544653E+04 0.  0.
        2    1    3    3  502    0 -0.52954911251E+03  0.27721962110E+03  0.80260071867E+03  0.10007201879E+04  0.25500000920E-02 0.  1.
       -2    1    3    3    0  502  0.52954911251E+03 -0.27721962110E+03 -0.32246444052E+02  0.59859236049E+03  0.25500000920E-02 0. -1.
</event>
<event>
 5   0  0.6671375E-05  0.1400982E+04  0.7818609E-02  0.8953108E-01
        1   -1    0    0  501    0  0.00000000000E+00  0.00000000000E+00  0.54865670320E+03  0.54865670322E+03  0.50400001928E-02 0. -1.
       -1   -1    0    0    0  501  0.00000000000E+00  0.00000000000E+00 -0.89434370796E+03  0.89434370798E+03  0.50400001928E-02 0.  1.
    10030    2    1    2    0    0  0.00000000000E+00  0.00000000000E+00 -0.34568700476E+03  0.14430004112E+04  0.14009820418E+04 0.  0.
        5    1    3    3  502    0  0.46049216192E+03 -0.26072756411E+03  0.29986977509E+03  0.60825641458E+03  0.46999998093E+01 0. -1.
       -5    1    3    3    0  502 -0.46049216192E+03  0.26072756411E+03 -0.64555677985E+03  0.83474399661E+03  0.46999998093E+01 0.  1.
</event>
<event>
 5   0  0.1766237E-04  0.1400347E+04  0.7818609E-02  0.8953567E-01
       -2   -1    0    0    0  501  0.00000000000E+00  0.00000000000E+00  0.57668400609E+03  0.57668400609E+03  0.25500000920E-02 0. -1.
        2   -1    0    0  501    0  0.00000000000E+00  0.00000000000E+00 -0.85010715970E+03  0.85010715970E+03  0.25500000920E-02 0.  1.
    10030    2    1    2    0    0  0.00000000000E+00  0.00000000000E+00 -0.27342315361E+03  0.14267911658E+04  0.14003473890E+04 0.  0.
        3    1    3    3  502    0 -0.35152632338E+03  0.38674876146E+03  0.33802464452E+03  0.62241949762E+03  0.10100000352E+00 0. -1.
       -3    1    3    3    0  502  0.35152632338E+03 -0.38674876146E+03 -0.61144779813E+03  0.80437166817E+03  0.10100000352E+00 0.  1.
</event>
<event>
 5   0  0.1766237E-04  0.1396664E+04  0.7818609E-02  0.8956237E-01
       -2   -1    0    0    0  501  0.00000000000E+00  0.00000000000E+00  0.56409124870E+03  0.56409124870E+03  0.25500000920E-02 0.  1.
        2   -1    0    0  501    0  0.00000000000E+00  0.00000000000E+00 -0.86451862334E+03  0.86451862334E+03  0.25500000920E-02 0. -1.
    10030    2    1    2    0    0  0.00000000000E+00  0.00000000000E+00 -0.30042737464E+03  0.14286098720E+04  0.13966637244E+04 0.  0.
        3    1    3    3  502    0 -0.31424500505E+03  0.12323496731E+03 -0.77553196368E+03  0.84580530695E+03  0.10100000352E+00 0. -1.
       -3    1    3    3    0  502  0.31424500505E+03 -0.12323496731E+03  0.47510458904E+03  0.58280456510E+03  0.10100000352E+00 0.  1.
</event>
<event>
 5   0  0.1794185E-04  0.1398924E+04  0.7818609E-02  0.8954598E-01
        2   -1    0    0  501    0  0.00000000000E+00  0.00000000000E+00  0.16430974709E+04  0.16430974709E+04  0.25500000920E-02 0.  1.
       -2   -1    0    0    0  501  0.00000000000E+00  0.00000000000E+00 -0.29775899219E+03  0.29775899220E+03  0.25500000920E-02 0. -1.
    10030    2    1    2    0    0  0.00000000000E+00  0.00000000000E+00  0.13453384787E+04  0.19408564631E+04  0.13989239393E+04 0.  0.
        2    1    3    3  502    0 -0.62427680798E+03 -0.26910211078E+03  0.44423530775E+03  0.81208527118E+03  0.25500000920E-02 0.  1.
       -2    1    3    3    0  502  0.62427680798E+03  0.26910211078E+03  0.90110317096E+03  0.11287711919E+04  0.25500000920E-02 0. -1.
</event>
<event>
 5   0  0.9260916E-05  0.1399228E+04  0.7818609E-02  0.8954378E-01
        1   -1    0    0  501    0  0.00000000000E+00  0.00000000000E+00  0.22025296976E+04  0.22025296976E+04  0.50400001928E-02 0. -1.
       -1   -1    0    0    0  501  0.00000000000E+00  0.00000000000E+00 -0.22222606040E+03  0.22222606045E+03  0.50400001928E-02 0.  1.
    10030    2    1    2    0    0  0.00000000000E+00  0.00000000000E+00  0.19803036372E+04  0.24247557580E+04  0.13992276408E+04 0.  0.
        1    1    3    3  502    0 -0.18405559660E+03  0.58177096544E+02  0.21554690363E+04  0.21640951467E+04  0.50400001928E-02 0. -1.
       -1    1    3    3    0  502  0.18405559660E+03 -0.58177096544E+02 -0.17516539919E+03  0.26066061133E+03  0.50400001928E-02 0.  1.
</event>
<event>
 5   0  0.1833681E-04  0.1398385E+04  0.7818609E-02  0.8954988E-01
        2   -1    0    0  501    0  0.00000000000E+00  0.00000000000E+00  0.22341517137E+04  0.22341517137E+04  0.25500000920E-02 0.  1.
       -2   -1    0    0    0  501  0.00000000000E+00  0.00000000000E+00 -0.21881700611E+03  0.21881700613E+03  0.25500000920E-02 0. -1.
    10030    2    1    2    0    0  0.00000000000E+00  0.00000000000E+00  0.20153347076E+04  0.24529687198E+04  0.13983853392E+04 0.  0.
        4    1    3    3  502    0 -0.46858673623E+03  0.19865718319E+03  0.18486151670E+04  0.19173987207E+04  0.12699999809E+01 0.  1.
       -4    1    3    3    0  502  0.46858673623E+03 -0.19865718319E+03  0.16671954060E+03  0.53556999909E+03  0.12699999809E+01 0. -1.
</event>
<event>
 5   0  0.1766237E-04  0.1398194E+04  0.7818609E-02  0.8955127E-01
        2   -1    0    0  501    0  0.00000000000E+00  0.00000000000E+00  0.89001968679E+03  0.89001968680E+03  0.25500000920E-02 0.  1.
       -2   -1    0    0    0  501  0.00000000000E+00  0.00000000000E+00 -0.54913021341E+03  0.54913021342E+03  0.25500000920E-02 0. -1.
    10030    2    1    2    0    0  0.00000000000E+00  0.00000000000E+00  0.34088947338E+03  0.14391499002E+04  0.13981941218E+04 0.  0.
        3    1    3    3  502    0 -0.34086691416E+03 -0.30596543998E+03 -0.37316522753E+03  0.59081079955E+03  0.10100000352E+00 0. -1.
       -3    1    3    3    0  502  0.34086691416E+03  0.30596543998E+03  0.71405470091E+03  0.84833910066E+03  0.10100000352E+00 0.  1.
</event>
<event>
 5   0  0.9978422E-05  0.1399699E+04  0.7818609E-02  0.8954036E-01
        1   -1    0    0  501    0  0.00000000000E+00  0.00000000000E+00  0.70760399580E+03  0.70760399582E+03  0.50400001928E-02 0.  1.
       -1   -1    0    0    0  501  0.00000000000E+00  0.00000000000E+00 -0.69218024163E+03  0.69218024165E+03  0.50400001928E-02 0. -1.
    10030    2    1    2    0    0  0.00000000000E+00  0.00000000000E+00  0.15423754172E+02  0.13997842375E+04  0.13996992603E+04 0.  0.
        2    1    3    3  502    0 -0.61203369457E+03 -0.21722941542E+03  0.26852579820E+03  0.70276594007E+03  0.25500000920E-02 0. -1.
       -2    1    3    3    0  502  0.61203369457E+03  0.21722941542E+03 -0.25310204403E+03  0.69701829740E+03  0.25500000920E-02 0.  1.
</event>
<event>
 5   0  0.9260916E-05  0.1399248E+04  0.7818609E-02  0.8954363E-01
       -1   -1    0    0    0  501  0.00000000000E+00  0.00000000000E+00  0.63847546594E+03  0.63847546596E+03  0.50400001928E-02 0. -1.
        1   -1    0    0  501    0  0.00000000000E+00  0.00000000000E+00 -0.76662933874E+03  0.76662933875E+03  0.50400001928E-02 0.  1.
    10030    2    1    2    0    0  0.00000000000E+00  0.00000000000E+00 -0.12815387279E+03  0.14051048047E+04  0.13992484044E+04 0.  0.
        1    1    3    3  502    0 -0.20899266126E+02 -0.56489358043E+03  0.34987708519E+03  0.66479734605E+03  0.50400001928E-02 0. -1.
       -1    1    3    3    0  502  0.20899266126E+02  0.56489358043E+03 -0.47803095799E+03  0.74030745867E+03  0.50400001928E-02 0.  1.
</event>
<event>
 5   0  0.1712327E-04  0.1397346E+04  0.7818609E-02  0.8955742E-01
        2   -1    0    0  501    0  0.00000000000E+00  0.00000000000E+00  0.16343945863E+04  0.16343945863E+04  0.25500000920E-02 0. -1.
       -2   -1    0    0    0  501  0.00000000000E+00  0.00000000000E+00 -0.29866951149E+03  0.29866951151E+03  0.25500000920E-02 0.  1.
    10030    2    1    2    0    0  0.00000000000E+00  0.00000000000E+00  0.13357250748E+04  0.19330640978E+04  0.13973458165E+04 0.  0.
        1    1    3    3  502    0 -0.24764391269E+03  0.51300768666E+03  0.10825140377E+03  0.57984718720E+03  0.50400001928E-02 0.  1.
       -1    1    3    3    0  502  0.24764391269E+03 -0.51300768666E+03  0.12274736711E+04  0.13532169107E+04  0.50400001928E-02 0. -1.
</event>
<event>
 5   0  0.6671375E-05  0.1400833E+04  0.7818609E-02  0.8953216E-01
        1   -1    0    0  501    0  0.00000000000E+00  0.00000000000E+00  0.76773816829E+03  0.76773816830E+03  0.50400001928E-02 0.  1.
       -1   -1    0    0    0  501  0.00000000000E+00  0.00000000000E+00 -0.63899797906E+03  0.63899797908E+03  0.50400001928E-02 0. -1.
    10030    2    1    2    0    0  0.00000000000E+00  0.00000000000E+00  0.12874018923E+03  0.14067361474E+04  0.14008328066E+04 0.  0.
        5    1    3    3  502    0  0.60392322995E+03  0.29324914305E+03  0.26481768282E+03  0.72171242383E+03  0.46999998093E+01 0.  1.
       -5    1    3    3    0  502 -0.60392322995E+03 -0.29324914305E+03 -0.13607749360E+03  0.68502372356E+03  0.46999998093E+01 0. -1.
</event>
<event>
 5   0  0.9260916E-05  0.1401025E+04  0.7818609E-02  0.8953077E-01
        1   -1    0    0  501    0  0.00000000000E+00  0.00000000000E+00  0.49330511012E+03  0.49330511014E+03  0.50400001928E-02 0. -1.
       -1   -1    0    0    0  501  0.00000000000E+00  0.00000000000E+00 -0.99475470065E+03  0.99475470066E+03  0.50400001928E-02 0.  1.
    10030    2    1    2    0    0  0.00000000000E+00  0.00000000000E+00 -0.50144959053E+03  0.14880598108E+04  0.14010247352E+04 0.  0.
        1    1    3    3  502    0  0.15027915573E+03 -0.10552248871E+02  0.47589613829E+03  0.49917162286E+03  0.50400001928E-02 0. -1.
       -1    1    3    3    0  502 -0.15027915573E+03  0.10552248871E+02 -0.97734572882E+03  0.98888818795E+03  0.50400001928E-02 0.  1.
</event>
<event>
 5   0  0.1766237E-04  0.1394851E+04  0.7818609E-02  0.8957554E-01
        2   -1    0    0  501    0  0.00000000000E+00  0.00000000000E+00  0.13704069595E+04  0.13704069595E+04  0.25500000920E-02 0. -1.
       -2   -1    0    0    0  501  0.00000000000E+00  0.00000000000E+00 -0.35493291314E+03  0.35493291315E+03  0.25500000920E-02 0.  1.
    10030    2    1    2    0    0  0.00000000000E+00  0.00000000000E+00  0.10154740463E+04  0.17253398726E+04  0.13948512958E+04 0.  0.
        3    1    3    3  502    0  0.25702827576E+03 -0.69919623238E+02  0.13050085489E+04  0.13319157673E+04  0.10100000352E+00 0. -1.
       -3    1    3    3    0  502 -0.25702827576E+03  0.69919623238E+02 -0.28953450259E+03  0.39342410532E+03  0.10100000352E+00 0.  1.
</event>
<event>
 5   0  0.9260916E-05  0.1399179E+04  0.7818609E-02  0.8954413E-01
       -1   -1    0    0    0  501  0.00000000000E+00  0.00000000000E+00  0.56143583613E+03  0.56143583615E+03  0.50400001928E-02 0.  1.
        1   -1    0    0  501    0  0.00000000000E+00  0.00000000000E+00 -0.87173893375E+03  0.87173893376E+03  0.50400001928E-02 0. -1.
    10030    2    1    2    0    0  0.00000000000E+00  0.00000000000E+00 -0.31030309761E+03  0.14331747699E+04  0.13991790124E+04 0.  0.
        1    1    3    3  502    0  0.65655978257E+03 -0.88426447472E+02 -0.38541452995E+03  0.76644265580E+03  0.50400001928E-02 0. -1.
       -1    1    3    3    0  502 -0.65655978257E+03  0.88426447472E+02  0.75111432339E+02  0.66673211412E+03  0.50400001928E-02 0.  1.
</event>
<event>
 5   0  0.9260916E-05  0.1401386E+04  0.7818609E-02  0.8952816E-01
       -1   -1    0    0    0  501  0.00000000000E+00  0.00000000000E+00  0.18831124350E+04  0.18831124350E+04  0.50400001928E-02 0. -1.
        1   -1    0    0  501    0  0.00000000000E+00  0.00000000000E+00 -0.26072304536E+03  0.26072304541E+03  0.50400001928E-02 0.  1.
    10030    2    1    2    0    0  0.00000000000E+00  0.00000000000E+00  0.16223893896E+04  0.21438354804E+04  0.14013861835E+04 0.  0.
        1    1    3    3  502    0 -0.18174691688E+03  0.66245139317E+03  0.59978913258E+03  0.91193245018E+03  0.50400001928E-02 0. -1.
       -1    1    3    3    0  502  0.18174691688E+03 -0.66245139317E+03  0.10226002570E+04  0.12319030302E+04  0.50400001928E-02 0.  1.
</event>
<event>
 5   0  0.9978422E-05  0.1401157E+04  0.7818609E-02  0.8952981E-01
        1   -1    0    0  501    0  0.00000000000E+00  0.00000000000E+00  0.27815176969E+04  0.27815176969E+04  0.50400001928E-02 0.  1.
       -1   -1    0    0    0  501  0.00000000000E+00  0.00000000000E+00 -0.17645417895E+03  0.17645417902E+03  0.50400001928E-02 0. -1.
    10030    2    1    2    0    0  0.00000000000E+00  0.00000000000E+00  0.26050635179E+04  0.29579718759E+04  0.14011572668E+04 0.  0.
        2    1    3    3  502    0 -0.32359734002E+03  0.58931848205E+02 -0.33151059582E+01  0.32893645455E+03  0.25500000920E-02 0. -1.
       -2    1    3    3    0  502  0.32359734002E+03 -0.58931848205E+02  0.26083786239E+04  0.26290354213E+04  0.25500000920E-02 0.  1.
</event>
<event>
 5   0  0.1712327E-04  0.1399158E+04  0.7818609E-02  0.8954428E-01
       -2   -1    0    0    0  501  0.00000000000E+00  0.00000000000E+00  0.19804559715E+03  0.19804559717E+03  0.25500000920E-02 0.  1.
        2   -1    0    0  501    0  0.00000000000E+00  0.00000000000E+00 -0.24712029638E+04  0.24712029638E+04  0.25500000920E-02 0. -1.
    10030    2    1    2    0    0  0.00000000000E+00  0.00000000000E+00 -0.22731573666E+04  0.26692485610E+04  0.13991581278E+04 0.  0.
        1    1    3    3  502    0 -0.59720825109E+03 -0.13628499516E+02 -0.18311880655E+04  0.19261602120E+04  0.50400001928E-02 0. -1.
       -1    1    3    3    0  502  0.59720825109E+03  0.13628499516E+02 -0.44196930118E+03  0.74308834897E+03  0.50400001928E-02 0.  1.
</event>
<event>
 5   0  0.6671375E-05  0.1400944E+04  0.7818609E-02  0.8953136E-01
        1   -1    0    0  501    0  0.00000000000E+00  0.00000000000E+00  0.10206898506E+04  0.10206898506E+04  0.50400001928E-02 0.  1.
       -1   -1    0    0    0  501  0.00000000000E+00  0.00000000000E+00 -0.48071496016E+03  0.48071496019E+03  0.50400001928E-02 0. -1.
    10030    2    1    2    0    0  0.00000000000E+00  0.00000000000E+00  0.53997489041E+03  0.15014048108E+04  0.14009437974E+04 0.  0.
        5    1    3    3  502    0 -0.39099103725E+03 -0.54353270677E+03  0.49472965509E+02  0.67139515850E+03  0.46999998093E+01 0. -1.
       -5    1    3    3    0  502  0.39099103725E+03  0.54353270677E+03  0.49050192490E+03  0.83000965228E+03  0.46999998093E+01 0.  1.
</event>
<event>
 5   0  0.1766237E-04  0.1400521E+04  0.7818609E-02  0.8953441E-01
        2   -1    0    0  501    0  0.00000000000E+00  0.00000000000E+00  0.10087219972E+04  0.10087219972E+04  0.25500000920E-02 0.  1.
       -2   -1    0    0    0  501  0.00000000000E+00  0.00000000000E+00 -0.48612482099E+03  0.48612482100E+03  0.25500000920E-02 0. -1.
    10030    2    1    2    0    0  0.00000000000E+00  0.00000000000E+00  0.52259717617E+03  0.14948468182E+04  0.14005210463E+04 0.  0.
        3    1    3    3  502    0  0.13286892851E+03 -0.37901004513E+03 -0.35097557575E+03  0.53337288218E+03  0.10100000352E+00 0. -1.
       -3    1    3    3    0  502 -0.13286892851E+03  0.37901004513E+03  0.87357275192E+03  0.96147393598E+03  0.10100000352E+00 0.  1.
</event>
<event>
 5   0  0.1794185E-04  0.1405772E+04  0.7818609E-02  0.8949651E-01
       -2   -1    0    0    0  501  0.00000000000E+00  0.00000000000E+00  0.70187044799E+03  0.70187044799E+03  0.25500000920E-02 0. -1.
        2   -1    0    0  501    0  0.00000000000E+00  0.00000000000E+00 -0.70390305045E+03  0.70390305046E+03  0.25500000920E-02 0.  1.
    10030    2    1    2    0    0  0.00000000000E+00  0.00000000000E+00 -0.20326024641E+01  0.14057734985E+04  0.14057720290E+04 0.  0.
        2    1    3    3  502    0  0.45903498288E+03  0.18160635372E+03 -0.50137146463E+03  0.70361021082E+03  0.25500000920E-02 0.  1.
       -2    1    3    3    0  502 -0.45903498288E+03 -0.18160635372E+03  0.49933886216E+03  0.70216328763E+03  0.25500000920E-02 0. -1.
</event>
<event>
 5   0  0.1712327E-04  0.1399636E+04  0.7818609E-02  0.8954082E-01
        2   -1    0    0  501    0  0.00000000000E+00  0.00000000000E+00  0.13229764334E+04  0.13229764334E+04  0.25500000920E-02 0. -1.
       -2   -1    0    0    0  501  0.00000000000E+00  0.00000000000E+00 -0.37018450358E+03  0.37018450359E+03  0.25500000920E-02 0.  1.
    10030    2    1    2    0    0  0.00000000000E+00  0.00000000000E+00  0.95279192982E+03  0.16931609370E+04  0.13996362017E+04 0.  0.
        1    1    3    3  502    0  0.64866787889E+03 -0.21944941476E+02  0.15979762740E+03  0.66842118406E+03  0.50400001928E-02 0.  1.
       -1    1    3    3    0  502 -0.64866787889E+03  0.21944941476E+02  0.79299430242E+03  0.10247397529E+04  0.50400001928E-02 0. -1.
</event>
<event>
 5   0  0.1766237E-04  0.1400326E+04  0.7818609E-02  0.8953583E-01
       -2   -1    0    0    0  501  0.00000000000E+00  0.00000000000E+00  0.60847549985E+03  0.60847549986E+03  0.25500000920E-02 0.  1.
        2   -1    0    0  501    0  0.00000000000E+00  0.00000000000E+00 -0.80566643862E+03  0.80566643862E+03  0.25500000920E-02 0. -1.
    10030    2    1    2    0    0  0.00000000000E+00  0.00000000000E+00 -0.19719093877E+03  0.14141419385E+04  0.14003260891E+04 0.  0.
        3    1    3    3  502    0  0.62070408177E+03  0.11531210093E+03  0.20714197683E+03  0.66443829398E+03  0.10100000352E+00 0.  1.
       -3    1    3    3    0  502 -0.62070408177E+03 -0.11531210093E+03 -0.40433291559E+03  0.74970364450E+03  0.10100000352E+00 0. -1.
</event>
<event>
 5   0  0.9260916E-05  0.1409434E+04  0.7818609E-02  0.8947018E-01
        1   -1    0    0  501    0  0.00000000000E+00  0.00000000000E+00  0.35725003070E+03  0.35725003074E+03  0.50400001928E-02 0.  1.
       -1   -1    0    0    0  501  0.00000000000E+00  0.00000000000E+00 -0.13901358723E+04  0.13901358723E+04  0.50400001928E-02 0. -1.
    10030    2    1    2    0    0  0.00000000000E+00  0.00000000000E+00 -0.10328858416E+04  0.17473859031E+04  0.14094340468E+04 0.  0.
        1    1    3    3  502    0 -0.87389921100E+02  0.26905930735E+03 -0.13166487449E+04  0.13466973775E+04  0.50400001928E-02 0. -1.
       -1    1    3    3    0  502  0.87389921100E+02 -0.26905930735E+03  0.28376290329E+03  0.40068852553E+03  0.50400001928E-02 0.  1.
</event>
<event>
 5   0  0.6671375E-05  0.1407239E+04  0.7818609E-02  0.8948595E-01
       -1   -1    0    0    0  501  0.00000000000E+00  0.00000000000E+00  0.35178850394E+03  0.35178850398E+03  0.50400001928E-02 0.  1.
        1   -1    0    0  501    0  0.00000000000E+00  0.00000000000E+00 -0.14073245821E+04  0.14073245821E+04  0.50400001928E-02 0. -1.
    10030    2    1    2    0    0  0.00000000000E+00  0.00000000000E+00 -0.10555360781E+04  0.17591130861E+04  0.14072392964E+04 0.  0.
        5    1    3    3  502    0  0.40760922217E+03 -0.19922885334E+03 -0.12000334954E+04  0.12829418904E+04  0.46999998093E+01 0. -1.
       -5    1    3    3    0  502 -0.40760922217E+03  0.19922885334E+03  0.14449741727E+03  0.47617119568E+03  0.46999998093E+01 0.  1.
</event>
<event>
 5   0  0.6671375E-05  0.1399497E+04  0.7818609E-02  0.8954183E-01
        1   -1    0    0  501    0  0.00000000000E+00  0.00000000000E+00  0.11984020047E+04  0.11984020047E+04  0.50400001928E-02 0.  1.
       -1   -1    0    0    0  501  0.00000000000E+00  0.00000000000E+00 -0.40858415856E+03  0.40858415859E+03  0.50400001928E-02 0. -1.
    10030    2    1    2    0    0  0.00000000000E+00  0.00000000000E+00  0.78981784614E+03  0.16069861633E+04  0.13994971593E+04 0.  0.
        5    1    3    3  502    0 -0.48744505774E+03 -0.50067376652E+03  0.35273354754E+03  0.78276430064E+03  0.46999998093E+01 0.  1.
       -5    1    3    3    0  502  0.48744505774E+03  0.50067376652E+03  0.43708429859E+03  0.82422186265E+03  0.46999998093E+01 0. -1.
</event>
<event>
 5   0  0.1833681E-04  0.1397977E+04  0.7818609E-02  0.8955284E-01
        2   -1    0    0  501    0  0.00000000000E+00  0.00000000000E+00  0.13656221774E+04  0.13656221774E+04  0.25500000920E-02 0.  1.
       -2   -1    0    0    0  501  0.00000000000E+00  0.00000000000E+00 -0.35777484095E+03  0.35777484096E+03  0.25500000920E-02 0. -1.
    10030    2    1    2    0    0  0.00000000000E+00  0.00000000000E+00  0.10078473365E+04  0.17233970184E+04  0.13979774781E+04 0.  0.
        4    1    3    3  502    0  0.65501620726E+03 -0.22769907836E+03  0.61203311555E+03  0.92492121258E+03  0.12699999809E+01 0.  1.
       -4    1    3    3    0  502 -0.65501620726E+03  0.22769907836E+03  0.39581422092E+03  0.79847580580E+03  0.12699999809E+01 0. -1.
</event>
<event>
 5   0  0.1794185E-04  0.1398797E+04  0.7818609E-02  0.8954689E-01
       -2   -1    0    0    0  501  0.00000000000E+00  0.00000000000E+00  0.30700790358E+03  0.30700790359E+03  0.25500000920E-02 0. -1.
        2   -1    0    0  501    0  0.00000000000E+00  0.00000000000E+00 -0.15933094606E+04  0.15933094606E+04  0.25500000920E-02 0.  1.
    10030    2    1    2    0    0  0.00000000000E+00  0.00000000000E+00 -0.12863015571E+04  0.19003173642E+04  0.13987974796E+04 0.  0.
        2    1    3    3  502    0  0.11034314593E+03  0.19787455332E+03  0.25577406541E+03  0.34168746135E+03  0.25500000920E-02 0. -1.
       -2    1    3    3    0  502 -0.11034314593E+03 -0.19787455332E+03 -0.15420756225E+04  0.15586299029E+04  0.25500000920E-02 0.  1.
</event>
<event>
 5   0  0.9978422E-05  0.1376934E+04  0.7818609E-02  0.8970686E-01
       -1   -1    0    0    0  501  0.00000000000E+00  0.00000000000E+00  0.53699279720E+03  0.53699279722E+03  0.50400001928E-02 0.  1.
        1   -1    0    0  501    0  0.00000000000E+00  0.00000000000E+00 -0.88266899861E+03  0.88266899863E+03  0.50400001928E-02 0. -1.
    10030    2    1    2    0    0  0.00000000000E+00  0.00000000000E+00 -0.34567620142E+03  0.14196617958E+04  0.13769341227E+04 0.  0.
        2    1    3    3  502    0  0.23480693611E+03 -0.17475297815E+03 -0.81532348667E+03  0.86627090943E+03  0.25500000920E-02 0. -1.
       -2    1    3    3    0  502 -0.23480693611E+03  0.17475297815E+03  0.46964728525E+03  0.55339088641E+03  0.25500000920E-02 0.  1.
</event>
<event>
 5   0  0.6671375E-05  0.1391091E+04  0.7818609E-02  0.8960292E-01
       -4   -1    0    0    0  501  0.00000000000E+00  0.00000000000E+00  0.61605550896E+03  0.61605681801E+03  0.12699999809E+01 0. -1.
        4   -1    0    0  501    0  0.00000000000E+00  0.00000000000E+00 -0.78528986244E+03  0.78529088939E+03  0.12699999809E+01 0.  1.
    10030    2    1    2    0    0  0.00000000000E+00  0.00000000000E+00 -0.16923435348E+03  0.14013477074E+04  0.13910913452E+04 0.  0.
        3    1    3    3  502    0  0.40561596273E+03 -0.54330469515E+03 -0.24093688427E+03  0.71955186984E+03  0.10100000352E+00 0. -1.
       -3    1    3    3    0  502 -0.40561596273E+03  0.54330469515E+03  0.71702530786E+02  0.68179583756E+03  0.10100000352E+00 0.  1.
</event>
<event>
 5   0  0.1712327E-04  0.1399926E+04  0.7818609E-02  0.8953872E-01
       -2   -1    0    0    0  501  0.00000000000E+00  0.00000000000E+00  0.60938799741E+03  0.60938799742E+03  0.25500000920E-02 0. -1.
        2   -1    0    0  501    0  0.00000000000E+00  0.00000000000E+00 -0.80400061376E+03  0.80400061376E+03  0.25500000920E-02 0.  1.
    10030    2    1    2    0    0  0.00000000000E+00  0.00000000000E+00 -0.19461261634E+03  0.14133886112E+04  0.13999261751E+04 0.  0.
        1    1    3    3  502    0  0.32157655212E+03  0.11498568737E+03 -0.71417716551E+03  0.79163262371E+03  0.50400001928E-02 0.  1.
       -1    1    3    3    0  502 -0.32157655212E+03 -0.11498568737E+03  0.51956454916E+03  0.62175598746E+03  0.50400001928E-02 0. -1.
</event>
<event>
 5   0  0.9260916E-05  0.1395774E+04  0.7818609E-02  0.8956883E-01
       -1   -1    0    0    0  501  0.00000000000E+00  0.00000000000E+00  0.14004270411E+04  0.14004270411E+04  0.50400001928E-02 0.  1.
        1   -1    0    0  501    0  0.00000000000E+00  0.00000000000E+00 -0.34778421546E+03  0.34778421549E+03  0.50400001928E-02 0. -1.
    10030    2    1    2    0    0  0.00000000000E+00  0.00000000000E+00  0.10526428256E+04  0.17482112566E+04  0.13957742222E+04 0.  0.
        1    1    3    3  502    0  0.67442600966E+03  0.56660845956E+02  0.31308109031E+03  0.74570816215E+03  0.50400001928E-02 0.  1.
       -1    1    3    3    0  502 -0.67442600966E+03 -0.56660845956E+02  0.73956173530E+03  0.10025030944E+04  0.50400001928E-02 0. -1.
</event>
<event>
 5   0  0.6671375E-05  0.1401683E+04  0.7818609E-02  0.8952601E-01
        1   -1    0    0  501    0  0.00000000000E+00  0.00000000000E+00  0.69960598324E+03  0.69960598326E+03  0.50400001928E-02 0. -1.
       -1   -1    0    0    0  501  0.00000000000E+00  0.00000000000E+00 -0.70207953544E+03  0.70207953546E+03  0.50400001928E-02 0.  1.
    10030    2    1    2    0    0  0.00000000000E+00  0.00000000000E+00 -0.24735522013E+01  0.14016855187E+04  0.14016833362E+04 0.  0.
        5    1    3    3  502    0  0.51563796348E+03  0.41954925282E+03 -0.22316699529E+03  0.70123439926E+03  0.46999998093E+01 0.  1.
       -5    1    3    3    0  502 -0.51563796348E+03 -0.41954925282E+03  0.22069344309E+03  0.70045111945E+03  0.46999998093E+01 0. -1.
</event>
<event>
 5   0  0.9260916E-05  0.1397851E+04  0.7818609E-02  0.8955376E-01
        1   -1    0    0  501    0  0.00000000000E+00  0.00000000000E+00  0.93697055566E+03  0.93697055567E+03  0.50400001928E-02 0. -1.
       -1   -1    0    0    0  501  0.00000000000E+00  0.00000000000E+00 -0.52135768746E+03  0.52135768749E+03  0.50400001928E-02 0.  1.
    10030    2    1    2    0    0  0.00000000000E+00  0.00000000000E+00  0.41561286819E+03  0.14583282432E+04  0.13978509250E+04 0.  0.
        1    1    3    3  502    0  0.25931853723E+03 -0.44481000750E+03  0.70090179346E+03  0.86969268746E+03  0.50400001928E-02 0. -1.
       -1    1    3    3    0  502 -0.25931853723E+03  0.44481000750E+03 -0.28528892527E+03  0.58863555570E+03  0.50400001928E-02 0.  1.
</event>
<event>
 5   0  0.9900839E-05  0.1399729E+04  0.7818609E-02  0.8954015E-01
        1   -1    0    0  501    0  0.00000000000E+00  0.00000000000E+00  0.58372390115E+03  0.58372390117E+03  0.50400001928E-02 0.  1.
       -1   -1    0    0    0  501  0.00000000000E+00  0.00000000000E+00 -0.83911325015E+03  0.83911325017E+03  0.50400001928E-02 0. -1.
    10030    2    1    2    0    0  0.00000000000E+00  0.00000000000E+00 -0.25538934900E+03  0.14228371513E+04  0.13997292023E+04 0.  0.
        3    1    3    3  502    0 -0.56208513731E+03 -0.23708901253E+03 -0.47637284729E+03  0.77400387679E+03  0.10100000352E+00 0. -1.
       -3    1    3    3    0  502  0.56208513731E+03  0.23708901253E+03  0.22098349829E+03  0.64883327455E+03  0.10100000352E+00 0.  1.
</event>
<event>
 5   0  0.1766237E-04  0.1399112E+04  0.7818609E-02  0.8954461E-01
        2   -1    0    0  501    0  0.00000000000E+00  0.00000000000E+00  0.36538317827E+03  0.36538317828E+03  0.25500000920E-02 0. -1.
       -2   -1    0    0    0  501  0.00000000000E+00  0.00000000000E+00 -0.13393581040E+04  0.13393581040E+04  0.25500000920E-02 0.  1.
    10030    2    1    2    0    0  0.00000000000E+00  0.00000000000E+00 -0.97397492574E+03  0.17047412823E+04  0.13991124628E+04 0.  0.
        3    1    3    3  502    0  0.12160124325E+03 -0.31557591314E+03  0.25915840851E+03  0.42607289308E+03  0.10100000352E+00 0. -1.
       -3    1    3    3    0  502 -0.12160124325E+03  0.31557591314E+03 -0.12331333343E+04  0.12786683892E+04  0.10100000352E+00 0.  1.
</event>
<event>
 5   0  0.1712327E-04  0.1403116E+04  0.7818609E-02  0.8951566E-01
        2   -1    0    0  501    0  0.00000000000E+00  0.00000000000E+00  0.22603070343E+04  0.22603070343E+04  0.25500000920E-02 0.  1.
       -2   -1    0    0    0  501  0.00000000000E+00  0.00000000000E+00 -0.21775063995E+03  0.21775063996E+03  0.25500000920E-02 0. -1.
    10030    2    1    2    0    0  0.00000000000E+00  0.00000000000E+00  0.20425563943E+04  0.24780576742E+04  0.14031155379E+04 0.  0.
        1    1    3    3  502    0 -0.41662908186E+03 -0.53926088166E+03  0.72680223648E+03  0.99630496402E+03  0.50400001928E-02 0.  1.
       -1    1    3    3    0  502  0.41662908186E+03  0.53926088166E+03  0.13157541578E+04  0.14817527102E+04  0.50400001928E-02 0. -1.
</event>
<event>
 5   0  0.6671375E-05  0.1405046E+04  0.7818609E-02  0.8950174E-01
        1   -1    0    0  501    0  0.00000000000E+00  0.00000000000E+00  0.80539758233E+03  0.80539758235E+03  0.50400001928E-02 0.  1.
       -1   -1    0    0    0  501  0.00000000000E+00  0.00000000000E+00 -0.61278871712E+03  0.61278871714E+03  0.50400001928E-02 0. -1.
    10030    2    1    2    0    0  0.00000000000E+00  0.00000000000E+00  0.19260886522E+03  0.14181862995E+04  0.14050459797E+04 0.  0.
        5    1    3    3  502    0 -0.39997112129E+02 -0.46754852474E+03 -0.43138031037E+03  0.63742643037E+03  0.46999998093E+01 0. -1.
       -5    1    3    3    0  502  0.39997112129E+02  0.46754852474E+03  0.62398917559E+03  0.78075986911E+03  0.46999998093E+01 0.  1.
</event>
<event>
 5   0  0.1833681E-04  0.1400637E+04  0.7818609E-02  0.8953357E-01
       -2   -1    0    0    0  501  0.00000000000E+00  0.00000000000E+00  0.13452892416E+04  0.13452892416E+04  0.25500000920E-02 0.  1.
        2   -1    0    0  501    0  0.00000000000E+00  0.00000000000E+00 -0.36456556535E+03  0.36456556536E+03  0.25500000920E-02 0. -1.
    10030    2    1    2    0    0  0.00000000000E+00  0.00000000000E+00  0.98072367628E+03  0.17098548070E+04  0.14006371878E+04 0.  0.
        4    1    3    3  502    0 -0.58594618607E+03  0.12250810287E+02  0.22373128505E+02  0.58650250221E+03  0.12699999809E+01 0. -1.
       -4    1    3    3    0  502  0.58594618607E+03 -0.12250810287E+02  0.95835054778E+03  0.11233523048E+04  0.12699999809E+01 0.  1.
</event>
<event>
 5   0  0.9978422E-05  0.1397599E+04  0.7818609E-02  0.8955559E-01
        1   -1    0    0  501    0  0.00000000000E+00  0.00000000000E+00  0.17685658642E+04  0.17685658642E+04  0.50400001928E-02 0. -1.
       -1   -1    0    0    0  501  0.00000000000E+00  0.00000000000E+00 -0.27611096413E+03  0.27611096417E+03  0.50400001928E-02 0.  1.
    10030    2    1    2    0    0  0.00000000000E+00  0.00000000000E+00  0.14924549001E+04  0.20446768284E+04  0.13975985489E+04 0.  0.
        2    1    3    3  502    0  0.18407332233E+03  0.66999020638E+03  0.85522348155E+03  0.11018970315E+04  0.25500000920E-02 0.  1.
       -2    1    3    3    0  502 -0.18407332233E+03 -0.66999020638E+03  0.63723141854E+03  0.94277979689E+03  0.25500000920E-02 0. -1.
</event>
<event>
 5   0  0.1780171E-04  0.1401959E+04  0.7818609E-02  0.8952401E-01
       -2   -1    0    0    0  501  0.00000000000E+00  0.00000000000E+00  0.45104325042E+03  0.45104325042E+03  0.25500000920E-02 0.  1.
        2   -1    0    0  501    0  0.00000000000E+00  0.00000000000E+00 -0.10894135019E+04  0.10894135019E+04  0.25500000920E-02 0. -1.
    10030    2    1    2    0    0  0.00000000000E+00  0.00000000000E+00 -0.63837025147E+03  0.15404567523E+04  0.14019594958E+04 0.  0.
        5    1    3    3  502    0 -0.14375010768E+03 -0.40110625862E+03 -0.93076739421E+03  0.10236700427E+04  0.46999998093E+01 0. -1.
       -5    1    3    3    0  502  0.14375010768E+03  0.40110625862E+03  0.29239714275E+03  0.51678670963E+03  0.46999998093E+01 0.  1.
</event>
<event>
 5   0  0.1780171E-04  0.1398730E+04  0.7818609E-02  0.8954738E-01
        2   -1    0    0  501    0  0.00000000000E+00  0.00000000000E+00  0.13911158796E+04  0.13911158796E+04  0.25500000920E-02 0.  1.
       -2   -1    0    0    0  501  0.00000000000E+00  0.00000000000E+00 -0.35159650870E+03  0.35159650871E+03  0.25500000920E-02 0. -1.
    10030    2    1    2    0    0  0.00000000000E+00  0.00000000000E+00  0.10395193709E+04  0.17427123883E+04  0.13987301190E+04 0.  0.
        5    1    3    3  502    0  0.12608930195E+03  0.56069304149E+03  0.23240019959E+02  0.57518465502E+03  0.46999998093E+01 0. -1.
       -5    1    3    3    0  502 -0.12608930195E+03 -0.56069304149E+03  0.10162793509E+04  0.11675277333E+04  0.46999998093E+01 0.  1.
</event>
<event>
 5   0  0.1766237E-04  0.1401268E+04  0.7818609E-02  0.8952901E-01
       -2   -1    0    0    0  501  0.00000000000E+00  0.00000000000E+00  0.67498966901E+03  0.67498966902E+03  0.25500000920E-02 0. -1.
        2   -1    0    0  501    0  0.00000000000E+00  0.00000000000E+00 -0.72725285404E+03  0.72725285404E+03  0.25500000920E-02 0.  1.
    10030    2    1    2    0    0  0.00000000000E+00  0.00000000000E+00 -0.52263185022E+02  0.14022425231E+04  0.14012682302E+04 0.  0.
        3    1    3    3  502    0 -0.11037389859E+03 -0.41770851937E+03  0.52581817636E+03  0.68054946142E+03  0.10100000352E+00 0. -1.
       -3    1    3    3    0  502  0.11037389859E+03  0.41770851937E+03 -0.57808136138E+03  0.72169306164E+03  0.10100000352E+00 0.  1.
</event>
<event>
 5   0  0.1780171E-04  0.1400314E+04  0.7818609E-02  0.8953591E-01
        2   -1    0    0  501    0  0.00000000000E+00  0.00000000000E+00  0.11780045306E+04  0.11780045306E+04  0.25500000920E-02 0. -1.
       -2   -1    0    0    0  501  0.00000000000E+00  0.00000000000E+00 -0.41614440263E+03  0.41614440264E+03  0.25500000920E-02 0.  1.
    10030    2    1    2    0    0  0.00000000000E+00  0.00000000000E+00  0.76186012802E+03  0.15941489333E+04  0.14003142386E+04 0.  0.
        5    1    3    3  502    0 -0.30941895473E+03 -0.29062680020E+02  0.10951602485E+04  0.11384123984E+04  0.46999998093E+01 0. -1.
       -5    1    3    3    0  502  0.30941895473E+03  0.29062680020E+02 -0.33330012049E+03  0.45573653489E+03  0.46999998093E+01 0.  1.
</event>
<event>
 5   0  0.1794185E-04  0.1399558E+04  0.7818609E-02  0.8954139E-01
        2   -1    0    0  501    0  0.00000000000E+00  0.00000000000E+00  0.29347445224E+04  0.29347445224E+04  0.25500000920E-02 0. -1.
       -2   -1    0    0    0  501  0.00000000000E+00  0.00000000000E+00 -0.16685966407E+03  0.16685966409E+03  0.25500000920E-02 0.  1.
    10030    2    1    2    0    0  0.00000000000E+00  0.00000000000E+00  0.27678848583E+04  0.31016041865E+04  0.13995577661E+04 0.  0.
        2    1    3    3  502    0  0.53271399297E+03 -0.20771006096E+03  0.22780157694E+04  0.23486769709E+04  0.25500000920E-02 0. -1.
       -2    1    3    3    0  502 -0.53271399297E+03  0.20771006096E+03  0.48986908884E+03  0.75292721556E+03  0.25500000920E-02 0.  1.
</event>
<event>
 5   0  0.1780171E-04  0.1401093E+04  0.7818609E-02  0.8953027E-01
       -2   -1    0    0    0  501  0.00000000000E+00  0.00000000000E+00  0.82844544547E+03  0.82844544548E+03  0.25500000920E-02 0.  1.
        2   -1    0    0  501    0  0.00000000000E+00  0.00000000000E+00 -0.59239351462E+03  0.59239351463E+03  0.25500000920E-02 0. -1.
    10030    2    1    2    0    0  0.00000000000E+00  0.00000000000E+00  0.23605193085E+03  0.14208389601E+04  0.14010934432E+04 0.  0.
        5    1    3    3  502    0  0.46465167623E+03  0.31881424991E+03  0.54006399937E+03  0.78053502136E+03  0.46999998093E+01 0.  1.
       -5    1    3    3    0  502 -0.46465167623E+03 -0.31881424991E+03 -0.30401206852E+03  0.64030393874E+03  0.46999998093E+01 0. -1.
</event>
<event>
 5   0  0.1794185E-04  0.1396672E+04  0.7818609E-02  0.8956231E-01
        2   -1    0    0  501    0  0.00000000000E+00  0.00000000000E+00  0.15054402543E+04  0.15054402543E+04  0.25500000920E-02 0. -1.
       -2   -1    0    0    0  501  0.00000000000E+00  0.00000000000E+00 -0.32394033522E+03  0.32394033523E+03  0.25500000920E-02 0.  1.
    10030    2    1    2    0    0  0.00000000000E+00  0.00000000000E+00  0.11814999191E+04  0.18293805895E+04  0.13966715013E+04 0.  0.
        2    1    3    3  502    0 -0.59708486676E+03  0.33230159193E+03  0.77937295558E+03  0.10365118861E+04  0.25500000920E-02 0.  1.
       -2    1    3    3    0  502  0.59708486676E+03 -0.33230159193E+03  0.40212696349E+03  0.79286870344E+03  0.25500000920E-02 0. -1.
</event>
<event>
 5   0  0.1833681E-04  0.1403668E+04  0.7818609E-02  0.8951168E-01
       -2   -1    0    0    0  501  0.00000000000E+00  0.00000000000E+00  0.23919483288E+03  0.23919483289E+03  0.25500000920E-02 0. -1.
        2   -1    0    0  501    0  0.00000000000E+00  0.00000000000E+00 -0.20592884789E+04  0.20592884789E+04  0.25500000920E-02 0.  1.
    10030    2    1    2    0    0  0.00000000000E+00  0.00000000000E+00 -0.18200936461E+04  0.22984833118E+04  0.14036682850E+04 0.  0.
        4    1    3    3  502    0  0.67463216692E+03  0.13910170762E+03 -0.68979646854E+03  0.97483261467E+03  0.12699999809E+01 0. -1.
       -4    1    3    3    0  502 -0.67463216692E+03 -0.13910170762E+03 -0.11302971775E+04  0.13236506972E+04  0.12699999809E+01 0.  1.
</event>
<event>
 5   0  0.1712327E-04  0.1400500E+04  0.7818609E-02  0.8953456E-01
       -2   -1    0    0    0  501  0.00000000000E+00  0.00000000000E+00  0.35454460052E+03  0.35454460053E+03  0.25500000920E-02 0.  1.
        2   -1    0    0  501    0  0.00000000000E+00  0.00000000000E+00 -0.13830428833E+04  0.13830428833E+04  0.25500000920E-02 0. -1.
    10030    2    1    2    0    0  0.00000000000E+00  0.00000000000E+00 -0.10284982827E+04  0.17375874838E+04  0.14005004628E+04 0.  0.
        1    1    3    3  502    0 -0.46420008129E+03  0.43420978613E+03 -0.87878951406E+03  0.10845694371E+04  0.50400001928E-02 0. -1.
       -1    1    3    3    0  502  0.46420008129E+03 -0.43420978613E+03 -0.14970876868E+03  0.65301804668E+03  0.50400001928E-02 0.  1.
</event>
<event>
 5   0  0.9260916E-05  0.1400124E+04  0.7818609E-02  0.8953729E-01
        1   -1    0    0  501    0  0.00000000000E+00  0.00000000000E+00  0.14272498406E+04  0.14272498406E+04  0.50400001928E-02 0. -1.
       -1   -1    0    0    0  501  0.00000000000E+00  0.00000000000E+00 -0.34337849639E+03  0.34337849643E+03  0.50400001928E-02 0.  1.
    10030    2    1    2    0    0  0.00000000000E+00  0.00000000000E+00  0.10838713442E+04  0.17706283370E+04  0.14001241435E+04 0.  0.
        1    1    3    3  502    0  0.18284199020E+03 -0.43336276515E+03 -0.11378344368E+03  0.48392267117E+03  0.50400001928E-02 0.  1.
       -1    1    3    3    0  502 -0.18284199020E+03  0.43336276515E+03  0.11976547879E+04  0.12867056659E+04  0.50400001928E-02 0. -1.
</event>
<event>
 5   0  0.6671375E-05  0.1402067E+04  0.7818609E-02  0.8952324E-01
       -1   -1    0    0    0  501  0.00000000000E+00  0.00000000000E+00  0.45295524293E+03  0.45295524296E+03  0.50400001928E-02 0.  1.
        1   -1    0    0  501    0  0.00000000000E+00  0.00000000000E+00 -0.10849812055E+04  0.10849812056E+04  0.50400001928E-02 0. -1.
    10030    2    1    2    0    0  0.00000000000E+00  0.00000000000E+00 -0.63202596262E+03  0.15379364485E+04  0.14020669393E+04 0.  0.
        5    1    3    3  502    0  0.19556393686E+03 -0.47944803732E+03  0.20233795087E+03  0.55594820825E+03  0.46999998093E+01 0.  1.
       -5    1    3    3    0  502 -0.19556393686E+03  0.47944803732E+03 -0.83436391349E+03  0.98198824027E+03  0.46999998093E+01 0. -1.
</event>
<event>
 5   0  0.9978422E-05  0.1402260E+04  0.7818609E-02  0.8952184E-01
       -1   -1    0    0    0  501  0.00000000000E+00  0.00000000000E+00  0.50351922266E+03  0.50351922269E+03  0.50400001928E-02 0.  1.
        1   -1    0    0  501    0  0.00000000000E+00  0.00000000000E+00 -0.97629541133E+03  0.97629541134E+03  0.50400001928E-02 0. -1.
    10030    2    1    2    0    0  0.00000000000E+00  0.00000000000E+00 -0.47277618867E+03  0.14798146340E+04  0.14022603277E+04 0.  0.
        2    1    3    3  502    0 -0.52532955531E+03 -0.18824889556E+03 -0.68433402572E+03  0.88301859954E+03  0.25500000920E-02 0. -1.
       -2    1    3    3    0  502  0.52532955531E+03  0.18824889556E+03  0.21155783706E+03  0.59679603449E+03  0.25500000920E-02 0.  1.
</event>
<event>
 5   0  0.6671375E-05  0.1400107E+04  0.7818609E-02  0.8953741E-01
        1   -1    0    0  501    0  0.00000000000E+00  0.00000000000E+00  0.15353834842E+04  0.15353834842E+04  0.50400001928E-02 0. -1.
       -1   -1    0    0    0  501  0.00000000000E+00  0.00000000000E+00 -0.31918719563E+03  0.31918719567E+03  0.50400001928E-02 0.  1.
    10030    2    1    2    0    0  0.00000000000E+00  0.00000000000E+00  0.12161962886E+04  0.18545706799E+04  0.14001067796E+04 0.  0.
        5    1    3    3  502    0 -0.15897194960E+03 -0.35704396809E+03  0.13773889095E+04  0.14317732970E+04  0.46999998093E+01 0. -1.
       -5    1    3    3    0  502  0.15897194960E+03  0.35704396809E+03 -0.16119262098E+03  0.42279738287E+03  0.46999998093E+01 0.  1.
</event>
<event>
 5   0  0.1712327E-04  0.1396703E+04  0.7818609E-02  0.8956209E-01
        2   -1    0    0  501    0  0.00000000000E+00  0.00000000000E+00  0.45876529463E+03  0.45876529464E+03  0.25500000920E-02 0. -1.
       -2   -1    0    0    0  501  0.00000000000E+00  0.00000000000E+00 -0.10630588463E+04  0.10630588463E+04  0.25500000920E-02 0.  1.
    10030    2    1    2    0    0  0.00000000000E+00  0.00000000000E+00 -0.60429355163E+03  0.15218241409E+04  0.13967025522E+04 0.  0.
        1    1    3    3  502    0  0.17211923188E+03  0.65842415905E+03 -0.13143611150E+03  0.69312542489E+03  0.50400001928E-02 0.  1.
       -1    1    3    3    0  502 -0.17211923188E+03 -0.65842415905E+03 -0.47285744013E+03  0.82869871601E+03  0.50400001928E-02 0. -1.
</event>
<event>
 5   0  0.1833681E-04  0.1402241E+04  0.7818609E-02  0.8952198E-01
        2   -1    0    0  501    0  0.00000000000E+00  0.00000000000E+00  0.13215789182E+04  0.13215789182E+04  0.25500000920E-02 0.  1.
       -2   -1    0    0    0  501  0.00000000000E+00  0.00000000000E+00 -0.37195649611E+03  0.37195649611E+03  0.25500000920E-02 0. -1.
    10030    2    1    2    0    0  0.00000000000E+00  0.00000000000E+00  0.94962242205E+03  0.16935354143E+04  0.14022408691E+04 0.  0.
        4    1    3    3  502    0 -0.15328236438E+03  0.68388922626E+03  0.45163358942E+03  0.83377123303E+03  0.12699999809E+01 0. -1.
       -4    1    3    3    0  502  0.15328236438E+03 -0.68388922626E+03  0.49798883263E+03  0.85976418124E+03  0.12699999809E+01 0.  1.
</event>
<event>
 5   0  0.9828111E-05  0.1397153E+04  0.7818609E-02  0.8955882E-01
       -1   -1    0    0    0  501  0.00000000000E+00  0.00000000000E+00  0.38725546117E+03  0.38725546120E+03  0.50400001928E-02 0.  1.
        1   -1    0    0  501    0  0.00000000000E+00  0.00000000000E+00 -0.12601744861E+04  0.12601744861E+04  0.50400001928E-02 0. -1.
    10030    2    1    2    0    0  0.00000000000E+00  0.00000000000E+00 -0.87291902488E+03  0.16474299473E+04  0.13971534659E+04 0.  0.
        4    1    3    3  502    0  0.89557181918E+02  0.31695203507E+03 -0.11628751561E+04  0.12086187666E+04  0.12699999809E+01 0. -1.
       -4    1    3    3    0  502 -0.89557181918E+02 -0.31695203507E+03  0.28995613121E+03  0.43881118069E+03  0.12699999809E+01 0.  1.
</event>
<event>
 5   0  0.9978422E-05  0.1400939E+04  0.7818609E-02  0.8953139E-01
        1   -1    0    0  501    0  0.00000000000E+00  0.00000000000E+00  0.11596254187E+04  0.11596254188E+04  0.50400001928E-02 0. -1.
       -1   -1    0    0    0  501  0.00000000000E+00  0.00000000000E+00 -0.42311699505E+03  0.42311699508E+03  0.50400001928E-02 0.  1.
    10030    2    1    2    0    0  0.00000000000E+00  0.00000000000E+00  0.73650842369E+03  0.15827424138E+04  0.14009385748E+04 0.  0.
        2    1    3    3  502    0  0.34904974222E+03  0.58543028036E+03  0.18575868971E+03  0.70644930923E+03  0.25500000920E-02 0.  1.
       -2    1    3    3    0  502 -0.34904974222E+03 -0.58543028036E+03  0.55074973398E+03  0.87629310461E+03  0.25500000920E-02 0. -1.
</event>
<event>
 5   0  0.9978422E-05  0.1399790E+04  0.7818609E-02  0.8953971E-01
       -1   -1    0    0    0  501  0.00000000000E+00  0.00000000000E+00  0.30549101027E+03  0.30549101031E+03  0.50400001928E-02 0.  1.
        1   -1    0    0  501    0  0.00000000000E+00  0.00000000000E+00 -0.16034930934E+04  0.16034930934E+04  0.50400001928E-02 0. -1.
    10030    2    1    2    0    0  0.00000000000E+00  0.00000000000E+00 -0.12980020831E+04  0.19089841037E+04  0.13997895915E+04 0.  0.
        2    1    3    3  502    0  0.51864834553E+03  0.93036283348E+02 -0.12772230268E+04  0.13816477542E+04  0.25500000920E-02 0. -1.
       -2    1    3    3    0  502 -0.51864834553E+03 -0.93036283348E+02 -0.20779056287E+02  0.52733634953E+03  0.25500000920E-02 0.  1.
</event>
<event>
 5   0  0.1794185E-04  0.1398770E+04  0.7818609E-02  0.8954709E-01
        2   -1    0    0  501    0  0.00000000000E+00  0.00000000000E+00  0.12728242934E+04  0.12728242934E+04  0.25500000920E-02 0.  1.
       -2   -1    0    0    0  501  0.00000000000E+00  0.00000000000E+00 -0.38429474285E+03  0.38429474286E+03  0.25500000920E-02 0. -1.
    10030    2    1    2    0    0  0.00000000000E+00  0.00000000000E+00  0.88852955052E+03  0.16571190362E+04  0.13987704380E+04 0.  0.
        2    1    3    3  502    0 -0.12365710083E+03 -0.31300324238E+03  0.11705889009E+04  0.12180067665E+04  0.25500000920E-02 0.  1.
       -2    1    3    3    0  502  0.12365710083E+03  0.31300324238E+03 -0.28205935035E+03  0.43911226976E+03  0.25500000920E-02 0. -1.
</event>
<event>
 5   0  0.9260916E-05  0.1401429E+04  0.7818609E-02  0.8952785E-01
        1   -1    0    0  501    0  0.00000000000E+00  0.00000000000E+00  0.12362659147E+04  0.12362659147E+04  0.50400001928E-02 0.  1.
       -1   -1    0    0    0  501  0.00000000000E+00  0.00000000000E+00 -0.39716431015E+03  0.39716431018E+03  0.50400001928E-02 0. -1.
    10030    2    1    2    0    0  0.00000000000E+00  0.00000000000E+00  0.83910160451E+03  0.16334302249E+04  0.14014288411E+04 0.  0.
        1    1    3    3  502    0  0.40289756543E+03 -0.54596813415E+03  0.21568663076E+03  0.71198902692E+03  0.50400001928E-02 0. -1.
       -1    1    3    3    0  502 -0.40289756543E+03  0.54596813415E+03  0.62341497375E+03  0.92144119794E+03  0.50400001928E-02 0.  1.
</event>
<event>
 5   0  0.9978422E-05  0.1402910E+04  0.7818609E-02  0.8951715E-01
        1   -1    0    0  501    0  0.00000000000E+00  0.00000000000E+00  0.12857780171E+04  0.12857780171E+04  0.50400001928E-02 0. -1.
       -1   -1    0    0    0  501  0.00000000000E+00  0.00000000000E+00 -0.38267823973E+03  0.38267823976E+03  0.50400001928E-02 0.  1.
    10030    2    1    2    0    0  0.00000000000E+00  0.00000000000E+00  0.90309977739E+03  0.16684562569E+04  0.14029102157E+04 0.  0.
        2    1    3    3  502    0 -0.43191084452E+03 -0.75386621631E+02 -0.19963960849E+03  0.48175314594E+03  0.25500000920E-02 0.  1.
       -2    1    3    3    0  502  0.43191084452E+03  0.75386621631E+02  0.11027393859E+04  0.11867031109E+04  0.25500000920E-02 0. -1.
</event>
<event>
 5   0  0.9900839E-05  0.1396154E+04  0.7818609E-02  0.8956607E-01
       -1   -1    0    0    0  501  0.00000000000E+00  0.00000000000E+00  0.43923141472E+03  0.43923141475E+03  0.50400001928E-02 0. -1.
        1   -1    0    0  501    0  0.00000000000E+00  0.00000000000E+00 -0.11094645763E+04  0.11094645763E+04  0.50400001928E-02 0.  1.
    10030    2    1    2    0    0  0.00000000000E+00  0.00000000000E+00 -0.67023316156E+03  0.15486959910E+04  0.13961542829E+04 0.  0.
        3    1    3    3  502    0 -0.18527665738E+03 -0.67286774002E+03 -0.31817540638E+03  0.76701631974E+03  0.10100000352E+00 0. -1.
       -3    1    3    3    0  502  0.18527665738E+03  0.67286774002E+03 -0.35205775517E+03  0.78167967129E+03  0.10100000352E+00 0.  1.
</event>
<event>
 5   0  0.9828111E-05  0.1398562E+04  0.7818609E-02  0.8954860E-01
        1   -1    0    0  501    0  0.00000000000E+00  0.00000000000E+00  0.97071167731E+03  0.97071167732E+03  0.50400001928E-02 0.  1.
       -1   -1    0    0    0  501  0.00000000000E+00  0.00000000000E+00 -0.50374787635E+03  0.50374787638E+03  0.50400001928E-02 0. -1.
    10030    2    1    2    0    0  0.00000000000E+00  0.00000000000E+00  0.46696380095E+03  0.14744595537E+04  0.13985620416E+04 0.  0.
        4    1    3    3  502    0 -0.64051792383E+03  0.35160239995E+01  0.52927274807E+03  0.83090723184E+03  0.12699999809E+01 0.  1.
       -4    1    3    3    0  502  0.64051792383E+03 -0.35160239995E+01 -0.62308947116E+02  0.64355232186E+03  0.12699999809E+01 0. -1.
</event>
<event>
 5   0  0.1833681E-04  0.1401468E+04  0.7818609E-02  0.8952757E-01
        2   -1    0    0  501    0  0.00000000000E+00  0.00000000000E+00  0.23265952523E+04  0.23265952523E+04  0.25500000920E-02 0. -1.
       -2   -1    0    0    0  501  0.00000000000E+00  0.00000000000E+00 -0.21105007490E+03  0.21105007491E+03  0.25500000920E-02 0.  1.
    10030    2    1    2    0    0  0.00000000000E+00  0.00000000000E+00  0.21155451774E+04  0.25376453272E+04  0.14014679479E+04 0.  0.
        4    1    3    3  502    0 -0.10231214971E+03 -0.77264318203E+02  0.23051749422E+04  0.23087378972E+04  0.12699999809E+01 0. -1.
       -4    1    3    3    0  502  0.10231214971E+03  0.77264318203E+02 -0.18962976489E+03  0.22890742994E+03  0.12699999809E+01 0.  1.
</event>
<event>
 5   0  0.1794185E-04  0.1398897E+04  0.7818609E-02  0.8954618E-01
       -2   -1    0    0    0  501  0.00000000000E+00  0.00000000000E+00  0.35244620859E+03  0.35244620860E+03  0.25500000920E-02 0.  1.
        2   -1    0    0  501    0  0.00000000000E+00  0.00000000000E+00 -0.13880927046E+04  0.13880927046E+04  0.25500000920E-02 0. -1.
    10030    2    1    2    0    0  0.00000000000E+00  0.00000000000E+00 -0.10356464960E+04  0.17405389132E+04  0.13988967237E+04 0.  0.
        2    1    3    3  502    0  0.18680731763E+03 -0.27849646938E+03  0.24590116977E+03  0.41584208863E+03  0.25500000920E-02 0.  1.
       -2    1    3    3    0  502 -0.18680731763E+03  0.27849646938E+03 -0.12815476657E+04  0.13246968245E+04  0.25500000920E-02 0. -1.
</event>
<event>
 5   0  0.1780171E-04  0.1400602E+04  0.7818609E-02  0.8953383E-01
        2   -1    0    0  501    0  0.00000000000E+00  0.00000000000E+00  0.12017534846E+04  0.12017534846E+04  0.25500000920E-02 0.  1.
       -2   -1    0    0    0  501  0.00000000000E+00  0.00000000000E+00 -0.40808839808E+03  0.40808839809E+03  0.25500000920E-02 0. -1.
    10030    2    1    2    0    0  0.00000000000E+00  0.00000000000E+00  0.79366508653E+03  0.16098418827E+04  0.14006022339E+04 0.  0.
        5    1    3    3  502    0 -0.33289966459E+03  0.36848802494E+02  0.11037039107E+04  0.11534142505E+04  0.46999998093E+01 0.  1.
       -5    1    3    3    0  502  0.33289966459E+03 -0.36848802494E+02 -0.31003882414E+03  0.45642763216E+03  0.46999998093E+01 0. -1.
</event>
<event>
 5   0  0.1766237E-04  0.1399078E+04  0.7818609E-02  0.8954486E-01
       -2   -1    0    0    0  501  0.00000000000E+00  0.00000000000E+00  0.21128420967E+03  0.21128420969E+03  0.25500000920E-02 0. -1.
        2   -1    0    0  501    0  0.00000000000E+00  0.00000000000E+00 -0.23160988468E+04  0.23160988468E+04  0.25500000920E-02 0.  1.
    10030    2    1    2    0    0  0.00000000000E+00  0.00000000000E+00 -0.21048146371E+04  0.25273830564E+04  0.13990784315E+04 0.  0.
        3    1    3    3  502    0  0.27927760603E+03  0.10816367466E+03 -0.21944286348E+04  0.22147714115E+04  0.10100000352E+00 0.  1.
       -3    1    3    3    0  502 -0.27927760603E+03 -0.10816367466E+03  0.89613997754E+02  0.31261164492E+03  0.10100000352E+00 0. -1.
</event>
<event>
 5   0  0.1712327E-04  0.1397280E+04  0.7818609E-02  0.8955790E-01
       -2   -1    0    0    0  501  0.00000000000E+00  0.00000000000E+00  0.41079703775E+03  0.41079703775E+03  0.25500000920E-02 0. -1.
        2   -1    0    0  501    0  0.00000000000E+00  0.00000000000E+00 -0.11881727421E+04  0.11881727421E+04  0.25500000920E-02 0.  1.
    10030    2    1    2    0    0  0.00000000000E+00  0.00000000000E+00 -0.77737570439E+03  0.15989697799E+04  0.13972799903E+04 0.  0.
        1    1    3    3  502    0  0.51735357941E+03 -0.46010870504E+03 -0.49568924841E+03  0.85150606433E+03  0.50400001928E-02 0.  1.
       -1    1    3    3    0  502 -0.51735357941E+03  0.46010870504E+03 -0.28168645598E+03  0.74746371556E+03  0.50400001928E-02 0. -1.
</event>
<event>
 5   0  0.9900839E-05  0.1398673E+04  0.7818609E-02  0.8954780E-01
        1   -1    0    0  501    0  0.00000000000E+00  0.00000000000E+00  0.75271113156E+03  0.75271113158E+03  0.50400001928E-02 0. -1.
       -1   -1    0    0    0  501  0.00000000000E+00  0.00000000000E+00 -0.64974674647E+03  0.64974674649E+03  0.50400001928E-02 0.  1.
    10030    2    1    2    0    0  0.00000000000E+00  0.00000000000E+00  0.10296438509E+03  0.14024578781E+04  0.13986730980E+04 0.  0.
        3    1    3    3  502    0  0.38994478682E+03  0.36150333227E+03  0.50694696913E+03  0.73466784040E+03  0.10100000352E+00 0. -1.
       -3    1    3    3    0  502 -0.38994478682E+03 -0.36150333227E+03 -0.40398258404E+03  0.66779003767E+03  0.10100000352E+00 0.  1.
</event>
<event>
 5   0  0.9900839E-05  0.1398263E+04  0.7818609E-02  0.8955077E-01
        1   -1    0    0  501    0  0.00000000000E+00  0.00000000000E+00  0.29643070391E+04  0.29643070391E+04  0.50400001928E-02 0. -1.
       -1   -1    0    0    0  501  0.00000000000E+00  0.00000000000E+00 -0.16489019006E+03  0.16489019014E+03  0.50400001928E-02 0.  1.
    10030    2    1    2    0    0  0.00000000000E+00  0.00000000000E+00  0.27994168491E+04  0.31291972293E+04  0.13982634247E+04 0.  0.
        3    1    3    3  502    0  0.50485852332E+03 -0.35639312292E+03  0.21313633332E+04  0.22191457489E+04  0.10100000352E+00 0. -1.
       -3    1    3    3    0  502 -0.50485852332E+03  0.35639312292E+03  0.66805351587E+03  0.91005148035E+03  0.10100000352E+00 0.  1.
</event>
<event>
 5   0  0.1780171E-04  0.1410300E+04  0.7818609E-02  0.8946396E-01
       -2   -1    0    0    0  501  0.00000000000E+00  0.00000000000E+00  0.27216065277E+03  0.27216065278E+03  0.25500000920E-02 0.  1.
        2   -1    0    0  501    0  0.00000000000E+00  0.00000000000E+00 -0.18269969359E+04  0.18269969359E+04  0.25500000920E-02 0. -1.
    10030    2    1    2    0    0  0.00000000000E+00  0.00000000000E+00 -0.15548362831E+04  0.20991575887E+04  0.14103002215E+04 0.  0.
        5    1    3    3  502    0  0.36222538382E+03  0.40204491201E+03 -0.10453581998E+03  0.55117798179E+03  0.46999998093E+01 0.  1.
       -5    1    3    3    0  502 -0.36222538382E+03 -0.40204491201E+03 -0.14503004632E+04  0.15479796069E+04  0.46999998093E+01 0. -1.
</event>
<event>
 5   0  0.9828111E-05  0.1406161E+04  0.7818609E-02  0.8949371E-01
        1   -1    0    0  501    0  0.00000000000E+00  0.00000000000E+00  0.34754476086E+03  0.34754476090E+03  0.50400001928E-02 0.  1.
       -1   -1    0    0    0  501  0.00000000000E+00  0.00000000000E+00 -0.14223268021E+04  0.14223268021E+04  0.50400001928E-02 0. -1.
    10030    2    1    2    0    0  0.00000000000E+00  0.00000000000E+00 -0.10747820412E+04  0.17698715630E+04  0.14061610553E+04 0.  0.
        4    1    3    3  502    0 -0.43755326636E+03 -0.46706752226E+03 -0.90373461067E+03  0.11074036259E+04  0.12699999809E+01 0.  1.
       -4    1    3    3    0  502  0.43755326636E+03  0.46706752226E+03 -0.17104743053E+03  0.66246793706E+03  0.12699999809E+01 0. -1.
</event>
<event>
 5   0  0.1712327E-04  0.1397172E+04  0.7818609E-02  0.8955868E-01
       -2   -1    0    0    0  501  0.00000000000E+00  0.00000000000E+00  0.50447753940E+03  0.50447753940E+03  0.25500000920E-02 0.  1.
        2   -1    0    0  501    0  0.00000000000E+00  0.00000000000E+00 -0.96738174716E+03  0.96738174717E+03  0.25500000920E-02 0. -1.
    10030    2    1    2    0    0  0.00000000000E+00  0.00000000000E+00 -0.46290420776E+03  0.14718592866E+04  0.13971719486E+04 0.  0.
        1    1    3    3  502    0 -0.41245018701E+03  0.50352452671E+03  0.35823339447E+02  0.65187070608E+03  0.50400001928E-02 0.  1.
       -1    1    3    3    0  502  0.41245018701E+03 -0.50352452671E+03 -0.49872754721E+03  0.81998858049E+03  0.50400001928E-02 0. -1.
</event>
<event>
 5   0  0.6671375E-05  0.1396283E+04  0.7818609E-02  0.8956513E-01
       -3   -1    0    0    0  501  0.00000000000E+00  0.00000000000E+00  0.25614975836E+03  0.25614977827E+03  0.10100000352E+00 0.  1.
        3   -1    0    0  501    0  0.00000000000E+00  0.00000000000E+00 -0.19027993377E+04  0.19027993403E+04  0.10100000352E+00 0. -1.
    10030    2    1    2    0    0  0.00000000000E+00  0.00000000000E+00 -0.16466495793E+04  0.21589491186E+04  0.13962830872E+04 0.  0.
        3    1    3    3  502    0  0.11075477598E+03 -0.45619757189E+03 -0.16223119802E+04  0.16888691531E+04  0.10100000352E+00 0. -1.
       -3    1    3    3    0  502 -0.11075477598E+03  0.45619757189E+03 -0.24337599065E+02  0.47007996547E+03  0.10100000352E+00 0.  1.
</event>
<event>
 5   0  0.1766237E-04  0.1398041E+04  0.7818609E-02  0.8955238E-01
        2   -1    0    0  501    0  0.00000000000E+00  0.00000000000E+00  0.10626299284E+04  0.10626299284E+04  0.25500000920E-02 0. -1.
       -2   -1    0    0    0  501  0.00000000000E+00  0.00000000000E+00 -0.45983038284E+03  0.45983038285E+03  0.25500000920E-02 0.  1.
    10030    2    1    2    0    0  0.00000000000E+00  0.00000000000E+00  0.60279954558E+03  0.15224603113E+04  0.13980408103E+04 0.  0.
        3    1    3    3  502    0 -0.68138499432E+03 -0.49239638437E+02  0.14017153872E+03  0.69739380765E+03  0.10100000352E+00 0.  1.
       -3    1    3    3    0  502  0.68138499432E+03  0.49239638437E+02  0.46262800686E+03  0.82506650363E+03  0.10100000352E+00 0. -1.
</event>
<event>
 5   0  0.6671375E-05  0.1400491E+04  0.7818609E-02  0.8953464E-01
        3   -1    0    0  501    0  0.00000000000E+00  0.00000000000E+00  0.11060907260E+04  0.11060907306E+04  0.10100000352E+00 0.  1.
       -3   -1    0    0    0  501  0.00000000000E+00  0.00000000000E+00 -0.44331211518E+03  0.44331212668E+03  0.10100000352E+00 0. -1.
    10030    2    1    2    0    0  0.00000000000E+00  0.00000000000E+00  0.66277861082E+03  0.15494028573E+04  0.14004905309E+04 0.  0.
        2    1    3    3  502    0 -0.65445009444E+03  0.23201579146E+03  0.43161546901E+03  0.81757456339E+03  0.25500000920E-02 0. -1.
       -2    1    3    3    0  502  0.65445009444E+03 -0.23201579146E+03  0.23116314181E+03  0.73182829389E+03  0.25500000920E-02 0.  1.
</event>
<event>
 5   0  0.9260916E-05  0.1407168E+04  0.7818609E-02  0.8948646E-01
       -1   -1    0    0    0  501  0.00000000000E+00  0.00000000000E+00  0.24625448313E+04  0.24625448313E+04  0.50400001928E-02 0. -1.
        1   -1    0    0  501    0  0.00000000000E+00  0.00000000000E+00 -0.20102387854E+03  0.20102387860E+03  0.50400001928E-02 0.  1.
    10030    2    1    2    0    0  0.00000000000E+00  0.00000000000E+00  0.22615209527E+04  0.26635687099E+04  0.14071678125E+04 0.  0.
        1    1    3    3  502    0  0.64152914600E+03 -0.24467449074E+02  0.16756669319E+04  0.17944408511E+04  0.50400001928E-02 0. -1.
       -1    1    3    3    0  502 -0.64152914600E+03  0.24467449074E+02  0.58585402081E+03  0.86912785881E+03  0.50400001928E-02 0.  1.
</event>
<event>
 5   0  0.1766237E-04  0.1402429E+04  0.7818609E-02  0.8952062E-01
       -2   -1    0    0    0  501  0.00000000000E+00  0.00000000000E+00  0.18342353083E+03  0.18342353085E+03  0.25500000920E-02 0.  1.
        2   -1    0    0  501    0  0.00000000000E+00  0.00000000000E+00 -0.26806919591E+04  0.26806919591E+04  0.25500000920E-02 0. -1.
    10030    2    1    2    0    0  0.00000000000E+00  0.00000000000E+00 -0.24972684283E+04  0.28641154900E+04  0.14024292984E+04 0.  0.
        3    1    3    3  502    0 -0.26312693096E+03  0.26395307467E+03 -0.35606453020E+02  0.37439930171E+03  0.10100000352E+00 0.  1.
       -3    1    3    3    0  502  0.26312693096E+03 -0.26395307467E+03 -0.24616619753E+04  0.24897161883E+04  0.10100000352E+00 0. -1.
</event>
<event>
 5   0  0.1712327E-04  0.1385208E+04  0.7818609E-02  0.8964596E-01
        2   -1    0    0  501    0  0.00000000000E+00  0.00000000000E+00  0.73107511216E+03  0.73107511217E+03  0.25500000920E-02 0. -1.
       -2   -1    0    0    0  501  0.00000000000E+00  0.00000000000E+00 -0.65615688035E+03  0.65615688035E+03  0.25500000920E-02 0.  1.
    10030    2    1    2    0    0  0.00000000000E+00  0.00000000000E+00  0.74918231814E+02  0.13872319925E+04  0.13852075150E+04 0.  0.
        1    1    3    3  502    0 -0.50744478285E+03 -0.18816662749E+03  0.47028641612E+03  0.71699107425E+03  0.50400001928E-02 0. -1.
       -1    1    3    3    0  502  0.50744478285E+03  0.18816662749E+03 -0.39536818431E+03  0.67024091827E+03  0.50400001928E-02 0.  1.
</event>
<event>
 5   0  0.9978422E-05  0.1400849E+04  0.7818609E-02  0.8953204E-01
       -1   -1    0    0    0  501  0.00000000000E+00  0.00000000000E+00  0.25319392487E+03  0.25319392492E+03  0.50400001928E-02 0. -1.
        1   -1    0    0  501    0  0.00000000000E+00  0.00000000000E+00 -0.19376234045E+04  0.19376234045E+04  0.50400001928E-02 0.  1.
    10030    2    1    2    0    0  0.00000000000E+00  0.00000000000E+00 -0.16844294797E+04  0.21908173295E+04  0.14008489923E+04 0.  0.
        2    1    3    3  502    0  0.10690129315E+02  0.66627637914E+03 -0.50477005359E+03  0.83596130250E+03  0.25500000920E-02 0. -1.
       -2    1    3    3    0  502 -0.10690129315E+02 -0.66627637914E+03 -0.11796594261E+04  0.13548560270E+04  0.25500000920E-02 0.  1.
</event>
<event>
 5   0  0.1833681E-04  0.1399904E+04  0.7818609E-02  0.8953888E-01
       -2   -1    0    0    0  501  0.00000000000E+00  0.00000000000E+00  0.22604638270E+03  0.22604638272E+03  0.25500000920E-02 0. -1.
        2   -1    0    0  501    0  0.00000000000E+00  0.00000000000E+00 -0.21674003475E+04  0.21674003475E+04  0.25500000920E-02 0.  1.
    10030    2    1    2    0    0  0.00000000000E+00  0.00000000000E+00 -0.19413539648E+04  0.23934467302E+04  0.13999042945E+04 0.  0.
        4    1    3    3  502    0 -0.24779157946E+02  0.69930500139E+03 -0.99978766903E+03  0.12203353997E+04  0.12699999809E+01 0. -1.
       -4    1    3    3    0  502  0.24779157946E+02 -0.69930500139E+03 -0.94156629573E+03  0.11731113305E+04  0.12699999809E+01 0.  1.
</event>
<event>
 5   0  0.1794185E-04  0.1401677E+04  0.7818609E-02  0.8952606E-01
        2   -1    0    0  501    0  0.00000000000E+00  0.00000000000E+00  0.74515249591E+03  0.74515249592E+03  0.25500000920E-02 0. -1.
       -2   -1    0    0    0  501  0.00000000000E+00  0.00000000000E+00 -0.65915947003E+03  0.65915947004E+03  0.25500000920E-02 0.  1.
    10030    2    1    2    0    0  0.00000000000E+00  0.00000000000E+00  0.85993025883E+02  0.14043119660E+04  0.14016766022E+04 0.  0.
        2    1    3    3  502    0 -0.52234026580E+03  0.45097939438E+03 -0.79514041094E+02  0.69465405072E+03  0.25500000920E-02 0.  1.
       -2    1    3    3    0  502  0.52234026580E+03 -0.45097939438E+03  0.16550706698E+03  0.70965791524E+03  0.25500000920E-02 0. -1.
</event>
<event>
 5   0  0.9900839E-05  0.1398511E+04  0.7818609E-02  0.8954897E-01
        1   -1    0    0  501    0  0.00000000000E+00  0.00000000000E+00  0.19570805361E+04  0.19570805361E+04  0.50400001928E-02 0. -1.
       -1   -1    0    0    0  501  0.00000000000E+00  0.00000000000E+00 -0.24984046330E+03  0.24984046335E+03  0.50400001928E-02 0.  1.
    10030    2    1    2    0    0  0.00000000000E+00  0.00000000000E+00  0.17072400728E+04  0.22069209994E+04  0.13985105046E+04 0.  0.
        3    1    3    3  502    0  0.66957746561E+03  0.24365247473E+02  0.11693495679E+04  0.13477039994E+04  0.10100000352E+00 0.  1.
       -3    1    3    3    0  502 -0.66957746561E+03 -0.24365247473E+02  0.53789050482E+03  0.85921700002E+03  0.10100000352E+00 0. -1.
</event>
<event>
 5   0  0.9828111E-05  0.1400297E+04  0.7818609E-02  0.8953604E-01
        1   -1    0    0  501    0  0.00000000000E+00  0.00000000000E+00  0.64943056354E+03  0.64943056356E+03  0.50400001928E-02 0.  1.
       -1   -1    0    0    0  501  0.00000000000E+00  0.00000000000E+00 -0.75482738957E+03  0.75482738959E+03  0.50400001928E-02 0. -1.
    10030    2    1    2    0    0  0.00000000000E+00  0.00000000000E+00 -0.10539682603E+03  0.14042579531E+04  0.14002970785E+04 0.  0.
        4    1    3    3  502    0  0.19102717142E+03  0.12574416320E+03 -0.71631290688E+03  0.75193667836E+03  0.12699999809E+01 0. -1.
       -4    1    3    3    0  502 -0.19102717142E+03 -0.12574416320E+03  0.61091608085E+03  0.65232127479E+03  0.12699999809E+01 0.  1.
</event>
<event>
 5   0  0.6671375E-05  0.1397141E+04  0.7818609E-02  0.8955891E-01
        1   -1    0    0  501    0  0.00000000000E+00  0.00000000000E+00  0.50782435784E+03  0.50782435787E+03  0.50400001928E-02 0. -1.
       -1   -1    0    0    0  501  0.00000000000E+00  0.00000000000E+00 -0.96096336214E+03  0.96096336215E+03  0.50400001928E-02 0.  1.
    10030    2    1    2    0    0  0.00000000000E+00  0.00000000000E+00 -0.45313900430E+03  0.14687877200E+04  0.13971407979E+04 0.  0.
        5    1    3    3  502    0  0.39447977875E+03  0.44507737494E+03  0.15865057468E+03  0.61554874736E+03  0.46999998093E+01 0.  1.
       -5    1    3    3    0  502 -0.39447977875E+03 -0.44507737494E+03 -0.61178957897E+03  0.85323897266E+03  0.46999998093E+01 0. -1.
</event>
<event>
 5   0  0.9828111E-05  0.1402583E+04  0.7818609E-02  0.8951951E-01
       -1   -1    0    0    0  501  0.00000000000E+00  0.00000000000E+00  0.57850625402E+03  0.57850625404E+03  0.50400001928E-02 0.  1.
        1   -1    0    0  501    0  0.00000000000E+00  0.00000000000E+00 -0.85013757337E+03  0.85013757338E+03  0.50400001928E-02 0. -1.
    10030    2    1    2    0    0  0.00000000000E+00  0.00000000000E+00 -0.27163131935E+03  0.14286438274E+04  0.14025831925E+04 0.  0.
        4    1    3    3  502    0  0.59161746858E+03  0.36402062325E+03 -0.37661033521E+02  0.69565955008E+03  0.12699999809E+01 0.  1.
       -4    1    3    3    0  502 -0.59161746858E+03 -0.36402062325E+03 -0.23397028583E+03  0.73298427734E+03  0.12699999809E+01 0. -1.
</event>
<event>
 5   0  0.9260916E-05  0.1398396E+04  0.7818609E-02  0.8954981E-01
        1   -1    0    0  501    0  0.00000000000E+00  0.00000000000E+00  0.41281844383E+03  0.41281844387E+03  0.50400001928E-02 0.  1.
       -1   -1    0    0    0  501  0.00000000000E+00  0.00000000000E+00 -0.11842434430E+04  0.11842434430E+04  0.50400001928E-02 0. -1.
    10030    2    1    2    0    0  0.00000000000E+00  0.00000000000E+00 -0.77142499920E+03  0.15970618869E+04  0.13983955596E+04 0.  0.
        1    1    3    3  502    0 -0.14939519472E+03  0.68057507033E+03 -0.31935273920E+03  0.76647734645E+03  0.50400001928E-02 0.  1.
       -1    1    3    3    0  502  0.14939519472E+03 -0.68057507033E+03 -0.45207226000E+03  0.83058454046E+03  0.50400001928E-02 0. -1.
</event>
<event>
 5   0  0.1780171E-04  0.1399658E+04  0.7818609E-02  0.8954066E-01
        2   -1    0    0  501    0  0.00000000000E+00  0.00000000000E+00  0.29840818872E+04  0.29840818872E+04  0.25500000920E-02 0. -1.
       -2   -1    0    0    0  501  0.00000000000E+00  0.00000000000E+00 -0.16412442585E+03  0.16412442587E+03  0.25500000920E-02 0.  1.
    10030    2    1    2    0    0  0.00000000000E+00  0.00000000000E+00  0.28199574613E+04  0.31482063131E+04  0.13996581389E+04 0.  0.
        5    1    3    3  502    0  0.34925377811E+03 -0.53989691780E+03  0.20311667570E+04  0.21305227922E+04  0.46999998093E+01 0. -1.
       -5    1    3    3    0  502 -0.34925377811E+03  0.53989691780E+03  0.78879070435E+03  0.10176835209E+04  0.46999998093E+01 0.  1.
</event>
<event>
 5   0  0.9828111E-05  0.1397909E+04  0.7818609E-02  0.8955334E-01
        1   -1    0    0  501    0  0.00000000000E+00  0.00000000000E+00  0.85910172475E+03  0.85910172476E+03  0.50400001928E-02 0.  1.
       -1   -1    0    0    0  501  0.00000000000E+00  0.00000000000E+00 -0.56866035228E+03  0.56866035230E+03  0.50400001928E-02 0. -1.
    10030    2    1    2    0    0  0.00000000000E+00  0.00000000000E+00  0.29044137247E+03  0.14277620771E+04  0.13979085656E+04 0.  0.
        4    1    3    3  502    0 -0.12928950087E+03  0.15237423430E+03  0.82930176700E+03  0.85303969190E+03  0.12699999809E+01 0.  1.
       -4    1    3    3    0  502  0.12928950087E+03 -0.15237423430E+03 -0.53886039453E+03  0.57472238516E+03  0.12699999809E+01 0. -1.
</event>
<event>
 5   0  0.6671375E-05  0.1401688E+04  0.7818609E-02  0.8952598E-01
       -4   -1    0    0    0  501  0.00000000000E+00  0.00000000000E+00  0.85108885399E+03  0.85108980154E+03  0.12699999809E+01 0.  1.
        4   -1    0    0  501    0  0.00000000000E+00  0.00000000000E+00 -0.57712022436E+03  0.57712162172E+03  0.12699999809E+01 0. -1.
    10030    2    1    2    0    0  0.00000000000E+00  0.00000000000E+00  0.27396862963E+03  0.14282114233E+04  0.14016879323E+04 0.  0.
        4    1    3    3  502    0 -0.56487382455E+03  0.36995564641E+03 -0.54266750437E+02  0.67741871179E+03  0.12699999809E+01 0.  1.
       -4    1    3    3    0  502  0.56487382455E+03 -0.36995564641E+03  0.32823538007E+03  0.75079271148E+03  0.12699999809E+01 0. -1.
</event>
<event>
 5   0  0.1766237E-04  0.1402205E+04  0.7818609E-02  0.8952224E-01
        2   -1    0    0  501    0  0.00000000000E+00  0.00000000000E+00  0.12922002701E+04  0.12922002701E+04  0.25500000920E-02 0. -1.
       -2   -1    0    0    0  501  0.00000000000E+00  0.00000000000E+00 -0.38039358118E+03  0.38039358119E+03  0.25500000920E-02 0.  1.
    10030    2    1    2    0    0  0.00000000000E+00  0.00000000000E+00  0.91180668892E+03  0.16725938513E+04  0.14022049613E+04 0.  0.
        3    1    3    3  502    0  0.37743786348E+03 -0.11380109222E+03 -0.23566584652E+03  0.45929122657E+03  0.10100000352E+00 0.  1.
       -3    1    3    3    0  502 -0.37743786348E+03  0.11380109222E+03  0.11474725354E+04  0.12133026247E+04  0.10100000352E+00 0. -1.
</event>
<event>
 5   0  0.1766237E-04  0.1399090E+04  0.7818609E-02  0.8954477E-01
       -2   -1    0    0    0  501  0.00000000000E+00  0.00000000000E+00  0.10237340620E+04  0.10237340620E+04  0.25500000920E-02 0. -1.
        2   -1    0    0  501    0  0.00000000000E+00  0.00000000000E+00 -0.47801806311E+03  0.47801806311E+03  0.25500000920E-02 0.  1.
    10030    2    1    2    0    0  0.00000000000E+00  0.00000000000E+00  0.54571599885E+03  0.15017521251E+04  0.13990902379E+04 0.  0.
        3    1    3    3  502    0  0.30776032793E+01 -0.69784425831E+03  0.22063310206E+03  0.73189825551E+03  0.10100000352E+00 0.  1.
       -3    1    3    3    0  502 -0.30776032793E+01  0.69784425831E+03  0.32508289679E+03  0.76985386956E+03  0.10100000352E+00 0. -1.
</event>
<event>
 5   0  0.6671375E-05  0.1401786E+04  0.7818609E-02  0.8952526E-01
       -1   -1    0    0    0  501  0.00000000000E+00  0.00000000000E+00  0.58257911013E+03  0.58257911015E+03  0.50400001928E-02 0. -1.
        1   -1    0    0  501    0  0.00000000000E+00  0.00000000000E+00 -0.84323533050E+03  0.84323533052E+03  0.50400001928E-02 0.  1.
    10030    2    1    2    0    0  0.00000000000E+00  0.00000000000E+00 -0.26065622037E+03  0.14258144407E+04  0.14017864153E+04 0.  0.
        5    1    3    3  502    0  0.40983390804E+03  0.39956469265E+03 -0.54175306206E+03  0.78812070525E+03  0.46999998093E+01 0.  1.
       -5    1    3    3    0  502 -0.40983390804E+03 -0.39956469265E+03  0.28109684170E+03  0.63769373542E+03  0.46999998093E+01 0. -1.
</event>
<event>
 5   0  0.1780171E-04  0.1398970E+04  0.7818609E-02  0.8954564E-01
       -2   -1    0    0    0  501  0.00000000000E+00  0.00000000000E+00  0.47322479676E+03  0.47322479677E+03  0.25500000920E-02 0. -1.
        2   -1    0    0  501    0  0.00000000000E+00  0.00000000000E+00 -0.10339260708E+04  0.10339260708E+04  0.25500000920E-02 0.  1.
    10030    2    1    2    0    0  0.00000000000E+00  0.00000000000E+00 -0.56070127402E+03  0.15071508676E+04  0.13989702709E+04 0.  0.
        5    1    3    3  502    0  0.30630872249E+02  0.69186178756E+03 -0.17453972570E+03  0.71421088571E+03  0.46999998093E+01 0.  1.
       -5    1    3    3    0  502 -0.30630872249E+02 -0.69186178756E+03 -0.38616154832E+03  0.79293998185E+03  0.46999998093E+01 0. -1.
</event>
<event>
 5   0  0.1766237E-04  0.1397575E+04  0.7818609E-02  0.8955576E-01
        2   -1    0    0  501    0  0.00000000000E+00  0.00000000000E+00  0.14088883523E+04  0.14088883523E+04  0.25500000920E-02 0. -1.
       -2   -1    0    0    0  501  0.00000000000E+00  0.00000000000E+00 -0.34658824887E+03  0.34658824888E+03  0.25500000920E-02 0.  1.
    10030    2    1    2    0    0  0.00000000000E+00  0.00000000000E+00  0.10623001034E+04  0.17554766012E+04  0.13975752529E+04 0.  0.
        3    1    3    3  502    0 -0.28344205660E+03  0.29936688983E+03 -0.17755954850E+03  0.44887340937E+03  0.10100000352E+00 0.  1.
       -3    1    3    3    0  502  0.28344205660E+03 -0.29936688983E+03  0.12398596519E+04  0.13066031918E+04  0.10100000352E+00 0. -1.
</event>
<event>
 5   0  0.9900839E-05  0.1399628E+04  0.7818609E-02  0.8954088E-01
       -1   -1    0    0    0  501  0.00000000000E+00  0.00000000000E+00  0.11870602926E+04  0.11870602926E+04  0.50400001928E-02 0.  1.
        1   -1    0    0  501    0  0.00000000000E+00  0.00000000000E+00 -0.41256532099E+03  0.41256532102E+03  0.50400001928E-02 0. -1.
    10030    2    1    2    0    0  0.00000000000E+00  0.00000000000E+00  0.77449497158E+03  0.15996256136E+04  0.13996283945E+04 0.  0.
        3    1    3    3  502    0 -0.33863395979E+03 -0.44931643218E+03  0.86286362817E+03  0.10300931346E+04  0.10100000352E+00 0. -1.
       -3    1    3    3    0  502  0.33863395979E+03  0.44931643218E+03 -0.88368656595E+02  0.56953247898E+03  0.10100000352E+00 0.  1.
</event>
<event>
 5   0  0.9900839E-05  0.1398543E+04  0.7818609E-02  0.8954874E-01
       -1   -1    0    0    0  501  0.00000000000E+00  0.00000000000E+00  0.42698040742E+03  0.42698040745E+03  0.50400001928E-02 0. -1.
        1   -1    0    0  501    0  0.00000000000E+00  0.00000000000E+00 -0.11452067609E+04  0.11452067609E+04  0.50400001928E-02 0.  1.
    10030    2    1    2    0    0  0.00000000000E+00  0.00000000000E+00 -0.71822635347E+03  0.15721871683E+04  0.13985433127E+04 0.  0.
        3    1    3    3  502    0  0.21696404396E+03  0.26255461995E+03 -0.10456545914E+04  0.10997280844E+04  0.10100000352E+00 0.  1.
       -3    1    3    3    0  502 -0.21696404396E+03 -0.26255461995E+03  0.32742823794E+03  0.47245908397E+03  0.10100000352E+00 0. -1.
</event>
<event>
 5   0  0.9828111E-05  0.1400422E+04  0.7818609E-02  0.8953513E-01
       -1   -1    0    0    0  501  0.00000000000E+00  0.00000000000E+00  0.65115160230E+03  0.65115160232E+03  0.50400001928E-02 0.  1.
        1   -1    0    0  501    0  0.00000000000E+00  0.00000000000E+00 -0.75296612819E+03  0.75296612821E+03  0.50400001928E-02 0. -1.
    10030    2    1    2    0    0  0.00000000000E+00  0.00000000000E+00 -0.10181452589E+03  0.14041177305E+04  0.14004215092E+04 0.  0.
        4    1    3    3  502    0 -0.56649510434E+03 -0.19896307266E+03  0.31030806494E+03  0.67586664039E+03  0.12699999809E+01 0.  1.
       -4    1    3    3    0  502  0.56649510434E+03  0.19896307266E+03 -0.41212259083E+03  0.72825109014E+03  0.12699999809E+01 0. -1.
</event>
<event>
 5   0  0.6671375E-05  0.1400365E+04  0.7818609E-02  0.8953554E-01
        3   -1    0    0  501    0  0.00000000000E+00  0.00000000000E+00  0.29369945659E+03  0.29369947395E+03  0.10100000352E+00 0.  1.
       -3   -1    0    0    0  501  0.00000000000E+00  0.00000000000E+00 -0.16692428603E+04  0.16692428633E+04  0.10100000352E+00 0. -1.
    10030    2    1    2    0    0  0.00000000000E+00  0.00000000000E+00 -0.13755434037E+04  0.19629423373E+04  0.14003652966E+04 0.  0.
        2    1    3    3  502    0  0.49890747750E+02  0.43457847606E+03 -0.14541357429E+04  0.15185052839E+04  0.25500000920E-02 0. -1.
       -2    1    3    3    0  502 -0.49890747750E+02 -0.43457847606E+03  0.78592339244E+02  0.44443705331E+03  0.25500000920E-02 0.  1.
</event>
<event>
 5   0  0.1712327E-04  0.1396671E+04  0.7818609E-02  0.8956232E-01
        2   -1    0    0  501    0  0.00000000000E+00  0.00000000000E+00  0.12681376647E+04  0.12681376647E+04  0.25500000920E-02 0.  1.
       -2   -1    0    0    0  501  0.00000000000E+00  0.00000000000E+00 -0.38455810415E+03  0.38455810416E+03  0.25500000920E-02 0. -1.
    10030    2    1    2    0    0  0.00000000000E+00  0.00000000000E+00  0.88357956059E+03  0.16526957689E+04  0.13966712085E+04 0.  0.
        1    1    3    3  502    0 -0.91555054587E+02 -0.55855102702E+03 -0.42227683811E+02  0.56757797271E+03  0.50400001928E-02 0. -1.
       -1    1    3    3    0  502  0.91555054587E+02  0.55855102702E+03  0.92580724440E+03  0.10851177962E+04  0.50400001928E-02 0.  1.
</event>
<event>
 5   0  0.6671375E-05  0.1401621E+04  0.7818609E-02  0.8952646E-01
        4   -1    0    0  501    0  0.00000000000E+00  0.00000000000E+00  0.65039885181E+03  0.65040009174E+03  0.12699999809E+01 0. -1.
       -4   -1    0    0    0  501  0.00000000000E+00  0.00000000000E+00 -0.75512654413E+03  0.75512761210E+03  0.12699999809E+01 0.  1.
    10030    2    1    2    0    0  0.00000000000E+00  0.00000000000E+00 -0.10472769232E+03  0.14055277038E+04  0.14016205752E+04 0.  0.
        2    1    3    3  502    0  0.33743614657E+03  0.54783064288E+03  0.22617562212E+03  0.68200951484E+03  0.25500000920E-02 0. -1.
       -2    1    3    3    0  502 -0.33743614657E+03 -0.54783064288E+03 -0.33090331444E+03  0.72351818899E+03  0.25500000920E-02 0.  1.
</event>
<event>
 5   0  0.1794185E-04  0.1399233E+04  0.7818609E-02  0.8954374E-01
       -2   -1    0    0    0  501  0.00000000000E+00  0.00000000000E+00  0.33678924918E+03  0.33678924919E+03  0.25500000920E-02 0.  1.
        2   -1    0    0  501    0  0.00000000000E+00  0.00000000000E+00 -0.14533222618E+04  0.14533222618E+04  0.25500000920E-02 0. -1.
    10030    2    1    2    0    0  0.00000000000E+00  0.00000000000E+00 -0.11165330126E+04  0.17901115110E+04  0.13992330947E+04 0.  0.
        2    1    3    3  502    0 -0.40205109408E+03  0.54926713223E+03 -0.35148647562E+03  0.76608237634E+03  0.25500000920E-02 0.  1.
       -2    1    3    3    0  502  0.40205109408E+03 -0.54926713223E+03 -0.76504653697E+03  0.10240291346E+04  0.25500000920E-02 0. -1.
</event>
<event>
 5   0  0.1766237E-04  0.1397934E+04  0.7818609E-02  0.8955315E-01
       -2   -1    0    0    0  501  0.00000000000E+00  0.00000000000E+00  0.31827894429E+03  0.31827894430E+03  0.25500000920E-02 0.  1.
        2   -1    0    0  501    0  0.00000000000E+00  0.00000000000E+00 -0.15349895957E+04  0.15349895957E+04  0.25500000920E-02 0. -1.
    10030    2    1    2    0    0  0.00000000000E+00  0.00000000000E+00 -0.12167106515E+04  0.18532685400E+04  0.13979340014E+04 0.  0.
        3    1    3    3  502    0 -0.46288855909E+03 -0.33869564812E+03 -0.11379372534E+04  0.12743161943E+04  0.10100000352E+00 0. -1.
       -3    1    3    3    0  502  0.46288855909E+03  0.33869564812E+03 -0.78773398060E+02  0.57895234574E+03  0.10100000352E+00 0.  1.
</event>
<event>
 5   0  0.9978422E-05  0.1401149E+04  0.7818609E-02  0.8952987E-01
       -1   -1    0    0    0  501  0.00000000000E+00  0.00000000000E+00  0.36557248346E+03  0.36557248350E+03  0.50400001928E-02 0. -1.
        1   -1    0    0  501    0  0.00000000000E+00  0.00000000000E+00 -0.13425652262E+04  0.13425652263E+04  0.50400001928E-02 0.  1.
    10030    2    1    2    0    0  0.00000000000E+00  0.00000000000E+00 -0.97699274279E+03  0.17081377098E+04  0.14011493910E+04 0.  0.
        2    1    3    3  502    0 -0.48897354350E+03  0.20892692781E+03  0.67576901869E+02  0.53601513513E+03  0.25500000920E-02 0. -1.
       -2    1    3    3    0  502  0.48897354350E+03 -0.20892692781E+03 -0.10445696447E+04  0.11721225746E+04  0.25500000920E-02 0.  1.
</event>
<event>
 5   0  0.9260916E-05  0.1400813E+04  0.7818609E-02  0.8953230E-01
       -1   -1    0    0    0  501  0.00000000000E+00  0.00000000000E+00  0.85193993915E+03  0.85193993917E+03  0.50400001928E-02 0.  1.
        1   -1    0    0  501    0  0.00000000000E+00  0.00000000000E+00 -0.57582614423E+03  0.57582614425E+03  0.50400001928E-02 0. -1.
    10030    2    1    2    0    0  0.00000000000E+00  0.00000000000E+00  0.27611379492E+03  0.14277660834E+04  0.14008130358E+04 0.  0.
        1    1    3    3  502    0 -0.81217745370E+02  0.30161932287E+03 -0.50090133821E+03  0.59031575342E+03  0.50400001928E-02 0. -1.
       -1    1    3    3    0  502  0.81217745370E+02 -0.30161932287E+03  0.77701513313E+03  0.83745033000E+03  0.50400001928E-02 0.  1.
</event>
<event>
 5   0  0.1766237E-04  0.1404159E+04  0.7818609E-02  0.8950813E-01
        2   -1    0    0  501    0  0.00000000000E+00  0.00000000000E+00  0.61178394763E+03  0.61178394763E+03  0.25500000920E-02 0. -1.
       -2   -1    0    0    0  501  0.00000000000E+00  0.00000000000E+00 -0.80570258517E+03  0.80570258517E+03  0.25500000920E-02 0.  1.
    10030    2    1    2    0    0  0.00000000000E+00  0.00000000000E+00 -0.19391863754E+03  0.14174865328E+04  0.14041594043E+04 0.  0.
        3    1    3    3  502    0 -0.43391734889E+03 -0.54626189736E+03 -0.17282565932E+02  0.69784312238E+03  0.10100000352E+00 0. -1.
       -3    1    3    3    0  502  0.43391734889E+03  0.54626189736E+03 -0.17663607161E+03  0.71964341042E+03  0.10100000352E+00 0.  1.
</event>
<event>
 5   0  0.1780171E-04  0.1407133E+04  0.7818609E-02  0.8948671E-01
        2   -1    0    0  501    0  0.00000000000E+00  0.00000000000E+00  0.19072260801E+04  0.19072260801E+04  0.25500000920E-02 0. -1.
       -2   -1    0    0    0  501  0.00000000000E+00  0.00000000000E+00 -0.25954230207E+03  0.25954230208E+03  0.25500000920E-02 0.  1.
    10030    2    1    2    0    0  0.00000000000E+00  0.00000000000E+00  0.16476837780E+04  0.21667683822E+04  0.14071330391E+04 0.  0.
        5    1    3    3  502    0  0.39074280021E+03 -0.13919524722E+03 -0.51203378121E+02  0.41797024858E+03  0.46999998093E+01 0.  1.
       -5    1    3    3    0  502 -0.39074280021E+03  0.13919524722E+03  0.16988871562E+04  0.17487981336E+04  0.46999998093E+01 0. -1.
</event>
<event>
 5   0  0.9900839E-05  0.1396205E+04  0.7818609E-02  0.8956570E-01
       -1   -1    0    0    0  501  0.00000000000E+00  0.00000000000E+00  0.24334523169E+03  0.24334523174E+03  0.50400001928E-02 0. -1.
        1   -1    0    0  501    0  0.00000000000E+00  0.00000000000E+00 -0.20026992409E+04  0.20026992409E+04  0.50400001928E-02 0.  1.
    10030    2    1    2    0    0  0.00000000000E+00  0.00000000000E+00 -0.17593540092E+04  0.22460444726E+04  0.13962053013E+04 0.  0.
        3    1    3    3  502    0 -0.29628266179E+03  0.30278763268E+03  0.12934130696E+02  0.42382905530E+03  0.10100000352E+00 0. -1.
       -3    1    3    3    0  502  0.29628266179E+03 -0.30278763268E+03 -0.17722881399E+04  0.18222154173E+04  0.10100000352E+00 0.  1.
</event>
<event>
 5   0  0.9978422E-05  0.1397434E+04  0.7818609E-02  0.8955678E-01
       -1   -1    0    0    0  501  0.00000000000E+00  0.00000000000E+00  0.53561792069E+03  0.53561792071E+03  0.50400001928E-02 0. -1.
        1   -1    0    0  501    0  0.00000000000E+00  0.00000000000E+00 -0.91148129879E+03  0.91148129881E+03  0.50400001928E-02 0.  1.
    10030    2    1    2    0    0  0.00000000000E+00  0.00000000000E+00 -0.37586337811E+03  0.14470992195E+04  0.13974343892E+04 0.  0.
        2    1    3    3  502    0 -0.50020239288E+03 -0.15929525058E+03  0.28957276145E+03  0.59952464077E+03  0.25500000920E-02 0. -1.
       -2    1    3    3    0  502  0.50020239288E+03  0.15929525058E+03 -0.66543613956E+03  0.84757457875E+03  0.25500000920E-02 0.  1.
</event>
<event>
 5   0  0.9978422E-05  0.1384845E+04  0.7818609E-02  0.8964862E-01
       -1   -1    0    0    0  501  0.00000000000E+00  0.00000000000E+00  0.75724020525E+03  0.75724020527E+03  0.50400001928E-02 0. -1.
        1   -1    0    0  501    0  0.00000000000E+00  0.00000000000E+00 -0.63315264000E+03  0.63315264002E+03  0.50400001928E-02 0.  1.
    10030    2    1    2    0    0  0.00000000000E+00  0.00000000000E+00  0.12408756525E+03  0.13903928453E+04  0.13848445907E+04 0.  0.
        2    1    3    3  502    0 -0.30369142193E+03  0.81813762460E+02  0.68138364319E+03  0.75047027969E+03  0.25500000920E-02 0. -1.
       -2    1    3    3    0  502  0.30369142193E+03 -0.81813762460E+02 -0.55729607794E+03  0.63992256561E+03  0.25500000920E-02 0.  1.
</event>
<event>
 5   0  0.1833681E-04  0.1402640E+04  0.7818609E-02  0.8951910E-01
       -2   -1    0    0    0  501  0.00000000000E+00  0.00000000000E+00  0.14005193990E+04  0.14005193990E+04  0.25500000920E-02 0. -1.
        2   -1    0    0  501    0  0.00000000000E+00  0.00000000000E+00 -0.35119115138E+03  0.35119115139E+03  0.25500000920E-02 0.  1.
    10030    2    1    2    0    0  0.00000000000E+00  0.00000000000E+00  0.10493282476E+04  0.17517105504E+04  0.14026403962E+04 0.  0.
        4    1    3    3  502    0  0.50284369354E+03 -0.42145617794E+03  0.21527949990E+03  0.69052441378E+03  0.12699999809E+01 0.  1.
       -4    1    3    3    0  502 -0.50284369354E+03  0.42145617794E+03  0.83404874767E+03  0.10611861366E+04  0.12699999809E+01 0. -1.
</event>
<event>
 5   0  0.6671375E-05  0.1400859E+04  0.7818609E-02  0.8953197E-01
        3   -1    0    0  501    0  0.00000000000E+00  0.00000000000E+00  0.10514226813E+04  0.10514226862E+04  0.10100000352E+00 0. -1.
       -3   -1    0    0    0  501  0.00000000000E+00  0.00000000000E+00 -0.46660757712E+03  0.46660758805E+03  0.10100000352E+00 0.  1.
    10030    2    1    2    0    0  0.00000000000E+00  0.00000000000E+00  0.58481510422E+03  0.15180302742E+04  0.14008594531E+04 0.  0.
        1    1    3    3  502    0 -0.24831516197E+03 -0.24500373690E+03  0.95059373405E+03  0.10125787367E+04  0.50400001928E-02 0. -1.
       -1    1    3    3    0  502  0.24831516197E+03  0.24500373690E+03 -0.36577862982E+03  0.50545153755E+03  0.50400001928E-02 0.  1.
</event>
<event>
 5   0  0.6671375E-05  0.1399560E+04  0.7818609E-02  0.8954137E-01
        1   -1    0    0  501    0  0.00000000000E+00  0.00000000000E+00  0.10803017222E+04  0.10803017222E+04  0.50400001928E-02 0. -1.
       -1   -1    0    0    0  501  0.00000000000E+00  0.00000000000E+00 -0.45329183729E+03  0.45329183732E+03  0.50400001928E-02 0.  1.
    10030    2    1    2    0    0  0.00000000000E+00  0.00000000000E+00  0.62700988491E+03  0.15335935595E+04  0.13995598630E+04 0.  0.
        5    1    3    3  502    0  0.41073452306E+02 -0.69852965820E+03  0.30664866640E+03  0.76399359060E+03  0.46999998093E+01 0. -1.
       -5    1    3    3    0  502 -0.41073452306E+02  0.69852965820E+03  0.32036121852E+03  0.76959996894E+03  0.46999998093E+01 0.  1.
</event>
<event>
 5   0  0.1780171E-04  0.1401930E+04  0.7818609E-02  0.8952423E-01
        2   -1    0    0  501    0  0.00000000000E+00  0.00000000000E+00  0.78422685500E+03  0.78422685500E+03  0.25500000920E-02 0. -1.
       -2   -1    0    0    0  501  0.00000000000E+00  0.00000000000E+00 -0.62654281676E+03  0.62654281677E+03  0.25500000920E-02 0.  1.
    10030    2    1    2    0    0  0.00000000000E+00  0.00000000000E+00  0.15768403824E+03  0.14107696718E+04  0.14019296740E+04 0.  0.
        5    1    3    3  502    0 -0.11004294512E+03  0.64160815124E+02 -0.61478184312E+03  0.62785736007E+03  0.46999998093E+01 0.  1.
       -5    1    3    3    0  502  0.11004294512E+03 -0.64160815124E+02  0.77246588135E+03  0.78291231171E+03  0.46999998093E+01 0. -1.
</event>
<event>
 5   0  0.9978422E-05  0.1374518E+04  0.7818609E-02  0.8972473E-01
        1   -1    0    0  501    0  0.00000000000E+00  0.00000000000E+00  0.10807078003E+04  0.10807078003E+04  0.50400001928E-02 0.  1.
       -1   -1    0    0    0  501  0.00000000000E+00  0.00000000000E+00 -0.43705128323E+03  0.43705128326E+03  0.50400001928E-02 0. -1.
    10030    2    1    2    0    0  0.00000000000E+00  0.00000000000E+00  0.64365651704E+03  0.15177590835E+04  0.13745177059E+04 0.  0.
        2    1    3    3  502    0 -0.25356625272E+03  0.61757525828E+03  0.50202026911E+03  0.83529599230E+03  0.25500000920E-02 0.  1.
       -2    1    3    3    0  502  0.25356625272E+03 -0.61757525828E+03  0.14163624793E+03  0.68246309123E+03  0.25500000920E-02 0. -1.
</event>
<event>
 5   0  0.6671375E-05  0.1400132E+04  0.7818609E-02  0.8953723E-01
        3   -1    0    0  501    0  0.00000000000E+00  0.00000000000E+00  0.44150949345E+03  0.44150950500E+03  0.10100000352E+00 0. -1.
       -3   -1    0    0    0  501  0.00000000000E+00  0.00000000000E+00 -0.11100374065E+04  0.11100374111E+04  0.10100000352E+00 0.  1.
    10030    2    1    2    0    0  0.00000000000E+00  0.00000000000E+00 -0.66852791307E+03  0.15515469161E+04  0.14001315161E+04 0.  0.
        4    1    3    3  502    0  0.47503043618E+03  0.41325951285E+03 -0.67338691210E+03  0.92189418403E+03  0.12699999809E+01 0.  1.
       -4    1    3    3    0  502 -0.47503043618E+03 -0.41325951285E+03  0.48589990348E+01  0.62965273209E+03  0.12699999809E+01 0. -1.
</event>
<event>
 5   0  0.1712327E-04  0.1397965E+04  0.7818609E-02  0.8955293E-01
       -2   -1    0    0    0  501  0.00000000000E+00  0.00000000000E+00  0.24354173628E+03  0.24354173629E+03  0.25500000920E-02 0.  1.
        2   -1    0    0  501    0  0.00000000000E+00  0.00000000000E+00 -0.20061320104E+04  0.20061320104E+04  0.25500000920E-02 0. -1.
    10030    2    1    2    0    0  0.00000000000E+00  0.00000000000E+00 -0.17625902741E+04  0.22496737467E+04  0.13979654832E+04 0.  0.
        1    1    3    3  502    0 -0.40276924426E+03 -0.55992483820E+03 -0.69895951859E+03  0.98197927534E+03  0.50400001928E-02 0.  1.
       -1    1    3    3    0  502  0.40276924426E+03  0.55992483820E+03 -0.10636307555E+04  0.12676944714E+04  0.50400001928E-02 0. -1.
</event>
<event>
 5   0  0.6671375E-05  0.1400024E+04  0.7818609E-02  0.8953801E-01
        1   -1    0    0  501    0  0.00000000000E+00  0.00000000000E+00  0.81584761531E+03  0.81584761533E+03  0.50400001928E-02 0.  1.
       -1   -1    0    0    0  501  0.00000000000E+00  0.00000000000E+00 -0.60062297946E+03  0.60062297948E+03  0.50400001928E-02 0. -1.
    10030    2    1    2    0    0  0.00000000000E+00  0.00000000000E+00  0.21522463586E+03  0.14164705948E+04  0.14000240362E+04 0.  0.
        5    1    3    3  502    0 -0.21267856460E+03 -0.32652621087E+03 -0.48071958446E+03  0.61884161714E+03  0.46999998093E+01 0. -1.
       -5    1    3    3    0  502  0.21267856460E+03  0.32652621087E+03  0.69594422031E+03  0.79762897766E+03  0.46999998093E+01 0.  1.
</event>
<event>
 5   0  0.6671375E-05  0.1405410E+04  0.7818609E-02  0.8949912E-01
        4   -1    0    0  501    0  0.00000000000E+00  0.00000000000E+00  0.87933949504E+03  0.87934041215E+03  0.12699999809E+01 0.  1.
       -4   -1    0    0    0  501  0.00000000000E+00  0.00000000000E+00 -0.56154957155E+03  0.56155100766E+03  0.12699999809E+01 0. -1.
    10030    2    1    2    0    0  0.00000000000E+00  0.00000000000E+00  0.31778992349E+03  0.14408914198E+04  0.14054101352E+04 0.  0.
        5    1    3    3  502    0  0.78061979655E+02  0.41578744200E+03  0.73412977040E+03  0.84731427427E+03  0.46999998093E+01 0.  1.
       -5    1    3    3    0  502 -0.78061979655E+02 -0.41578744200E+03 -0.41633984690E+03  0.59357714554E+03  0.46999998093E+01 0. -1.
</event>
<event>
 5   0  0.1794185E-04  0.1404687E+04  0.7818609E-02  0.8950433E-01
        2   -1    0    0  501    0  0.00000000000E+00  0.00000000000E+00  0.13253085116E+04  0.13253085116E+04  0.25500000920E-02 0. -1.
       -2   -1    0    0    0  501  0.00000000000E+00  0.00000000000E+00 -0.37220496103E+03  0.37220496104E+03  0.25500000920E-02 0.  1.
    10030    2    1    2    0    0  0.00000000000E+00  0.00000000000E+00  0.95310355059E+03  0.16975134727E+04  0.14046870156E+04 0.  0.
        2    1    3    3  502    0  0.61381574668E+03 -0.20405026725E+02  0.64785976856E+02  0.61756243312E+03  0.25500000920E-02 0.  1.
       -2    1    3    3    0  502 -0.61381574668E+03  0.20405026725E+02  0.88831757374E+03  0.10799510395E+04  0.25500000920E-02 0. -1.
</event>
<event>
 5   0  0.1794185E-04  0.1398923E+04  0.7818609E-02  0.8954598E-01
       -2   -1    0    0    0  501  0.00000000000E+00  0.00000000000E+00  0.84134826856E+03  0.84134826856E+03  0.25500000920E-02 0.  1.
        2   -1    0    0  501    0  0.00000000000E+00  0.00000000000E+00 -0.58150292076E+03  0.58150292076E+03  0.25500000920E-02 0. -1.
    10030    2    1    2    0    0  0.00000000000E+00  0.00000000000E+00  0.25984534780E+03  0.14228511893E+04  0.13989231223E+04 0.  0.
        2    1    3    3  502    0 -0.24317733516E+03  0.17083028209E+02  0.79674273089E+03  0.83320227161E+03  0.25500000920E-02 0.  1.
       -2    1    3    3    0  502  0.24317733516E+03 -0.17083028209E+02 -0.53689738309E+03  0.58964891771E+03  0.25500000920E-02 0. -1.
</event>
<event>
 5   0  0.1833681E-04  0.1388340E+04  0.7818609E-02  0.8962302E-01
       -2   -1    0    0    0  501  0.00000000000E+00  0.00000000000E+00  0.32177431713E+03  0.32177431714E+03  0.25500000920E-02 0.  1.
        2   -1    0    0  501    0  0.00000000000E+00  0.00000000000E+00 -0.14975456907E+04  0.14975456907E+04  0.25500000920E-02 0. -1.
    10030    2    1    2    0    0  0.00000000000E+00  0.00000000000E+00 -0.11757713736E+04  0.18193200079E+04  0.13883396443E+04 0.  0.
        4    1    3    3  502    0 -0.15953648085E+03 -0.60485381357E+03 -0.19351392999E+03  0.65478949176E+03  0.12699999809E+01 0. -1.
       -4    1    3    3    0  502  0.15953648085E+03  0.60485381357E+03 -0.98225744362E+03  0.11645305161E+04  0.12699999809E+01 0.  1.
</event>
<event>
 5   0  0.1794185E-04  0.1399385E+04  0.7818609E-02  0.8954264E-01
        2   -1    0    0  501    0  0.00000000000E+00  0.00000000000E+00  0.35255024389E+03  0.35255024390E+03  0.25500000920E-02 0. -1.
       -2   -1    0    0    0  501  0.00000000000E+00  0.00000000000E+00 -0.13886524924E+04  0.13886524924E+04  0.25500000920E-02 0.  1.
    10030    2    1    2    0    0  0.00000000000E+00  0.00000000000E+00 -0.10361022485E+04  0.17412027363E+04  0.13993852577E+04 0.  0.
        2    1    3    3  502    0  0.25970747557E+03  0.39813127403E+02 -0.13249405174E+04  0.13507406978E+04  0.25500000920E-02 0.  1.
       -2    1    3    3    0  502 -0.25970747557E+03 -0.39813127403E+02  0.28883826886E+03  0.39046203855E+03  0.25500000920E-02 0. -1.
</event>
<event>
 5   0  0.1794185E-04  0.1399073E+04  0.7818609E-02  0.8954490E-01
       -2   -1    0    0    0  501  0.00000000000E+00  0.00000000000E+00  0.20505371779E+03  0.20505371781E+03  0.25500000920E-02 0.  1.
        2   -1    0    0  501    0  0.00000000000E+00  0.00000000000E+00 -0.23864535944E+04  0.23864535944E+04  0.25500000920E-02 0. -1.
    10030    2    1    2    0    0  0.00000000000E+00  0.00000000000E+00 -0.21813998766E+04  0.25915073122E+04  0.13990728100E+04 0.  0.
        2    1    3    3  502    0 -0.50446082765E+03  0.40256810297E+03 -0.59088897076E+03  0.87503804485E+03  0.25500000920E-02 0.  1.
       -2    1    3    3    0  502  0.50446082765E+03 -0.40256810297E+03 -0.15905109058E+04  0.17164692674E+04  0.25500000920E-02 0. -1.
</event>
<event>
 5   0  0.1766237E-04  0.1397377E+04  0.7818609E-02  0.8955719E-01
        2   -1    0    0  501    0  0.00000000000E+00  0.00000000000E+00  0.99119714843E+03  0.99119714843E+03  0.25500000920E-02 0. -1.
       -2   -1    0    0    0  501  0.00000000000E+00  0.00000000000E+00 -0.49250136343E+03  0.49250136344E+03  0.25500000920E-02 0.  1.
    10030    2    1    2    0    0  0.00000000000E+00  0.00000000000E+00  0.49869578500E+03  0.14836985119E+04  0.13973774680E+04 0.  0.
        3    1    3    3  502    0  0.64390974102E+02  0.23968698196E+03 -0.44412106228E+03  0.50876278856E+03  0.10100000352E+00 0.  1.
       -3    1    3    3    0  502 -0.64390974102E+02 -0.23968698196E+03  0.94281684728E+03  0.97493572330E+03  0.10100000352E+00 0. -1.
</event>
<event>
 5   0  0.9828111E-05  0.1400864E+04  0.7818609E-02  0.8953193E-01
        1   -1    0    0  501    0  0.00000000000E+00  0.00000000000E+00  0.71453278459E+03  0.71453278461E+03  0.50400001928E-02 0. -1.
       -1   -1    0    0    0  501  0.00000000000E+00  0.00000000000E+00 -0.68660972840E+03  0.68660972842E+03  0.50400001928E-02 0.  1.
    10030    2    1    2    0    0  0.00000000000E+00  0.00000000000E+00  0.27923056191E+02  0.14011425130E+04  0.14008642492E+04 0.  0.
        4    1    3    3  502    0 -0.40704508369E+03  0.47343348725E+03  0.33148101098E+03  0.70689903137E+03  0.12699999809E+01 0. -1.
       -4    1    3    3    0  502  0.40704508369E+03 -0.47343348725E+03 -0.30355795479E+03  0.69424348166E+03  0.12699999809E+01 0.  1.
</event>
<event>
 5   0  0.9260916E-05  0.1397811E+04  0.7818609E-02  0.8955405E-01
        1   -1    0    0  501    0  0.00000000000E+00  0.00000000000E+00  0.58324648149E+03  0.58324648151E+03  0.50400001928E-02 0.  1.
       -1   -1    0    0    0  501  0.00000000000E+00  0.00000000000E+00 -0.83749988484E+03  0.83749988485E+03  0.50400001928E-02 0. -1.
    10030    2    1    2    0    0  0.00000000000E+00  0.00000000000E+00 -0.25425340334E+03  0.14207463664E+04  0.13978109473E+04 0.  0.
        1    1    3    3  502    0 -0.88119124626E+02 -0.32075346849E+03 -0.75188382538E+03  0.82217823771E+03  0.50400001928E-02 0. -1.
       -1    1    3    3    0  502  0.88119124626E+02  0.32075346849E+03  0.49763042204E+03  0.59856812865E+03  0.50400001928E-02 0.  1.
</event>
<event>
 5   0  0.9900839E-05  0.1398124E+04  0.7818609E-02  0.8955178E-01
        1   -1    0    0  501    0  0.00000000000E+00  0.00000000000E+00  0.27687904864E+04  0.27687904864E+04  0.50400001928E-02 0.  1.
       -1   -1    0    0    0  501  0.00000000000E+00  0.00000000000E+00 -0.17649850808E+03  0.17649850815E+03  0.50400001928E-02 0. -1.
    10030    2    1    2    0    0  0.00000000000E+00  0.00000000000E+00  0.25922919783E+04  0.29452889945E+04  0.13981235856E+04 0.  0.
        3    1    3    3  502    0  0.22043284920E+03  0.40077030151E+03  0.18247310509E+03  0.49244687009E+03  0.10100000352E+00 0. -1.
       -3    1    3    3    0  502 -0.22043284920E+03 -0.40077030151E+03  0.24098188732E+04  0.24528421244E+04  0.10100000352E+00 0.  1.
</event>
<event>
 5   0  0.6671375E-05  0.1395845E+04  0.7818609E-02  0.8956832E-01
       -3   -1    0    0    0  501  0.00000000000E+00  0.00000000000E+00  0.55568839775E+03  0.55568840693E+03  0.10100000352E+00 0. -1.
        3   -1    0    0  501    0  0.00000000000E+00  0.00000000000E+00 -0.87656304223E+03  0.87656304804E+03  0.10100000352E+00 0.  1.
    10030    2    1    2    0    0  0.00000000000E+00  0.00000000000E+00 -0.32087464447E+03  0.14322514550E+04  0.13958451536E+04 0.  0.
        2    1    3    3  502    0  0.90775593798E+02  0.66733036940E+03 -0.34831371166E+03  0.75821663928E+03  0.25500000920E-02 0. -1.
       -2    1    3    3    0  502 -0.90775593798E+02 -0.66733036940E+03  0.27439067184E+02  0.67403481569E+03  0.25500000920E-02 0.  1.
</event>
<event>
 5   0  0.9978422E-05  0.1400342E+04  0.7818609E-02  0.8953571E-01
       -1   -1    0    0    0  501  0.00000000000E+00  0.00000000000E+00  0.26675527966E+03  0.26675527971E+03  0.50400001928E-02 0.  1.
        1   -1    0    0  501    0  0.00000000000E+00  0.00000000000E+00 -0.18377869580E+04  0.18377869580E+04  0.50400001928E-02 0. -1.
    10030    2    1    2    0    0  0.00000000000E+00  0.00000000000E+00 -0.15710316783E+04  0.21045422377E+04  0.14003419211E+04 0.  0.
        2    1    3    3  502    0  0.68021081392E+03 -0.16421131977E+03 -0.74909578063E+03  0.10250837027E+04  0.25500000920E-02 0.  1.
       -2    1    3    3    0  502 -0.68021081392E+03  0.16421131977E+03 -0.82193589767E+03  0.10794585350E+04  0.25500000920E-02 0. -1.
</event>
<event>
 5   0  0.9260916E-05  0.1399034E+04  0.7818609E-02  0.8954518E-01
       -1   -1    0    0    0  501  0.00000000000E+00  0.00000000000E+00  0.49503686128E+03  0.49503686130E+03  0.50400001928E-02 0. -1.
        1   -1    0    0  501    0  0.00000000000E+00  0.00000000000E+00 -0.98846018922E+03  0.98846018923E+03  0.50400001928E-02 0.  1.
    10030    2    1    2    0    0  0.00000000000E+00  0.00000000000E+00 -0.49342332794E+03  0.14834970505E+04  0.13990342806E+04 0.  0.
        1    1    3    3  502    0  0.56527208066E+03 -0.28459839670E+03  0.69264050385E+02  0.63665240224E+03  0.50400001928E-02 0. -1.
       -1    1    3    3    0  502 -0.56527208066E+03  0.28459839670E+03 -0.56268737832E+03  0.84684464829E+03  0.50400001928E-02 0.  1.
</event>
<event>
 5   0  0.1833681E-04  0.1400285E+04  0.7818609E-02  0.8953612E-01
       -2   -1    0    0    0  501  0.00000000000E+00  0.00000000000E+00  0.28563767785E+03  0.28563767786E+03  0.25500000920E-02 0. -1.
        2   -1    0    0  501    0  0.00000000000E+00  0.00000000000E+00 -0.17161594032E+04  0.17161594032E+04  0.25500000920E-02 0.  1.
    10030    2    1    2    0    0  0.00000000000E+00  0.00000000000E+00 -0.14305217253E+04  0.20017970811E+04  0.14002853806E+04 0.  0.
        4    1    3    3  502    0  0.55786145483E+03 -0.24151939210E+03 -0.21869136829E+03  0.64604066978E+03  0.12699999809E+01 0. -1.
       -4    1    3    3    0  502 -0.55786145483E+03  0.24151939210E+03 -0.12118303570E+04  0.13557564113E+04  0.12699999809E+01 0.  1.
</event>
<event>
 5   0  0.1833681E-04  0.1400315E+04  0.7818609E-02  0.8953591E-01
       -2   -1    0    0    0  501  0.00000000000E+00  0.00000000000E+00  0.26636505096E+03  0.26636505097E+03  0.25500000920E-02 0. -1.
        2   -1    0    0  501    0  0.00000000000E+00  0.00000000000E+00 -0.18404084230E+04  0.18404084230E+04  0.25500000920E-02 0.  1.
    10030    2    1    2    0    0  0.00000000000E+00  0.00000000000E+00 -0.15740433720E+04  0.21067734740E+04  0.14003149409E+04 0.  0.
        4    1    3    3  502    0 -0.19295865718E+03 -0.23955107737E+03  0.15926094539E+03  0.34638623482E+03  0.12699999809E+01 0. -1.
       -4    1    3    3    0  502  0.19295865718E+03  0.23955107737E+03 -0.17333043174E+04  0.17603872392E+04  0.12699999809E+01 0.  1.
</event>
<event>
 5   0  0.1794185E-04  0.1402711E+04  0.7818609E-02  0.8951858E-01
       -2   -1    0    0    0  501  0.00000000000E+00  0.00000000000E+00  0.23477346524E+03  0.23477346526E+03  0.25500000920E-02 0.  1.
        2   -1    0    0  501    0  0.00000000000E+00  0.00000000000E+00 -0.20952101400E+04  0.20952101400E+04  0.25500000920E-02 0. -1.
    10030    2    1    2    0    0  0.00000000000E+00  0.00000000000E+00 -0.18604366748E+04  0.23299836053E+04  0.14027112960E+04 0.  0.
        2    1    3    3  502    0 -0.38091797154E+03 -0.26682778073E+02 -0.19074074965E+04  0.19452541811E+04  0.25500000920E-02 0. -1.
       -2    1    3    3    0  502  0.38091797154E+03  0.26682778073E+02  0.46970821697E+02  0.38472942412E+03  0.25500000920E-02 0.  1.
</event>
<event>
 5   0  0.6671375E-05  0.1399541E+04  0.7818609E-02  0.8954151E-01
       -1   -1    0    0    0  501  0.00000000000E+00  0.00000000000E+00  0.39866129929E+03  0.39866129932E+03  0.50400001928E-02 0.  1.
        1   -1    0    0  501    0  0.00000000000E+00  0.00000000000E+00 -0.12283085123E+04  0.12283085123E+04  0.50400001928E-02 0. -1.
    10030    2    1    2    0    0  0.00000000000E+00  0.00000000000E+00 -0.82964721304E+03  0.16269698117E+04  0.13995414499E+04 0.  0.
        5    1    3    3  502    0 -0.57793915560E+03  0.19254373295E+03 -0.14527336241E+02  0.60936023022E+03  0.46999998093E+01 0.  1.
       -5    1    3    3    0  502  0.57793915560E+03 -0.19254373295E+03 -0.81511987680E+03  0.10176095814E+04  0.46999998093E+01 0. -1.
</event>
<event>
 5   0  0.9828111E-05  0.1398335E+04  0.7818609E-02  0.8955025E-01
       -1   -1    0    0    0  501  0.00000000000E+00  0.00000000000E+00  0.24231387640E+03  0.24231387645E+03  0.50400001928E-02 0.  1.
        1   -1    0    0  501    0  0.00000000000E+00  0.00000000000E+00 -0.20173623175E+04  0.20173623175E+04  0.50400001928E-02 0. -1.
    10030    2    1    2    0    0  0.00000000000E+00  0.00000000000E+00 -0.17750484411E+04  0.22596761940E+04  0.13983345570E+04 0.  0.
        4    1    3    3  502    0 -0.53009981032E+03  0.12530117763E+03 -0.17920438003E+03  0.57343004520E+03  0.12699999809E+01 0.  1.
       -4    1    3    3    0  502  0.53009981032E+03 -0.12530117763E+03 -0.15958440611E+04  0.16862461488E+04  0.12699999809E+01 0. -1.
</event>
<event>
 5   0  0.9900839E-05  0.1393758E+04  0.7818609E-02  0.8958349E-01
        1   -1    0    0  501    0  0.00000000000E+00  0.00000000000E+00  0.10565945883E+04  0.10565945883E+04  0.50400001928E-02 0. -1.
       -1   -1    0    0    0  501  0.00000000000E+00  0.00000000000E+00 -0.45962797841E+03  0.45962797844E+03  0.50400001928E-02 0.  1.
    10030    2    1    2    0    0  0.00000000000E+00  0.00000000000E+00  0.59696660989E+03  0.15162225668E+04  0.13937581349E+04 0.  0.
        3    1    3    3  502    0 -0.30028407524E+03 -0.55075190838E+03 -0.31737863532E+02  0.62809672234E+03  0.10100000352E+00 0. -1.
       -3    1    3    3    0  502  0.30028407524E+03  0.55075190838E+03  0.62870447342E+03  0.88812584442E+03  0.10100000352E+00 0.  1.
</event>
<event>
 5   0  0.6671375E-05  0.1400671E+04  0.7818609E-02  0.8953333E-01
        1   -1    0    0  501    0  0.00000000000E+00  0.00000000000E+00  0.37497989104E+03  0.37497989107E+03  0.50400001928E-02 0. -1.
       -1   -1    0    0    0  501  0.00000000000E+00  0.00000000000E+00 -0.13079895240E+04  0.13079895240E+04  0.50400001928E-02 0.  1.
    10030    2    1    2    0    0  0.00000000000E+00  0.00000000000E+00 -0.93300963291E+03  0.16829694150E+04  0.14006709381E+04 0.  0.
        5    1    3    3  502    0 -0.26084149748E+03 -0.42113894809E+03 -0.10613016954E+04  0.11712299855E+04  0.46999998093E+01 0.  1.
       -5    1    3    3    0  502  0.26084149748E+03  0.42113894809E+03  0.12829206248E+03  0.51173942949E+03  0.46999998093E+01 0. -1.
</event>
<event>
 5   0  0.9828111E-05  0.1395024E+04  0.7818609E-02  0.8957428E-01
        1   -1    0    0  501    0  0.00000000000E+00  0.00000000000E+00  0.79065146263E+03  0.79065146265E+03  0.50400001928E-02 0. -1.
       -1   -1    0    0    0  501  0.00000000000E+00  0.00000000000E+00 -0.61534472115E+03  0.61534472117E+03  0.50400001928E-02 0.  1.
    10030    2    1    2    0    0  0.00000000000E+00  0.00000000000E+00  0.17530674149E+03  0.14059961838E+04  0.13950243063E+04 0.  0.
        4    1    3    3  502    0  0.37670525452E+03 -0.20354280697E+03  0.64260645743E+03  0.77219245988E+03  0.12699999809E+01 0. -1.
       -4    1    3    3    0  502 -0.37670525452E+03  0.20354280697E+03 -0.46729971594E+03  0.63380372394E+03  0.12699999809E+01 0.  1.
</event>
<event>
 5   0  0.9828111E-05  0.1390566E+04  0.7818609E-02  0.8960676E-01
        1   -1    0    0  501    0  0.00000000000E+00  0.00000000000E+00  0.10230744250E+04  0.10230744250E+04  0.50400001928E-02 0.  1.
       -1   -1    0    0    0  501  0.00000000000E+00  0.00000000000E+00 -0.47251526881E+03  0.47251526883E+03  0.50400001928E-02 0. -1.
    10030    2    1    2    0    0  0.00000000000E+00  0.00000000000E+00  0.55055915616E+03  0.14955896938E+04  0.13905657654E+04 0.  0.
        4    1    3    3  502    0 -0.51121691747E+03 -0.40323112880E+03  0.53758138229E+03  0.84435385676E+03  0.12699999809E+01 0.  1.
       -4    1    3    3    0  502  0.51121691747E+03  0.40323112880E+03  0.12977773871E+02  0.65123583705E+03  0.12699999809E+01 0. -1.
</event>
<event>
 5   0  0.1712327E-04  0.1405274E+04  0.7818609E-02  0.8950010E-01
       -2   -1    0    0    0  501  0.00000000000E+00  0.00000000000E+00  0.13125610822E+04  0.13125610822E+04  0.25500000920E-02 0. -1.
        2   -1    0    0  501    0  0.00000000000E+00  0.00000000000E+00 -0.37613377704E+03  0.37613377704E+03  0.25500000920E-02 0.  1.
    10030    2    1    2    0    0  0.00000000000E+00  0.00000000000E+00  0.93642730516E+03  0.16886948592E+04  0.14052737206E+04 0.  0.
        1    1    3    3  502    0 -0.33487464835E+03 -0.34820117699E+03 -0.14489659531E+03  0.50436109399E+03  0.50400001928E-02 0.  1.
       -1    1    3    3    0  502  0.33487464835E+03  0.34820117699E+03  0.10813239005E+04  0.11843337653E+04  0.50400001928E-02 0. -1.
</event>
<event>
 5   0  0.1794185E-04  0.1402644E+04  0.7818609E-02  0.8951907E-01
       -2   -1    0    0    0  501  0.00000000000E+00  0.00000000000E+00  0.65573478137E+03  0.65573478138E+03  0.25500000920E-02 0.  1.
        2   -1    0    0  501    0  0.00000000000E+00  0.00000000000E+00 -0.75007832415E+03  0.75007832416E+03  0.25500000920E-02 0. -1.
    10030    2    1    2    0    0  0.00000000000E+00  0.00000000000E+00 -0.94343542782E+02  0.14058131055E+04  0.14026438549E+04 0.  0.
        2    1    3    3  502    0 -0.30956985771E+03 -0.22190225582E+03  0.54303767298E+03  0.66329783825E+03  0.25500000920E-02 0.  1.
       -2    1    3    3    0  502  0.30956985771E+03  0.22190225582E+03 -0.63738121577E+03  0.74251526729E+03  0.25500000920E-02 0. -1.
</event>
<event>
 5   0  0.1766237E-04  0.1412079E+04  0.7818609E-02  0.8945121E-01
        2   -1    0    0  501    0  0.00000000000E+00  0.00000000000E+00  0.74719581652E+03  0.74719581652E+03  0.25500000920E-02 0.  1.
       -2   -1    0    0    0  501  0.00000000000E+00  0.00000000000E+00 -0.66715002597E+03  0.66715002598E+03  0.25500000920E-02 0. -1.
    10030    2    1    2    0    0  0.00000000000E+00  0.00000000000E+00  0.80045790543E+02  0.14143458425E+04  0.14120789049E+04 0.  0.
        3    1    3    3  502    0  0.61684866867E+03 -0.90586349494E+02 -0.29184500797E+03  0.68839064900E+03  0.10100000352E+00 0. -1.
       -3    1    3    3    0  502 -0.61684866867E+03  0.90586349494E+02  0.37189079851E+03  0.72595519350E+03  0.10100000352E+00 0.  1.
</event>
<event>
 5   0  0.1780171E-04  0.1399558E+04  0.7818609E-02  0.8954139E-01
        2   -1    0    0  501    0  0.00000000000E+00  0.00000000000E+00  0.45144618038E+03  0.45144618039E+03  0.25500000920E-02 0. -1.
       -2   -1    0    0    0  501  0.00000000000E+00  0.00000000000E+00 -0.10847148444E+04  0.10847148444E+04  0.25500000920E-02 0.  1.
    10030    2    1    2    0    0  0.00000000000E+00  0.00000000000E+00 -0.63326866401E+03  0.15361610248E+04  0.13995576063E+04 0.  0.
        5    1    3    3  502    0 -0.24710427790E+02 -0.37825913324E+02 -0.10830948376E+04  0.10840470111E+04  0.46999998093E+01 0.  1.
       -5    1    3    3    0  502  0.24710427790E+02  0.37825913324E+02  0.44982617359E+03  0.45211401372E+03  0.46999998093E+01 0. -1.
</event>
<event>
 5   0  0.6671375E-05  0.1396616E+04  0.7818609E-02  0.8956271E-01
       -3   -1    0    0    0  501  0.00000000000E+00  0.00000000000E+00  0.28962677604E+03  0.28962679365E+03  0.10100000352E+00 0. -1.
        3   -1    0    0  501    0  0.00000000000E+00  0.00000000000E+00 -0.16836646042E+04  0.16836646072E+04  0.10100000352E+00 0.  1.
    10030    2    1    2    0    0  0.00000000000E+00  0.00000000000E+00 -0.13940378282E+04  0.19732914009E+04  0.13966164421E+04 0.  0.
        4    1    3    3  502    0  0.65029192963E+03 -0.25424324385E+03 -0.71207404532E+03  0.99728144457E+03  0.12699999809E+01 0. -1.
       -4    1    3    3    0  502 -0.65029192963E+03  0.25424324385E+03 -0.68196378285E+03  0.97600995630E+03  0.12699999809E+01 0.  1.
</event>
<event>
 5   0  0.6671375E-05  0.1438023E+04  0.7818609E-02  0.8926747E-01
        1   -1    0    0  501    0  0.00000000000E+00  0.00000000000E+00  0.11460747438E+04  0.11460747438E+04  0.50400001928E-02 0. -1.
       -1   -1    0    0    0  501  0.00000000000E+00  0.00000000000E+00 -0.45108513357E+03  0.45108513360E+03  0.50400001928E-02 0.  1.
    10030    2    1    2    0    0  0.00000000000E+00  0.00000000000E+00  0.69498961018E+03  0.15971598774E+04  0.14380226409E+04 0.  0.
        5    1    3    3  502    0  0.52842469216E+03 -0.10067548688E+03 -0.18235938642E+03  0.56801870106E+03  0.46999998093E+01 0.  1.
       -5    1    3    3    0  502 -0.52842469216E+03  0.10067548688E+03  0.87734899660E+03  0.10291411763E+04  0.46999998093E+01 0. -1.
</event>
<event>
 5   0  0.9978422E-05  0.1401979E+04  0.7818609E-02  0.8952387E-01
       -1   -1    0    0    0  501  0.00000000000E+00  0.00000000000E+00  0.78109500664E+03  0.78109500665E+03  0.50400001928E-02 0.  1.
        1   -1    0    0  501    0  0.00000000000E+00  0.00000000000E+00 -0.62909920979E+03  0.62909920981E+03  0.50400001928E-02 0. -1.
    10030    2    1    2    0    0  0.00000000000E+00  0.00000000000E+00  0.15199579685E+03  0.14101942165E+04  0.14019789606E+04 0.  0.
        2    1    3    3  502    0 -0.48819981924E+03 -0.32271932074E+03 -0.31213812105E+03  0.66326241421E+03  0.25500000920E-02 0. -1.
       -2    1    3    3    0  502  0.48819981924E+03  0.32271932074E+03  0.46413391789E+03  0.74693180226E+03  0.25500000920E-02 0.  1.
</event>
<event>
 5   0  0.6671375E-05  0.1383540E+04  0.7818609E-02  0.8965820E-01
        1   -1    0    0  501    0  0.00000000000E+00  0.00000000000E+00  0.17254986066E+04  0.17254986066E+04  0.50400001928E-02 0.  1.
       -1   -1    0    0    0  501  0.00000000000E+00  0.00000000000E+00 -0.27733762271E+03  0.27733762275E+03  0.50400001928E-02 0. -1.
    10030    2    1    2    0    0  0.00000000000E+00  0.00000000000E+00  0.14481609839E+04  0.20028362293E+04  0.13835399258E+04 0.  0.
        5    1    3    3  502    0 -0.67680338080E+03  0.17019060333E+02  0.92967846246E+03  0.11500767793E+04  0.46999998093E+01 0.  1.
       -5    1    3    3    0  502  0.67680338080E+03 -0.17019060333E+02  0.51848252142E+03  0.85275945007E+03  0.46999998093E+01 0. -1.
</event>
<event>
 5   0  0.1794185E-04  0.1406430E+04  0.7818609E-02  0.8949178E-01
        2   -1    0    0  501    0  0.00000000000E+00  0.00000000000E+00  0.57685182976E+03  0.57685182977E+03  0.25500000920E-02 0. -1.
       -2   -1    0    0    0  501  0.00000000000E+00  0.00000000000E+00 -0.85725844195E+03  0.85725844195E+03  0.25500000920E-02 0.  1.
    10030    2    1    2    0    0  0.00000000000E+00  0.00000000000E+00 -0.28040661219E+03  0.14341102717E+04  0.14064296652E+04 0.  0.
        2    1    3    3  502    0 -0.33797035502E+03 -0.58154984076E+03 -0.34939195460E+03  0.75795706746E+03  0.25500000920E-02 0.  1.
       -2    1    3    3    0  502  0.33797035502E+03  0.58154984076E+03  0.68985342412E+02  0.67615320426E+03  0.25500000920E-02 0. -1.
</event>
<event>
 5   0  0.1712327E-04  0.1398240E+04  0.7818609E-02  0.8955094E-01
        2   -1    0    0  501    0  0.00000000000E+00  0.00000000000E+00  0.76587384462E+03  0.76587384462E+03  0.25500000920E-02 0. -1.
       -2   -1    0    0    0  501  0.00000000000E+00  0.00000000000E+00 -0.63818416054E+03  0.63818416054E+03  0.25500000920E-02 0.  1.
    10030    2    1    2    0    0  0.00000000000E+00  0.00000000000E+00  0.12768968408E+03  0.14040580052E+04  0.13982396885E+04 0.  0.
        1    1    3    3  502    0  0.53868091345E+03  0.42329607181E+03 -0.76061390978E+02  0.68930546650E+03  0.50400001928E-02 0. -1.
       -1    1    3    3    0  502 -0.53868091345E+03 -0.42329607181E+03  0.20375107506E+03  0.71475253867E+03  0.50400001928E-02 0.  1.
</event>
<event>
 5   0  0.1712327E-04  0.1402550E+04  0.7818609E-02  0.8951975E-01
        2   -1    0    0  501    0  0.00000000000E+00  0.00000000000E+00  0.14159303191E+04  0.14159303191E+04  0.25500000920E-02 0. -1.
       -2   -1    0    0    0  501  0.00000000000E+00  0.00000000000E+00 -0.34732404256E+03  0.34732404257E+03  0.25500000920E-02 0.  1.
    10030    2    1    2    0    0  0.00000000000E+00  0.00000000000E+00  0.10686062766E+04  0.17632543617E+04  0.14025500240E+04 0.  0.
        1    1    3    3  502    0  0.66262999774E+03 -0.22752331684E+03  0.57287347584E+03  0.90500242704E+03  0.50400001928E-02 0. -1.
       -1    1    3    3    0  502 -0.66262999774E+03  0.22752331684E+03  0.49573280074E+03  0.85825193467E+03  0.50400001928E-02 0.  1.
</event>
<event>
 5   0  0.1766237E-04  0.1412483E+04  0.7818609E-02  0.8944832E-01
        2   -1    0    0  501    0  0.00000000000E+00  0.00000000000E+00  0.16387947192E+04  0.16387947192E+04  0.25500000920E-02 0. -1.
       -2   -1    0    0    0  501  0.00000000000E+00  0.00000000000E+00 -0.30435589861E+03  0.30435589862E+03  0.25500000920E-02 0.  1.
    10030    2    1    2    0    0  0.00000000000E+00  0.00000000000E+00  0.13344388206E+04  0.19431506178E+04  0.14124826929E+04 0.  0.
        3    1    3    3  502    0 -0.19620857400E+03 -0.54946781858E+03  0.11976021504E+03  0.59561330364E+03  0.10100000352E+00 0.  1.
       -3    1    3    3    0  502  0.19620857400E+03  0.54946781858E+03  0.12146786056E+04  0.13475373142E+04  0.10100000352E+00 0. -1.
</event>
<event>
 5   0  0.9828111E-05  0.1403615E+04  0.7818609E-02  0.8951206E-01
        1   -1    0    0  501    0  0.00000000000E+00  0.00000000000E+00  0.17376340683E+04  0.17376340683E+04  0.50400001928E-02 0. -1.
       -1   -1    0    0    0  501  0.00000000000E+00  0.00000000000E+00 -0.28345098129E+03  0.28345098134E+03  0.50400001928E-02 0.  1.
    10030    2    1    2    0    0  0.00000000000E+00  0.00000000000E+00  0.14541830870E+04  0.20210850496E+04  0.14036154485E+04 0.  0.
        4    1    3    3  502    0 -0.34562380205E+03  0.22597023467E+03 -0.90005992053E+02  0.42263583735E+03  0.12699999809E+01 0.  1.
       -4    1    3    3    0  502  0.34562380205E+03 -0.22597023467E+03  0.15441890791E+04  0.15984492123E+04  0.12699999809E+01 0. -1.
</event>
<event>
 5   0  0.1766237E-04  0.1399617E+04  0.7818609E-02  0.8954096E-01
        2   -1    0    0  501    0  0.00000000000E+00  0.00000000000E+00  0.21312645420E+04  0.21312645420E+04  0.25500000920E-02 0. -1.
       -2   -1    0    0    0  501  0.00000000000E+00  0.00000000000E+00 -0.22978482024E+03  0.22978482026E+03  0.25500000920E-02 0.  1.
    10030    2    1    2    0    0  0.00000000000E+00  0.00000000000E+00  0.19014797218E+04  0.23610493623E+04  0.13996174330E+04 0.  0.
        3    1    3    3  502    0  0.30373006373E+03 -0.61755904837E+03  0.73668578946E+03  0.10081354534E+04  0.10100000352E+00 0.  1.
       -3    1    3    3    0  502 -0.30373006373E+03  0.61755904837E+03  0.11647939323E+04  0.13529139089E+04  0.10100000352E+00 0. -1.
</event>
<event>
 5   0  0.9978422E-05  0.1402334E+04  0.7818609E-02  0.8952131E-01
       -1   -1    0    0    0  501  0.00000000000E+00  0.00000000000E+00  0.54820428416E+03  0.54820428419E+03  0.50400001928E-02 0.  1.
        1   -1    0    0  501    0  0.00000000000E+00  0.00000000000E+00 -0.89681025372E+03  0.89681025373E+03  0.50400001928E-02 0. -1.
    10030    2    1    2    0    0  0.00000000000E+00  0.00000000000E+00 -0.34860596956E+03  0.14450145379E+04  0.14023340874E+04 0.  0.
        2    1    3    3  502    0  0.20264802515E+02 -0.18852557904E+03 -0.86989082335E+03  0.89031601172E+03  0.25500000920E-02 0. -1.
       -2    1    3    3    0  502 -0.20264802515E+02  0.18852557904E+03  0.52128485379E+03  0.55469852620E+03  0.25500000920E-02 0.  1.
</event>
<event>
 5   0  0.1780171E-04  0.1399223E+04  0.7818609E-02  0.8954381E-01
        2   -1    0    0  501    0  0.00000000000E+00  0.00000000000E+00  0.21894013120E+04  0.21894013120E+04  0.25500000920E-02 0.  1.
       -2   -1    0    0    0  501  0.00000000000E+00  0.00000000000E+00 -0.22355705299E+03  0.22355705300E+03  0.25500000920E-02 0. -1.
    10030    2    1    2    0    0  0.00000000000E+00  0.00000000000E+00  0.19658442590E+04  0.24129583650E+04  0.13992227916E+04 0.  0.
        5    1    3    3  502    0 -0.58795558453E+03 -0.37789267068E+03  0.10357766950E+04  0.12495399521E+04  0.46999998093E+01 0.  1.
       -5    1    3    3    0  502  0.58795558453E+03  0.37789267068E+03  0.93006756403E+03  0.11634184129E+04  0.46999998093E+01 0. -1.
</event>
<event>
 5   0  0.1766237E-04  0.1399682E+04  0.7818609E-02  0.8954049E-01
        2   -1    0    0  501    0  0.00000000000E+00  0.00000000000E+00  0.13740955103E+04  0.13740955103E+04  0.25500000920E-02 0.  1.
       -2   -1    0    0    0  501  0.00000000000E+00  0.00000000000E+00 -0.35643610660E+03  0.35643610661E+03  0.25500000920E-02 0. -1.
    10030    2    1    2    0    0  0.00000000000E+00  0.00000000000E+00  0.10176594037E+04  0.17305316169E+04  0.13996817550E+04 0.  0.
        3    1    3    3  502    0  0.11664699497E+03 -0.65567895967E+03  0.24292045025E+03  0.70889475590E+03  0.10100000352E+00 0. -1.
       -3    1    3    3    0  502 -0.11664699497E+03  0.65567895967E+03  0.77473895345E+03  0.10216368610E+04  0.10100000352E+00 0.  1.
</event>
<event>
 5   0  0.9978422E-05  0.1407850E+04  0.7818609E-02  0.8948156E-01
        1   -1    0    0  501    0  0.00000000000E+00  0.00000000000E+00  0.56713761887E+03  0.56713761890E+03  0.50400001928E-02 0. -1.
       -1   -1    0    0    0  501  0.00000000000E+00  0.00000000000E+00 -0.87370371388E+03  0.87370371389E+03  0.50400001928E-02 0.  1.
    10030    2    1    2    0    0  0.00000000000E+00  0.00000000000E+00 -0.30656609501E+03  0.14408413328E+04  0.14078497703E+04 0.  0.
        2    1    3    3  502    0  0.27096859329E+03 -0.48378749813E+03 -0.59707585162E+03  0.81484593298E+03  0.25500000920E-02 0.  1.
       -2    1    3    3    0  502 -0.27096859329E+03  0.48378749813E+03  0.29050975661E+03  0.62599539981E+03  0.25500000920E-02 0. -1.
</event>
<event>
 5   0  0.9978422E-05  0.1401130E+04  0.7818609E-02  0.8953001E-01
       -1   -1    0    0    0  501  0.00000000000E+00  0.00000000000E+00  0.32763457877E+03  0.32763457881E+03  0.50400001928E-02 0. -1.
        1   -1    0    0  501    0  0.00000000000E+00  0.00000000000E+00 -0.14979831960E+04  0.14979831960E+04  0.50400001928E-02 0.  1.
    10030    2    1    2    0    0  0.00000000000E+00  0.00000000000E+00 -0.11703486173E+04  0.18256177748E+04  0.14011296778E+04 0.  0.
        2    1    3    3  502    0 -0.50257549388E+03  0.25310490609E+03 -0.41436711467E+02  0.56423507654E+03  0.25500000920E-02 0. -1.
       -2    1    3    3    0  502  0.50257549388E+03 -0.25310490609E+03 -0.11289119058E+04  0.12613826983E+04  0.25500000920E-02 0.  1.
</event>
<event>
 5   0  0.6671375E-05  0.1401351E+04  0.7818609E-02  0.8952841E-01
        3   -1    0    0  501    0  0.00000000000E+00  0.00000000000E+00  0.50079586428E+03  0.50079587446E+03  0.10100000352E+00 0.  1.
       -3   -1    0    0    0  501  0.00000000000E+00  0.00000000000E+00 -0.98033213084E+03  0.98033213604E+03  0.10100000352E+00 0. -1.
    10030    2    1    2    0    0  0.00000000000E+00  0.00000000000E+00 -0.47953626656E+03  0.14811280105E+04  0.14013511882E+04 0.  0.
        2    1    3    3  502    0 -0.20778671078E+03 -0.64749415803E+03 -0.61268315781E+02  0.68277214968E+03  0.25500000920E-02 0. -1.
       -2    1    3    3    0  502  0.20778671078E+03  0.64749415803E+03 -0.41826795078E+03  0.79835586082E+03  0.25500000920E-02 0.  1.
</event>
<event>
 5   0  0.6671375E-05  0.1389719E+04  0.7818609E-02  0.8961295E-01
       -1   -1    0    0    0  501  0.00000000000E+00  0.00000000000E+00  0.43002089040E+03  0.43002089043E+03  0.50400001928E-02 0. -1.
        1   -1    0    0  501    0  0.00000000000E+00  0.00000000000E+00 -0.11228045381E+04  0.11228045381E+04  0.50400001928E-02 0.  1.
    10030    2    1    2    0    0  0.00000000000E+00  0.00000000000E+00 -0.69278364774E+03  0.15528254286E+04  0.13897185431E+04 0.  0.
        5    1    3    3  502    0 -0.39125921167E+03 -0.47617784312E+02 -0.98579136452E+03  0.10616769417E+04  0.46999998093E+01 0.  1.
       -5    1    3    3    0  502  0.39125921167E+03  0.47617784312E+02  0.29300771678E+03  0.49114848691E+03  0.46999998093E+01 0. -1.
</event>
<event>
 5   0  0.1794185E-04  0.1400225E+04  0.7818609E-02  0.8953655E-01
        2   -1    0    0  501    0  0.00000000000E+00  0.00000000000E+00  0.10576527564E+04  0.10576527564E+04  0.25500000920E-02 0. -1.
       -2   -1    0    0    0  501  0.00000000000E+00  0.00000000000E+00 -0.46343921784E+03  0.46343921785E+03  0.25500000920E-02 0.  1.
    10030    2    1    2    0    0  0.00000000000E+00  0.00000000000E+00  0.59421353855E+03  0.15210919742E+04  0.14002253621E+04 0.  0.
        2    1    3    3  502    0 -0.36745400257E+03 -0.52977696677E+03  0.59355791490E+03  0.87635442424E+03  0.25500000920E-02 0. -1.
       -2    1    3    3    0  502  0.36745400257E+03  0.52977696677E+03  0.65562364599E+00  0.64473755000E+03  0.25500000920E-02 0.  1.
</event>
<event>
 5   0  0.1794185E-04  0.1399825E+04  0.7818609E-02  0.8953945E-01
       -2   -1    0    0    0  501  0.00000000000E+00  0.00000000000E+00  0.41345062824E+03  0.41345062825E+03  0.25500000920E-02 0.  1.
        2   -1    0    0  501    0  0.00000000000E+00  0.00000000000E+00 -0.11848517192E+04  0.11848517192E+04  0.25500000920E-02 0. -1.
    10030    2    1    2    0    0  0.00000000000E+00  0.00000000000E+00 -0.77140109098E+03  0.15983023475E+04  0.13998252572E+04 0.  0.
        2    1    3    3  502    0 -0.84789565548E+02 -0.15173691039E+03 -0.11598155986E+04  0.11727683416E+04  0.25500000920E-02 0. -1.
       -2    1    3    3    0  502  0.84789565548E+02  0.15173691039E+03  0.38841450761E+03  0.42553400584E+03  0.25500000920E-02 0.  1.
</event>
<event>
 5   0  0.9900839E-05  0.1384462E+04  0.7818609E-02  0.8965143E-01
       -1   -1    0    0    0  501  0.00000000000E+00  0.00000000000E+00  0.42468058426E+03  0.42468058429E+03  0.50400001928E-02 0. -1.
        1   -1    0    0  501    0  0.00000000000E+00  0.00000000000E+00 -0.11283395925E+04  0.11283395925E+04  0.50400001928E-02 0.  1.
    10030    2    1    2    0    0  0.00000000000E+00  0.00000000000E+00 -0.70365900826E+03  0.15530201768E+04  0.13844622312E+04 0.  0.
        3    1    3    3  502    0 -0.10406293918E+03 -0.30259918180E+03  0.33673531951E+03  0.46452776638E+03  0.10100000352E+00 0. -1.
       -3    1    3    3    0  502  0.10406293918E+03  0.30259918180E+03 -0.10403943278E+04  0.10884924104E+04  0.10100000352E+00 0.  1.
</event>
<event>
 5   0  0.1833681E-04  0.1399945E+04  0.7818609E-02  0.8953858E-01
       -2   -1    0    0    0  501  0.00000000000E+00  0.00000000000E+00  0.22046667356E+03  0.22046667358E+03  0.25500000920E-02 0. -1.
        2   -1    0    0  501    0  0.00000000000E+00  0.00000000000E+00 -0.22223832116E+04  0.22223832116E+04  0.25500000920E-02 0.  1.
    10030    2    1    2    0    0  0.00000000000E+00  0.00000000000E+00 -0.20019165380E+04  0.24428498852E+04  0.13999449047E+04 0.  0.
        4    1    3    3  502    0 -0.59629732749E+03  0.28478006289E+02 -0.16387132026E+04  0.17440653867E+04  0.12699999809E+01 0.  1.
       -4    1    3    3    0  502  0.59629732749E+03 -0.28478006289E+02 -0.36320333543E+03  0.69878449853E+03  0.12699999809E+01 0. -1.
</event>
<event>
 5   0  0.9260916E-05  0.1403169E+04  0.7818609E-02  0.8951528E-01
        1   -1    0    0  501    0  0.00000000000E+00  0.00000000000E+00  0.73898106607E+03  0.73898106609E+03  0.50400001928E-02 0. -1.
       -1   -1    0    0    0  501  0.00000000000E+00  0.00000000000E+00 -0.66608013515E+03  0.66608013517E+03  0.50400001928E-02 0.  1.
    10030    2    1    2    0    0  0.00000000000E+00  0.00000000000E+00  0.72900930923E+02  0.14050612013E+04  0.14031687117E+04 0.  0.
        1    1    3    3  502    0  0.19520801075E+03  0.40905748837E+03 -0.49979623721E+03  0.67470769598E+03  0.50400001928E-02 0.  1.
       -1    1    3    3    0  502 -0.19520801075E+03 -0.40905748837E+03  0.57269716813E+03  0.73035350528E+03  0.50400001928E-02 0. -1.
</event>
<event>
 5   0  0.1794185E-04  0.1389790E+04  0.7818609E-02  0.8961243E-01
       -2   -1    0    0    0  501  0.00000000000E+00  0.00000000000E+00  0.44313553346E+03  0.44313553347E+03  0.25500000920E-02 0.  1.
        2   -1    0    0  501    0  0.00000000000E+00  0.00000000000E+00 -0.10896863528E+04  0.10896863529E+04  0.25500000920E-02 0. -1.
    10030    2    1    2    0    0  0.00000000000E+00  0.00000000000E+00 -0.64655081939E+03  0.15328218863E+04  0.13897895428E+04 0.  0.
        2    1    3    3  502    0 -0.33028432333E+03 -0.54130947210E+03 -0.98160011032E+01  0.63419242562E+03  0.25500000920E-02 0. -1.
       -2    1    3    3    0  502  0.33028432333E+03  0.54130947210E+03 -0.63673481828E+03  0.89862946071E+03  0.25500000920E-02 0.  1.
</event>
<event>
 5   0  0.9900839E-05  0.1399811E+04  0.7818609E-02  0.8953956E-01
        1   -1    0    0  501    0  0.00000000000E+00  0.00000000000E+00  0.41197135640E+03  0.41197135644E+03  0.50400001928E-02 0. -1.
       -1   -1    0    0    0  501  0.00000000000E+00  0.00000000000E+00 -0.11890812441E+04  0.11890812441E+04  0.50400001928E-02 0.  1.
    10030    2    1    2    0    0  0.00000000000E+00  0.00000000000E+00 -0.77710988773E+03  0.16010526006E+04  0.13998105773E+04 0.  0.
        3    1    3    3  502    0 -0.90395143156E+02  0.17862470055E+03 -0.11556353817E+04  0.11728474799E+04  0.10100000352E+00 0.  1.
       -3    1    3    3    0  502  0.90395143156E+02 -0.17862470055E+03  0.37852549398E+03  0.42820512064E+03  0.10100000352E+00 0. -1.
</event>
<event>
 5   0  0.6671375E-05  0.1400062E+04  0.7818609E-02  0.8953773E-01
        3   -1    0    0  501    0  0.00000000000E+00  0.00000000000E+00  0.89207702384E+03  0.89207702956E+03  0.10100000352E+00 0. -1.
       -3   -1    0    0    0  501  0.00000000000E+00  0.00000000000E+00 -0.54932881254E+03  0.54932882182E+03  0.10100000352E+00 0.  1.
    10030    2    1    2    0    0  0.00000000000E+00  0.00000000000E+00  0.34274821131E+03  0.14414058514E+04  0.14000623172E+04 0.  0.
        4    1    3    3  502    0  0.22057174631E+03 -0.29155767797E+03  0.78598203132E+03  0.86684897260E+03  0.12699999809E+01 0. -1.
       -4    1    3    3    0  502 -0.22057174631E+03  0.29155767797E+03 -0.44323382001E+03  0.57455687878E+03  0.12699999809E+01 0.  1.
</event>
<event>
 5   0  0.1712327E-04  0.1398234E+04  0.7818609E-02  0.8955098E-01
        2   -1    0    0  501    0  0.00000000000E+00  0.00000000000E+00  0.10388894489E+04  0.10388894489E+04  0.25500000920E-02 0.  1.
       -2   -1    0    0    0  501  0.00000000000E+00  0.00000000000E+00 -0.47046857477E+03  0.47046857478E+03  0.25500000920E-02 0. -1.
    10030    2    1    2    0    0  0.00000000000E+00  0.00000000000E+00  0.56842087410E+03  0.15093580237E+04  0.13982343700E+04 0.  0.
        1    1    3    3  502    0  0.18243872585E+03 -0.10000343666E+03  0.10046980653E+04  0.10260130499E+04  0.50400001928E-02 0.  1.
       -1    1    3    3    0  502 -0.18243872585E+03  0.10000343666E+03 -0.43627719124E+03  0.48334497376E+03  0.50400001928E-02 0. -1.
</event>
<event>
 5   0  0.1780171E-04  0.1400895E+04  0.7818609E-02  0.8953171E-01
       -2   -1    0    0    0  501  0.00000000000E+00  0.00000000000E+00  0.77713687641E+03  0.77713687642E+03  0.25500000920E-02 0. -1.
        2   -1    0    0  501    0  0.00000000000E+00  0.00000000000E+00 -0.63132633524E+03  0.63132633525E+03  0.25500000920E-02 0.  1.
    10030    2    1    2    0    0  0.00000000000E+00  0.00000000000E+00  0.14581054117E+03  0.14084632117E+04  0.14008953939E+04 0.  0.
        5    1    3    3  502    0 -0.27625598751E+02  0.36057998759E+03  0.67599889086E+03  0.76666661047E+03  0.46999998093E+01 0. -1.
       -5    1    3    3    0  502  0.27625598751E+02 -0.36057998759E+03 -0.53018834969E+03  0.64179660119E+03  0.46999998093E+01 0.  1.
</event>
<event>
 5   0  0.9260916E-05  0.1402453E+04  0.7818609E-02  0.8952045E-01
        1   -1    0    0  501    0  0.00000000000E+00  0.00000000000E+00  0.71117149783E+03  0.71117149784E+03  0.50400001928E-02 0. -1.
       -1   -1    0    0    0  501  0.00000000000E+00  0.00000000000E+00 -0.69142028694E+03  0.69142028695E+03  0.50400001928E-02 0.  1.
    10030    2    1    2    0    0  0.00000000000E+00  0.00000000000E+00  0.19751210891E+02  0.14025917848E+04  0.14024527102E+04 0.  0.
        1    1    3    3  502    0 -0.58552774851E+03 -0.30658261551E+03  0.24416952800E+03  0.70459520495E+03  0.50400001928E-02 0. -1.
       -1    1    3    3    0  502  0.58552774851E+03  0.30658261551E+03 -0.22441831711E+03  0.69799657985E+03  0.50400001928E-02 0.  1.
</event>
<event>
 5   0  0.9828111E-05  0.1402399E+04  0.7818609E-02  0.8952084E-01
        1   -1    0    0  501    0  0.00000000000E+00  0.00000000000E+00  0.15413976937E+04  0.15413976937E+04  0.50400001928E-02 0. -1.
       -1   -1    0    0    0  501  0.00000000000E+00  0.00000000000E+00 -0.31898356167E+03  0.31898356171E+03  0.50400001928E-02 0.  1.
    10030    2    1    2    0    0  0.00000000000E+00  0.00000000000E+00  0.12224141320E+04  0.18603812554E+04  0.14023986970E+04 0.  0.
        4    1    3    3  502    0 -0.39995562599E+03 -0.18527172110E+03 -0.11221667932E+03  0.45484536869E+03  0.12699999809E+01 0.  1.
       -4    1    3    3    0  502  0.39995562599E+03  0.18527172110E+03  0.13346308114E+04  0.14055358867E+04  0.12699999809E+01 0. -1.
</event>
<event>
 5   0  0.9828111E-05  0.1392733E+04  0.7818609E-02  0.8959096E-01
       -1   -1    0    0    0  501  0.00000000000E+00  0.00000000000E+00  0.51496072306E+03  0.51496072308E+03  0.50400001928E-02 0. -1.
        1   -1    0    0  501    0  0.00000000000E+00  0.00000000000E+00 -0.94167570932E+03  0.94167570934E+03  0.50400001928E-02 0.  1.
    10030    2    1    2    0    0  0.00000000000E+00  0.00000000000E+00 -0.42671498627E+03  0.14566364324E+04  0.13927325719E+04 0.  0.
        4    1    3    3  502    0  0.72227295918E+02  0.63917847699E+03 -0.49235272280E+03  0.81004859377E+03  0.12699999809E+01 0.  1.
       -4    1    3    3    0  502 -0.72227295918E+02 -0.63917847699E+03  0.65637736530E+02  0.64658783864E+03  0.12699999809E+01 0. -1.
</event>
<event>
 5   0  0.1794185E-04  0.1397780E+04  0.7818609E-02  0.8955427E-01
       -2   -1    0    0    0  501  0.00000000000E+00  0.00000000000E+00  0.93552200814E+03  0.93552200815E+03  0.25500000920E-02 0.  1.
        2   -1    0    0  501    0  0.00000000000E+00  0.00000000000E+00 -0.52211181920E+03  0.52211181920E+03  0.25500000920E-02 0. -1.
    10030    2    1    2    0    0  0.00000000000E+00  0.00000000000E+00  0.41341018895E+03  0.14576338274E+04  0.13977798075E+04 0.  0.
        2    1    3    3  502    0 -0.40117473889E+03 -0.88495431981E+02 -0.38290330690E+03  0.56159376336E+03  0.25500000920E-02 0. -1.
       -2    1    3    3    0  502  0.40117473889E+03  0.88495431981E+02  0.79631349585E+03  0.89604006399E+03  0.25500000920E-02 0.  1.
</event>
<event>
 5   0  0.1794185E-04  0.1400276E+04  0.7818609E-02  0.8953619E-01
        2   -1    0    0  501    0  0.00000000000E+00  0.00000000000E+00  0.15865078972E+04  0.15865078972E+04  0.25500000920E-02 0.  1.
       -2   -1    0    0    0  501  0.00000000000E+00  0.00000000000E+00 -0.30897614972E+03  0.30897614973E+03  0.25500000920E-02 0. -1.
    10030    2    1    2    0    0  0.00000000000E+00  0.00000000000E+00  0.12775317475E+04  0.18954840470E+04  0.14002758323E+04 0.  0.
        2    1    3    3  502    0  0.30666185238E+03  0.11591040151E+03 -0.19865748420E+03  0.38332950437E+03  0.25500000920E-02 0. -1.
       -2    1    3    3    0  502 -0.30666185238E+03 -0.11591040151E+03  0.14761892317E+04  0.15121545426E+04  0.25500000920E-02 0.  1.
</event>
<event>
 5   0  0.1833681E-04  0.1401706E+04  0.7818609E-02  0.8952585E-01
        2   -1    0    0  501    0  0.00000000000E+00  0.00000000000E+00  0.58874016434E+03  0.58874016434E+03  0.25500000920E-02 0.  1.
       -2   -1    0    0    0  501  0.00000000000E+00  0.00000000000E+00 -0.83431499224E+03  0.83431499225E+03  0.25500000920E-02 0. -1.
    10030    2    1    2    0    0  0.00000000000E+00  0.00000000000E+00 -0.24557482791E+03  0.14230551566E+04  0.14017057404E+04 0.  0.
        4    1    3    3  502    0  0.24519997676E+02 -0.65117498747E+03 -0.38471512617E+03  0.75672811220E+03  0.12699999809E+01 0. -1.
       -4    1    3    3    0  502 -0.24519997676E+02  0.65117498747E+03  0.13914029826E+03  0.66632704439E+03  0.12699999809E+01 0.  1.
</event>
<event>
 5   0  0.6671375E-05  0.1402131E+04  0.7818609E-02  0.8952278E-01
        3   -1    0    0  501    0  0.00000000000E+00  0.00000000000E+00  0.11130900507E+04  0.11130900553E+04  0.10100000352E+00 0. -1.
       -3   -1    0    0    0  501  0.00000000000E+00  0.00000000000E+00 -0.44155700606E+03  0.44155701761E+03  0.10100000352E+00 0.  1.
    10030    2    1    2    0    0  0.00000000000E+00  0.00000000000E+00  0.67153304463E+03  0.15546470729E+04  0.14021308395E+04 0.  0.
        1    1    3    3  502    0  0.39369534458E+03 -0.33539507634E+03  0.86054245943E+03  0.10040015967E+04  0.50400001928E-02 0. -1.
       -1    1    3    3    0  502 -0.39369534458E+03  0.33539507634E+03 -0.18900941480E+03  0.55064547622E+03  0.50400001928E-02 0.  1.
</event>
<event>
 5   0  0.1780171E-04  0.1377307E+04  0.7818609E-02  0.8970410E-01
        2   -1    0    0  501    0  0.00000000000E+00  0.00000000000E+00  0.74384570097E+03  0.74384570097E+03  0.25500000920E-02 0. -1.
       -2   -1    0    0    0  501  0.00000000000E+00  0.00000000000E+00 -0.63755680338E+03  0.63755680339E+03  0.25500000920E-02 0.  1.
    10030    2    1    2    0    0  0.00000000000E+00  0.00000000000E+00  0.10628889759E+03  0.13814025044E+04  0.13773073547E+04 0.  0.
        5    1    3    3  502    0  0.11910440473E+03  0.32491888531E+03  0.65028316314E+03  0.73664674269E+03  0.46999998093E+01 0. -1.
       -5    1    3    3    0  502 -0.11910440473E+03 -0.32491888531E+03 -0.54399426555E+03  0.64475576167E+03  0.46999998093E+01 0.  1.
</event>
<event>
 5   0  0.1794185E-04  0.1402062E+04  0.7818609E-02  0.8952327E-01
       -2   -1    0    0    0  501  0.00000000000E+00  0.00000000000E+00  0.34739288238E+03  0.34739288239E+03  0.25500000920E-02 0.  1.
        2   -1    0    0  501    0  0.00000000000E+00  0.00000000000E+00 -0.14146650706E+04  0.14146650706E+04  0.25500000920E-02 0. -1.
    10030    2    1    2    0    0  0.00000000000E+00  0.00000000000E+00 -0.10672721882E+04  0.17620579530E+04  0.14020621620E+04 0.  0.
        2    1    3    3  502    0 -0.49644125261E+03 -0.43640824627E+03 -0.24013851679E+03  0.70325854560E+03  0.25500000920E-02 0.  1.
       -2    1    3    3    0  502  0.49644125261E+03  0.43640824627E+03 -0.82713367145E+03  0.10587994074E+04  0.25500000920E-02 0. -1.
</event>
<event>
 5   0  0.1712327E-04  0.1400818E+04  0.7818609E-02  0.8953226E-01
        2   -1    0    0  501    0  0.00000000000E+00  0.00000000000E+00  0.10378657520E+04  0.10378657520E+04  0.25500000920E-02 0.  1.
       -2   -1    0    0    0  501  0.00000000000E+00  0.00000000000E+00 -0.47267479939E+03  0.47267479940E+03  0.25500000920E-02 0. -1.
    10030    2    1    2    0    0  0.00000000000E+00  0.00000000000E+00  0.56519095264E+03  0.15105405514E+04  0.14008183125E+04 0.  0.
        1    1    3    3  502    0 -0.34112367677E+03  0.64085551905E+02 -0.37341460131E+03  0.50981446166E+03  0.50400001928E-02 0. -1.
       -1    1    3    3    0  502  0.34112367677E+03 -0.64085551905E+02  0.93860555395E+03  0.10007260898E+04  0.50400001928E-02 0.  1.
</event>
<event>
 5   0  0.1833681E-04  0.1400611E+04  0.7818609E-02  0.8953377E-01
        2   -1    0    0  501    0  0.00000000000E+00  0.00000000000E+00  0.59250914415E+03  0.59250914416E+03  0.25500000920E-02 0.  1.
       -2   -1    0    0    0  501  0.00000000000E+00  0.00000000000E+00 -0.82771291822E+03  0.82771291822E+03  0.25500000920E-02 0. -1.
    10030    2    1    2    0    0  0.00000000000E+00  0.00000000000E+00 -0.23520377407E+03  0.14202220624E+04  0.14006105423E+04 0.  0.
        4    1    3    3  502    0 -0.47181239005E+03 -0.13471844572E+03 -0.62426808392E+03  0.79402030485E+03  0.12699999809E+01 0. -1.
       -4    1    3    3    0  502  0.47181239005E+03  0.13471844572E+03  0.38906430985E+03  0.62620175752E+03  0.12699999809E+01 0.  1.
</event>
<event>
 5   0  0.1833681E-04  0.1397570E+04  0.7818609E-02  0.8955580E-01
       -2   -1    0    0    0  501  0.00000000000E+00  0.00000000000E+00  0.33354745863E+03  0.33354745864E+03  0.25500000920E-02 0. -1.
        2   -1    0    0  501    0  0.00000000000E+00  0.00000000000E+00 -0.14639606538E+04  0.14639606538E+04  0.25500000920E-02 0.  1.
    10030    2    1    2    0    0  0.00000000000E+00  0.00000000000E+00 -0.11304131951E+04  0.17975081124E+04  0.13975698274E+04 0.  0.
        4    1    3    3  502    0 -0.17285983627E+03  0.22546256843E+03 -0.13863260855E+04  0.14151379866E+04  0.12699999809E+01 0.  1.
       -4    1    3    3    0  502  0.17285983627E+03 -0.22546256843E+03  0.25591289039E+03  0.38237012583E+03  0.12699999809E+01 0. -1.
</event>
<event>
 5   0  0.1780171E-04  0.1400038E+04  0.7818609E-02  0.8953791E-01
        2   -1    0    0  501    0  0.00000000000E+00  0.00000000000E+00  0.12795926258E+04  0.12795926258E+04  0.25500000920E-02 0. -1.
       -2   -1    0    0    0  501  0.00000000000E+00  0.00000000000E+00 -0.38295538687E+03  0.38295538687E+03  0.25500000920E-02 0.  1.
    10030    2    1    2    0    0  0.00000000000E+00  0.00000000000E+00  0.89663723895E+03  0.16625480127E+04  0.14000384124E+04 0.  0.
        5    1    3    3  502    0  0.37261620980E+02 -0.37493067670E+03 -0.25225038698E+03  0.45344656627E+03  0.46999998093E+01 0.  1.
       -5    1    3    3    0  502 -0.37261620980E+02  0.37493067670E+03  0.11488876259E+04  0.12091014464E+04  0.46999998093E+01 0. -1.
</event>
<event>
 5   0  0.9828111E-05  0.1400721E+04  0.7818609E-02  0.8953297E-01
        1   -1    0    0  501    0  0.00000000000E+00  0.00000000000E+00  0.10185259547E+04  0.10185259547E+04  0.50400001928E-02 0.  1.
       -1   -1    0    0    0  501  0.00000000000E+00  0.00000000000E+00 -0.48158330268E+03  0.48158330271E+03  0.50400001928E-02 0. -1.
    10030    2    1    2    0    0  0.00000000000E+00  0.00000000000E+00  0.53694265201E+03  0.15001092574E+04  0.14007213758E+04 0.  0.
        4    1    3    3  502    0  0.83265761712E+02 -0.24427526203E+03  0.96574422635E+03  0.99963349000E+03  0.12699999809E+01 0.  1.
       -4    1    3    3    0  502 -0.83265761712E+02  0.24427526203E+03 -0.42880157433E+03  0.50047576741E+03  0.12699999809E+01 0. -1.
</event>
<event>
 5   0  0.1780171E-04  0.1397006E+04  0.7818609E-02  0.8955989E-01
       -2   -1    0    0    0  501  0.00000000000E+00  0.00000000000E+00  0.36126360234E+03  0.36126360235E+03  0.25500000920E-02 0. -1.
        2   -1    0    0  501    0  0.00000000000E+00  0.00000000000E+00 -0.13505554154E+04  0.13505554154E+04  0.25500000920E-02 0.  1.
    10030    2    1    2    0    0  0.00000000000E+00  0.00000000000E+00 -0.98929181310E+03  0.17118190178E+04  0.13970061053E+04 0.  0.
        5    1    3    3  502    0 -0.52363176125E+03 -0.22295502136E+03  0.15600249188E+01  0.56914294041E+03  0.46999998093E+01 0. -1.
       -5    1    3    3    0  502  0.52363176125E+03  0.22295502136E+03 -0.99085183802E+03  0.11426760774E+04  0.46999998093E+01 0.  1.
</event>
<event>
 5   0  0.1766237E-04  0.1409100E+04  0.7818609E-02  0.8947258E-01
       -2   -1    0    0    0  501  0.00000000000E+00  0.00000000000E+00  0.92947582959E+03  0.92947582960E+03  0.25500000920E-02 0.  1.
        2   -1    0    0  501    0  0.00000000000E+00  0.00000000000E+00 -0.53405451766E+03  0.53405451766E+03  0.25500000920E-02 0. -1.
    10030    2    1    2    0    0  0.00000000000E+00  0.00000000000E+00  0.39542131194E+03  0.14635303473E+04  0.14091000899E+04 0.  0.
        3    1    3    3  502    0 -0.47857239429E+03 -0.51406707141E+03  0.13993582902E+03  0.71615538603E+03  0.10100000352E+00 0.  1.
       -3    1    3    3    0  502  0.47857239429E+03  0.51406707141E+03  0.25548548291E+03  0.74737496123E+03  0.10100000352E+00 0. -1.
</event>
<event>
 5   0  0.6671375E-05  0.1397744E+04  0.7818609E-02  0.8955453E-01
        4   -1    0    0  501    0  0.00000000000E+00  0.00000000000E+00  0.42941261501E+03  0.42941449303E+03  0.12699999809E+01 0.  1.
       -4   -1    0    0    0  501  0.00000000000E+00  0.00000000000E+00 -0.11374144169E+04  0.11374151259E+04  0.12699999809E+01 0. -1.
    10030    2    1    2    0    0  0.00000000000E+00  0.00000000000E+00 -0.70800180190E+03  0.15668296190E+04  0.13977440765E+04 0.  0.
        4    1    3    3  502    0 -0.29592697227E+03 -0.18704432850E+03 -0.10320370660E+04  0.10897983631E+04  0.12699999809E+01 0. -1.
       -4    1    3    3    0  502  0.29592697227E+03  0.18704432850E+03  0.32403526412E+03  0.47703125583E+03  0.12699999809E+01 0.  1.
</event>
<event>
 5   0  0.9260916E-05  0.1403402E+04  0.7818609E-02  0.8951359E-01
       -1   -1    0    0    0  501  0.00000000000E+00  0.00000000000E+00  0.50703116924E+03  0.50703116926E+03  0.50400001928E-02 0.  1.
        1   -1    0    0  501    0  0.00000000000E+00  0.00000000000E+00 -0.97111297841E+03  0.97111297842E+03  0.50400001928E-02 0. -1.
    10030    2    1    2    0    0  0.00000000000E+00  0.00000000000E+00 -0.46408180917E+03  0.14781441477E+04  0.14034023642E+04 0.  0.
        1    1    3    3  502    0  0.67209710392E+03  0.17206190498E+03 -0.34283204869E+03  0.77385633671E+03  0.50400001928E-02 0. -1.
       -1    1    3    3    0  502 -0.67209710392E+03 -0.17206190498E+03 -0.12124976048E+03  0.70428781097E+03  0.50400001928E-02 0.  1.
</event>
<event>
 5   0  0.6671375E-05  0.1413464E+04  0.7818609E-02  0.8944130E-01
        1   -1    0    0  501    0  0.00000000000E+00  0.00000000000E+00  0.96645957578E+03  0.96645957579E+03  0.50400001928E-02 0. -1.
       -1   -1    0    0    0  501  0.00000000000E+00  0.00000000000E+00 -0.51680429765E+03  0.51680429768E+03  0.50400001928E-02 0.  1.
    10030    2    1    2    0    0  0.00000000000E+00  0.00000000000E+00  0.44965527812E+03  0.14832638735E+04  0.14134644846E+04 0.  0.
        5    1    3    3  502    0  0.58274172263E+03  0.17554788055E+03 -0.15213769560E+03  0.62735392091E+03  0.46999998093E+01 0.  1.
       -5    1    3    3    0  502 -0.58274172263E+03 -0.17554788055E+03  0.60179297372E+03  0.85590995256E+03  0.46999998093E+01 0. -1.
</event>
<event>
 5   0  0.6671375E-05  0.1398796E+04  0.7818609E-02  0.8954690E-01
       -1   -1    0    0    0  501  0.00000000000E+00  0.00000000000E+00  0.76659211601E+03  0.76659211602E+03  0.50400001928E-02 0. -1.
        1   -1    0    0  501    0  0.00000000000E+00  0.00000000000E+00 -0.63809409315E+03  0.63809409317E+03  0.50400001928E-02 0.  1.
    10030    2    1    2    0    0  0.00000000000E+00  0.00000000000E+00  0.12849802286E+03  0.14046862092E+04  0.13987964843E+04 0.  0.
        5    1    3    3  502    0  0.39176442851E+03 -0.10223041813E+03 -0.50841995775E+03  0.64995643645E+03  0.46999998093E+01 0.  1.
       -5    1    3    3    0  502 -0.39176442851E+03  0.10223041813E+03  0.63691798061E+03  0.75472977274E+03  0.46999998093E+01 0. -1.
</event>
<event>
 5   0  0.6671375E-05  0.1403316E+04  0.7818609E-02  0.8951422E-01
       -1   -1    0    0    0  501  0.00000000000E+00  0.00000000000E+00  0.23683490668E+03  0.23683490673E+03  0.50400001928E-02 0.  1.
        1   -1    0    0  501    0  0.00000000000E+00  0.00000000000E+00 -0.20787639131E+04  0.20787639131E+04  0.50400001928E-02 0. -1.
    10030    2    1    2    0    0  0.00000000000E+00  0.00000000000E+00 -0.18419290064E+04  0.23155988199E+04  0.14033158696E+04 0.  0.
        5    1    3    3  502    0 -0.45837653419E+03  0.53093206821E+03 -0.89220084362E+03  0.11349195317E+04  0.46999998093E+01 0. -1.
       -5    1    3    3    0  502  0.45837653419E+03 -0.53093206821E+03 -0.94972816282E+03  0.11806792881E+04  0.46999998093E+01 0.  1.
</event>
<event>
 5   0  0.1712327E-04  0.1399487E+04  0.7818609E-02  0.8954190E-01
       -2   -1    0    0    0  501  0.00000000000E+00  0.00000000000E+00  0.23357661615E+03  0.23357661616E+03  0.25500000920E-02 0. -1.
        2   -1    0    0  501    0  0.00000000000E+00  0.00000000000E+00 -0.20962752628E+04  0.20962752628E+04  0.25500000920E-02 0.  1.
    10030    2    1    2    0    0  0.00000000000E+00  0.00000000000E+00 -0.18626986466E+04  0.23298518790E+04  0.13994868809E+04 0.  0.
        1    1    3    3  502    0 -0.68816910653E+03 -0.28782638118E+02 -0.11368394753E+04  0.13292137345E+04  0.50400001928E-02 0.  1.
       -1    1    3    3    0  502  0.68816910653E+03  0.28782638118E+02 -0.72585917135E+03  0.10006381444E+04  0.50400001928E-02 0. -1.
</event>
<event>
 5   0  0.1712327E-04  0.1391648E+04  0.7818609E-02  0.8959886E-01
       -2   -1    0    0    0  501  0.00000000000E+00  0.00000000000E+00  0.33455463610E+03  0.33455463611E+03  0.25500000920E-02 0.  1.
        2   -1    0    0  501    0  0.00000000000E+00  0.00000000000E+00 -0.14472112908E+04  0.14472112908E+04  0.25500000920E-02 0. -1.
    10030    2    1    2    0    0  0.00000000000E+00  0.00000000000E+00 -0.11126566547E+04  0.17817659269E+04  0.13916482986E+04 0.  0.
        1    1    3    3  502    0  0.30711044363E+01 -0.30838805106E+03  0.24227052252E+03  0.39218315597E+03  0.50400001928E-02 0.  1.
       -1    1    3    3    0  502 -0.30711044363E+01  0.30838805106E+03 -0.13549271772E+04  0.13895827710E+04  0.50400001928E-02 0. -1.
</event>
<event>
 5   0  0.9828111E-05  0.1399552E+04  0.7818609E-02  0.8954143E-01
        1   -1    0    0  501    0  0.00000000000E+00  0.00000000000E+00  0.10888887885E+04  0.10888887885E+04  0.50400001928E-02 0.  1.
       -1   -1    0    0    0  501  0.00000000000E+00  0.00000000000E+00 -0.44971189559E+03  0.44971189562E+03  0.50400001928E-02 0. -1.
    10030    2    1    2    0    0  0.00000000000E+00  0.00000000000E+00  0.63917689287E+03  0.15386006841E+04  0.13995517013E+04 0.  0.
        4    1    3    3  502    0 -0.66449813113E+03 -0.18659134040E+03  0.44642216020E+03  0.82199054290E+03  0.12699999809E+01 0.  1.
       -4    1    3    3    0  502  0.66449813113E+03  0.18659134040E+03  0.19275473267E+03  0.71661014119E+03  0.12699999809E+01 0. -1.
</event>
<event>
 5   0  0.1794185E-04  0.1396784E+04  0.7818609E-02  0.8956150E-01
        2   -1    0    0  501    0  0.00000000000E+00  0.00000000000E+00  0.11542582337E+04  0.11542582337E+04  0.25500000920E-02 0.  1.
       -2   -1    0    0    0  501  0.00000000000E+00  0.00000000000E+00 -0.42256711368E+03  0.42256711369E+03  0.25500000920E-02 0. -1.
    10030    2    1    2    0    0  0.00000000000E+00  0.00000000000E+00  0.73169112005E+03  0.15768253474E+04  0.13967842643E+04 0.  0.
        2    1    3    3  502    0 -0.39104612925E+03  0.57864127872E+03  0.36250325609E+03  0.78686175109E+03  0.25500000920E-02 0. -1.
       -2    1    3    3    0  502  0.39104612925E+03 -0.57864127872E+03  0.36918786396E+03  0.78996359634E+03  0.25500000920E-02 0.  1.
</event>
<event>
 5   0  0.6671375E-05  0.1405014E+04  0.7818609E-02  0.8950197E-01
       -1   -1    0    0    0  501  0.00000000000E+00  0.00000000000E+00  0.68513227788E+03  0.68513227790E+03  0.50400001928E-02 0. -1.
        1   -1    0    0  501    0  0.00000000000E+00  0.00000000000E+00 -0.72032231717E+03  0.72032231719E+03  0.50400001928E-02 0.  1.
    10030    2    1    2    0    0  0.00000000000E+00  0.00000000000E+00 -0.35190039294E+02  0.14054545951E+04  0.14050139786E+04 0.  0.
        5    1    3    3  502    0  0.23225393398E+03  0.23781096576E+03  0.60146740935E+03  0.68722709478E+03  0.46999998093E+01 0. -1.
       -5    1    3    3    0  502 -0.23225393398E+03 -0.23781096576E+03 -0.63665744865E+03  0.71822750031E+03  0.46999998093E+01 0.  1.
</event>
<event>
 5   0  0.1780171E-04  0.1400399E+04  0.7818609E-02  0.8953530E-01
       -2   -1    0    0    0  501  0.00000000000E+00  0.00000000000E+00  0.66201462748E+03  0.66201462748E+03  0.25500000920E-02 0.  1.
        2   -1    0    0  501    0  0.00000000000E+00  0.00000000000E+00 -0.74058709509E+03  0.74058709509E+03  0.25500000920E-02 0. -1.
    10030    2    1    2    0    0  0.00000000000E+00  0.00000000000E+00 -0.78572467613E+02  0.14026017226E+04  0.14003992143E+04 0.  0.
        5    1    3    3  502    0  0.44934037404E+03  0.45478586523E+03  0.24668067453E+03  0.68528125623E+03  0.46999998093E+01 0.  1.
       -5    1    3    3    0  502 -0.44934037404E+03 -0.45478586523E+03 -0.32525314215E+03  0.71732046634E+03  0.46999998093E+01 0. -1.
</event>
<event>
 5   0  0.1780171E-04  0.1403621E+04  0.7818609E-02  0.8951202E-01
        2   -1    0    0  501    0  0.00000000000E+00  0.00000000000E+00  0.12804136994E+04  0.12804136994E+04  0.25500000920E-02 0.  1.
       -2   -1    0    0    0  501  0.00000000000E+00  0.00000000000E+00 -0.38467070895E+03  0.38467070896E+03  0.25500000920E-02 0. -1.
    10030    2    1    2    0    0  0.00000000000E+00  0.00000000000E+00  0.89574299041E+03  0.16650844083E+04  0.14036205263E+04 0.  0.
        5    1    3    3  502    0  0.53110687348E+03 -0.44981340315E+03  0.55469547861E+03  0.89000886103E+03  0.46999998093E+01 0.  1.
       -5    1    3    3    0  502 -0.53110687348E+03  0.44981340315E+03  0.34104751180E+03  0.77507554730E+03  0.46999998093E+01 0. -1.
</event>
<event>
 5   0  0.9260916E-05  0.1405520E+04  0.7818609E-02  0.8949833E-01
       -1   -1    0    0    0  501  0.00000000000E+00  0.00000000000E+00  0.86928833822E+03  0.86928833823E+03  0.50400001928E-02 0.  1.
        1   -1    0    0  501    0  0.00000000000E+00  0.00000000000E+00 -0.56813306293E+03  0.56813306295E+03  0.50400001928E-02 0. -1.
    10030    2    1    2    0    0  0.00000000000E+00  0.00000000000E+00  0.30115527529E+03  0.14374214012E+04  0.14055197561E+04 0.  0.
        1    1    3    3  502    0 -0.30762953590E+03 -0.43943583799E+02 -0.49404994025E+03  0.58365427558E+03  0.50400001928E-02 0. -1.
       -1    1    3    3    0  502  0.30762953590E+03  0.43943583799E+02  0.79520521554E+03  0.85376712560E+03  0.50400001928E-02 0.  1.
</event>
<event>
 5   0  0.9828111E-05  0.1398451E+04  0.7818609E-02  0.8954941E-01
       -1   -1    0    0    0  501  0.00000000000E+00  0.00000000000E+00  0.40138709730E+03  0.40138709733E+03  0.50400001928E-02 0. -1.
        1   -1    0    0  501    0  0.00000000000E+00  0.00000000000E+00 -0.12180665681E+04  0.12180665681E+04  0.50400001928E-02 0.  1.
    10030    2    1    2    0    0  0.00000000000E+00  0.00000000000E+00 -0.81667947084E+03  0.16194536655E+04  0.13984508631E+04 0.  0.
        4    1    3    3  502    0 -0.24016390001E+03 -0.54455562351E+03  0.16668316562E+02  0.59539816228E+03  0.12699999809E+01 0.  1.
       -4    1    3    3    0  502  0.24016390001E+03  0.54455562351E+03 -0.83334778740E+03  0.10240555032E+04  0.12699999809E+01 0. -1.
</event>
<event>
 5   0  0.1766237E-04  0.1401988E+04  0.7818609E-02  0.8952381E-01
       -2   -1    0    0    0  501  0.00000000000E+00  0.00000000000E+00  0.54487913249E+03  0.54487913250E+03  0.25500000920E-02 0.  1.
        2   -1    0    0  501    0  0.00000000000E+00  0.00000000000E+00 -0.90183817241E+03  0.90183817241E+03  0.25500000920E-02 0. -1.
    10030    2    1    2    0    0  0.00000000000E+00  0.00000000000E+00 -0.35695903992E+03  0.14467173049E+04  0.14019883039E+04 0.  0.
        3    1    3    3  502    0 -0.29117256104E+03 -0.62178601608E+03 -0.32438899336E+03  0.75935995372E+03  0.10100000352E+00 0. -1.
       -3    1    3    3    0  502  0.29117256104E+03  0.62178601608E+03 -0.32570046565E+02  0.68735735119E+03  0.10100000352E+00 0.  1.
</event>
<event>
 5   0  0.1712327E-04  0.1401000E+04  0.7818609E-02  0.8953095E-01
        2   -1    0    0  501    0  0.00000000000E+00  0.00000000000E+00  0.70538943855E+03  0.70538943856E+03  0.25500000920E-02 0.  1.
       -2   -1    0    0    0  501  0.00000000000E+00  0.00000000000E+00 -0.69564440546E+03  0.69564440546E+03  0.25500000920E-02 0. -1.
    10030    2    1    2    0    0  0.00000000000E+00  0.00000000000E+00  0.97450330915E+01  0.14010338440E+04  0.14009999523E+04 0.  0.
        1    1    3    3  502    0  0.60800512026E+03 -0.53085974119E+02 -0.33895533149E+03  0.69812539252E+03  0.50400001928E-02 0. -1.
       -1    1    3    3    0  502 -0.60800512026E+03  0.53085974119E+02  0.34870036459E+03  0.70290845150E+03  0.50400001928E-02 0.  1.
</event>
<event>
 5   0  0.1780171E-04  0.1395844E+04  0.7818609E-02  0.8956833E-01
        2   -1    0    0  501    0  0.00000000000E+00  0.00000000000E+00  0.14717594926E+04  0.14717594926E+04  0.25500000920E-02 0.  1.
       -2   -1    0    0    0  501  0.00000000000E+00  0.00000000000E+00 -0.33096091187E+03  0.33096091188E+03  0.25500000920E-02 0. -1.
    10030    2    1    2    0    0  0.00000000000E+00  0.00000000000E+00  0.11407985808E+04  0.18027204045E+04  0.13958436356E+04 0.  0.
        5    1    3    3  502    0  0.46820463277E+03 -0.35411537862E+03  0.10578574032E+04  0.12098337303E+04  0.46999998093E+01 0.  1.
       -5    1    3    3    0  502 -0.46820463277E+03  0.35411537862E+03  0.82941177583E+02  0.59288667421E+03  0.46999998093E+01 0. -1.
</event>
<event>
 5   0  0.6671375E-05  0.1404476E+04  0.7818609E-02  0.8950585E-01
        4   -1    0    0  501    0  0.00000000000E+00  0.00000000000E+00  0.41428113884E+03  0.41428308547E+03  0.12699999809E+01 0. -1.
       -4   -1    0    0    0  501  0.00000000000E+00  0.00000000000E+00 -0.11903421012E+04  0.11903427787E+04  0.12699999809E+01 0.  1.
    10030    2    1    2    0    0  0.00000000000E+00  0.00000000000E+00 -0.77606096238E+03  0.16046258642E+04  0.14044762535E+04 0.  0.
        1    1    3    3  502    0 -0.35878345180E+03  0.22429502813E+03  0.25228869656E+03  0.49262908092E+03  0.50400001928E-02 0. -1.
       -1    1    3    3    0  502  0.35878345180E+03 -0.22429502813E+03 -0.10283496589E+04  0.11119967833E+04  0.50400001928E-02 0.  1.
</event>
<event>
 5   0  0.1766237E-04  0.1402933E+04  0.7818609E-02  0.8951699E-01
       -2   -1    0    0    0  501  0.00000000000E+00  0.00000000000E+00  0.56108104793E+03  0.56108104794E+03  0.25500000920E-02 0. -1.
        2   -1    0    0  501    0  0.00000000000E+00  0.00000000000E+00 -0.87697661857E+03  0.87697661857E+03  0.25500000920E-02 0.  1.
    10030    2    1    2    0    0  0.00000000000E+00  0.00000000000E+00 -0.31589557063E+03  0.14380576665E+04  0.14029325859E+04 0.  0.
        3    1    3    3  502    0  0.50061762619E+03  0.33156321729E+03  0.21376453695E+03  0.63737544835E+03  0.10100000352E+00 0. -1.
       -3    1    3    3    0  502 -0.50061762619E+03 -0.33156321729E+03 -0.52966010758E+03  0.80068221816E+03  0.10100000352E+00 0.  1.
</event>
<event>
 5   0  0.1833681E-04  0.1395177E+04  0.7818609E-02  0.8957317E-01
       -2   -1    0    0    0  501  0.00000000000E+00  0.00000000000E+00  0.25049729658E+03  0.25049729660E+03  0.25500000920E-02 0.  1.
        2   -1    0    0  501    0  0.00000000000E+00  0.00000000000E+00 -0.19426558895E+04  0.19426558895E+04  0.25500000920E-02 0. -1.
    10030    2    1    2    0    0  0.00000000000E+00  0.00000000000E+00 -0.16921585930E+04  0.21931531861E+04  0.13951774777E+04 0.  0.
        4    1    3    3  502    0 -0.17307455651E+03 -0.50804353548E+03 -0.14560646195E+03  0.55611679592E+03  0.12699999809E+01 0.  1.
       -4    1    3    3    0  502  0.17307455651E+03  0.50804353548E+03 -0.15465521310E+04  0.16370363902E+04  0.12699999809E+01 0. -1.
</event>
<event>
 5   0  0.6671375E-05  0.1398941E+04  0.7818609E-02  0.8954585E-01
        1   -1    0    0  501    0  0.00000000000E+00  0.00000000000E+00  0.13210344601E+04  0.13210344601E+04  0.50400001928E-02 0.  1.
       -1   -1    0    0    0  501  0.00000000000E+00  0.00000000000E+00 -0.37036065758E+03  0.37036065761E+03  0.50400001928E-02 0. -1.
    10030    2    1    2    0    0  0.00000000000E+00  0.00000000000E+00  0.95067380248E+03  0.16913951177E+04  0.13989413016E+04 0.  0.
        5    1    3    3  502    0 -0.63639995145E+03  0.26734047111E+03  0.61191863627E+03  0.92246535605E+03  0.46999998093E+01 0.  1.
       -5    1    3    3    0  502  0.63639995145E+03 -0.26734047111E+03  0.33875516621E+03  0.76892976163E+03  0.46999998093E+01 0. -1.
</event>
<event>
 5   0  0.1766237E-04  0.1395638E+04  0.7818609E-02  0.8956982E-01
       -2   -1    0    0    0  501  0.00000000000E+00  0.00000000000E+00  0.29959127947E+03  0.29959127948E+03  0.25500000920E-02 0. -1.
        2   -1    0    0  501    0  0.00000000000E+00  0.00000000000E+00 -0.16253858509E+04  0.16253858509E+04  0.25500000920E-02 0.  1.
    10030    2    1    2    0    0  0.00000000000E+00  0.00000000000E+00 -0.13257945714E+04  0.19249771304E+04  0.13956381003E+04 0.  0.
        3    1    3    3  502    0  0.36452352758E+02  0.17653304361E+03  0.26692506442E+03  0.32208956785E+03  0.10100000352E+00 0. -1.
       -3    1    3    3    0  502 -0.36452352758E+02 -0.17653304361E+03 -0.15927196359E+04  0.16028875625E+04  0.10100000352E+00 0.  1.
</event>
<event>
 5   0  0.1833681E-04  0.1400866E+04  0.7818609E-02  0.8953192E-01
        2   -1    0    0  501    0  0.00000000000E+00  0.00000000000E+00  0.62285969196E+03  0.62285969196E+03  0.25500000920E-02 0.  1.
       -2   -1    0    0    0  501  0.00000000000E+00  0.00000000000E+00 -0.78766792700E+03  0.78766792700E+03  0.25500000920E-02 0. -1.
    10030    2    1    2    0    0  0.00000000000E+00  0.00000000000E+00 -0.16480823504E+03  0.14105276190E+04  0.14008663068E+04 0.  0.
        4    1    3    3  502    0 -0.28009886442E+03  0.54183666952E+03 -0.42910810254E+03  0.74577324090E+03  0.12699999809E+01 0. -1.
       -4    1    3    3    0  502  0.28009886442E+03 -0.54183666952E+03  0.26429986749E+03  0.66475437806E+03  0.12699999809E+01 0.  1.
</event>
<event>
 5   0  0.1712327E-04  0.1403829E+04  0.7818609E-02  0.8951051E-01
       -2   -1    0    0    0  501  0.00000000000E+00  0.00000000000E+00  0.38488975177E+03  0.38488975178E+03  0.25500000920E-02 0. -1.
        2   -1    0    0  501    0  0.00000000000E+00  0.00000000000E+00 -0.12800658436E+04  0.12800658436E+04  0.25500000920E-02 0.  1.
    10030    2    1    2    0    0  0.00000000000E+00  0.00000000000E+00 -0.89517609182E+03  0.16649555954E+04  0.14038293697E+04 0.  0.
        1    1    3    3  502    0 -0.67932750122E+03 -0.13804505826E+03 -0.57827500202E+03  0.90274263775E+03  0.50400001928E-02 0.  1.
       -1    1    3    3    0  502  0.67932750122E+03  0.13804505826E+03 -0.31690108980E+03  0.76221295763E+03  0.50400001928E-02 0. -1.
</event>
<event>
 5   0  0.9828111E-05  0.1400945E+04  0.7818609E-02  0.8953135E-01
        1   -1    0    0  501    0  0.00000000000E+00  0.00000000000E+00  0.19258570991E+04  0.19258570991E+04  0.50400001928E-02 0.  1.
       -1   -1    0    0    0  501  0.00000000000E+00  0.00000000000E+00 -0.25477565051E+03  0.25477565056E+03  0.50400001928E-02 0. -1.
    10030    2    1    2    0    0  0.00000000000E+00  0.00000000000E+00  0.16710814486E+04  0.21806327497E+04  0.14009446745E+04 0.  0.
        4    1    3    3  502    0  0.63962604789E+03  0.27847160059E+03  0.73719508218E+03  0.10149512873E+04  0.12699999809E+01 0.  1.
       -4    1    3    3    0  502 -0.63962604789E+03 -0.27847160059E+03  0.93388636643E+03  0.11656814624E+04  0.12699999809E+01 0. -1.
</event>
<event>
 5   0  0.1766237E-04  0.1402912E+04  0.7818609E-02  0.8951713E-01
       -2   -1    0    0    0  501  0.00000000000E+00  0.00000000000E+00  0.25859820895E+03  0.25859820896E+03  0.25500000920E-02 0.  1.
        2   -1    0    0  501    0  0.00000000000E+00  0.00000000000E+00 -0.19027234093E+04  0.19027234093E+04  0.25500000920E-02 0. -1.
    10030    2    1    2    0    0  0.00000000000E+00  0.00000000000E+00 -0.16441252004E+04  0.21613216183E+04  0.14029124930E+04 0.  0.
        3    1    3    3  502    0 -0.28834982181E+03  0.39925933095E+02  0.16114818986E+03  0.33272879222E+03  0.10100000352E+00 0.  1.
       -3    1    3    3    0  502  0.28834982181E+03 -0.39925933095E+02 -0.18052733902E+04  0.18285928261E+04  0.10100000352E+00 0. -1.
</event>
<event>
 5   0  0.1780171E-04  0.1401227E+04  0.7818609E-02  0.8952931E-01
       -2   -1    0    0    0  501  0.00000000000E+00  0.00000000000E+00  0.61358470589E+03  0.61358470590E+03  0.25500000920E-02 0.  1.
        2   -1    0    0  501    0  0.00000000000E+00  0.00000000000E+00 -0.79998595193E+03  0.79998595193E+03  0.25500000920E-02 0. -1.
    10030    2    1    2    0    0  0.00000000000E+00  0.00000000000E+00 -0.18640124603E+03  0.14135706578E+04  0.14012268125E+04 0.  0.
        5    1    3    3  502    0  0.56536642450E+03  0.33220408969E+02 -0.50925866307E+03  0.76164904348E+03  0.46999998093E+01 0. -1.
       -5    1    3    3    0  502 -0.56536642450E+03 -0.33220408969E+02  0.32285741704E+03  0.65192161435E+03  0.46999998093E+01 0.  1.
</event>
<event>
 5   0  0.9900839E-05  0.1399971E+04  0.7818609E-02  0.8953840E-01
       -1   -1    0    0    0  501  0.00000000000E+00  0.00000000000E+00  0.19391447153E+03  0.19391447159E+03  0.50400001928E-02 0.  1.
        1   -1    0    0  501    0  0.00000000000E+00  0.00000000000E+00 -0.25267823614E+04  0.25267823614E+04  0.50400001928E-02 0. -1.
    10030    2    1    2    0    0  0.00000000000E+00  0.00000000000E+00 -0.23328678898E+04  0.27206968329E+04  0.13999709516E+04 0.  0.
        3    1    3    3  502    0  0.54788980850E+03  0.12781698757E+03 -0.35704021513E+03  0.66633186176E+03  0.10100000352E+00 0.  1.
       -3    1    3    3    0  502 -0.54788980850E+03 -0.12781698757E+03 -0.19758276747E+04  0.20543649712E+04  0.10100000352E+00 0. -1.
</event>
<event>
 5   0  0.6671375E-05  0.1403648E+04  0.7818609E-02  0.8951182E-01
       -1   -1    0    0    0  501  0.00000000000E+00  0.00000000000E+00  0.93823017347E+03  0.93823017349E+03  0.50400001928E-02 0. -1.
        1   -1    0    0  501    0  0.00000000000E+00  0.00000000000E+00 -0.52498508611E+03  0.52498508614E+03  0.50400001928E-02 0.  1.
    10030    2    1    2    0    0  0.00000000000E+00  0.00000000000E+00  0.41324508736E+03  0.14632152596E+04  0.14036478881E+04 0.  0.
        5    1    3    3  502    0  0.55239805866E+03  0.42698160542E+03  0.13233943698E+03  0.71062840019E+03  0.46999998093E+01 0. -1.
       -5    1    3    3    0  502 -0.55239805866E+03 -0.42698160542E+03  0.28090565038E+03  0.75258685944E+03  0.46999998093E+01 0.  1.
</event>
<event>
 5   0  0.9828111E-05  0.1399122E+04  0.7818609E-02  0.8954454E-01
        1   -1    0    0  501    0  0.00000000000E+00  0.00000000000E+00  0.86486783387E+03  0.86486783388E+03  0.50400001928E-02 0.  1.
       -1   -1    0    0    0  501  0.00000000000E+00  0.00000000000E+00 -0.56585018028E+03  0.56585018031E+03  0.50400001928E-02 0. -1.
    10030    2    1    2    0    0  0.00000000000E+00  0.00000000000E+00  0.29901765358E+03  0.14307180142E+04  0.13991220386E+04 0.  0.
        4    1    3    3  502    0  0.40102697339E+03 -0.12961524730E+01 -0.43663688245E+03  0.59285554177E+03  0.12699999809E+01 0. -1.
       -4    1    3    3    0  502 -0.40102697339E+03  0.12961524730E+01  0.73565453603E+03  0.83786247242E+03  0.12699999809E+01 0.  1.
</event>
<event>
 5   0  0.1833681E-04  0.1403099E+04  0.7818609E-02  0.8951578E-01
       -2   -1    0    0    0  501  0.00000000000E+00  0.00000000000E+00  0.12205877696E+04  0.12205877696E+04  0.25500000920E-02 0.  1.
        2   -1    0    0  501    0  0.00000000000E+00  0.00000000000E+00 -0.40322524889E+03  0.40322524890E+03  0.25500000920E-02 0. -1.
    10030    2    1    2    0    0  0.00000000000E+00  0.00000000000E+00  0.81736252071E+03  0.16238130185E+04  0.14030991515E+04 0.  0.
        4    1    3    3  502    0  0.26365571015E+03  0.27928976928E+02  0.11603733514E+04  0.11902782401E+04  0.12699999809E+01 0.  1.
       -4    1    3    3    0  502 -0.26365571015E+03 -0.27928976928E+02 -0.34301083068E+03  0.43353477844E+03  0.12699999809E+01 0. -1.
</event>
<event>
 5   0  0.9900839E-05  0.1395302E+04  0.7818609E-02  0.8957226E-01
       -1   -1    0    0    0  501  0.00000000000E+00  0.00000000000E+00  0.37454477025E+03  0.37454477028E+03  0.50400001928E-02 0.  1.
        1   -1    0    0  501    0  0.00000000000E+00  0.00000000000E+00 -0.12994891205E+04  0.12994891205E+04  0.50400001928E-02 0. -1.
    10030    2    1    2    0    0  0.00000000000E+00  0.00000000000E+00 -0.92494435025E+03  0.16740338908E+04  0.13953019087E+04 0.  0.
        3    1    3    3  502    0 -0.15441573999E+02  0.32518499476E+03 -0.12027698530E+04  0.12460493780E+04  0.10100000352E+00 0. -1.
       -3    1    3    3    0  502  0.15441573999E+02 -0.32518499476E+03  0.27782550272E+03  0.42798451278E+03  0.10100000352E+00 0.  1.
</event>
<event>
 5   0  0.1780171E-04  0.1399918E+04  0.7818609E-02  0.8953878E-01
        2   -1    0    0  501    0  0.00000000000E+00  0.00000000000E+00  0.12836458235E+04  0.12836458235E+04  0.25500000920E-02 0. -1.
       -2   -1    0    0    0  501  0.00000000000E+00  0.00000000000E+00 -0.38168045589E+03  0.38168045590E+03  0.25500000920E-02 0.  1.
    10030    2    1    2    0    0  0.00000000000E+00  0.00000000000E+00  0.90196536763E+03  0.16653262794E+04  0.13999178878E+04 0.  0.
        5    1    3    3  502    0 -0.63386419902E+03 -0.25282442616E+03  0.26586336583E+03  0.73239977645E+03  0.46999998093E+01 0.  1.
       -5    1    3    3    0  502  0.63386419902E+03  0.25282442616E+03  0.63610200180E+03  0.93292650298E+03  0.46999998093E+01 0. -1.
</event>
<event>
 5   0  0.1794185E-04  0.1399524E+04  0.7818609E-02  0.8954163E-01
       -2   -1    0    0    0  501  0.00000000000E+00  0.00000000000E+00  0.40530437292E+03  0.40530437293E+03  0.25500000920E-02 0.  1.
        2   -1    0    0  501    0  0.00000000000E+00  0.00000000000E+00 -0.12081465266E+04  0.12081465266E+04  0.25500000920E-02 0. -1.
    10030    2    1    2    0    0  0.00000000000E+00  0.00000000000E+00 -0.80284215370E+03  0.16134508996E+04  0.13995243054E+04 0.  0.
        2    1    3    3  502    0  0.40531166188E+03  0.33298369905E+03 -0.93537094058E+03  0.10724152571E+04  0.25500000920E-02 0. -1.
       -2    1    3    3    0  502 -0.40531166188E+03 -0.33298369905E+03  0.13252878688E+03  0.54103564250E+03  0.25500000920E-02 0.  1.
</event>
<event>
 5   0  0.1780171E-04  0.1400407E+04  0.7818609E-02  0.8953524E-01
        2   -1    0    0  501    0  0.00000000000E+00  0.00000000000E+00  0.50033238119E+03  0.50033238119E+03  0.25500000920E-02 0. -1.
       -2   -1    0    0    0  501  0.00000000000E+00  0.00000000000E+00 -0.97991820326E+03  0.97991820326E+03  0.25500000920E-02 0.  1.
    10030    2    1    2    0    0  0.00000000000E+00  0.00000000000E+00 -0.47958582207E+03  0.14802505845E+04  0.14004068095E+04 0.  0.
        5    1    3    3  502    0  0.45629210579E+02 -0.62323201122E+03  0.94067409035E+02  0.63195801451E+03  0.46999998093E+01 0. -1.
       -5    1    3    3    0  502 -0.45629210579E+02  0.62323201122E+03 -0.57365323111E+03  0.84829256994E+03  0.46999998093E+01 0.  1.
</event>
<event>
 5   0  0.6671375E-05  0.1400973E+04  0.7818609E-02  0.8953115E-01
       -1   -1    0    0    0  501  0.00000000000E+00  0.00000000000E+00  0.29600660052E+03  0.29600660056E+03  0.50400001928E-02 0.  1.
        1   -1    0    0  501    0  0.00000000000E+00  0.00000000000E+00 -0.16576696687E+04  0.16576696687E+04  0.50400001928E-02 0. -1.
    10030    2    1    2    0    0  0.00000000000E+00  0.00000000000E+00 -0.13616630682E+04  0.19536762693E+04  0.14009727527E+04 0.  0.
        5    1    3    3  502    0  0.45629577874E+03 -0.32168832153E+03 -0.12707783495E+04  0.13880161805E+04  0.46999998093E+01 0. -1.
       -5    1    3    3    0  502 -0.45629577874E+03  0.32168832153E+03 -0.90884718703E+02  0.56566008875E+03  0.46999998093E+01 0.  1.
</event>
<event>
 5   0  0.9828111E-05  0.1400101E+04  0.7818609E-02  0.8953745E-01
       -1   -1    0    0    0  501  0.00000000000E+00  0.00000000000E+00  0.55288148784E+03  0.55288148787E+03  0.50400001928E-02 0. -1.
        1   -1    0    0  501    0  0.00000000000E+00  0.00000000000E+00 -0.88639402835E+03  0.88639402836E+03  0.50400001928E-02 0.  1.
    10030    2    1    2    0    0  0.00000000000E+00  0.00000000000E+00 -0.33351254050E+03  0.14392755162E+04  0.14001012095E+04 0.  0.
        4    1    3    3  502    0  0.26328350927E+03 -0.33934017040E+03  0.40152150206E+03  0.58795500424E+03  0.12699999809E+01 0. -1.
       -4    1    3    3    0  502 -0.26328350927E+03  0.33934017040E+03 -0.73503404256E+03  0.85132051198E+03  0.12699999809E+01 0.  1.
</event>
<event>
 5   0  0.1766237E-04  0.1398637E+04  0.7818609E-02  0.8954806E-01
        2   -1    0    0  501    0  0.00000000000E+00  0.00000000000E+00  0.47423861224E+03  0.47423861225E+03  0.25500000920E-02 0.  1.
       -2   -1    0    0    0  501  0.00000000000E+00  0.00000000000E+00 -0.10312245793E+04  0.10312245793E+04  0.25500000920E-02 0. -1.
    10030    2    1    2    0    0  0.00000000000E+00  0.00000000000E+00 -0.55698596705E+03  0.15054631915E+04  0.13986372130E+04 0.  0.
        3    1    3    3  502    0 -0.55036517836E+03  0.42414048956E+03 -0.36358490886E+03  0.78421360648E+03  0.10100000352E+00 0. -1.
       -3    1    3    3    0  502  0.55036517836E+03 -0.42414048956E+03 -0.19340105819E+03  0.72124958506E+03  0.10100000352E+00 0.  1.
</event>
<event>
 5   0  0.9978422E-05  0.1396315E+04  0.7818609E-02  0.8956491E-01
       -1   -1    0    0    0  501  0.00000000000E+00  0.00000000000E+00  0.51815962585E+03  0.51815962587E+03  0.50400001928E-02 0. -1.
        1   -1    0    0  501    0  0.00000000000E+00  0.00000000000E+00 -0.94068238063E+03  0.94068238064E+03  0.50400001928E-02 0.  1.
    10030    2    1    2    0    0  0.00000000000E+00  0.00000000000E+00 -0.42252275478E+03  0.14588420065E+04  0.13963146213E+04 0.  0.
        2    1    3    3  502    0 -0.58983461886E+03 -0.30081377440E+03  0.20080976445E+02  0.66241757985E+03  0.25500000920E-02 0. -1.
       -2    1    3    3    0  502  0.58983461886E+03  0.30081377440E+03 -0.44260373123E+03  0.79642442666E+03  0.25500000920E-02 0.  1.
</event>
<event>
 5   0  0.1833681E-04  0.1396791E+04  0.7818609E-02  0.8956145E-01
        2   -1    0    0  501    0  0.00000000000E+00  0.00000000000E+00  0.78206900657E+03  0.78206900657E+03  0.25500000920E-02 0. -1.
       -2   -1    0    0    0  501  0.00000000000E+00  0.00000000000E+00 -0.62367406268E+03  0.62367406268E+03  0.25500000920E-02 0.  1.
    10030    2    1    2    0    0  0.00000000000E+00  0.00000000000E+00  0.15839494389E+03  0.14057430693E+04  0.13967908285E+04 0.  0.
        4    1    3    3  502    0  0.39557511773E+03  0.25352022678E+03 -0.44083699443E+03  0.64427559919E+03  0.12699999809E+01 0.  1.
       -4    1    3    3    0  502 -0.39557511773E+03 -0.25352022678E+03  0.59923193832E+03  0.76146747006E+03  0.12699999809E+01 0. -1.
</event>
<event>
 5   0  0.9828111E-05  0.1398517E+04  0.7818609E-02  0.8954893E-01
       -1   -1    0    0    0  501  0.00000000000E+00  0.00000000000E+00  0.45971635198E+03  0.45971635201E+03  0.50400001928E-02 0.  1.
        1   -1    0    0  501    0  0.00000000000E+00  0.00000000000E+00 -0.10636173064E+04  0.10636173064E+04  0.50400001928E-02 0. -1.
    10030    2    1    2    0    0  0.00000000000E+00  0.00000000000E+00 -0.60390095444E+03  0.15233336584E+04  0.13985167400E+04 0.  0.
        4    1    3    3  502    0  0.57257737170E+03  0.16755697257E+03 -0.69925110682E+03  0.91917022848E+03  0.12699999809E+01 0. -1.
       -4    1    3    3    0  502 -0.57257737170E+03 -0.16755697257E+03  0.95350152384E+02  0.60416342996E+03  0.12699999809E+01 0.  1.
</event>
<event>
 5   0  0.9260916E-05  0.1400416E+04  0.7818609E-02  0.8953517E-01
        1   -1    0    0  501    0  0.00000000000E+00  0.00000000000E+00  0.87826130519E+03  0.87826130520E+03  0.50400001928E-02 0. -1.
       -1   -1    0    0    0  501  0.00000000000E+00  0.00000000000E+00 -0.55825242182E+03  0.55825242185E+03  0.50400001928E-02 0.  1.
    10030    2    1    2    0    0  0.00000000000E+00  0.00000000000E+00  0.32000888337E+03  0.14365137270E+04  0.14004163676E+04 0.  0.
        1    1    3    3  502    0 -0.49787532894E+03 -0.30604093060E+03  0.55562784497E+03  0.80638898585E+03  0.50400001928E-02 0. -1.
       -1    1    3    3    0  502  0.49787532894E+03  0.30604093060E+03 -0.23561896161E+03  0.63012474119E+03  0.50400001928E-02 0.  1.
</event>
<event>
 5   0  0.6671375E-05  0.1400805E+04  0.7818609E-02  0.8953236E-01
       -1   -1    0    0    0  501  0.00000000000E+00  0.00000000000E+00  0.46322063843E+03  0.46322063846E+03  0.50400001928E-02 0.  1.
        1   -1    0    0  501    0  0.00000000000E+00  0.00000000000E+00 -0.10590278543E+04  0.10590278543E+04  0.50400001928E-02 0. -1.
    10030    2    1    2    0    0  0.00000000000E+00  0.00000000000E+00 -0.59580721584E+03  0.15222484927E+04  0.14008048527E+04 0.  0.
        5    1    3    3  502    0  0.29891419735E+03 -0.21309462120E+03 -0.94609040139E+03  0.10148241979E+04  0.46999998093E+01 0. -1.
       -5    1    3    3    0  502 -0.29891419735E+03  0.21309462120E+03  0.35028318555E+03  0.50742429488E+03  0.46999998093E+01 0.  1.
</event>
<event>
 5   0  0.9900839E-05  0.1400270E+04  0.7818609E-02  0.8953623E-01
        1   -1    0    0  501    0  0.00000000000E+00  0.00000000000E+00  0.84961081154E+03  0.84961081155E+03  0.50400001928E-02 0.  1.
       -1   -1    0    0    0  501  0.00000000000E+00  0.00000000000E+00 -0.57695751511E+03  0.57695751514E+03  0.50400001928E-02 0. -1.
    10030    2    1    2    0    0  0.00000000000E+00  0.00000000000E+00  0.27265329642E+03  0.14265683267E+04  0.14002704634E+04 0.  0.
        3    1    3    3  502    0  0.26765401705E+03  0.28461087468E+03 -0.45557285397E+03  0.60015719466E+03  0.10100000352E+00 0. -1.
       -3    1    3    3    0  502 -0.26765401705E+03 -0.28461087468E+03  0.72822615039E+03  0.82641113203E+03  0.10100000352E+00 0.  1.
</event>
<event>
 5   0  0.1794185E-04  0.1378438E+04  0.7818609E-02  0.8969576E-01
        2   -1    0    0  501    0  0.00000000000E+00  0.00000000000E+00  0.51628818560E+03  0.51628818560E+03  0.25500000920E-02 0. -1.
       -2   -1    0    0    0  501  0.00000000000E+00  0.00000000000E+00 -0.92007333987E+03  0.92007333988E+03  0.25500000920E-02 0.  1.
    10030    2    1    2    0    0  0.00000000000E+00  0.00000000000E+00 -0.40378515428E+03  0.14363615255E+04  0.13784382398E+04 0.  0.
        2    1    3    3  502    0  0.37968549947E+03 -0.35634737344E+02  0.39633280539E+03  0.55000964141E+03  0.25500000920E-02 0. -1.
       -2    1    3    3    0  502 -0.37968549947E+03  0.35634737344E+02 -0.80011795966E+03  0.88635188407E+03  0.25500000920E-02 0.  1.
</event>
<event>
 5   0  0.9828111E-05  0.1401057E+04  0.7818609E-02  0.8953054E-01
       -1   -1    0    0    0  501  0.00000000000E+00  0.00000000000E+00  0.92747673849E+03  0.92747673850E+03  0.50400001928E-02 0.  1.
        1   -1    0    0  501    0  0.00000000000E+00  0.00000000000E+00 -0.52911286577E+03  0.52911286579E+03  0.50400001928E-02 0. -1.
    10030    2    1    2    0    0  0.00000000000E+00  0.00000000000E+00  0.39836387272E+03  0.14565896043E+04  0.14010565657E+04 0.  0.
        4    1    3    3  502    0  0.66246823637E+03 -0.16471341742E+03  0.36271774962E+03  0.77302034440E+03  0.12699999809E+01 0. -1.
       -4    1    3    3    0  502 -0.66246823637E+03  0.16471341742E+03  0.35646123101E+02  0.68356925989E+03  0.12699999809E+01 0.  1.
</event>
<event>
 5   0  0.1780171E-04  0.1397813E+04  0.7818609E-02  0.8955403E-01
       -2   -1    0    0    0  501  0.00000000000E+00  0.00000000000E+00  0.42378229081E+03  0.42378229081E+03  0.25500000920E-02 0.  1.
        2   -1    0    0  501    0  0.00000000000E+00  0.00000000000E+00 -0.11526448317E+04  0.11526448317E+04  0.25500000920E-02 0. -1.
    10030    2    1    2    0    0  0.00000000000E+00  0.00000000000E+00 -0.72886254091E+03  0.15764271225E+04  0.13978132454E+04 0.  0.
        5    1    3    3  502    0  0.22794206120E+03 -0.57639955900E+03 -0.28838980544E+00  0.61985176296E+03  0.46999998093E+01 0.  1.
       -5    1    3    3    0  502 -0.22794206120E+03  0.57639955900E+03 -0.72857415110E+03  0.95657535957E+03  0.46999998093E+01 0. -1.
</event>
<event>
 5   0  0.6671375E-05  0.1401568E+04  0.7818609E-02  0.8952684E-01
        1   -1    0    0  501    0  0.00000000000E+00  0.00000000000E+00  0.11605522110E+04  0.11605522110E+04  0.50400001928E-02 0.  1.
       -1   -1    0    0    0  501  0.00000000000E+00  0.00000000000E+00 -0.42315912035E+03  0.42315912038E+03  0.50400001928E-02 0. -1.
    10030    2    1    2    0    0  0.00000000000E+00  0.00000000000E+00  0.73739309064E+03  0.15837113314E+04  0.14015680544E+04 0.  0.
        5    1    3    3  502    0  0.34974016162E+03  0.11232549594E+02  0.10547504483E+04  0.11112897683E+04  0.46999998093E+01 0.  1.
       -5    1    3    3    0  502 -0.34974016162E+03 -0.11232549594E+02 -0.31735735768E+03  0.47242156311E+03  0.46999998093E+01 0. -1.
</event>
<event>
 5   0  0.1833681E-04  0.1400727E+04  0.7818609E-02  0.8953292E-01
       -2   -1    0    0    0  501  0.00000000000E+00  0.00000000000E+00  0.62257955774E+03  0.62257955775E+03  0.25500000920E-02 0. -1.
        2   -1    0    0  501    0  0.00000000000E+00  0.00000000000E+00 -0.78786572553E+03  0.78786572554E+03  0.25500000920E-02 0.  1.
    10030    2    1    2    0    0  0.00000000000E+00  0.00000000000E+00 -0.16528616779E+03  0.14104452833E+04  0.14007270897E+04 0.  0.
        4    1    3    3  502    0  0.70683890356E+02 -0.29913403229E+03 -0.71631843321E+03  0.77948129694E+03  0.12699999809E+01 0.  1.
       -4    1    3    3    0  502 -0.70683890356E+02  0.29913403229E+03  0.55103226542E+03  0.63096398634E+03  0.12699999809E+01 0. -1.
</event>
<event>
 5   0  0.9260916E-05  0.1402834E+04  0.7818609E-02  0.8951770E-01
       -1   -1    0    0    0  501  0.00000000000E+00  0.00000000000E+00  0.74088214724E+03  0.74088214726E+03  0.50400001928E-02 0. -1.
        1   -1    0    0  501    0  0.00000000000E+00  0.00000000000E+00 -0.66405417976E+03  0.66405417978E+03  0.50400001928E-02 0.  1.
    10030    2    1    2    0    0  0.00000000000E+00  0.00000000000E+00  0.76827967479E+02  0.14049363270E+04  0.14028341122E+04 0.  0.
        1    1    3    3  502    0 -0.43760919488E+03  0.34478809051E+03 -0.38837630215E+03  0.67912943309E+03  0.50400001928E-02 0.  1.
       -1    1    3    3    0  502  0.43760919488E+03 -0.34478809051E+03  0.46520426962E+03  0.72580689394E+03  0.50400001928E-02 0. -1.
</event>
<event>
 5   0  0.1780171E-04  0.1401456E+04  0.7818609E-02  0.8952765E-01
        2   -1    0    0  501    0  0.00000000000E+00  0.00000000000E+00  0.61330791965E+03  0.61330791966E+03  0.25500000920E-02 0.  1.
       -2   -1    0    0    0  501  0.00000000000E+00  0.00000000000E+00 -0.80060938901E+03  0.80060938901E+03  0.25500000920E-02 0. -1.
    10030    2    1    2    0    0  0.00000000000E+00  0.00000000000E+00 -0.18730146935E+03  0.14139173087E+04  0.14014564978E+04 0.  0.
        5    1    3    3  502    0  0.38485383716E+02 -0.69433755816E+03 -0.18051047415E+03  0.71846495441E+03  0.46999998093E+01 0.  1.
       -5    1    3    3    0  502 -0.38485383716E+02  0.69433755816E+03 -0.67909952057E+01  0.69545235426E+03  0.46999998093E+01 0. -1.
</event>
<event>
 5   0  0.6671375E-05  0.1398890E+04  0.7818609E-02  0.8954622E-01
       -1   -1    0    0    0  501  0.00000000000E+00  0.00000000000E+00  0.25280094124E+03  0.25280094129E+03  0.50400001928E-02 0.  1.
        1   -1    0    0  501    0  0.00000000000E+00  0.00000000000E+00 -0.19352127570E+04  0.19352127570E+04  0.50400001928E-02 0. -1.
    10030    2    1    2    0    0  0.00000000000E+00  0.00000000000E+00 -0.16824118157E+04  0.21880136983E+04  0.13988904268E+04 0.  0.
        5    1    3    3  502    0  0.12891033641E+03 -0.42799488599E+03 -0.16826371198E+04  0.17410017991E+04  0.46999998093E+01 0. -1.
       -5    1    3    3    0  502 -0.12891033641E+03  0.42799488599E+03  0.22530411333E+00  0.44701189920E+03  0.46999998093E+01 0.  1.
</event>
<event>
 5   0  0.1712327E-04  0.1399980E+04  0.7818609E-02  0.8953833E-01
        2   -1    0    0  501    0  0.00000000000E+00  0.00000000000E+00  0.94881630958E+03  0.94881630958E+03  0.25500000920E-02 0. -1.
       -2   -1    0    0    0  501  0.00000000000E+00  0.00000000000E+00 -0.51641796387E+03  0.51641796387E+03  0.25500000920E-02 0.  1.
    10030    2    1    2    0    0  0.00000000000E+00  0.00000000000E+00  0.43239834571E+03  0.14652342735E+04  0.13999796951E+04 0.  0.
        1    1    3    3  502    0 -0.28633022381E+03 -0.15028718671E+03 -0.43355546105E+03  0.54087112457E+03  0.50400001928E-02 0.  1.
       -1    1    3    3    0  502  0.28633022381E+03  0.15028718671E+03  0.86595380676E+03  0.92436314889E+03  0.50400001928E-02 0. -1.
</event>
<event>
 5   0  0.1766237E-04  0.1399814E+04  0.7818609E-02  0.8953953E-01
       -2   -1    0    0    0  501  0.00000000000E+00  0.00000000000E+00  0.35413803308E+03  0.35413803309E+03  0.25500000920E-02 0.  1.
        2   -1    0    0  501    0  0.00000000000E+00  0.00000000000E+00 -0.13832737537E+04  0.13832737537E+04  0.25500000920E-02 0. -1.
    10030    2    1    2    0    0  0.00000000000E+00  0.00000000000E+00 -0.10291357206E+04  0.17374117868E+04  0.13998140539E+04 0.  0.
        3    1    3    3  502    0  0.46605506712E+03  0.86808532841E+02 -0.11536537372E+04  0.12472610002E+04  0.10100000352E+00 0. -1.
       -3    1    3    3    0  502 -0.46605506712E+03 -0.86808532841E+02  0.12451801660E+03  0.49015078662E+03  0.10100000352E+00 0.  1.
</event>
<event>
 5   0  0.9260916E-05  0.1401926E+04  0.7818609E-02  0.8952426E-01
        1   -1    0    0  501    0  0.00000000000E+00  0.00000000000E+00  0.14581771646E+04  0.14581771647E+04  0.50400001928E-02 0.  1.
       -1   -1    0    0    0  501  0.00000000000E+00  0.00000000000E+00 -0.33696109050E+03  0.33696109054E+03  0.50400001928E-02 0. -1.
    10030    2    1    2    0    0  0.00000000000E+00  0.00000000000E+00  0.11212160741E+04  0.17951382552E+04  0.14019257720E+04 0.  0.
        1    1    3    3  502    0 -0.25107559685E+03  0.26018095623E+02  0.13979609287E+04  0.14205670188E+04  0.50400001928E-02 0.  1.
       -1    1    3    3    0  502  0.25107559685E+03 -0.26018095623E+02 -0.27674485453E+03  0.37457123644E+03  0.50400001928E-02 0. -1.
</event>
<event>
 5   0  0.9978422E-05  0.1402802E+04  0.7818609E-02  0.8951793E-01
        1   -1    0    0  501    0  0.00000000000E+00  0.00000000000E+00  0.54801373179E+03  0.54801373181E+03  0.50400001928E-02 0. -1.
       -1   -1    0    0    0  501  0.00000000000E+00  0.00000000000E+00 -0.89772079329E+03  0.89772079330E+03  0.50400001928E-02 0.  1.
    10030    2    1    2    0    0  0.00000000000E+00  0.00000000000E+00 -0.34970706150E+03  0.14457345251E+04  0.14028019419E+04 0.  0.
        2    1    3    3  502    0  0.10309003690E+03  0.61764691348E+03  0.15080465733E+03  0.64409417799E+03  0.25500000920E-02 0. -1.
       -2    1    3    3    0  502 -0.10309003690E+03 -0.61764691348E+03 -0.50051171883E+03  0.80164034712E+03  0.25500000920E-02 0.  1.
</event>
<event>
 5   0  0.1712327E-04  0.1401065E+04  0.7818609E-02  0.8953048E-01
        2   -1    0    0  501    0  0.00000000000E+00  0.00000000000E+00  0.17291252442E+04  0.17291252442E+04  0.25500000920E-02 0.  1.
       -2   -1    0    0    0  501  0.00000000000E+00  0.00000000000E+00 -0.28381174041E+03  0.28381174042E+03  0.25500000920E-02 0. -1.
    10030    2    1    2    0    0  0.00000000000E+00  0.00000000000E+00  0.14453135038E+04  0.20129369846E+04  0.14010653731E+04 0.  0.
        1    1    3    3  502    0  0.48645232979E+03  0.24885073361E+03  0.13524961385E+04  0.14587009157E+04  0.50400001928E-02 0.  1.
       -1    1    3    3    0  502 -0.48645232979E+03 -0.24885073361E+03  0.92817365294E+02  0.55423606893E+03  0.50400001928E-02 0. -1.
</event>
<event>
 5   0  0.1766237E-04  0.1407052E+04  0.7818609E-02  0.8948730E-01
        2   -1    0    0  501    0  0.00000000000E+00  0.00000000000E+00  0.24909048895E+04  0.24909048895E+04  0.25500000920E-02 0. -1.
       -2   -1    0    0    0  501  0.00000000000E+00  0.00000000000E+00 -0.19870231159E+03  0.19870231161E+03  0.25500000920E-02 0.  1.
    10030    2    1    2    0    0  0.00000000000E+00  0.00000000000E+00  0.22922025779E+04  0.26896072011E+04  0.14070516117E+04 0.  0.
        3    1    3    3  502    0  0.63493631835E+02 -0.80879715956E+02  0.24764636544E+04  0.24785974282E+04  0.10100000352E+00 0. -1.
       -3    1    3    3    0  502 -0.63493631835E+02  0.80879715956E+02 -0.18426107647E+03  0.21100977285E+03  0.10100000352E+00 0.  1.
</event>
<event>
 5   0  0.6671375E-05  0.1398762E+04  0.7818609E-02  0.8954715E-01
        1   -1    0    0  501    0  0.00000000000E+00  0.00000000000E+00  0.59623125742E+03  0.59623125744E+03  0.50400001928E-02 0.  1.
       -1   -1    0    0    0  501  0.00000000000E+00  0.00000000000E+00 -0.82037564754E+03  0.82037564755E+03  0.50400001928E-02 0. -1.
    10030    2    1    2    0    0  0.00000000000E+00  0.00000000000E+00 -0.22414439012E+03  0.14166069050E+04  0.13987617437E+04 0.  0.
        5    1    3    3  502    0 -0.14724172592E+02 -0.35260759993E+03  0.49942104579E+03  0.61154917363E+03  0.46999998093E+01 0.  1.
       -5    1    3    3    0  502  0.14724172592E+02  0.35260759993E+03 -0.72356543591E+03  0.80505773137E+03  0.46999998093E+01 0. -1.
</event>
<event>
 5   0  0.1766237E-04  0.1399974E+04  0.7818609E-02  0.8953837E-01
        2   -1    0    0  501    0  0.00000000000E+00  0.00000000000E+00  0.10969114340E+04  0.10969114340E+04  0.25500000920E-02 0.  1.
       -2   -1    0    0    0  501  0.00000000000E+00  0.00000000000E+00 -0.44669229421E+03  0.44669229422E+03  0.25500000920E-02 0. -1.
    10030    2    1    2    0    0  0.00000000000E+00  0.00000000000E+00  0.65021913975E+03  0.15436037282E+04  0.13999741212E+04 0.  0.
        3    1    3    3  502    0 -0.25365374440E+03 -0.44901518789E+03 -0.19676484518E+03  0.55197035745E+03  0.10100000352E+00 0. -1.
       -3    1    3    3    0  502  0.25365374440E+03  0.44901518789E+03  0.84698398494E+03  0.99163337073E+03  0.10100000352E+00 0.  1.
</event>
<event>
 5   0  0.9828111E-05  0.1412127E+04  0.7818609E-02  0.8945087E-01
       -1   -1    0    0    0  501  0.00000000000E+00  0.00000000000E+00  0.64767896437E+03  0.64767896439E+03  0.50400001928E-02 0. -1.
        1   -1    0    0  501    0  0.00000000000E+00  0.00000000000E+00 -0.76971060854E+03  0.76971060856E+03  0.50400001928E-02 0.  1.
    10030    2    1    2    0    0  0.00000000000E+00  0.00000000000E+00 -0.12203164417E+03  0.14173895729E+04  0.14121265805E+04 0.  0.
        4    1    3    3  502    0  0.36491310762E+03 -0.52816537300E+03 -0.35605610949E+03  0.73409658994E+03  0.12699999809E+01 0.  1.
       -4    1    3    3    0  502 -0.36491310762E+03  0.52816537300E+03  0.23402446532E+03  0.68329298300E+03  0.12699999809E+01 0. -1.
</event>
<event>
 5   0  0.9828111E-05  0.1399408E+04  0.7818609E-02  0.8954247E-01
       -1   -1    0    0    0  501  0.00000000000E+00  0.00000000000E+00  0.19778959147E+03  0.19778959153E+03  0.50400001928E-02 0.  1.
        1   -1    0    0  501    0  0.00000000000E+00  0.00000000000E+00 -0.24752870909E+04  0.24752870909E+04  0.50400001928E-02 0. -1.
    10030    2    1    2    0    0  0.00000000000E+00  0.00000000000E+00 -0.22774974994E+04  0.26730766824E+04  0.13994084787E+04 0.  0.
        4    1    3    3  502    0  0.18363544936E+03  0.43064174470E+03 -0.14545343629E+03  0.49023729516E+03  0.12699999809E+01 0.  1.
       -4    1    3    3    0  502 -0.18363544936E+03 -0.43064174470E+03 -0.21320440631E+04  0.21828393872E+04  0.12699999809E+01 0. -1.
</event>
<event>
 5   0  0.1766237E-04  0.1404738E+04  0.7818609E-02  0.8950396E-01
       -2   -1    0    0    0  501  0.00000000000E+00  0.00000000000E+00  0.42201807926E+03  0.42201807926E+03  0.25500000920E-02 0. -1.
        2   -1    0    0  501    0  0.00000000000E+00  0.00000000000E+00 -0.11689601117E+04  0.11689601117E+04  0.25500000920E-02 0.  1.
    10030    2    1    2    0    0  0.00000000000E+00  0.00000000000E+00 -0.74694203248E+03  0.15909781910E+04  0.14047381266E+04 0.  0.
        3    1    3    3  502    0  0.69818266514E+03 -0.53027775060E+02 -0.31090879369E+03  0.76611700609E+03  0.10100000352E+00 0. -1.
       -3    1    3    3    0  502 -0.69818266514E+03  0.53027775060E+02 -0.43603323879E+03  0.82486118491E+03  0.10100000352E+00 0.  1.
</event>
<event>
 5   0  0.9900839E-05  0.1399798E+04  0.7818609E-02  0.8953965E-01
       -1   -1    0    0    0  501  0.00000000000E+00  0.00000000000E+00  0.67403698747E+03  0.67403698749E+03  0.50400001928E-02 0. -1.
        1   -1    0    0  501    0  0.00000000000E+00  0.00000000000E+00 -0.72675325591E+03  0.72675325593E+03  0.50400001928E-02 0.  1.
    10030    2    1    2    0    0  0.00000000000E+00  0.00000000000E+00 -0.52716268439E+02  0.14007902434E+04  0.13997979501E+04 0.  0.
        3    1    3    3  502    0  0.45288998525E+03 -0.43249548435E+03 -0.33914471132E+03  0.71216629248E+03  0.10100000352E+00 0.  1.
       -3    1    3    3    0  502 -0.45288998525E+03  0.43249548435E+03  0.28642844288E+03  0.68862395095E+03  0.10100000352E+00 0. -1.
</event>
<event>
 5   0  0.9260916E-05  0.1401175E+04  0.7818609E-02  0.8952969E-01
       -1   -1    0    0    0  501  0.00000000000E+00  0.00000000000E+00  0.76877115880E+03  0.76877115882E+03  0.50400001928E-02 0. -1.
        1   -1    0    0  501    0  0.00000000000E+00  0.00000000000E+00 -0.63845109229E+03  0.63845109231E+03  0.50400001928E-02 0.  1.
    10030    2    1    2    0    0  0.00000000000E+00  0.00000000000E+00  0.13032006651E+03  0.14072222511E+04  0.14011749157E+04 0.  0.
        1    1    3    3  502    0  0.50978626561E+03 -0.46980054330E+03 -0.36411012458E+02  0.69420483212E+03  0.50400001928E-02 0.  1.
       -1    1    3    3    0  502 -0.50978626561E+03  0.46980054330E+03  0.16673107897E+03  0.71301741901E+03  0.50400001928E-02 0. -1.
</event>
<event>
 5   0  0.9828111E-05  0.1399492E+04  0.7818609E-02  0.8954186E-01
        1   -1    0    0  501    0  0.00000000000E+00  0.00000000000E+00  0.13329264297E+04  0.13329264298E+04  0.50400001928E-02 0.  1.
       -1   -1    0    0    0  501  0.00000000000E+00  0.00000000000E+00 -0.36734570670E+03  0.36734570673E+03  0.50400001928E-02 0. -1.
    10030    2    1    2    0    0  0.00000000000E+00  0.00000000000E+00  0.96558072304E+03  0.17002721365E+04  0.13994924814E+04 0.  0.
        4    1    3    3  502    0 -0.78300750832E+02 -0.23816854379E+03 -0.31090516092E+03  0.39939816577E+03  0.12699999809E+01 0. -1.
       -4    1    3    3    0  502  0.78300750832E+02  0.23816854379E+03  0.12764858840E+04  0.13008739707E+04  0.12699999809E+01 0.  1.
</event>
<event>
 5   0  0.1794185E-04  0.1391780E+04  0.7818609E-02  0.8959790E-01
        2   -1    0    0  501    0  0.00000000000E+00  0.00000000000E+00  0.66086143001E+03  0.66086143001E+03  0.25500000920E-02 0.  1.
       -2   -1    0    0    0  501  0.00000000000E+00  0.00000000000E+00 -0.73277480853E+03  0.73277480854E+03  0.25500000920E-02 0. -1.
    10030    2    1    2    0    0  0.00000000000E+00  0.00000000000E+00 -0.71913378524E+02  0.13936362386E+04  0.13917795915E+04 0.  0.
        2    1    3    3  502    0  0.11402417297E+03 -0.60034817495E+03 -0.36933199362E+03  0.71402070327E+03  0.25500000920E-02 0. -1.
       -2    1    3    3    0  502 -0.11402417297E+03  0.60034817495E+03  0.29741861509E+03  0.67961553528E+03  0.25500000920E-02 0.  1.
</event>
<event>
 5   0  0.1794185E-04  0.1399327E+04  0.7818609E-02  0.8954306E-01
       -2   -1    0    0    0  501  0.00000000000E+00  0.00000000000E+00  0.60820608995E+03  0.60820608995E+03  0.25500000920E-02 0.  1.
        2   -1    0    0  501    0  0.00000000000E+00  0.00000000000E+00 -0.80487350950E+03  0.80487350950E+03  0.25500000920E-02 0. -1.
    10030    2    1    2    0    0  0.00000000000E+00  0.00000000000E+00 -0.19666741955E+03  0.14130795995E+04  0.13993269384E+04 0.  0.
        2    1    3    3  502    0  0.32946274856E+03  0.37415384194E+03  0.39740050916E+03  0.63754526491E+03  0.25500000920E-02 0.  1.
       -2    1    3    3    0  502 -0.32946274856E+03 -0.37415384194E+03 -0.59406792871E+03  0.77553433454E+03  0.25500000920E-02 0. -1.
</event>
<event>
 5   0  0.1794185E-04  0.1399446E+04  0.7818609E-02  0.8954220E-01
        2   -1    0    0  501    0  0.00000000000E+00  0.00000000000E+00  0.11783849744E+04  0.11783849744E+04  0.25500000920E-02 0. -1.
       -2   -1    0    0    0  501  0.00000000000E+00  0.00000000000E+00 -0.41549411817E+03  0.41549411818E+03  0.25500000920E-02 0.  1.
    10030    2    1    2    0    0  0.00000000000E+00  0.00000000000E+00  0.76289085625E+03  0.15938790926E+04  0.13994456414E+04 0.  0.
        2    1    3    3  502    0  0.44252453882E+03  0.45813468298E+03  0.71133736690E+03  0.95483831341E+03  0.25500000920E-02 0.  1.
       -2    1    3    3    0  502 -0.44252453882E+03 -0.45813468298E+03  0.51553489356E+02  0.63904077920E+03  0.25500000920E-02 0. -1.
</event>
<event>
 5   0  0.9978422E-05  0.1401119E+04  0.7818609E-02  0.8953009E-01
        1   -1    0    0  501    0  0.00000000000E+00  0.00000000000E+00  0.53838116119E+03  0.53838116121E+03  0.50400001928E-02 0.  1.
       -1   -1    0    0    0  501  0.00000000000E+00  0.00000000000E+00 -0.91159081199E+03  0.91159081201E+03  0.50400001928E-02 0. -1.
    10030    2    1    2    0    0  0.00000000000E+00  0.00000000000E+00 -0.37320965081E+03  0.14499719732E+04  0.14011185816E+04 0.  0.
        2    1    3    3  502    0  0.20937308890E+03 -0.61757646877E+03 -0.45155015644E+03  0.79318051471E+03  0.25500000920E-02 0.  1.
       -2    1    3    3    0  502 -0.20937308890E+03  0.61757646877E+03  0.78340505631E+02  0.65679145850E+03  0.25500000920E-02 0. -1.
</event>
<event>
 5   0  0.9828111E-05  0.1399887E+04  0.7818609E-02  0.8953901E-01
        1   -1    0    0  501    0  0.00000000000E+00  0.00000000000E+00  0.13572027294E+04  0.13572027294E+04  0.50400001928E-02 0.  1.
       -1   -1    0    0    0  501  0.00000000000E+00  0.00000000000E+00 -0.36097829477E+03  0.36097829480E+03  0.50400001928E-02 0. -1.
    10030    2    1    2    0    0  0.00000000000E+00  0.00000000000E+00  0.99622443464E+03  0.17181810242E+04  0.13998867482E+04 0.  0.
        4    1    3    3  502    0 -0.58189495410E+03 -0.25133434879E+02  0.97455638728E+03  0.11353392409E+04  0.12699999809E+01 0.  1.
       -4    1    3    3    0  502  0.58189495410E+03  0.25133434879E+02  0.21668047368E+02  0.58284178328E+03  0.12699999809E+01 0. -1.
</event>
<event>
 5   0  0.9900839E-05  0.1391486E+04  0.7818609E-02  0.8960005E-01
        1   -1    0    0  501    0  0.00000000000E+00  0.00000000000E+00  0.96985240840E+03  0.96985240842E+03  0.50400001928E-02 0. -1.
       -1   -1    0    0    0  501  0.00000000000E+00  0.00000000000E+00 -0.49910513989E+03  0.49910513992E+03  0.50400001928E-02 0.  1.
    10030    2    1    2    0    0  0.00000000000E+00  0.00000000000E+00  0.47074726851E+03  0.14689575483E+04  0.13914859999E+04 0.  0.
        3    1    3    3  502    0 -0.11603863829E+03  0.60389126361E+02  0.95675341608E+03  0.96565465957E+03  0.10100000352E+00 0. -1.
       -3    1    3    3    0  502  0.11603863829E+03 -0.60389126361E+02 -0.48600614757E+03  0.50330288877E+03  0.10100000352E+00 0.  1.
</event>
<event>
 5   0  0.1780171E-04  0.1400733E+04  0.7818609E-02  0.8953288E-01
        2   -1    0    0  501    0  0.00000000000E+00  0.00000000000E+00  0.21174922770E+04  0.21174922770E+04  0.25500000920E-02 0.  1.
       -2   -1    0    0    0  501  0.00000000000E+00  0.00000000000E+00 -0.23164824881E+03  0.23164824882E+03  0.25500000920E-02 0. -1.
    10030    2    1    2    0    0  0.00000000000E+00  0.00000000000E+00  0.18858440282E+04  0.23491405258E+04  0.14007332049E+04 0.  0.
        5    1    3    3  502    0 -0.64592185098E+03  0.12254384185E+03  0.53812617064E+03  0.84960808393E+03  0.46999998093E+01 0. -1.
       -5    1    3    3    0  502  0.64592185098E+03 -0.12254384185E+03  0.13477178575E+04  0.14995324419E+04  0.46999998093E+01 0.  1.
</event>
<event>
 5   0  0.9828111E-05  0.1404072E+04  0.7818609E-02  0.8950876E-01
       -1   -1    0    0    0  501  0.00000000000E+00  0.00000000000E+00  0.56683859421E+03  0.56683859423E+03  0.50400001928E-02 0. -1.
        1   -1    0    0  501    0  0.00000000000E+00  0.00000000000E+00 -0.86947923490E+03  0.86947923491E+03  0.50400001928E-02 0.  1.
    10030    2    1    2    0    0  0.00000000000E+00  0.00000000000E+00 -0.30264064069E+03  0.14363178291E+04  0.14040717749E+04 0.  0.
        4    1    3    3  502    0 -0.62036614606E+03  0.31778057507E+03 -0.65646526038E+02  0.70010694065E+03  0.12699999809E+01 0.  1.
       -4    1    3    3    0  502  0.62036614606E+03 -0.31778057507E+03 -0.23699411465E+03  0.73621088850E+03  0.12699999809E+01 0. -1.
</event>
<event>
 5   0  0.1780171E-04  0.1402388E+04  0.7818609E-02  0.8952092E-01
       -2   -1    0    0    0  501  0.00000000000E+00  0.00000000000E+00  0.55203683429E+03  0.55203683429E+03  0.25500000920E-02 0.  1.
        2   -1    0    0  501    0  0.00000000000E+00  0.00000000000E+00 -0.89065225186E+03  0.89065225186E+03  0.25500000920E-02 0. -1.
    10030    2    1    2    0    0  0.00000000000E+00  0.00000000000E+00 -0.33861541757E+03  0.14426890862E+04  0.14023877489E+04 0.  0.
        5    1    3    3  502    0  0.65351892615E+03 -0.25404256443E+03 -0.17456819110E+03  0.72257923767E+03  0.46999998093E+01 0.  1.
       -5    1    3    3    0  502 -0.65351892615E+03  0.25404256443E+03 -0.16404722646E+03  0.72010984848E+03  0.46999998093E+01 0. -1.
</event>
<event>
 5   0  0.9828111E-05  0.1397260E+04  0.7818609E-02  0.8955805E-01
       -1   -1    0    0    0  501  0.00000000000E+00  0.00000000000E+00  0.23608668060E+03  0.23608668066E+03  0.50400001928E-02 0.  1.
        1   -1    0    0  501    0  0.00000000000E+00  0.00000000000E+00 -0.20673916722E+04  0.20673916722E+04  0.50400001928E-02 0. -1.
    10030    2    1    2    0    0  0.00000000000E+00  0.00000000000E+00 -0.18313049916E+04  0.23034783529E+04  0.13972596573E+04 0.  0.
        4    1    3    3  502    0  0.22347487734E+01  0.23311919125E+03 -0.20013728623E+04  0.20149055805E+04  0.12699999809E+01 0. -1.
       -4    1    3    3    0  502 -0.22347487734E+01 -0.23311919125E+03  0.17006787068E+03  0.28857277240E+03  0.12699999809E+01 0.  1.
</event>
<event>
 5   0  0.6671375E-05  0.1399558E+04  0.7818609E-02  0.8954138E-01
        1   -1    0    0  501    0  0.00000000000E+00  0.00000000000E+00  0.10559933019E+04  0.10559933019E+04  0.50400001928E-02 0. -1.
       -1   -1    0    0    0  501  0.00000000000E+00  0.00000000000E+00 -0.46372531917E+03  0.46372531920E+03  0.50400001928E-02 0.  1.
    10030    2    1    2    0    0  0.00000000000E+00  0.00000000000E+00  0.59226798275E+03  0.15197186211E+04  0.13995582603E+04 0.  0.
        5    1    3    3  502    0 -0.65866625112E+01 -0.80550906765E+02  0.10508912719E+04  0.10540049279E+04  0.46999998093E+01 0. -1.
       -5    1    3    3    0  502  0.65866625112E+01  0.80550906765E+02 -0.45862328915E+03  0.46571369322E+03  0.46999998093E+01 0.  1.
</event>
<event>
 5   0  0.9900839E-05  0.1399906E+04  0.7818609E-02  0.8953887E-01
       -1   -1    0    0    0  501  0.00000000000E+00  0.00000000000E+00  0.29794444543E+03  0.29794444547E+03  0.50400001928E-02 0. -1.
        1   -1    0    0  501    0  0.00000000000E+00  0.00000000000E+00 -0.16443809603E+04  0.16443809603E+04  0.50400001928E-02 0.  1.
    10030    2    1    2    0    0  0.00000000000E+00  0.00000000000E+00 -0.13464365149E+04  0.19423254058E+04  0.13999059588E+04 0.  0.
        3    1    3    3  502    0 -0.34382118917E+03 -0.26611605703E+03  0.87872896394E+02  0.44356783253E+03  0.10100000352E+00 0. -1.
       -3    1    3    3    0  502  0.34382118917E+03  0.26611605703E+03 -0.14343094113E+04  0.14987575733E+04  0.10100000352E+00 0.  1.
</event>
<event>
 5   0  0.9260916E-05  0.1397237E+04  0.7818609E-02  0.8955821E-01
        1   -1    0    0  501    0  0.00000000000E+00  0.00000000000E+00  0.12930565418E+04  0.12930565418E+04  0.50400001928E-02 0. -1.
       -1   -1    0    0    0  501  0.00000000000E+00  0.00000000000E+00 -0.37745303190E+03  0.37745303194E+03  0.50400001928E-02 0.  1.
    10030    2    1    2    0    0  0.00000000000E+00  0.00000000000E+00  0.91560350988E+03  0.16705095737E+04  0.13972374346E+04 0.  0.
        1    1    3    3  502    0 -0.55434186540E+03 -0.55038426637E+02 -0.46251248096E+02  0.55898417698E+03  0.50400001928E-02 0.  1.
       -1    1    3    3    0  502  0.55434186540E+03  0.55038426637E+02  0.96185475798E+03  0.11115253967E+04  0.50400001928E-02 0. -1.
</event>
<event>
 5   0  0.1833681E-04  0.1400108E+04  0.7818609E-02  0.8953740E-01
       -2   -1    0    0    0  501  0.00000000000E+00  0.00000000000E+00  0.39914956408E+03  0.39914956409E+03  0.25500000920E-02 0. -1.
        2   -1    0    0  501    0  0.00000000000E+00  0.00000000000E+00 -0.12277998460E+04  0.12277998460E+04  0.25500000920E-02 0.  1.
    10030    2    1    2    0    0  0.00000000000E+00  0.00000000000E+00 -0.82865028192E+03  0.16269494101E+04  0.14001082434E+04 0.  0.
        4    1    3    3  502    0  0.52397737581E+03  0.68355738516E+02 -0.94790396174E+03  0.10852411395E+04  0.12699999809E+01 0.  1.
       -4    1    3    3    0  502 -0.52397737581E+03 -0.68355738516E+02  0.11925367982E+03  0.54170827056E+03  0.12699999809E+01 0. -1.
</event>
<event>
 5   0  0.1794185E-04  0.1395780E+04  0.7818609E-02  0.8956879E-01
        2   -1    0    0  501    0  0.00000000000E+00  0.00000000000E+00  0.10839215082E+04  0.10839215082E+04  0.25500000920E-02 0.  1.
       -2   -1    0    0    0  501  0.00000000000E+00  0.00000000000E+00 -0.44934118303E+03  0.44934118303E+03  0.25500000920E-02 0. -1.
    10030    2    1    2    0    0  0.00000000000E+00  0.00000000000E+00  0.63458032517E+03  0.15332626912E+04  0.13957801730E+04 0.  0.
        2    1    3    3  502    0  0.28571472179E+02 -0.39611924350E+03 -0.31310242053E+03  0.50572711005E+03  0.25500000920E-02 0. -1.
       -2    1    3    3    0  502 -0.28571472179E+02  0.39611924350E+03  0.94768274571E+03  0.10275355812E+04  0.25500000920E-02 0.  1.
</event>
<event>
 5   0  0.9900839E-05  0.1401018E+04  0.7818609E-02  0.8953082E-01
       -1   -1    0    0    0  501  0.00000000000E+00  0.00000000000E+00  0.68806386482E+03  0.68806386484E+03  0.50400001928E-02 0. -1.
        1   -1    0    0  501    0  0.00000000000E+00  0.00000000000E+00 -0.71317955011E+03  0.71317955012E+03  0.50400001928E-02 0.  1.
    10030    2    1    2    0    0  0.00000000000E+00  0.00000000000E+00 -0.25115685289E+02  0.14012434150E+04  0.14010183119E+04 0.  0.
        3    1    3    3  502    0  0.37591161849E+03  0.28034081974E+03 -0.53303798415E+03  0.70995071862E+03  0.10100000352E+00 0.  1.
       -3    1    3    3    0  502 -0.37591161849E+03 -0.28034081974E+03  0.50792229886E+03  0.69129269634E+03  0.10100000352E+00 0. -1.
</event>
<event>
 5   0  0.1766237E-04  0.1401188E+04  0.7818609E-02  0.8952959E-01
       -2   -1    0    0    0  501  0.00000000000E+00  0.00000000000E+00  0.46851861033E+03  0.46851861034E+03  0.25500000920E-02 0. -1.
        2   -1    0    0  501    0  0.00000000000E+00  0.00000000000E+00 -0.10476258326E+04  0.10476258326E+04  0.25500000920E-02 0.  1.
    10030    2    1    2    0    0  0.00000000000E+00  0.00000000000E+00 -0.57910722230E+03  0.15161444430E+04  0.14011883517E+04 0.  0.
        3    1    3    3  502    0  0.45178786182E+03  0.29124790690E+03  0.19663679352E+03  0.57236671298E+03  0.10100000352E+00 0.  1.
       -3    1    3    3    0  502 -0.45178786182E+03 -0.29124790690E+03 -0.77574401581E+03  0.94377772999E+03  0.10100000352E+00 0. -1.
</event>
<event>
 5   0  0.9260916E-05  0.1397341E+04  0.7818609E-02  0.8955745E-01
        1   -1    0    0  501    0  0.00000000000E+00  0.00000000000E+00  0.12061613033E+04  0.12061613034E+04  0.50400001928E-02 0.  1.
       -1   -1    0    0    0  501  0.00000000000E+00  0.00000000000E+00 -0.40470597776E+03  0.40470597779E+03  0.50400001928E-02 0. -1.
    10030    2    1    2    0    0  0.00000000000E+00  0.00000000000E+00  0.80145532558E+03  0.16108672811E+04  0.13973413179E+04 0.  0.
        1    1    3    3  502    0  0.68116321559E+03  0.15361452784E+03  0.37344868593E+03  0.79186152229E+03  0.50400001928E-02 0. -1.
       -1    1    3    3    0  502 -0.68116321559E+03 -0.15361452784E+03  0.42800663965E+03  0.81900575886E+03  0.50400001928E-02 0.  1.
</event>
<event>
 5   0  0.9828111E-05  0.1398042E+04  0.7818609E-02  0.8955237E-01
        1   -1    0    0  501    0  0.00000000000E+00  0.00000000000E+00  0.63832671034E+03  0.63832671036E+03  0.50400001928E-02 0. -1.
       -1   -1    0    0    0  501  0.00000000000E+00  0.00000000000E+00 -0.76548675131E+03  0.76548675133E+03  0.50400001928E-02 0.  1.
    10030    2    1    2    0    0  0.00000000000E+00  0.00000000000E+00 -0.12716004098E+03  0.14038134617E+04  0.13980424025E+04 0.  0.
        4    1    3    3  502    0 -0.12731411692E+03 -0.46050259788E+02  0.62503473579E+03  0.63953072219E+03  0.12699999809E+01 0. -1.
       -4    1    3    3    0  502  0.12731411692E+03  0.46050259788E+02 -0.75219477676E+03  0.76428273949E+03  0.12699999809E+01 0.  1.
</event>
<event>
 5   0  0.6671375E-05  0.1399762E+04  0.7818609E-02  0.8953991E-01
       -1   -1    0    0    0  501  0.00000000000E+00  0.00000000000E+00  0.55006757574E+03  0.55006757576E+03  0.50400001928E-02 0. -1.
        1   -1    0    0  501    0  0.00000000000E+00  0.00000000000E+00 -0.89049672590E+03  0.89049672592E+03  0.50400001928E-02 0.  1.
    10030    2    1    2    0    0  0.00000000000E+00  0.00000000000E+00 -0.34042915017E+03  0.14405643017E+04  0.13997619444E+04 0.  0.
        5    1    3    3  502    0  0.65301531174E+03 -0.17470773372E+03  0.16341292471E+02  0.67619591646E+03  0.46999998093E+01 0. -1.
       -5    1    3    3    0  502 -0.65301531174E+03  0.17470773372E+03 -0.35677044264E+03  0.76436838522E+03  0.46999998093E+01 0.  1.
</event>
<event>
 5   0  0.1766237E-04  0.1390118E+04  0.7818609E-02  0.8961003E-01
       -2   -1    0    0    0  501  0.00000000000E+00  0.00000000000E+00  0.49549745873E+03  0.49549745874E+03  0.25500000920E-02 0.  1.
        2   -1    0    0  501    0  0.00000000000E+00  0.00000000000E+00 -0.97499380534E+03  0.97499380534E+03  0.25500000920E-02 0. -1.
    10030    2    1    2    0    0  0.00000000000E+00  0.00000000000E+00 -0.47949634661E+03  0.14704912641E+04  0.13901179127E+04 0.  0.
        3    1    3    3  502    0 -0.56966971684E+03  0.15712113553E+03  0.14732681164E+03  0.60902860126E+03  0.10100000352E+00 0.  1.
       -3    1    3    3    0  502  0.56966971684E+03 -0.15712113553E+03 -0.62682315825E+03  0.86146266282E+03  0.10100000352E+00 0. -1.
</event>
<event>
 5   0  0.9260916E-05  0.1391321E+04  0.7818609E-02  0.8960125E-01
       -1   -1    0    0    0  501  0.00000000000E+00  0.00000000000E+00  0.60074228147E+03  0.60074228149E+03  0.50400001928E-02 0.  1.
        1   -1    0    0  501    0  0.00000000000E+00  0.00000000000E+00 -0.80557548919E+03  0.80557548920E+03  0.50400001928E-02 0. -1.
    10030    2    1    2    0    0  0.00000000000E+00  0.00000000000E+00 -0.20483320771E+03  0.14063177707E+04  0.13913206062E+04 0.  0.
        1    1    3    3  502    0 -0.51352962789E+03  0.12664999399E+03 -0.55916166737E+03  0.76968478612E+03  0.50400001928E-02 0. -1.
       -1    1    3    3    0  502  0.51352962789E+03 -0.12664999399E+03  0.35432845966E+03  0.63663298458E+03  0.50400001928E-02 0.  1.
</event>
<event>
 5   0  0.1712327E-04  0.1393249E+04  0.7818609E-02  0.8958720E-01
       -2   -1    0    0    0  501  0.00000000000E+00  0.00000000000E+00  0.73349601498E+03  0.73349601498E+03  0.25500000920E-02 0. -1.
        2   -1    0    0  501    0  0.00000000000E+00  0.00000000000E+00 -0.66160641768E+03  0.66160641769E+03  0.25500000920E-02 0.  1.
    10030    2    1    2    0    0  0.00000000000E+00  0.00000000000E+00  0.71889597296E+02  0.13951024327E+04  0.13932489668E+04 0.  0.
        1    1    3    3  502    0  0.63073859320E+03 -0.96849922508E+02 -0.24384522409E+03  0.68313364269E+03  0.50400001928E-02 0.  1.
       -1    1    3    3    0  502 -0.63073859320E+03  0.96849922508E+02  0.31573482139E+03  0.71196878998E+03  0.50400001928E-02 0. -1.
</event>
<event>
 5   0  0.9828111E-05  0.1403410E+04  0.7818609E-02  0.8951354E-01
        1   -1    0    0  501    0  0.00000000000E+00  0.00000000000E+00  0.36880159475E+03  0.36880159478E+03  0.50400001928E-02 0. -1.
       -1   -1    0    0    0  501  0.00000000000E+00  0.00000000000E+00 -0.13351078539E+04  0.13351078539E+04  0.50400001928E-02 0.  1.
    10030    2    1    2    0    0  0.00000000000E+00  0.00000000000E+00 -0.96630625914E+03  0.17039094487E+04  0.14034099981E+04 0.  0.
        4    1    3    3  502    0  0.46758528590E+03 -0.10017940780E+03 -0.11066445725E+04  0.12055437512E+04  0.12699999809E+01 0.  1.
       -4    1    3    3    0  502 -0.46758528590E+03  0.10017940780E+03  0.14033831334E+03  0.49836569748E+03  0.12699999809E+01 0. -1.
</event>
<event>
 5   0  0.6671375E-05  0.1400398E+04  0.7818609E-02  0.8953531E-01
       -1   -1    0    0    0  501  0.00000000000E+00  0.00000000000E+00  0.79418357465E+03  0.79418357467E+03  0.50400001928E-02 0. -1.
        1   -1    0    0  501    0  0.00000000000E+00  0.00000000000E+00 -0.61733644761E+03  0.61733644763E+03  0.50400001928E-02 0.  1.
    10030    2    1    2    0    0  0.00000000000E+00  0.00000000000E+00  0.17684712704E+03  0.14115200223E+04  0.14003977531E+04 0.  0.
        5    1    3    3  502    0  0.57609344771E+03  0.81617105871E+01  0.48946058522E+03  0.75600530984E+03  0.46999998093E+01 0. -1.
       -5    1    3    3    0  502 -0.57609344771E+03 -0.81617105871E+01 -0.31261345818E+03  0.65551471246E+03  0.46999998093E+01 0.  1.
</event>
<event>
 5   0  0.6671375E-05  0.1388471E+04  0.7818609E-02  0.8962206E-01
        3   -1    0    0  501    0  0.00000000000E+00  0.00000000000E+00  0.57022392862E+03  0.57022393757E+03  0.10100000352E+00 0.  1.
       -3   -1    0    0    0  501  0.00000000000E+00  0.00000000000E+00 -0.84521740650E+03  0.84521741254E+03  0.10100000352E+00 0. -1.
    10030    2    1    2    0    0  0.00000000000E+00  0.00000000000E+00 -0.27499347788E+03  0.14154413501E+04  0.13884713907E+04 0.  0.
        2    1    3    3  502    0 -0.28354715049E+03  0.58522682314E+03  0.11027531575E+03  0.65958325202E+03  0.25500000920E-02 0.  1.
       -2    1    3    3    0  502  0.28354715049E+03 -0.58522682314E+03 -0.38526879364E+03  0.75585809808E+03  0.25500000920E-02 0. -1.
</event>
<event>
 5   0  0.6671375E-05  0.1394126E+04  0.7818609E-02  0.8958081E-01
       -3   -1    0    0    0  501  0.00000000000E+00  0.00000000000E+00  0.65620147359E+03  0.65620148136E+03  0.10100000352E+00 0.  1.
        3   -1    0    0  501    0  0.00000000000E+00  0.00000000000E+00 -0.74046916124E+03  0.74046916813E+03  0.10100000352E+00 0. -1.
    10030    2    1    2    0    0  0.00000000000E+00  0.00000000000E+00 -0.84267687647E+02  0.13966706495E+04  0.13941261994E+04 0.  0.
        5    1    3    3  502    0 -0.28354875289E+03  0.19416170643E+03  0.56541854840E+03  0.66167884082E+03  0.46999998093E+01 0.  1.
       -5    1    3    3    0  502  0.28354875289E+03 -0.19416170643E+03 -0.64968623605E+03  0.73499180867E+03  0.46999998093E+01 0. -1.
</event>
<event>
 5   0  0.9978422E-05  0.1399102E+04  0.7818609E-02  0.8954469E-01
       -1   -1    0    0    0  501  0.00000000000E+00  0.00000000000E+00  0.20392187128E+03  0.20392187134E+03  0.50400001928E-02 0.  1.
        1   -1    0    0  501    0  0.00000000000E+00  0.00000000000E+00 -0.23997984070E+04  0.23997984070E+04  0.50400001928E-02 0. -1.
    10030    2    1    2    0    0  0.00000000000E+00  0.00000000000E+00 -0.21958765358E+04  0.26037202784E+04  0.13991016860E+04 0.  0.
        2    1    3    3  502    0  0.48639589758E+03  0.40830971567E+03 -0.55195416072E+03  0.84139835312E+03  0.25500000920E-02 0.  1.
       -2    1    3    3    0  502 -0.48639589758E+03 -0.40830971567E+03 -0.16439223750E+04  0.17623219253E+04  0.25500000920E-02 0. -1.
</event>
<event>
 5   0  0.6671375E-05  0.1402582E+04  0.7818609E-02  0.8951952E-01
       -3   -1    0    0    0  501  0.00000000000E+00  0.00000000000E+00  0.97808232413E+03  0.97808232934E+03  0.10100000352E+00 0.  1.
        3   -1    0    0  501    0  0.00000000000E+00  0.00000000000E+00 -0.50282960238E+03  0.50282961252E+03  0.10100000352E+00 0. -1.
    10030    2    1    2    0    0  0.00000000000E+00  0.00000000000E+00  0.47525272175E+03  0.14809119419E+04  0.14025815591E+04 0.  0.
        1    1    3    3  502    0 -0.38696069178E+03 -0.57802547179E+01 -0.37987441610E+03  0.54228826316E+03  0.50400001928E-02 0. -1.
       -1    1    3    3    0  502  0.38696069178E+03  0.57802547179E+01  0.85512713785E+03  0.93862367871E+03  0.50400001928E-02 0.  1.
</event>
<event>
 5   0  0.9978422E-05  0.1392445E+04  0.7818609E-02  0.8959306E-01
        1   -1    0    0  501    0  0.00000000000E+00  0.00000000000E+00  0.11732190834E+04  0.11732190834E+04  0.50400001928E-02 0. -1.
       -1   -1    0    0    0  501  0.00000000000E+00  0.00000000000E+00 -0.41315867004E+03  0.41315867007E+03  0.50400001928E-02 0.  1.
    10030    2    1    2    0    0  0.00000000000E+00  0.00000000000E+00  0.76006041337E+03  0.15863777535E+04  0.13924448085E+04 0.  0.
        2    1    3    3  502    0 -0.98652394196E+02 -0.60386254819E+03  0.75847429980E+03  0.97450784268E+03  0.25500000920E-02 0. -1.
       -2    1    3    3    0  502  0.98652394196E+02  0.60386254819E+03  0.15861135657E+01  0.61186991081E+03  0.25500000920E-02 0.  1.
</event>
<event>
 5   0  0.6671375E-05  0.1402450E+04  0.7818609E-02  0.8952047E-01
       -3   -1    0    0    0  501  0.00000000000E+00  0.00000000000E+00  0.66371846647E+03  0.66371847415E+03  0.10100000352E+00 0. -1.
        3   -1    0    0  501    0  0.00000000000E+00  0.00000000000E+00 -0.74085139053E+03  0.74085139742E+03  0.10100000352E+00 0.  1.
    10030    2    1    2    0    0  0.00000000000E+00  0.00000000000E+00 -0.77132924066E+02  0.14045698716E+04  0.14024503685E+04 0.  0.
        2    1    3    3  502    0  0.31533157107E+03  0.80633455856E+02  0.58348493198E+03  0.66812455408E+03  0.25500000920E-02 0. -1.
       -2    1    3    3    0  502 -0.31533157107E+03 -0.80633455856E+02 -0.66061785604E+03  0.73644531749E+03  0.25500000920E-02 0.  1.
</event>
<event>
 5   0  0.6671375E-05  0.1400805E+04  0.7818609E-02  0.8953236E-01
        1   -1    0    0  501    0  0.00000000000E+00  0.00000000000E+00  0.59917516908E+03  0.59917516910E+03  0.50400001928E-02 0. -1.
       -1   -1    0    0    0  501  0.00000000000E+00  0.00000000000E+00 -0.81873122899E+03  0.81873122900E+03  0.50400001928E-02 0.  1.
    10030    2    1    2    0    0  0.00000000000E+00  0.00000000000E+00 -0.21955605991E+03  0.14179063981E+04  0.14008046582E+04 0.  0.
        5    1    3    3  502    0 -0.17013674211E+03 -0.44870946005E+03  0.40660174893E+03  0.62899424702E+03  0.46999998093E+01 0. -1.
       -5    1    3    3    0  502  0.17013674211E+03  0.44870946005E+03 -0.62615780884E+03  0.78891215108E+03  0.46999998093E+01 0.  1.
</event>
<event>
 5   0  0.1794185E-04  0.1404441E+04  0.7818609E-02  0.8950610E-01
       -2   -1    0    0    0  501  0.00000000000E+00  0.00000000000E+00  0.76373332793E+03  0.76373332793E+03  0.25500000920E-02 0. -1.
        2   -1    0    0  501    0  0.00000000000E+00  0.00000000000E+00 -0.64566242464E+03  0.64566242465E+03  0.25500000920E-02 0.  1.
    10030    2    1    2    0    0  0.00000000000E+00  0.00000000000E+00  0.11807090328E+03  0.14093957526E+04  0.14044414011E+04 0.  0.
        2    1    3    3  502    0  0.36557613282E+03 -0.42081386607E+03 -0.36953511198E+03  0.66879475009E+03  0.25500000920E-02 0.  1.
       -2    1    3    3    0  502 -0.36557613282E+03  0.42081386607E+03  0.48760601526E+03  0.74060100249E+03  0.25500000920E-02 0. -1.
</event>
<event>
 5   0  0.9260916E-05  0.1398405E+04  0.7818609E-02  0.8954974E-01
        1   -1    0    0  501    0  0.00000000000E+00  0.00000000000E+00  0.16655555851E+04  0.16655555851E+04  0.50400001928E-02 0. -1.
       -1   -1    0    0    0  501  0.00000000000E+00  0.00000000000E+00 -0.29352603520E+03  0.29352603525E+03  0.50400001928E-02 0.  1.
    10030    2    1    2    0    0  0.00000000000E+00  0.00000000000E+00  0.13720295499E+04  0.19590816204E+04  0.13984047016E+04 0.  0.
        1    1    3    3  502    0 -0.17354629896E+03  0.13021403980E+03  0.16172028011E+04  0.16316920402E+04  0.50400001928E-02 0. -1.
       -1    1    3    3    0  502  0.17354629896E+03 -0.13021403980E+03 -0.24517325124E+03  0.32738958015E+03  0.50400001928E-02 0.  1.
</event>
<event>
 5   0  0.9260916E-05  0.1398599E+04  0.7818609E-02  0.8954833E-01
       -1   -1    0    0    0  501  0.00000000000E+00  0.00000000000E+00  0.31119040393E+03  0.31119040397E+03  0.50400001928E-02 0. -1.
        1   -1    0    0  501    0  0.00000000000E+00  0.00000000000E+00 -0.15714481642E+04  0.15714481642E+04  0.50400001928E-02 0.  1.
    10030    2    1    2    0    0  0.00000000000E+00  0.00000000000E+00 -0.12602577602E+04  0.18826385681E+04  0.13985987116E+04 0.  0.
        1    1    3    3  502    0  0.57720033498E+02  0.48642158412E+03 -0.13019366544E+04  0.13910343676E+04  0.50400001928E-02 0.  1.
       -1    1    3    3    0  502 -0.57720033498E+02 -0.48642158412E+03  0.41678894144E+02  0.49160420056E+03  0.50400001928E-02 0. -1.
</event>
<event>
 5   0  0.9260916E-05  0.1401257E+04  0.7818609E-02  0.8952909E-01
        1   -1    0    0  501    0  0.00000000000E+00  0.00000000000E+00  0.82911235300E+03  0.82911235302E+03  0.50400001928E-02 0. -1.
       -1   -1    0    0    0  501  0.00000000000E+00  0.00000000000E+00 -0.59205509459E+03  0.59205509461E+03  0.50400001928E-02 0.  1.
    10030    2    1    2    0    0  0.00000000000E+00  0.00000000000E+00  0.23705725842E+03  0.14211674476E+04  0.14012568538E+04 0.  0.
        1    1    3    3  502    0 -0.50220322147E+03  0.45575296861E+03  0.29698721026E+03  0.74035143488E+03  0.50400001928E-02 0.  1.
       -1    1    3    3    0  502  0.50220322147E+03 -0.45575296861E+03 -0.59929951842E+02  0.68081601274E+03  0.50400001928E-02 0. -1.
</event>
<event>
 5   0  0.6671375E-05  0.1399219E+04  0.7818609E-02  0.8954384E-01
       -1   -1    0    0    0  501  0.00000000000E+00  0.00000000000E+00  0.70091814714E+03  0.70091814716E+03  0.50400001928E-02 0. -1.
        1   -1    0    0  501    0  0.00000000000E+00  0.00000000000E+00 -0.69830377138E+03  0.69830377139E+03  0.50400001928E-02 0.  1.
    10030    2    1    2    0    0  0.00000000000E+00  0.00000000000E+00  0.26143757620E+01  0.13992219186E+04  0.13992194761E+04 0.  0.
        5    1    3    3  502    0  0.63607467504E+03 -0.22440848188E+02  0.29171622035E+03  0.70015357394E+03  0.46999998093E+01 0. -1.
       -5    1    3    3    0  502 -0.63607467504E+03  0.22440848188E+02 -0.28910184459E+03  0.69906834461E+03  0.46999998093E+01 0.  1.
</event>
<event>
 5   0  0.1833681E-04  0.1385804E+04  0.7818609E-02  0.8964159E-01
        2   -1    0    0  501    0  0.00000000000E+00  0.00000000000E+00  0.16370878214E+04  0.16370878214E+04  0.25500000920E-02 0. -1.
       -2   -1    0    0    0  501  0.00000000000E+00  0.00000000000E+00 -0.29327255032E+03  0.29327255033E+03  0.25500000920E-02 0.  1.
    10030    2    1    2    0    0  0.00000000000E+00  0.00000000000E+00  0.13438152711E+04  0.19303603718E+04  0.13858036232E+04 0.  0.
        4    1    3    3  502    0 -0.21153012563E+03 -0.35417868546E+03 -0.10356083676E+03  0.42533985834E+03  0.12699999809E+01 0.  1.
       -4    1    3    3    0  502  0.21153012563E+03  0.35417868546E+03  0.14473761079E+04  0.15050205134E+04  0.12699999809E+01 0. -1.
</event>
<event>
 5   0  0.9900839E-05  0.1399211E+04  0.7818609E-02  0.8954390E-01
        1   -1    0    0  501    0  0.00000000000E+00  0.00000000000E+00  0.20401688277E+04  0.20401688277E+04  0.50400001928E-02 0.  1.
       -1   -1    0    0    0  501  0.00000000000E+00  0.00000000000E+00 -0.23990561004E+03  0.23990561010E+03  0.50400001928E-02 0. -1.
    10030    2    1    2    0    0  0.00000000000E+00  0.00000000000E+00  0.18002632177E+04  0.22800744378E+04  0.13992111310E+04 0.  0.
        3    1    3    3  502    0  0.53565483897E+03 -0.77365197714E+02  0.17771564338E+03  0.56964404714E+03  0.10100000352E+00 0. -1.
       -3    1    3    3    0  502 -0.53565483897E+03  0.77365197714E+02  0.16225475743E+04  0.17104303907E+04  0.10100000352E+00 0.  1.
</event>
<event>
 5   0  0.1833681E-04  0.1394115E+04  0.7818609E-02  0.8958090E-01
       -2   -1    0    0    0  501  0.00000000000E+00  0.00000000000E+00  0.40342932225E+03  0.40342932226E+03  0.25500000920E-02 0.  1.
        2   -1    0    0  501    0  0.00000000000E+00  0.00000000000E+00 -0.12043966121E+04  0.12043966121E+04  0.25500000920E-02 0. -1.
    10030    2    1    2    0    0  0.00000000000E+00  0.00000000000E+00 -0.80096728988E+03  0.16078259344E+04  0.13941146423E+04 0.  0.
        4    1    3    3  502    0 -0.25739119495E+03 -0.54941031415E+03 -0.46741333041E+01  0.60673336892E+03  0.12699999809E+01 0.  1.
       -4    1    3    3    0  502  0.25739119495E+03  0.54941031415E+03 -0.79629315657E+03  0.10010925655E+04  0.12699999809E+01 0. -1.
</event>
<event>
 5   0  0.1766237E-04  0.1397970E+04  0.7818609E-02  0.8955289E-01
        2   -1    0    0  501    0  0.00000000000E+00  0.00000000000E+00  0.15670253834E+04  0.15670253834E+04  0.25500000920E-02 0.  1.
       -2   -1    0    0    0  501  0.00000000000E+00  0.00000000000E+00 -0.31178826665E+03  0.31178826666E+03  0.25500000920E-02 0. -1.
    10030    2    1    2    0    0  0.00000000000E+00  0.00000000000E+00  0.12552371167E+04  0.18788136501E+04  0.13979701400E+04 0.  0.
        3    1    3    3  502    0  0.23951014606E+03 -0.64526154292E+03  0.46382896319E+03  0.82997884679E+03  0.10100000352E+00 0. -1.
       -3    1    3    3    0  502 -0.23951014606E+03  0.64526154292E+03  0.79140815355E+03  0.10488348033E+04  0.10100000352E+00 0.  1.
</event>
<event>
 5   0  0.1712327E-04  0.1396278E+04  0.7818609E-02  0.8956517E-01
        2   -1    0    0  501    0  0.00000000000E+00  0.00000000000E+00  0.39215714253E+03  0.39215714254E+03  0.25500000920E-02 0.  1.
       -2   -1    0    0    0  501  0.00000000000E+00  0.00000000000E+00 -0.12428635806E+04  0.12428635806E+04  0.25500000920E-02 0. -1.
    10030    2    1    2    0    0  0.00000000000E+00  0.00000000000E+00 -0.85070643806E+03  0.16350207231E+04  0.13962776663E+04 0.  0.
        1    1    3    3  502    0 -0.51065199192E+03 -0.78500736832E+02 -0.97518042934E+03  0.11035871929E+04  0.50400001928E-02 0. -1.
       -1    1    3    3    0  502  0.51065199192E+03  0.78500736832E+02  0.12447399128E+03  0.53143353024E+03  0.50400001928E-02 0.  1.
</event>
<event>
 5   0  0.1833681E-04  0.1400596E+04  0.7818609E-02  0.8953387E-01
        2   -1    0    0  501    0  0.00000000000E+00  0.00000000000E+00  0.67274037317E+03  0.67274037318E+03  0.25500000920E-02 0. -1.
       -2   -1    0    0    0  501  0.00000000000E+00  0.00000000000E+00 -0.72898437615E+03  0.72898437616E+03  0.25500000920E-02 0.  1.
    10030    2    1    2    0    0  0.00000000000E+00  0.00000000000E+00 -0.56244002981E+02  0.14017247493E+04  0.14005959035E+04 0.  0.
        4    1    3    3  502    0  0.37550326336E+03  0.16909337756E+03  0.53874455441E+03  0.67811693604E+03  0.12699999809E+01 0. -1.
       -4    1    3    3    0  502 -0.37550326336E+03 -0.16909337756E+03 -0.59498855739E+03  0.72360781330E+03  0.12699999809E+01 0.  1.
</event>
<event>
 5   0  0.9900839E-05  0.1398446E+04  0.7818609E-02  0.8954944E-01
       -1   -1    0    0    0  501  0.00000000000E+00  0.00000000000E+00  0.10411020216E+04  0.10411020216E+04  0.50400001928E-02 0. -1.
        1   -1    0    0  501    0  0.00000000000E+00  0.00000000000E+00 -0.46961059501E+03  0.46961059504E+03  0.50400001928E-02 0.  1.
    10030    2    1    2    0    0  0.00000000000E+00  0.00000000000E+00  0.57149142657E+03  0.15107126166E+04  0.13984456226E+04 0.  0.
        3    1    3    3  502    0  0.49530725505E+02  0.68525402318E+03  0.42612457931E+03  0.80846059666E+03  0.10100000352E+00 0.  1.
       -3    1    3    3    0  502 -0.49530725505E+02 -0.68525402318E+03  0.14536684725E+03  0.70225201996E+03  0.10100000352E+00 0. -1.
</event>
<event>
 5   0  0.1766237E-04  0.1402749E+04  0.7818609E-02  0.8951831E-01
       -2   -1    0    0    0  501  0.00000000000E+00  0.00000000000E+00  0.12120098235E+04  0.12120098235E+04  0.25500000920E-02 0. -1.
        2   -1    0    0  501    0  0.00000000000E+00  0.00000000000E+00 -0.40587648673E+03  0.40587648673E+03  0.25500000920E-02 0.  1.
    10030    2    1    2    0    0  0.00000000000E+00  0.00000000000E+00  0.80613333681E+03  0.16178863103E+04  0.14027491423E+04 0.  0.
        3    1    3    3  502    0  0.31207854174E+03  0.15736149833E+03  0.11044156812E+04  0.11583996135E+04  0.10100000352E+00 0. -1.
       -3    1    3    3    0  502 -0.31207854174E+03 -0.15736149833E+03 -0.29828234439E+03  0.45948669682E+03  0.10100000352E+00 0.  1.
</event>
<event>
 5   0  0.9260916E-05  0.1400363E+04  0.7818609E-02  0.8953556E-01
        1   -1    0    0  501    0  0.00000000000E+00  0.00000000000E+00  0.35186858435E+03  0.35186858439E+03  0.50400001928E-02 0. -1.
       -1   -1    0    0    0  501  0.00000000000E+00  0.00000000000E+00 -0.13932872439E+04  0.13932872439E+04  0.50400001928E-02 0.  1.
    10030    2    1    2    0    0  0.00000000000E+00  0.00000000000E+00 -0.10414186596E+04  0.17451558283E+04  0.14003628246E+04 0.  0.
        1    1    3    3  502    0 -0.66173447952E+03  0.21481908451E+03 -0.42246941256E+03  0.81395341699E+03  0.50400001928E-02 0. -1.
       -1    1    3    3    0  502  0.66173447952E+03 -0.21481908451E+03 -0.61894924700E+03  0.93120241132E+03  0.50400001928E-02 0.  1.
</event>
<event>
 5   0  0.1833681E-04  0.1398954E+04  0.7818609E-02  0.8954576E-01
       -2   -1    0    0    0  501  0.00000000000E+00  0.00000000000E+00  0.58956838227E+03  0.58956838227E+03  0.25500000920E-02 0. -1.
        2   -1    0    0  501    0  0.00000000000E+00  0.00000000000E+00 -0.82987452942E+03  0.82987452942E+03  0.25500000920E-02 0.  1.
    10030    2    1    2    0    0  0.00000000000E+00  0.00000000000E+00 -0.24030614715E+03  0.14194429117E+04  0.13989535858E+04 0.  0.
        4    1    3    3  502    0  0.53416151442E+03  0.73993336265E+01  0.33799411184E+03  0.63215892477E+03  0.12699999809E+01 0. -1.
       -4    1    3    3    0  502 -0.53416151442E+03 -0.73993336265E+01 -0.57830025899E+03  0.78728398693E+03  0.12699999809E+01 0.  1.
</event>
<event>
 5   0  0.1794185E-04  0.1400992E+04  0.7818609E-02  0.8953101E-01
        2   -1    0    0  501    0  0.00000000000E+00  0.00000000000E+00  0.76280323986E+03  0.76280323987E+03  0.25500000920E-02 0.  1.
       -2   -1    0    0    0  501  0.00000000000E+00  0.00000000000E+00 -0.64327834155E+03  0.64327834155E+03  0.25500000920E-02 0. -1.
    10030    2    1    2    0    0  0.00000000000E+00  0.00000000000E+00  0.11952489832E+03  0.14060815814E+04  0.14009922242E+04 0.  0.
        2    1    3    3  502    0  0.49626074978E+03  0.15022000760E+03 -0.41296241570E+03  0.66285649973E+03  0.25500000920E-02 0. -1.
       -2    1    3    3    0  502 -0.49626074978E+03 -0.15022000760E+03  0.53248731402E+03  0.74322508169E+03  0.25500000920E-02 0.  1.
</event>
<event>
 5   0  0.1712327E-04  0.1400033E+04  0.7818609E-02  0.8953795E-01
       -2   -1    0    0    0  501  0.00000000000E+00  0.00000000000E+00  0.93713830194E+03  0.93713830194E+03  0.25500000920E-02 0.  1.
        2   -1    0    0  501    0  0.00000000000E+00  0.00000000000E+00 -0.52289281248E+03  0.52289281249E+03  0.25500000920E-02 0. -1.
    10030    2    1    2    0    0  0.00000000000E+00  0.00000000000E+00  0.41424548946E+03  0.14600311144E+04  0.14000326887E+04 0.  0.
        1    1    3    3  502    0 -0.30476094331E+03 -0.49867072190E+03 -0.19470968859E+03  0.61600615606E+03  0.50400001928E-02 0. -1.
       -1    1    3    3    0  502  0.30476094331E+03  0.49867072190E+03  0.60895517805E+03  0.84402495837E+03  0.50400001928E-02 0.  1.
</event>
<event>
 5   0  0.1766237E-04  0.1400352E+04  0.7818609E-02  0.8953564E-01
        2   -1    0    0  501    0  0.00000000000E+00  0.00000000000E+00  0.14441816766E+04  0.14441816766E+04  0.25500000920E-02 0.  1.
       -2   -1    0    0    0  501  0.00000000000E+00  0.00000000000E+00 -0.33946299589E+03  0.33946299590E+03  0.25500000920E-02 0. -1.
    10030    2    1    2    0    0  0.00000000000E+00  0.00000000000E+00  0.11047186807E+04  0.17836446725E+04  0.14003517252E+04 0.  0.
        3    1    3    3  502    0  0.14490674346E+03  0.21536486765E+03  0.13806308369E+04  0.14048208101E+04  0.10100000352E+00 0.  1.
       -3    1    3    3    0  502 -0.14490674346E+03 -0.21536486765E+03 -0.27591215623E+03  0.37882386234E+03  0.10100000352E+00 0. -1.
</event>
<event>
 5   0  0.6671375E-05  0.1398492E+04  0.7818609E-02  0.8954911E-01
        1   -1    0    0  501    0  0.00000000000E+00  0.00000000000E+00  0.60359618166E+03  0.60359618168E+03  0.50400001928E-02 0.  1.
       -1   -1    0    0    0  501  0.00000000000E+00  0.00000000000E+00 -0.81005255786E+03  0.81005255788E+03  0.50400001928E-02 0. -1.
    10030    2    1    2    0    0  0.00000000000E+00  0.00000000000E+00 -0.20645637620E+03  0.14136487396E+04  0.13984915172E+04 0.  0.
        5    1    3    3  502    0 -0.53449695493E+03 -0.31748322091E+03  0.22030314994E+03  0.65957422498E+03  0.46999998093E+01 0.  1.
       -5    1    3    3    0  502  0.53449695493E+03  0.31748322091E+03 -0.42675952614E+03  0.75407451458E+03  0.46999998093E+01 0. -1.
</event>
<event>
 5   0  0.1794185E-04  0.1398416E+04  0.7818609E-02  0.8954966E-01
        2   -1    0    0  501    0  0.00000000000E+00  0.00000000000E+00  0.82091786895E+03  0.82091786896E+03  0.25500000920E-02 0. -1.
       -2   -1    0    0    0  501  0.00000000000E+00  0.00000000000E+00 -0.59554272275E+03  0.59554272275E+03  0.25500000920E-02 0.  1.
    10030    2    1    2    0    0  0.00000000000E+00  0.00000000000E+00  0.22537514621E+03  0.14164605917E+04  0.13984157648E+04 0.  0.
        2    1    3    3  502    0  0.68696443237E+03  0.12984527030E+03  0.12339455861E+03  0.70993390020E+03  0.25500000920E-02 0. -1.
       -2    1    3    3    0  502 -0.68696443237E+03 -0.12984527030E+03  0.10198058759E+03  0.70652669151E+03  0.25500000920E-02 0.  1.
</event>
<event>
 5   0  0.9978422E-05  0.1399565E+04  0.7818609E-02  0.8954133E-01
       -1   -1    0    0    0  501  0.00000000000E+00  0.00000000000E+00  0.10266176033E+04  0.10266176034E+04  0.50400001928E-02 0.  1.
        1   -1    0    0  501    0  0.00000000000E+00  0.00000000000E+00 -0.47699927840E+03  0.47699927843E+03  0.50400001928E-02 0. -1.
    10030    2    1    2    0    0  0.00000000000E+00  0.00000000000E+00  0.54961832495E+03  0.15036168818E+04  0.13995654412E+04 0.  0.
        2    1    3    3  502    0 -0.65027559648E+03  0.25847967965E+03  0.28026191292E+03  0.75380158928E+03  0.25500000920E-02 0. -1.
       -2    1    3    3    0  502  0.65027559648E+03 -0.25847967965E+03  0.26935641203E+03  0.74981529250E+03  0.25500000920E-02 0.  1.
</event>
<event>
 5   0  0.9978422E-05  0.1412722E+04  0.7818609E-02  0.8944661E-01
       -1   -1    0    0    0  501  0.00000000000E+00  0.00000000000E+00  0.11040534964E+04  0.11040534964E+04  0.50400001928E-02 0.  1.
        1   -1    0    0  501    0  0.00000000000E+00  0.00000000000E+00 -0.45192211255E+03  0.45192211257E+03  0.50400001928E-02 0. -1.
    10030    2    1    2    0    0  0.00000000000E+00  0.00000000000E+00  0.65213138381E+03  0.15559756089E+04  0.14127224617E+04 0.  0.
        2    1    3    3  502    0 -0.41766737407E+03  0.41816590390E+03 -0.99989689054E+02  0.59942196863E+03  0.25500000920E-02 0. -1.
       -2    1    3    3    0  502  0.41766737407E+03 -0.41816590390E+03  0.75212107287E+03  0.95655364032E+03  0.25500000920E-02 0.  1.
</event>
<event>
 5   0  0.9828111E-05  0.1398786E+04  0.7818609E-02  0.8954698E-01
       -1   -1    0    0    0  501  0.00000000000E+00  0.00000000000E+00  0.12161113110E+04  0.12161113110E+04  0.50400001928E-02 0.  1.
        1   -1    0    0  501    0  0.00000000000E+00  0.00000000000E+00 -0.40222529386E+03  0.40222529390E+03  0.50400001928E-02 0. -1.
    10030    2    1    2    0    0  0.00000000000E+00  0.00000000000E+00  0.81388601711E+03  0.16183366049E+04  0.13987862302E+04 0.  0.
        4    1    3    3  502    0 -0.62155632363E+03 -0.26721083652E+03  0.61200613541E+03  0.91229765827E+03  0.12699999809E+01 0.  1.
       -4    1    3    3    0  502  0.62155632363E+03  0.26721083652E+03  0.20187988170E+03  0.70603894661E+03  0.12699999809E+01 0. -1.
</event>
<event>
 5   0  0.6671375E-05  0.1398629E+04  0.7818609E-02  0.8954812E-01
       -1   -1    0    0    0  501  0.00000000000E+00  0.00000000000E+00  0.59199490860E+03  0.59199490862E+03  0.50400001928E-02 0.  1.
        1   -1    0    0  501    0  0.00000000000E+00  0.00000000000E+00 -0.82608931882E+03  0.82608931883E+03  0.50400001928E-02 0. -1.
    10030    2    1    2    0    0  0.00000000000E+00  0.00000000000E+00 -0.23409441022E+03  0.14180842274E+04  0.13986288583E+04 0.  0.
        5    1    3    3  502    0  0.21990929201E+03  0.32294151150E+03 -0.70508657457E+03  0.80611443617E+03  0.46999998093E+01 0. -1.
       -5    1    3    3    0  502 -0.21990929201E+03 -0.32294151150E+03  0.47099216435E+03  0.61196979128E+03  0.46999998093E+01 0.  1.
</event>
<event>
 5   0  0.6671375E-05  0.1397908E+04  0.7818609E-02  0.8955334E-01
       -1   -1    0    0    0  501  0.00000000000E+00  0.00000000000E+00  0.79025055881E+03  0.79025055883E+03  0.50400001928E-02 0. -1.
        1   -1    0    0  501    0  0.00000000000E+00  0.00000000000E+00 -0.61820461442E+03  0.61820461444E+03  0.50400001928E-02 0.  1.
    10030    2    1    2    0    0  0.00000000000E+00  0.00000000000E+00  0.17204594439E+03  0.14084551733E+04  0.13979077824E+04 0.  0.
        5    1    3    3  502    0  0.25188575654E+03 -0.22920545847E+03 -0.52893694408E+03  0.62910885970E+03  0.46999998093E+01 0.  1.
       -5    1    3    3    0  502 -0.25188575654E+03  0.22920545847E+03  0.70098288847E+03  0.77934631357E+03  0.46999998093E+01 0. -1.
</event>
<event>
 5   0  0.1766237E-04  0.1400190E+04  0.7818609E-02  0.8953681E-01
       -2   -1    0    0    0  501  0.00000000000E+00  0.00000000000E+00  0.45538602794E+03  0.45538602794E+03  0.25500000920E-02 0. -1.
        2   -1    0    0  501    0  0.00000000000E+00  0.00000000000E+00 -0.10763025744E+04  0.10763025744E+04  0.25500000920E-02 0.  1.
    10030    2    1    2    0    0  0.00000000000E+00  0.00000000000E+00 -0.62091654647E+03  0.15316886024E+04  0.14001902074E+04 0.  0.
        3    1    3    3  502    0  0.38770684326E+03 -0.10197359494E+03 -0.93830995809E+03  0.10203630717E+04  0.10100000352E+00 0.  1.
       -3    1    3    3    0  502 -0.38770684326E+03  0.10197359494E+03  0.31739341163E+03  0.51132553068E+03  0.10100000352E+00 0. -1.
</event>
<event>
 5   0  0.1766237E-04  0.1397853E+04  0.7818609E-02  0.8955374E-01
        2   -1    0    0  501    0  0.00000000000E+00  0.00000000000E+00  0.95969171073E+03  0.95969171073E+03  0.25500000920E-02 0. -1.
       -2   -1    0    0    0  501  0.00000000000E+00  0.00000000000E+00 -0.50901547420E+03  0.50901547420E+03  0.25500000920E-02 0.  1.
    10030    2    1    2    0    0  0.00000000000E+00  0.00000000000E+00  0.45067623653E+03  0.14687071849E+04  0.13978525405E+04 0.  0.
        3    1    3    3  502    0  0.61282127481E+03 -0.22293952140E+03 -0.38896861003E+02  0.65327247076E+03  0.10100000352E+00 0.  1.
       -3    1    3    3    0  502 -0.61282127481E+03  0.22293952140E+03  0.48957309754E+03  0.81543471418E+03  0.10100000352E+00 0. -1.
</event>
<event>
 5   0  0.6671375E-05  0.1398137E+04  0.7818609E-02  0.8955168E-01
       -1   -1    0    0    0  501  0.00000000000E+00  0.00000000000E+00  0.71755657864E+03  0.71755657866E+03  0.50400001928E-02 0.  1.
        1   -1    0    0  501    0  0.00000000000E+00  0.00000000000E+00 -0.68105655917E+03  0.68105655919E+03  0.50400001928E-02 0. -1.
    10030    2    1    2    0    0  0.00000000000E+00  0.00000000000E+00  0.36500019465E+02  0.13986131378E+04  0.13981367808E+04 0.  0.
        5    1    3    3  502    0 -0.39729738464E+03  0.33429835725E+02 -0.55615095489E+03  0.68431625758E+03  0.46999998093E+01 0. -1.
       -5    1    3    3    0  502  0.39729738464E+03 -0.33429835725E+02  0.59265097436E+03  0.71429688027E+03  0.46999998093E+01 0.  1.
</event>
<event>
 5   0  0.1712327E-04  0.1370581E+04  0.7818609E-02  0.8975393E-01
       -2   -1    0    0    0  501  0.00000000000E+00  0.00000000000E+00  0.22042673031E+03  0.22042673032E+03  0.25500000920E-02 0.  1.
        2   -1    0    0  501    0  0.00000000000E+00  0.00000000000E+00 -0.21305171534E+04  0.21305171534E+04  0.25500000920E-02 0. -1.
    10030    2    1    2    0    0  0.00000000000E+00  0.00000000000E+00 -0.19100904231E+04  0.23509438838E+04  0.13705807966E+04 0.  0.
        1    1    3    3  502    0 -0.17428657468E+03  0.40277358470E+03 -0.18578495161E+04  0.19089806692E+04  0.50400001928E-02 0. -1.
       -1    1    3    3    0  502  0.17428657468E+03 -0.40277358470E+03 -0.52240906981E+02  0.44196321457E+03  0.50400001928E-02 0.  1.
</event>
<event>
 5   0  0.9978422E-05  0.1391992E+04  0.7818609E-02  0.8959636E-01
        1   -1    0    0  501    0  0.00000000000E+00  0.00000000000E+00  0.13173239535E+04  0.13173239536E+04  0.50400001928E-02 0. -1.
       -1   -1    0    0    0  501  0.00000000000E+00  0.00000000000E+00 -0.36772311878E+03  0.36772311882E+03  0.50400001928E-02 0.  1.
    10030    2    1    2    0    0  0.00000000000E+00  0.00000000000E+00  0.94960083476E+03  0.16850470724E+04  0.13919920584E+04 0.  0.
        2    1    3    3  502    0 -0.46095806631E+02 -0.11880324759E+03 -0.35348065534E+03  0.37574939618E+03  0.25500000920E-02 0.  1.
       -2    1    3    3    0  502  0.46095806631E+02  0.11880324759E+03  0.13030814901E+04  0.13092976762E+04  0.25500000920E-02 0. -1.
</event>
<event>
 5   0  0.1766237E-04  0.1398018E+04  0.7818609E-02  0.8955254E-01
        2   -1    0    0  501    0  0.00000000000E+00  0.00000000000E+00  0.10608840355E+04  0.10608840355E+04  0.25500000920E-02 0. -1.
       -2   -1    0    0    0  501  0.00000000000E+00  0.00000000000E+00 -0.46057217488E+03  0.46057217488E+03  0.25500000920E-02 0.  1.
    10030    2    1    2    0    0  0.00000000000E+00  0.00000000000E+00  0.60031186060E+03  0.15214562104E+04  0.13980181222E+04 0.  0.
        3    1    3    3  502    0  0.16467359926E+03 -0.35829182599E+03  0.92828532241E+03  0.10085653558E+04  0.10100000352E+00 0. -1.
       -3    1    3    3    0  502 -0.16467359926E+03  0.35829182599E+03 -0.32797346181E+03  0.51289085459E+03  0.10100000352E+00 0.  1.
</event>
<event>
 5   0  0.1833681E-04  0.1398011E+04  0.7818609E-02  0.8955260E-01
       -2   -1    0    0    0  501  0.00000000000E+00  0.00000000000E+00  0.27220545783E+03  0.27220545784E+03  0.25500000920E-02 0. -1.
        2   -1    0    0  501    0  0.00000000000E+00  0.00000000000E+00 -0.17949988527E+04  0.17949988527E+04  0.25500000920E-02 0.  1.
    10030    2    1    2    0    0  0.00000000000E+00  0.00000000000E+00 -0.15227933949E+04  0.20672043106E+04  0.13980107074E+04 0.  0.
        4    1    3    3  502    0  0.46711497417E+03 -0.19615386027E+03 -0.14735200704E+04  0.15581834766E+04  0.12699999809E+01 0.  1.
       -4    1    3    3    0  502 -0.46711497417E+03  0.19615386027E+03 -0.49273324482E+02  0.50902083395E+03  0.12699999809E+01 0. -1.
</event>
<event>
 5   0  0.1780171E-04  0.1398360E+04  0.7818609E-02  0.8955007E-01
       -2   -1    0    0    0  501  0.00000000000E+00  0.00000000000E+00  0.28753965038E+03  0.28753965039E+03  0.25500000920E-02 0. -1.
        2   -1    0    0  501    0  0.00000000000E+00  0.00000000000E+00 -0.17001223641E+04  0.17001223642E+04  0.25500000920E-02 0.  1.
    10030    2    1    2    0    0  0.00000000000E+00  0.00000000000E+00 -0.14125827138E+04  0.19876620145E+04  0.13983598824E+04 0.  0.
        5    1    3    3  502    0 -0.31272256678E+03 -0.58184883146E+03 -0.10319402431E+04  0.12252616952E+04  0.46999998093E+01 0.  1.
       -5    1    3    3    0  502  0.31272256678E+03  0.58184883146E+03 -0.38064247071E+03  0.76240031935E+03  0.46999998093E+01 0. -1.
</event>
<event>
 5   0  0.9260916E-05  0.1399714E+04  0.7818609E-02  0.8954026E-01
       -1   -1    0    0    0  501  0.00000000000E+00  0.00000000000E+00  0.64083646942E+03  0.64083646944E+03  0.50400001928E-02 0.  1.
        1   -1    0    0  501    0  0.00000000000E+00  0.00000000000E+00 -0.76431297485E+03  0.76431297487E+03  0.50400001928E-02 0. -1.
    10030    2    1    2    0    0  0.00000000000E+00  0.00000000000E+00 -0.12347650543E+03  0.14051494443E+04  0.13997137255E+04 0.  0.
        1    1    3    3  502    0  0.53272970195E+02  0.33804422814E+03 -0.67459057415E+03  0.75642868288E+03  0.50400001928E-02 0. -1.
       -1    1    3    3    0  502 -0.53272970195E+02 -0.33804422814E+03  0.55111406872E+03  0.64872076142E+03  0.50400001928E-02 0.  1.
</event>
<event>
 5   0  0.6671375E-05  0.1401265E+04  0.7818609E-02  0.8952903E-01
       -3   -1    0    0    0  501  0.00000000000E+00  0.00000000000E+00  0.69700575562E+03  0.69700576294E+03  0.10100000352E+00 0.  1.
        3   -1    0    0  501    0  0.00000000000E+00  0.00000000000E+00 -0.70427834976E+03  0.70427835700E+03  0.10100000352E+00 0. -1.
    10030    2    1    2    0    0  0.00000000000E+00  0.00000000000E+00 -0.72725941397E+01  0.14012841199E+04  0.14012652476E+04 0.  0.
        1    1    3    3  502    0 -0.69784874415E+03 -0.43824518562E+02  0.40778435951E+02  0.70041154974E+03  0.50400001928E-02 0. -1.
       -1    1    3    3    0  502  0.69784874415E+03  0.43824518562E+02 -0.48051030091E+02  0.70087257020E+03  0.50400001928E-02 0.  1.
</event>
<event>
 5   0  0.9900839E-05  0.1405038E+04  0.7818609E-02  0.8950180E-01
       -1   -1    0    0    0  501  0.00000000000E+00  0.00000000000E+00  0.90296309365E+03  0.90296309367E+03  0.50400001928E-02 0.  1.
        1   -1    0    0  501    0  0.00000000000E+00  0.00000000000E+00 -0.54657011214E+03  0.54657011216E+03  0.50400001928E-02 0. -1.
    10030    2    1    2    0    0  0.00000000000E+00  0.00000000000E+00  0.35639298151E+03  0.14495332058E+04  0.14050375645E+04 0.  0.
        3    1    3    3  502    0  0.67662696796E+03 -0.18659622755E+03  0.20898144302E+03  0.73233561953E+03  0.10100000352E+00 0.  1.
       -3    1    3    3    0  502 -0.67662696796E+03  0.18659622755E+03  0.14741153849E+03  0.71719758629E+03  0.10100000352E+00 0. -1.
</event>
<event>
 5   0  0.9828111E-05  0.1403489E+04  0.7818609E-02  0.8951297E-01
       -1   -1    0    0    0  501  0.00000000000E+00  0.00000000000E+00  0.63796037217E+03  0.63796037219E+03  0.50400001928E-02 0.  1.
        1   -1    0    0  501    0  0.00000000000E+00  0.00000000000E+00 -0.77190554763E+03  0.77190554765E+03  0.50400001928E-02 0. -1.
    10030    2    1    2    0    0  0.00000000000E+00  0.00000000000E+00 -0.13394517546E+03  0.14098659198E+04  0.14034887252E+04 0.  0.
        4    1    3    3  502    0 -0.57664811727E+03 -0.25382636041E+03  0.24345041232E+03  0.67544103262E+03  0.12699999809E+01 0.  1.
       -4    1    3    3    0  502  0.57664811727E+03  0.25382636041E+03 -0.37739558778E+03  0.73442488722E+03  0.12699999809E+01 0. -1.
</event>
<event>
 5   0  0.6671375E-05  0.1377469E+04  0.7818609E-02  0.8970291E-01
       -1   -1    0    0    0  501  0.00000000000E+00  0.00000000000E+00  0.70414368194E+03  0.70414368196E+03  0.50400001928E-02 0. -1.
        1   -1    0    0  501    0  0.00000000000E+00  0.00000000000E+00 -0.67366300084E+03  0.67366300086E+03  0.50400001928E-02 0.  1.
    10030    2    1    2    0    0  0.00000000000E+00  0.00000000000E+00  0.30480681103E+02  0.13778066828E+04  0.13774694854E+04 0.  0.
        5    1    3    3  502    0  0.31337298732E+03 -0.41218067870E+02 -0.59681785761E+03  0.67536301606E+03  0.46999998093E+01 0.  1.
       -5    1    3    3    0  502 -0.31337298732E+03  0.41218067870E+02  0.62729853871E+03  0.70244366676E+03  0.46999998093E+01 0. -1.
</event>
<event>
 5   0  0.1766237E-04  0.1398320E+04  0.7818609E-02  0.8955036E-01
        2   -1    0    0  501    0  0.00000000000E+00  0.00000000000E+00  0.99574438106E+03  0.99574438106E+03  0.25500000920E-02 0. -1.
       -2   -1    0    0    0  501  0.00000000000E+00  0.00000000000E+00 -0.49091366508E+03  0.49091366509E+03  0.25500000920E-02 0.  1.
    10030    2    1    2    0    0  0.00000000000E+00  0.00000000000E+00  0.50483071598E+03  0.14866580462E+04  0.13983197397E+04 0.  0.
        3    1    3    3  502    0  0.10836909802E+03 -0.66334677764E+03  0.47766797747E+02  0.67383565205E+03  0.10100000352E+00 0.  1.
       -3    1    3    3    0  502 -0.10836909802E+03  0.66334677764E+03  0.45706391823E+03  0.81282239410E+03  0.10100000352E+00 0. -1.
</event>
<event>
 5   0  0.9978422E-05  0.1397840E+04  0.7818609E-02  0.8955384E-01
        1   -1    0    0  501    0  0.00000000000E+00  0.00000000000E+00  0.81767472842E+03  0.81767472843E+03  0.50400001928E-02 0. -1.
       -1   -1    0    0    0  501  0.00000000000E+00  0.00000000000E+00 -0.59741250719E+03  0.59741250721E+03  0.50400001928E-02 0.  1.
    10030    2    1    2    0    0  0.00000000000E+00  0.00000000000E+00  0.22026222123E+03  0.14150872356E+04  0.13978399187E+04 0.  0.
        2    1    3    3  502    0  0.41186214557E+03  0.48553216663E+03 -0.18172663360E+03  0.66211515702E+03  0.25500000920E-02 0. -1.
       -2    1    3    3    0  502 -0.41186214557E+03 -0.48553216663E+03  0.40198885483E+03  0.75297207863E+03  0.25500000920E-02 0.  1.
</event>
<event>
 5   0  0.9828111E-05  0.1397841E+04  0.7818609E-02  0.8955383E-01
       -1   -1    0    0    0  501  0.00000000000E+00  0.00000000000E+00  0.48652827156E+03  0.48652827159E+03  0.50400001928E-02 0.  1.
        1   -1    0    0  501    0  0.00000000000E+00  0.00000000000E+00 -0.10040318954E+04  0.10040318954E+04  0.50400001928E-02 0. -1.
    10030    2    1    2    0    0  0.00000000000E+00  0.00000000000E+00 -0.51750362382E+03  0.14905601670E+04  0.13978410535E+04 0.  0.
        4    1    3    3  502    0 -0.62843967445E+03  0.57729432438E+02 -0.57904016982E+03  0.85648014744E+03  0.12699999809E+01 0. -1.
       -4    1    3    3    0  502  0.62843967445E+03 -0.57729432438E+02  0.61536546005E+02  0.63408001954E+03  0.12699999809E+01 0.  1.
</event>
<event>
 5   0  0.9900839E-05  0.1400153E+04  0.7818609E-02  0.8953708E-01
        1   -1    0    0  501    0  0.00000000000E+00  0.00000000000E+00  0.14455342503E+04  0.14455342504E+04  0.50400001928E-02 0. -1.
       -1   -1    0    0    0  501  0.00000000000E+00  0.00000000000E+00 -0.33904915967E+03  0.33904915971E+03  0.50400001928E-02 0.  1.
    10030    2    1    2    0    0  0.00000000000E+00  0.00000000000E+00  0.11064850907E+04  0.17845834101E+04  0.14001530958E+04 0.  0.
        3    1    3    3  502    0 -0.19969473591E+03  0.53737183400E+03  0.10653896533E+04  0.12098353603E+04  0.10100000352E+00 0.  1.
       -3    1    3    3    0  502  0.19969473591E+03 -0.53737183400E+03  0.41095437384E+02  0.57474804975E+03  0.10100000352E+00 0. -1.
</event>
<event>
 5   0  0.9828111E-05  0.1397264E+04  0.7818609E-02  0.8955801E-01
       -1   -1    0    0    0  501  0.00000000000E+00  0.00000000000E+00  0.73914017817E+03  0.73914017819E+03  0.50400001928E-02 0. -1.
        1   -1    0    0  501    0  0.00000000000E+00  0.00000000000E+00 -0.66034399573E+03  0.66034399575E+03  0.50400001928E-02 0.  1.
    10030    2    1    2    0    0  0.00000000000E+00  0.00000000000E+00  0.78796182439E+02  0.13994841739E+04  0.13972641535E+04 0.  0.
        4    1    3    3  502    0  0.25752210519E+03 -0.46333161969E+03 -0.41639784065E+03  0.67407907479E+03  0.12699999809E+01 0.  1.
       -4    1    3    3    0  502 -0.25752210519E+03  0.46333161969E+03  0.49519402309E+03  0.72540509915E+03  0.12699999809E+01 0. -1.
</event>
<event>
 5   0  0.1794185E-04  0.1401780E+04  0.7818609E-02  0.8952531E-01
        2   -1    0    0  501    0  0.00000000000E+00  0.00000000000E+00  0.89878040668E+03  0.89878040668E+03  0.25500000920E-02 0.  1.
       -2   -1    0    0    0  501  0.00000000000E+00  0.00000000000E+00 -0.54657077657E+03  0.54657077658E+03  0.25500000920E-02 0. -1.
    10030    2    1    2    0    0  0.00000000000E+00  0.00000000000E+00  0.35220963011E+03  0.14453511833E+04  0.14017804462E+04 0.  0.
        2    1    3    3  502    0 -0.22568426644E+03  0.92531803371E+02  0.85360645930E+03  0.88777221748E+03  0.25500000920E-02 0.  1.
       -2    1    3    3    0  502  0.22568426644E+03 -0.92531803371E+02 -0.50139682919E+03  0.55757896578E+03  0.25500000920E-02 0. -1.
</event>
<event>
 5   0  0.1780171E-04  0.1389699E+04  0.7818609E-02  0.8961309E-01
       -2   -1    0    0    0  501  0.00000000000E+00  0.00000000000E+00  0.75614789386E+03  0.75614789386E+03  0.25500000920E-02 0.  1.
        2   -1    0    0  501    0  0.00000000000E+00  0.00000000000E+00 -0.63852042503E+03  0.63852042504E+03  0.25500000920E-02 0. -1.
    10030    2    1    2    0    0  0.00000000000E+00  0.00000000000E+00  0.11762746882E+03  0.13946683189E+04  0.13896990675E+04 0.  0.
        5    1    3    3  502    0  0.17269333965E+03 -0.67007875370E+03 -0.43817346834E+01  0.69200420180E+03  0.46999998093E+01 0. -1.
       -5    1    3    3    0  502 -0.17269333965E+03  0.67007875370E+03  0.12200920351E+03  0.70266411709E+03  0.46999998093E+01 0.  1.
</event>
<event>
 5   0  0.1766237E-04  0.1400556E+04  0.7818609E-02  0.8953416E-01
        2   -1    0    0  501    0  0.00000000000E+00  0.00000000000E+00  0.17251415162E+04  0.17251415162E+04  0.25500000920E-02 0. -1.
       -2   -1    0    0    0  501  0.00000000000E+00  0.00000000000E+00 -0.28426048046E+03  0.28426048047E+03  0.25500000920E-02 0.  1.
    10030    2    1    2    0    0  0.00000000000E+00  0.00000000000E+00  0.14408810358E+04  0.20094019967E+04  0.14005563984E+04 0.  0.
        3    1    3    3  502    0  0.41724730422E+03 -0.44330561285E+03  0.22390745845E+03  0.64865224845E+03  0.10100000352E+00 0.  1.
       -3    1    3    3    0  502 -0.41724730422E+03  0.44330561285E+03  0.12169735773E+04  0.13607497483E+04  0.10100000352E+00 0. -1.
</event>
<event>
 5   0  0.1780171E-04  0.1399264E+04  0.7818609E-02  0.8954351E-01
        2   -1    0    0  501    0  0.00000000000E+00  0.00000000000E+00  0.98141131809E+03  0.98141131809E+03  0.25500000920E-02 0. -1.
       -2   -1    0    0    0  501  0.00000000000E+00  0.00000000000E+00 -0.49875633795E+03  0.49875633796E+03  0.25500000920E-02 0.  1.
    10030    2    1    2    0    0  0.00000000000E+00  0.00000000000E+00  0.48265498014E+03  0.14801676561E+04  0.13992642567E+04 0.  0.
        5    1    3    3  502    0  0.59917246633E+03 -0.11353705152E+03 -0.12137427891E+03  0.62181356696E+03  0.46999998093E+01 0.  1.
       -5    1    3    3    0  502 -0.59917246633E+03  0.11353705152E+03  0.60402925905E+03  0.85835408909E+03  0.46999998093E+01 0. -1.
</event>
<event>
 5   0  0.9828111E-05  0.1406269E+04  0.7818609E-02  0.8949293E-01
        1   -1    0    0  501    0  0.00000000000E+00  0.00000000000E+00  0.12820025919E+04  0.12820025919E+04  0.50400001928E-02 0. -1.
       -1   -1    0    0    0  501  0.00000000000E+00  0.00000000000E+00 -0.38564526393E+03  0.38564526396E+03  0.50400001928E-02 0.  1.
    10030    2    1    2    0    0  0.00000000000E+00  0.00000000000E+00  0.89635732798E+03  0.16676478559E+04  0.14062691463E+04 0.  0.
        4    1    3    3  502    0  0.29486159491E+03  0.62353570427E+03  0.28620263069E+03  0.74676213975E+03  0.12699999809E+01 0. -1.
       -4    1    3    3    0  502 -0.29486159491E+03 -0.62353570427E+03  0.61015469729E+03  0.92088571613E+03  0.12699999809E+01 0.  1.
</event>
<event>
 5   0  0.9900839E-05  0.1397787E+04  0.7818609E-02  0.8955422E-01
       -1   -1    0    0    0  501  0.00000000000E+00  0.00000000000E+00  0.41487700693E+03  0.41487700696E+03  0.50400001928E-02 0. -1.
        1   -1    0    0  501    0  0.00000000000E+00  0.00000000000E+00 -0.11773422579E+04  0.11773422579E+04  0.50400001928E-02 0.  1.
    10030    2    1    2    0    0  0.00000000000E+00  0.00000000000E+00 -0.76246525101E+03  0.15922192649E+04  0.13977871542E+04 0.  0.
        3    1    3    3  502    0 -0.12776736981E+03 -0.59423083932E+01  0.40143133910E+03  0.42131572725E+03  0.10100000352E+00 0. -1.
       -3    1    3    3    0  502  0.12776736981E+03  0.59423083932E+01 -0.11638965901E+04  0.11709035377E+04  0.10100000352E+00 0.  1.
</event>
<event>
 5   0  0.9900839E-05  0.1402462E+04  0.7818609E-02  0.8952038E-01
        1   -1    0    0  501    0  0.00000000000E+00  0.00000000000E+00  0.75018227528E+03  0.75018227530E+03  0.50400001928E-02 0. -1.
       -1   -1    0    0    0  501  0.00000000000E+00  0.00000000000E+00 -0.65547405791E+03  0.65547405793E+03  0.50400001928E-02 0.  1.
    10030    2    1    2    0    0  0.00000000000E+00  0.00000000000E+00  0.94708217366E+02  0.14056563332E+04  0.14024621495E+04 0.  0.
        3    1    3    3  502    0  0.40393108649E+03 -0.38502497906E+03  0.47296281099E+03  0.73150419541E+03  0.10100000352E+00 0. -1.
       -3    1    3    3    0  502 -0.40393108649E+03  0.38502497906E+03 -0.37825459362E+03  0.67415213782E+03  0.10100000352E+00 0.  1.
</event>
<event>
 5   0  0.6671375E-05  0.1396867E+04  0.7818609E-02  0.8956090E-01
       -1   -1    0    0    0  501  0.00000000000E+00  0.00000000000E+00  0.12766980977E+04  0.12766980977E+04  0.50400001928E-02 0. -1.
        1   -1    0    0  501    0  0.00000000000E+00  0.00000000000E+00 -0.38208663561E+03  0.38208663564E+03  0.50400001928E-02 0.  1.
    10030    2    1    2    0    0  0.00000000000E+00  0.00000000000E+00  0.89461146213E+03  0.16587847334E+04  0.13968668954E+04 0.  0.
        5    1    3    3  502    0  0.47768325996E+03 -0.47901765557E+03  0.65349407559E+03  0.94059332765E+03  0.46999998093E+01 0.  1.
       -5    1    3    3    0  502 -0.47768325996E+03  0.47901765557E+03  0.24111738653E+03  0.71819140574E+03  0.46999998093E+01 0. -1.
</event>
<event>
 5   0  0.1794185E-04  0.1398569E+04  0.7818609E-02  0.8954855E-01
        2   -1    0    0  501    0  0.00000000000E+00  0.00000000000E+00  0.40885860936E+03  0.40885860937E+03  0.25500000920E-02 0. -1.
       -2   -1    0    0    0  501  0.00000000000E+00  0.00000000000E+00 -0.11960089196E+04  0.11960089196E+04  0.25500000920E-02 0.  1.
    10030    2    1    2    0    0  0.00000000000E+00  0.00000000000E+00 -0.78715031027E+03  0.16048675290E+04  0.13985686164E+04 0.  0.
        2    1    3    3  502    0  0.44168004421E+03  0.39217889467E+03  0.35955953193E+02  0.59175871557E+03  0.25500000920E-02 0. -1.
       -2    1    3    3    0  502 -0.44168004421E+03 -0.39217889467E+03 -0.82310626346E+03  0.10131088134E+04  0.25500000920E-02 0.  1.
</event>
<event>
 5   0  0.1766237E-04  0.1400109E+04  0.7818609E-02  0.8953740E-01
       -2   -1    0    0    0  501  0.00000000000E+00  0.00000000000E+00  0.95635961695E+03  0.95635961696E+03  0.25500000920E-02 0. -1.
        2   -1    0    0  501    0  0.00000000000E+00  0.00000000000E+00 -0.51243946211E+03  0.51243946212E+03  0.25500000920E-02 0.  1.
    10030    2    1    2    0    0  0.00000000000E+00  0.00000000000E+00  0.44392015484E+03  0.14687990791E+04  0.14001091496E+04 0.  0.
        3    1    3    3  502    0 -0.12356651326E+03  0.13020370278E+03  0.93180640689E+03  0.94893881655E+03  0.10100000352E+00 0. -1.
       -3    1    3    3    0  502  0.12356651326E+03 -0.13020370278E+03 -0.48788625205E+03  0.51986026253E+03  0.10100000352E+00 0.  1.
</event>
<event>
 5   0  0.1766237E-04  0.1421803E+04  0.7818609E-02  0.8938186E-01
        2   -1    0    0  501    0  0.00000000000E+00  0.00000000000E+00  0.59721614297E+03  0.59721614298E+03  0.25500000920E-02 0.  1.
       -2   -1    0    0    0  501  0.00000000000E+00  0.00000000000E+00 -0.84622829551E+03  0.84622829551E+03  0.25500000920E-02 0. -1.
    10030    2    1    2    0    0  0.00000000000E+00  0.00000000000E+00 -0.24901215254E+03  0.14434444385E+04  0.14218033601E+04 0.  0.
        3    1    3    3  502    0  0.53966104306E+02 -0.49410296604E+03  0.39149295683E+03  0.63270595612E+03  0.10100000352E+00 0.  1.
       -3    1    3    3    0  502 -0.53966104306E+02  0.49410296604E+03 -0.64050510937E+03  0.81073848237E+03  0.10100000352E+00 0. -1.
</event>
<event>
 5   0  0.9978422E-05  0.1400334E+04  0.7818609E-02  0.8953577E-01
       -1   -1    0    0    0  501  0.00000000000E+00  0.00000000000E+00  0.12399903047E+04  0.12399903047E+04  0.50400001928E-02 0.  1.
        1   -1    0    0  501    0  0.00000000000E+00  0.00000000000E+00 -0.39535294177E+03  0.39535294180E+03  0.50400001928E-02 0. -1.
    10030    2    1    2    0    0  0.00000000000E+00  0.00000000000E+00  0.84463736290E+03  0.16353432465E+04  0.14003339812E+04 0.  0.
        2    1    3    3  502    0 -0.51180379675E+03  0.30338142579E+03  0.85338707912E+03  0.10403138578E+04  0.25500000920E-02 0.  1.
       -2    1    3    3    0  502  0.51180379675E+03 -0.30338142579E+03 -0.87497162145E+01  0.59502938870E+03  0.25500000920E-02 0. -1.
</event>
<event>
 5   0  0.1833681E-04  0.1401580E+04  0.7818609E-02  0.8952676E-01
       -2   -1    0    0    0  501  0.00000000000E+00  0.00000000000E+00  0.41771707009E+03  0.41771707010E+03  0.25500000920E-02 0.  1.
        2   -1    0    0  501    0  0.00000000000E+00  0.00000000000E+00 -0.11756920867E+04  0.11756920867E+04  0.25500000920E-02 0. -1.
    10030    2    1    2    0    0  0.00000000000E+00  0.00000000000E+00 -0.75797501658E+03  0.15934091568E+04  0.14015800423E+04 0.  0.
        4    1    3    3  502    0 -0.40523312319E+01  0.49969674029E+03 -0.93754855961E+03  0.10624086635E+04  0.12699999809E+01 0. -1.
       -4    1    3    3    0  502  0.40523312319E+01 -0.49969674029E+03  0.17957354304E+03  0.53100049331E+03  0.12699999809E+01 0.  1.
</event>
<event>
 5   0  0.1766237E-04  0.1407398E+04  0.7818609E-02  0.8948481E-01
       -2   -1    0    0    0  501  0.00000000000E+00  0.00000000000E+00  0.56981253504E+03  0.56981253504E+03  0.25500000920E-02 0. -1.
        2   -1    0    0  501    0  0.00000000000E+00  0.00000000000E+00 -0.86904470239E+03  0.86904470240E+03  0.25500000920E-02 0.  1.
    10030    2    1    2    0    0  0.00000000000E+00  0.00000000000E+00 -0.29923216736E+03  0.14388572374E+04  0.14073984012E+04 0.  0.
        3    1    3    3  502    0 -0.60026287620E+03  0.15508101552E+03 -0.48996413640E+03  0.79020915401E+03  0.10100000352E+00 0.  1.
       -3    1    3    3    0  502  0.60026287620E+03 -0.15508101552E+03  0.19073196904E+03  0.64864808343E+03  0.10100000352E+00 0. -1.
</event>
<event>
 5   0  0.1766237E-04  0.1405601E+04  0.7818609E-02  0.8949774E-01
        2   -1    0    0  501    0  0.00000000000E+00  0.00000000000E+00  0.95853959034E+03  0.95853959034E+03  0.25500000920E-02 0.  1.
       -2   -1    0    0    0  501  0.00000000000E+00  0.00000000000E+00 -0.51529313554E+03  0.51529313555E+03  0.25500000920E-02 0. -1.
    10030    2    1    2    0    0  0.00000000000E+00  0.00000000000E+00  0.44324645480E+03  0.14738327259E+04  0.14056014671E+04 0.  0.
        3    1    3    3  502    0 -0.42751643429E+02  0.10665724341E+03  0.94862341713E+03  0.95555736004E+03  0.10100000352E+00 0.  1.
       -3    1    3    3    0  502  0.42751643429E+02 -0.10665724341E+03 -0.50537696234E+03  0.51827536585E+03  0.10100000352E+00 0. -1.
</event>
<event>
 5   0  0.6671375E-05  0.1399643E+04  0.7818609E-02  0.8954077E-01
        1   -1    0    0  501    0  0.00000000000E+00  0.00000000000E+00  0.66158852140E+03  0.66158852142E+03  0.50400001928E-02 0. -1.
       -1   -1    0    0    0  501  0.00000000000E+00  0.00000000000E+00 -0.74026383200E+03  0.74026383202E+03  0.50400001928E-02 0.  1.
    10030    2    1    2    0    0  0.00000000000E+00  0.00000000000E+00 -0.78675310600E+02  0.14018523534E+04  0.13996428889E+04 0.  0.
        5    1    3    3  502    0 -0.30406300880E+03 -0.62457113817E+03 -0.12423314963E+03  0.70569071513E+03  0.46999998093E+01 0.  1.
       -5    1    3    3    0  502  0.30406300880E+03  0.62457113817E+03  0.45557839031E+02  0.69616163831E+03  0.46999998093E+01 0. -1.
</event>
<event>
 5   0  0.1766237E-04  0.1404053E+04  0.7818609E-02  0.8950890E-01
        2   -1    0    0  501    0  0.00000000000E+00  0.00000000000E+00  0.10124996480E+04  0.10124996480E+04  0.25500000920E-02 0.  1.
       -2   -1    0    0    0  501  0.00000000000E+00  0.00000000000E+00 -0.48675693997E+03  0.48675693997E+03  0.25500000920E-02 0. -1.
    10030    2    1    2    0    0  0.00000000000E+00  0.00000000000E+00  0.52574270800E+03  0.14992565879E+04  0.14040530337E+04 0.  0.
        3    1    3    3  502    0  0.77640457400E+00  0.67408690652E+03  0.53495652470E+02  0.67620674012E+03  0.10100000352E+00 0. -1.
       -3    1    3    3    0  502 -0.77640457400E+00 -0.67408690652E+03  0.47224705553E+03  0.82304984783E+03  0.10100000352E+00 0.  1.
</event>
<event>
 5   0  0.1780171E-04  0.1399552E+04  0.7818609E-02  0.8954143E-01
       -2   -1    0    0    0  501  0.00000000000E+00  0.00000000000E+00  0.42314022144E+03  0.42314022145E+03  0.25500000920E-02 0. -1.
        2   -1    0    0  501    0  0.00000000000E+00  0.00000000000E+00 -0.11572680102E+04  0.11572680102E+04  0.25500000920E-02 0.  1.
    10030    2    1    2    0    0  0.00000000000E+00  0.00000000000E+00 -0.73412778872E+03  0.15804082316E+04  0.13995522743E+04 0.  0.
        5    1    3    3  502    0 -0.65397558828E+03 -0.24479439697E+03 -0.41826876557E+03  0.81398969103E+03  0.46999998093E+01 0.  1.
       -5    1    3    3    0  502  0.65397558828E+03  0.24479439697E+03 -0.31585902315E+03  0.76641854059E+03  0.46999998093E+01 0. -1.
</event>
<event>
 5   0  0.9900839E-05  0.1401070E+04  0.7818609E-02  0.8953044E-01
       -1   -1    0    0    0  501  0.00000000000E+00  0.00000000000E+00  0.77261853221E+03  0.77261853223E+03  0.50400001928E-02 0. -1.
        1   -1    0    0  501    0  0.00000000000E+00  0.00000000000E+00 -0.63517669847E+03  0.63517669849E+03  0.50400001928E-02 0.  1.
    10030    2    1    2    0    0  0.00000000000E+00  0.00000000000E+00  0.13744183374E+03  0.14077952307E+04  0.14010700032E+04 0.  0.
        3    1    3    3  502    0 -0.49175097919E+03  0.49740265561E+03  0.29535634406E+02  0.70007199004E+03  0.10100000352E+00 0. -1.
       -3    1    3    3    0  502  0.49175097919E+03 -0.49740265561E+03  0.10790619933E+03  0.70772324068E+03  0.10100000352E+00 0.  1.
</event>
<event>
 5   0  0.6671375E-05  0.1403126E+04  0.7818609E-02  0.8951559E-01
        1   -1    0    0  501    0  0.00000000000E+00  0.00000000000E+00  0.79808730127E+03  0.79808730129E+03  0.50400001928E-02 0. -1.
       -1   -1    0    0    0  501  0.00000000000E+00  0.00000000000E+00 -0.61671297489E+03  0.61671297491E+03  0.50400001928E-02 0.  1.
    10030    2    1    2    0    0  0.00000000000E+00  0.00000000000E+00  0.18137432638E+03  0.14148002762E+04  0.14031262150E+04 0.  0.
        5    1    3    3  502    0 -0.57817055444E+03 -0.11054792516E+03 -0.29415131919E+03  0.65806467946E+03  0.46999998093E+01 0.  1.
       -5    1    3    3    0  502  0.57817055444E+03  0.11054792516E+03  0.47552564557E+03  0.75673559674E+03  0.46999998093E+01 0. -1.
</event>
<event>
 5   0  0.9978422E-05  0.1400705E+04  0.7818609E-02  0.8953309E-01
       -1   -1    0    0    0  501  0.00000000000E+00  0.00000000000E+00  0.35762312438E+03  0.35762312442E+03  0.50400001928E-02 0. -1.
        1   -1    0    0  501    0  0.00000000000E+00  0.00000000000E+00 -0.13715369646E+04  0.13715369646E+04  0.50400001928E-02 0.  1.
    10030    2    1    2    0    0  0.00000000000E+00  0.00000000000E+00 -0.10139138402E+04  0.17291600890E+04  0.14007045863E+04 0.  0.
        2    1    3    3  502    0  0.65411322372E+03  0.26401431078E+02 -0.19973877029E+03  0.68443898294E+03  0.25500000920E-02 0. -1.
       -2    1    3    3    0  502 -0.65411322372E+03 -0.26401431078E+02 -0.81417506992E+03  0.10447211061E+04  0.25500000920E-02 0.  1.
</event>
<event>
 5   0  0.9828111E-05  0.1403246E+04  0.7818609E-02  0.8951472E-01
        1   -1    0    0  501    0  0.00000000000E+00  0.00000000000E+00  0.18469670286E+04  0.18469670286E+04  0.50400001928E-02 0.  1.
       -1   -1    0    0    0  501  0.00000000000E+00  0.00000000000E+00 -0.26653144947E+03  0.26653144952E+03  0.50400001928E-02 0. -1.
    10030    2    1    2    0    0  0.00000000000E+00  0.00000000000E+00  0.15804355791E+04  0.21134984781E+04  0.14032459504E+04 0.  0.
        4    1    3    3  502    0 -0.54112588143E+03 -0.35623985213E+03  0.38453717066E+03  0.75338867812E+03  0.12699999809E+01 0.  1.
       -4    1    3    3    0  502  0.54112588143E+03  0.35623985213E+03  0.11958984085E+04  0.13601098000E+04  0.12699999809E+01 0. -1.
</event>
<event>
 5   0  0.1766237E-04  0.1419361E+04  0.7818609E-02  0.8939922E-01
        2   -1    0    0  501    0  0.00000000000E+00  0.00000000000E+00  0.78202749505E+03  0.78202749505E+03  0.25500000920E-02 0.  1.
       -2   -1    0    0    0  501  0.00000000000E+00  0.00000000000E+00 -0.64402678569E+03  0.64402678569E+03  0.25500000920E-02 0. -1.
    10030    2    1    2    0    0  0.00000000000E+00  0.00000000000E+00  0.13800070936E+03  0.14260542807E+04  0.14193613408E+04 0.  0.
        3    1    3    3  502    0  0.33365796041E+03 -0.13070616681E+03 -0.54645237317E+03  0.65346915989E+03  0.10100000352E+00 0. -1.
       -3    1    3    3    0  502 -0.33365796041E+03  0.13070616681E+03  0.68445308253E+03  0.77258512085E+03  0.10100000352E+00 0.  1.
</event>
<event>
 5   0  0.1766237E-04  0.1399354E+04  0.7818609E-02  0.8954286E-01
       -2   -1    0    0    0  501  0.00000000000E+00  0.00000000000E+00  0.69755218328E+03  0.69755218329E+03  0.25500000920E-02 0.  1.
        2   -1    0    0  501    0  0.00000000000E+00  0.00000000000E+00 -0.70180851979E+03  0.70180851980E+03  0.25500000920E-02 0. -1.
    10030    2    1    2    0    0  0.00000000000E+00  0.00000000000E+00 -0.42563365086E+01  0.13993607031E+04  0.13993542300E+04 0.  0.
        3    1    3    3  502    0 -0.43573743034E+03  0.45587248189E+03 -0.30521574132E+03  0.70060223158E+03  0.10100000352E+00 0. -1.
       -3    1    3    3    0  502  0.43573743034E+03 -0.45587248189E+03  0.30095940482E+03  0.69875847150E+03  0.10100000352E+00 0.  1.
</event>
<event>
 5   0  0.1712327E-04  0.1399792E+04  0.7818609E-02  0.8953969E-01
       -2   -1    0    0    0  501  0.00000000000E+00  0.00000000000E+00  0.65707173918E+03  0.65707173918E+03  0.25500000920E-02 0. -1.
        2   -1    0    0  501    0  0.00000000000E+00  0.00000000000E+00 -0.74551177505E+03  0.74551177505E+03  0.25500000920E-02 0.  1.
    10030    2    1    2    0    0  0.00000000000E+00  0.00000000000E+00 -0.88440035869E+02  0.14025835142E+04  0.13997924398E+04 0.  0.
        1    1    3    3  502    0  0.10421235029E+03 -0.62674331868E+03  0.24994211603E+03  0.68274333600E+03  0.50400001928E-02 0. -1.
       -1    1    3    3    0  502 -0.10421235029E+03  0.62674331868E+03 -0.33838215190E+03  0.71984017824E+03  0.50400001928E-02 0.  1.
</event>
<event>
 5   0  0.9260916E-05  0.1401529E+04  0.7818609E-02  0.8952712E-01
        1   -1    0    0  501    0  0.00000000000E+00  0.00000000000E+00  0.14831485001E+04  0.14831485001E+04  0.50400001928E-02 0.  1.
       -1   -1    0    0    0  501  0.00000000000E+00  0.00000000000E+00 -0.33110048954E+03  0.33110048957E+03  0.50400001928E-02 0. -1.
    10030    2    1    2    0    0  0.00000000000E+00  0.00000000000E+00  0.11520480106E+04  0.18142489897E+04  0.14015294424E+04 0.  0.
        1    1    3    3  502    0  0.68289999385E+03  0.12389199079E+03  0.70132497607E+03  0.98669060453E+03  0.50400001928E-02 0.  1.
       -1    1    3    3    0  502 -0.68289999385E+03 -0.12389199079E+03  0.45072303450E+03  0.82755838516E+03  0.50400001928E-02 0. -1.
</event>
<event>
 5   0  0.1794185E-04  0.1402359E+04  0.7818609E-02  0.8952113E-01
       -2   -1    0    0    0  501  0.00000000000E+00  0.00000000000E+00  0.48153765573E+03  0.48153765574E+03  0.25500000920E-02 0. -1.
        2   -1    0    0  501    0  0.00000000000E+00  0.00000000000E+00 -0.10210055993E+04  0.10210055993E+04  0.25500000920E-02 0.  1.
    10030    2    1    2    0    0  0.00000000000E+00  0.00000000000E+00 -0.53946794352E+03  0.15025432550E+04  0.14023589309E+04 0.  0.
        2    1    3    3  502    0 -0.14009570070E+03 -0.11371559890E+03 -0.99570433380E+03  0.10119215202E+04  0.25500000920E-02 0.  1.
       -2    1    3    3    0  502  0.14009570070E+03  0.11371559890E+03  0.45623639028E+03  0.49062173475E+03  0.25500000920E-02 0. -1.
</event>
<event>
 5   0  0.1766237E-04  0.1397768E+04  0.7818609E-02  0.8955436E-01
        2   -1    0    0  501    0  0.00000000000E+00  0.00000000000E+00  0.11168370352E+04  0.11168370352E+04  0.25500000920E-02 0.  1.
       -2   -1    0    0    0  501  0.00000000000E+00  0.00000000000E+00 -0.43734137082E+03  0.43734137082E+03  0.25500000920E-02 0. -1.
    10030    2    1    2    0    0  0.00000000000E+00  0.00000000000E+00  0.67949566441E+03  0.15541784061E+04  0.13977682783E+04 0.  0.
        3    1    3    3  502    0  0.23385292502E+03 -0.65688053221E+03  0.28689098754E+03  0.75397988903E+03  0.10100000352E+00 0. -1.
       -3    1    3    3    0  502 -0.23385292502E+03  0.65688053221E+03  0.39260467687E+03  0.80019851702E+03  0.10100000352E+00 0.  1.
</event>
<event>
 5   0  0.9260916E-05  0.1386646E+04  0.7818609E-02  0.8963542E-01
       -1   -1    0    0    0  501  0.00000000000E+00  0.00000000000E+00  0.96592284871E+03  0.96592284873E+03  0.50400001928E-02 0.  1.
        1   -1    0    0  501    0  0.00000000000E+00  0.00000000000E+00 -0.49765535290E+03  0.49765535293E+03  0.50400001928E-02 0. -1.
    10030    2    1    2    0    0  0.00000000000E+00  0.00000000000E+00  0.46826749581E+03  0.14635782017E+04  0.13866458469E+04 0.  0.
        1    1    3    3  502    0  0.44767395832E+03 -0.52898015929E+03  0.25688650554E+03  0.73906877801E+03  0.50400001928E-02 0. -1.
       -1    1    3    3    0  502 -0.44767395832E+03  0.52898015929E+03  0.21138099028E+03  0.72450942365E+03  0.50400001928E-02 0.  1.
</event>
<event>
 5   0  0.1833681E-04  0.1408299E+04  0.7818609E-02  0.8947833E-01
        2   -1    0    0  501    0  0.00000000000E+00  0.00000000000E+00  0.12144648552E+04  0.12144648552E+04  0.25500000920E-02 0. -1.
       -2   -1    0    0    0  501  0.00000000000E+00  0.00000000000E+00 -0.40826775868E+03  0.40826775869E+03  0.25500000920E-02 0.  1.
    10030    2    1    2    0    0  0.00000000000E+00  0.00000000000E+00  0.80619709649E+03  0.16227326139E+04  0.14082994631E+04 0.  0.
        4    1    3    3  502    0  0.11639409419E+03  0.26591963716E+03 -0.33611658314E+03  0.44411350908E+03  0.12699999809E+01 0.  1.
       -4    1    3    3    0  502 -0.11639409419E+03 -0.26591963716E+03  0.11423136796E+04  0.11786191048E+04  0.12699999809E+01 0. -1.
</event>
<event>
 5   0  0.6671375E-05  0.1398999E+04  0.7818609E-02  0.8954544E-01
        1   -1    0    0  501    0  0.00000000000E+00  0.00000000000E+00  0.20633424097E+04  0.20633424097E+04  0.50400001928E-02 0.  1.
       -1   -1    0    0    0  501  0.00000000000E+00  0.00000000000E+00 -0.23713922578E+03  0.23713922583E+03  0.50400001928E-02 0. -1.
    10030    2    1    2    0    0  0.00000000000E+00  0.00000000000E+00  0.18262031839E+04  0.23004816356E+04  0.13989988158E+04 0.  0.
        5    1    3    3  502    0 -0.87655259492E+02 -0.58158438909E+03  0.29050670145E+03  0.65600310955E+03  0.46999998093E+01 0. -1.
       -5    1    3    3    0  502  0.87655259492E+02  0.58158438909E+03  0.15356964825E+04  0.16444785260E+04  0.46999998093E+01 0.  1.
</event>
<event>
 5   0  0.1780171E-04  0.1397807E+04  0.7818609E-02  0.8955408E-01
       -2   -1    0    0    0  501  0.00000000000E+00  0.00000000000E+00  0.60058858129E+03  0.60058858130E+03  0.25500000920E-02 0. -1.
        2   -1    0    0  501    0  0.00000000000E+00  0.00000000000E+00 -0.81331192633E+03  0.81331192633E+03  0.25500000920E-02 0.  1.
    10030    2    1    2    0    0  0.00000000000E+00  0.00000000000E+00 -0.21272334503E+03  0.14139005076E+04  0.13978066476E+04 0.  0.
        5    1    3    3  502    0 -0.68587975878E+03 -0.64385750926E+02 -0.22547657524E+03  0.72487126057E+03  0.46999998093E+01 0. -1.
       -5    1    3    3    0  502  0.68587975878E+03  0.64385750926E+02  0.12753230208E+02  0.68902924706E+03  0.46999998093E+01 0.  1.
</event>
<event>
 5   0  0.1833681E-04  0.1399963E+04  0.7818609E-02  0.8953846E-01
        2   -1    0    0  501    0  0.00000000000E+00  0.00000000000E+00  0.13966965192E+04  0.13966965192E+04  0.25500000920E-02 0. -1.
       -2   -1    0    0    0  501  0.00000000000E+00  0.00000000000E+00 -0.35080916102E+03  0.35080916103E+03  0.25500000920E-02 0.  1.
    10030    2    1    2    0    0  0.00000000000E+00  0.00000000000E+00  0.10458873582E+04  0.17475056803E+04  0.13999627625E+04 0.  0.
        4    1    3    3  502    0  0.65245496704E+03 -0.47541346951E+01  0.20653656987E+03  0.68438224218E+03  0.12699999809E+01 0.  1.
       -4    1    3    3    0  502 -0.65245496704E+03  0.47541346951E+01  0.83935078834E+03  0.10631234381E+04  0.12699999809E+01 0. -1.
</event>
<event>
 5   0  0.1766237E-04  0.1421397E+04  0.7818609E-02  0.8938474E-01
        2   -1    0    0  501    0  0.00000000000E+00  0.00000000000E+00  0.13590383556E+04  0.13590383556E+04  0.25500000920E-02 0. -1.
       -2   -1    0    0    0  501  0.00000000000E+00  0.00000000000E+00 -0.37165418418E+03  0.37165418418E+03  0.25500000920E-02 0.  1.
    10030    2    1    2    0    0  0.00000000000E+00  0.00000000000E+00  0.98738417143E+03  0.17306925398E+04  0.14213969063E+04 0.  0.
        3    1    3    3  502    0  0.13063650520E+03  0.34994338276E+02  0.13432258316E+04  0.13500170907E+04  0.10100000352E+00 0. -1.
       -3    1    3    3    0  502 -0.13063650520E+03 -0.34994338276E+02 -0.35584166021E+03  0.38067544909E+03  0.10100000352E+00 0.  1.
</event>
<event>
 5   0  0.1766237E-04  0.1400674E+04  0.7818609E-02  0.8953331E-01
       -2   -1    0    0    0  501  0.00000000000E+00  0.00000000000E+00  0.10812885920E+04  0.10812885920E+04  0.25500000920E-02 0. -1.
        2   -1    0    0  501    0  0.00000000000E+00  0.00000000000E+00 -0.45359954093E+03  0.45359954093E+03  0.25500000920E-02 0.  1.
    10030    2    1    2    0    0  0.00000000000E+00  0.00000000000E+00  0.62768905103E+03  0.15348881329E+04  0.14006741362E+04 0.  0.
        3    1    3    3  502    0  0.11579156799E+03 -0.31892868384E+03 -0.35751806569E+03  0.49289184421E+03  0.10100000352E+00 0.  1.
       -3    1    3    3    0  502 -0.11579156799E+03  0.31892868384E+03  0.98520711671E+03  0.10419962887E+04  0.10100000352E+00 0. -1.
</event>
<event>
 5   0  0.6671375E-05  0.1400645E+04  0.7818609E-02  0.8953352E-01
        3   -1    0    0  501    0  0.00000000000E+00  0.00000000000E+00  0.44938854316E+03  0.44938855451E+03  0.10100000352E+00 0. -1.
       -3   -1    0    0    0  501  0.00000000000E+00  0.00000000000E+00 -0.10913747378E+04  0.10913747424E+04  0.10100000352E+00 0.  1.
    10030    2    1    2    0    0  0.00000000000E+00  0.00000000000E+00 -0.64198619459E+03  0.15407632969E+04  0.14006445884E+04 0.  0.
        5    1    3    3  502    0  0.25132967663E+03  0.23044948671E+03  0.35188149963E+03  0.49001658345E+03  0.46999998093E+01 0. -1.
       -5    1    3    3    0  502 -0.25132967663E+03 -0.23044948671E+03 -0.99386769422E+03  0.10507467135E+04  0.46999998093E+01 0.  1.
</event>
<event>
 5   0  0.1833681E-04  0.1399169E+04  0.7818609E-02  0.8954420E-01
        2   -1    0    0  501    0  0.00000000000E+00  0.00000000000E+00  0.12277659041E+04  0.12277659041E+04  0.25500000920E-02 0.  1.
       -2   -1    0    0    0  501  0.00000000000E+00  0.00000000000E+00 -0.39862524905E+03  0.39862524906E+03  0.25500000920E-02 0. -1.
    10030    2    1    2    0    0  0.00000000000E+00  0.00000000000E+00  0.82914065503E+03  0.16263911531E+04  0.13991690238E+04 0.  0.
        4    1    3    3  502    0  0.42558394983E+03  0.55502587980E+03  0.43263246503E+03  0.82240372585E+03  0.12699999809E+01 0. -1.
       -4    1    3    3    0  502 -0.42558394983E+03 -0.55502587980E+03  0.39650819000E+03  0.80398742729E+03  0.12699999809E+01 0.  1.
</event>
<event>
 5   0  0.1766237E-04  0.1399514E+04  0.7818609E-02  0.8954171E-01
       -2   -1    0    0    0  501  0.00000000000E+00  0.00000000000E+00  0.49247640370E+03  0.49247640371E+03  0.25500000920E-02 0.  1.
        2   -1    0    0  501    0  0.00000000000E+00  0.00000000000E+00 -0.99428056733E+03  0.99428056733E+03  0.25500000920E-02 0. -1.
    10030    2    1    2    0    0  0.00000000000E+00  0.00000000000E+00 -0.50180416363E+03  0.14867569710E+04  0.13995137985E+04 0.  0.
        3    1    3    3  502    0  0.37310403854E+03 -0.48251097745E+03 -0.61526432558E+03  0.86635654754E+03  0.10100000352E+00 0. -1.
       -3    1    3    3    0  502 -0.37310403854E+03  0.48251097745E+03  0.11346016194E+03  0.62040042350E+03  0.10100000352E+00 0.  1.
</event>
<event>
 5   0  0.6671375E-05  0.1397641E+04  0.7818609E-02  0.8955528E-01
        1   -1    0    0  501    0  0.00000000000E+00  0.00000000000E+00  0.10286007145E+04  0.10286007145E+04  0.50400001928E-02 0. -1.
       -1   -1    0    0    0  501  0.00000000000E+00  0.00000000000E+00 -0.47477127403E+03  0.47477127405E+03  0.50400001928E-02 0.  1.
    10030    2    1    2    0    0  0.00000000000E+00  0.00000000000E+00  0.55382944050E+03  0.15033719886E+04  0.13976409721E+04 0.  0.
        5    1    3    3  502    0  0.24661539728E+03  0.65167889248E+03  0.33407058207E+03  0.77274172715E+03  0.46999998093E+01 0.  1.
       -5    1    3    3    0  502 -0.24661539728E+03 -0.65167889248E+03  0.21975885843E+03  0.73063026144E+03  0.46999998093E+01 0. -1.
</event>
<event>
 5   0  0.6671375E-05  0.1400559E+04  0.7818609E-02  0.8953414E-01
        1   -1    0    0  501    0  0.00000000000E+00  0.00000000000E+00  0.62613442135E+03  0.62613442137E+03  0.50400001928E-02 0. -1.
       -1   -1    0    0    0  501  0.00000000000E+00  0.00000000000E+00 -0.78320423903E+03  0.78320423904E+03  0.50400001928E-02 0.  1.
    10030    2    1    2    0    0  0.00000000000E+00  0.00000000000E+00 -0.15706981768E+03  0.14093386604E+04  0.14005586500E+04 0.  0.
        5    1    3    3  502    0 -0.36649003298E+03  0.46367562891E+03  0.29939780057E+03  0.66254899147E+03  0.46999998093E+01 0. -1.
       -5    1    3    3    0  502  0.36649003298E+03 -0.46367562891E+03 -0.45646761825E+03  0.74678966894E+03  0.46999998093E+01 0.  1.
</event>
<event>
 5   0  0.1712327E-04  0.1401553E+04  0.7818609E-02  0.8952695E-01
       -2   -1    0    0    0  501  0.00000000000E+00  0.00000000000E+00  0.73512147613E+03  0.73512147614E+03  0.25500000920E-02 0. -1.
        2   -1    0    0  501    0  0.00000000000E+00  0.00000000000E+00 -0.66803622016E+03  0.66803622016E+03  0.25500000920E-02 0.  1.
    10030    2    1    2    0    0  0.00000000000E+00  0.00000000000E+00  0.67085255974E+02  0.14031576963E+04  0.14015530989E+04 0.  0.
        1    1    3    3  502    0  0.19501657422E+03 -0.54054036149E+03 -0.36800561670E+03  0.68238074458E+03  0.50400001928E-02 0.  1.
       -1    1    3    3    0  502 -0.19501657422E+03  0.54054036149E+03  0.43509087268E+03  0.72077695172E+03  0.50400001928E-02 0. -1.
</event>
<event>
 5   0  0.9260916E-05  0.1392801E+04  0.7818609E-02  0.8959046E-01
       -1   -1    0    0    0  501  0.00000000000E+00  0.00000000000E+00  0.65663326489E+03  0.65663326491E+03  0.50400001928E-02 0.  1.
        1   -1    0    0  501    0  0.00000000000E+00  0.00000000000E+00 -0.73857637267E+03  0.73857637269E+03  0.50400001928E-02 0. -1.
    10030    2    1    2    0    0  0.00000000000E+00  0.00000000000E+00 -0.81943107781E+02  0.13952096376E+04  0.13928012277E+04 0.  0.
        1    1    3    3  502    0  0.33111846005E+03 -0.14346801013E+03  0.55566839776E+03  0.66256310854E+03  0.50400001928E-02 0.  1.
       -1    1    3    3    0  502 -0.33111846005E+03  0.14346801013E+03 -0.63761150554E+03  0.73264652905E+03  0.50400001928E-02 0. -1.
</event>
<event>
 5   0  0.1833681E-04  0.1395476E+04  0.7818609E-02  0.8957100E-01
        2   -1    0    0  501    0  0.00000000000E+00  0.00000000000E+00  0.85657862060E+03  0.85657862060E+03  0.25500000920E-02 0. -1.
       -2   -1    0    0    0  501  0.00000000000E+00  0.00000000000E+00 -0.56835178748E+03  0.56835178748E+03  0.25500000920E-02 0.  1.
    10030    2    1    2    0    0  0.00000000000E+00  0.00000000000E+00  0.28822683312E+03  0.14249304081E+04  0.13954755320E+04 0.  0.
        4    1    3    3  502    0 -0.22178004189E+03 -0.21226200230E+03  0.78391265368E+03  0.84188016136E+03  0.12699999809E+01 0. -1.
       -4    1    3    3    0  502  0.22178004189E+03  0.21226200230E+03 -0.49568582056E+03  0.58305024672E+03  0.12699999809E+01 0.  1.
</event>
<event>
 5   0  0.1833681E-04  0.1429087E+04  0.7818609E-02  0.8933029E-01
       -2   -1    0    0    0  501  0.00000000000E+00  0.00000000000E+00  0.23410731554E+03  0.23410731555E+03  0.25500000920E-02 0. -1.
        2   -1    0    0  501    0  0.00000000000E+00  0.00000000000E+00 -0.21809339787E+04  0.21809339787E+04  0.25500000920E-02 0.  1.
    10030    2    1    2    0    0  0.00000000000E+00  0.00000000000E+00 -0.19468266632E+04  0.24150412942E+04  0.14290872599E+04 0.  0.
        4    1    3    3  502    0  0.60507561944E+03 -0.36989567123E+03 -0.82578296375E+03  0.10885120252E+04  0.12699999809E+01 0.  1.
       -4    1    3    3    0  502 -0.60507561944E+03  0.36989567123E+03 -0.11210436994E+04  0.13265292691E+04  0.12699999809E+01 0. -1.
</event>
<event>
 5   0  0.6671375E-05  0.1406450E+04  0.7818609E-02  0.8949163E-01
       -1   -1    0    0    0  501  0.00000000000E+00  0.00000000000E+00  0.40980923684E+03  0.40980923687E+03  0.50400001928E-02 0. -1.
        1   -1    0    0  501    0  0.00000000000E+00  0.00000000000E+00 -0.12067203645E+04  0.12067203646E+04  0.50400001928E-02 0.  1.
    10030    2    1    2    0    0  0.00000000000E+00  0.00000000000E+00 -0.79691112770E+03  0.16165296014E+04  0.14064496460E+04 0.  0.
        5    1    3    3  502    0  0.42008407818E+03  0.55955605647E+03 -0.47915279737E+03  0.84804664158E+03  0.46999998093E+01 0.  1.
       -5    1    3    3    0  502 -0.42008407818E+03 -0.55955605647E+03 -0.31775833033E+03  0.76848295984E+03  0.46999998093E+01 0. -1.
</event>
<event>
 5   0  0.1833681E-04  0.1401017E+04  0.7818609E-02  0.8953083E-01
       -2   -1    0    0    0  501  0.00000000000E+00  0.00000000000E+00  0.35304256102E+03  0.35304256103E+03  0.25500000920E-02 0.  1.
        2   -1    0    0  501    0  0.00000000000E+00  0.00000000000E+00 -0.13899517597E+04  0.13899517597E+04  0.25500000920E-02 0. -1.
    10030    2    1    2    0    0  0.00000000000E+00  0.00000000000E+00 -0.10369091987E+04  0.17429943208E+04  0.14010169577E+04 0.  0.
        4    1    3    3  502    0  0.61644128000E+03  0.46578035672E+02 -0.10858114558E+03  0.62766300128E+03  0.12699999809E+01 0.  1.
       -4    1    3    3    0  502 -0.61644128000E+03 -0.46578035672E+02 -0.92832805312E+03  0.11153313195E+04  0.12699999809E+01 0. -1.
</event>
<event>
 5   0  0.1712327E-04  0.1368521E+04  0.7818609E-02  0.8976925E-01
       -2   -1    0    0    0  501  0.00000000000E+00  0.00000000000E+00  0.84073262934E+03  0.84073262934E+03  0.25500000920E-02 0. -1.
        2   -1    0    0  501    0  0.00000000000E+00  0.00000000000E+00 -0.55690997635E+03  0.55690997636E+03  0.25500000920E-02 0.  1.
    10030    2    1    2    0    0  0.00000000000E+00  0.00000000000E+00  0.28382265298E+03  0.13976426057E+04  0.13685209370E+04 0.  0.
        1    1    3    3  502    0 -0.43437897603E+02  0.53312934902E+03  0.57772216846E+03  0.78732246106E+03  0.50400001928E-02 0. -1.
       -1    1    3    3    0  502  0.43437897603E+02 -0.53312934902E+03 -0.29389951548E+03  0.61032014464E+03  0.50400001928E-02 0.  1.
</event>
<event>
 5   0  0.9828111E-05  0.1401810E+04  0.7818609E-02  0.8952510E-01
        1   -1    0    0  501    0  0.00000000000E+00  0.00000000000E+00  0.11048253437E+04  0.11048253438E+04  0.50400001928E-02 0. -1.
       -1   -1    0    0    0  501  0.00000000000E+00  0.00000000000E+00 -0.44465645178E+03  0.44465645180E+03  0.50400001928E-02 0.  1.
    10030    2    1    2    0    0  0.00000000000E+00  0.00000000000E+00  0.66016889196E+03  0.15494817956E+04  0.14018098547E+04 0.  0.
        4    1    3    3  502    0  0.19764037654E+03  0.52858483179E+03 -0.12940160501E+03  0.57897325596E+03  0.12699999809E+01 0.  1.
       -4    1    3    3    0  502 -0.19764037654E+03 -0.52858483179E+03  0.78957049698E+03  0.97050853960E+03  0.12699999809E+01 0. -1.
</event>
<event>
 5   0  0.6671375E-05  0.1400938E+04  0.7818609E-02  0.8953140E-01
        1   -1    0    0  501    0  0.00000000000E+00  0.00000000000E+00  0.10436380208E+04  0.10436380208E+04  0.50400001928E-02 0. -1.
       -1   -1    0    0    0  501  0.00000000000E+00  0.00000000000E+00 -0.47014109602E+03  0.47014109605E+03  0.50400001928E-02 0.  1.
    10030    2    1    2    0    0  0.00000000000E+00  0.00000000000E+00  0.57349692480E+03  0.15137791169E+04  0.14009384326E+04 0.  0.
        5    1    3    3  502    0 -0.42083167060E+03  0.48842320191E+03  0.58262591713E+03  0.86898306569E+03  0.46999998093E+01 0. -1.
       -5    1    3    3    0  502  0.42083167060E+03 -0.48842320191E+03 -0.91289923323E+01  0.64479605120E+03  0.46999998093E+01 0.  1.
</event>
<event>
 5   0  0.6671375E-05  0.1399778E+04  0.7818609E-02  0.8953979E-01
        1   -1    0    0  501    0  0.00000000000E+00  0.00000000000E+00  0.13071154183E+04  0.13071154183E+04  0.50400001928E-02 0. -1.
       -1   -1    0    0    0  501  0.00000000000E+00  0.00000000000E+00 -0.37475251199E+03  0.37475251203E+03  0.50400001928E-02 0.  1.
    10030    2    1    2    0    0  0.00000000000E+00  0.00000000000E+00  0.93236290630E+03  0.16818679303E+04  0.13997782489E+04 0.  0.
        5    1    3    3  502    0  0.16222457735E+03 -0.44618937212E+03 -0.15166500405E+03  0.49842364786E+03  0.46999998093E+01 0.  1.
       -5    1    3    3    0  502 -0.16222457735E+03  0.44618937212E+03  0.10840279103E+04  0.11834442825E+04  0.46999998093E+01 0. -1.
</event>
<event>
 5   0  0.1833681E-04  0.1399141E+04  0.7818609E-02  0.8954440E-01
       -2   -1    0    0    0  501  0.00000000000E+00  0.00000000000E+00  0.37554813662E+03  0.37554813663E+03  0.25500000920E-02 0. -1.
        2   -1    0    0  501    0  0.00000000000E+00  0.00000000000E+00 -0.13031596741E+04  0.13031596741E+04  0.25500000920E-02 0.  1.
    10030    2    1    2    0    0  0.00000000000E+00  0.00000000000E+00 -0.92761153745E+03  0.16787078107E+04  0.13991414329E+04 0.  0.
        4    1    3    3  502    0  0.62270736787E+03 -0.28866978347E+02 -0.84473415915E+03  0.10498453129E+04  0.12699999809E+01 0.  1.
       -4    1    3    3    0  502 -0.62270736787E+03  0.28866978347E+02 -0.82877378294E+02  0.62886249782E+03  0.12699999809E+01 0. -1.
</event>
<event>
 5   0  0.1712327E-04  0.1400566E+04  0.7818609E-02  0.8953409E-01
        2   -1    0    0  501    0  0.00000000000E+00  0.00000000000E+00  0.20098766520E+04  0.20098766520E+04  0.25500000920E-02 0. -1.
       -2   -1    0    0    0  501  0.00000000000E+00  0.00000000000E+00 -0.24399339458E+03  0.24399339460E+03  0.25500000920E-02 0.  1.
    10030    2    1    2    0    0  0.00000000000E+00  0.00000000000E+00  0.17658832574E+04  0.22538700466E+04  0.14005664954E+04 0.  0.
        1    1    3    3  502    0 -0.13687987761E+03 -0.66343237604E+03  0.11686378678E+04  0.13507749941E+04  0.50400001928E-02 0. -1.
       -1    1    3    3    0  502  0.13687987761E+03  0.66343237604E+03  0.59724538959E+03  0.90309505252E+03  0.50400001928E-02 0.  1.
</event>
<event>
 5   0  0.1794185E-04  0.1398997E+04  0.7818609E-02  0.8954545E-01
       -2   -1    0    0    0  501  0.00000000000E+00  0.00000000000E+00  0.49230931082E+03  0.49230931083E+03  0.25500000920E-02 0.  1.
        2   -1    0    0  501    0  0.00000000000E+00  0.00000000000E+00 -0.99388307353E+03  0.99388307353E+03  0.25500000920E-02 0. -1.
    10030    2    1    2    0    0  0.00000000000E+00  0.00000000000E+00 -0.50157376271E+03  0.14861923844E+04  0.13989966276E+04 0.  0.
        2    1    3    3  502    0  0.46840397021E+03  0.83479485096E+02 -0.79550996702E+03  0.92693430802E+03  0.25500000920E-02 0. -1.
       -2    1    3    3    0  502 -0.46840397021E+03 -0.83479485096E+02  0.29393620431E+03  0.55925807634E+03  0.25500000920E-02 0.  1.
</event>
<event>
 5   0  0.1780171E-04  0.1399729E+04  0.7818609E-02  0.8954015E-01
       -2   -1    0    0    0  501  0.00000000000E+00  0.00000000000E+00  0.25410942963E+03  0.25410942964E+03  0.25500000920E-02 0. -1.
        2   -1    0    0  501    0  0.00000000000E+00  0.00000000000E+00 -0.19275567586E+04  0.19275567586E+04  0.25500000920E-02 0.  1.
    10030    2    1    2    0    0  0.00000000000E+00  0.00000000000E+00 -0.16734473290E+04  0.21816661883E+04  0.13997290431E+04 0.  0.
        5    1    3    3  502    0 -0.16884948877E+03  0.57510205058E+03 -0.13998541579E+04  0.15227824112E+04  0.46999998093E+01 0.  1.
       -5    1    3    3    0  502  0.16884948877E+03 -0.57510205058E+03 -0.27359317111E+03  0.65888377709E+03  0.46999998093E+01 0. -1.
</event>
<event>
 5   0  0.1794185E-04  0.1409643E+04  0.7818609E-02  0.8946868E-01
       -2   -1    0    0    0  501  0.00000000000E+00  0.00000000000E+00  0.31887955741E+03  0.31887955742E+03  0.25500000920E-02 0.  1.
        2   -1    0    0  501    0  0.00000000000E+00  0.00000000000E+00 -0.15578716009E+04  0.15578716009E+04  0.25500000920E-02 0. -1.
    10030    2    1    2    0    0  0.00000000000E+00  0.00000000000E+00 -0.12389920435E+04  0.18767511584E+04  0.14096430848E+04 0.  0.
        2    1    3    3  502    0 -0.51559708546E+03  0.78941169333E+02 -0.12505991928E+04  0.13550167540E+04  0.25500000920E-02 0. -1.
       -2    1    3    3    0  502  0.51559708546E+03 -0.78941169333E+02  0.11607149237E+02  0.52173440434E+03  0.25500000920E-02 0.  1.
</event>
<event>
 5   0  0.9900839E-05  0.1401561E+04  0.7818609E-02  0.8952690E-01
        1   -1    0    0  501    0  0.00000000000E+00  0.00000000000E+00  0.10912254911E+04  0.10912254911E+04  0.50400001928E-02 0. -1.
       -1   -1    0    0    0  501  0.00000000000E+00  0.00000000000E+00 -0.45003821378E+03  0.45003821381E+03  0.50400001928E-02 0.  1.
    10030    2    1    2    0    0  0.00000000000E+00  0.00000000000E+00  0.64118727733E+03  0.15412637049E+04  0.14015608026E+04 0.  0.
        3    1    3    3  502    0 -0.60652441203E+03 -0.16052993175E+03 -0.22694768166E+02  0.62781906954E+03  0.10100000352E+00 0.  1.
       -3    1    3    3    0  502  0.60652441203E+03  0.16052993175E+03  0.66388204550E+03  0.91344463539E+03  0.10100000352E+00 0. -1.
</event>
<event>
 5   0  0.1712327E-04  0.1400451E+04  0.7818609E-02  0.8953492E-01
       -2   -1    0    0    0  501  0.00000000000E+00  0.00000000000E+00  0.30058384189E+03  0.30058384190E+03  0.25500000920E-02 0. -1.
        2   -1    0    0  501    0  0.00000000000E+00  0.00000000000E+00 -0.16312111244E+04  0.16312111244E+04  0.25500000920E-02 0.  1.
    10030    2    1    2    0    0  0.00000000000E+00  0.00000000000E+00 -0.13306272825E+04  0.19317949663E+04  0.14004509370E+04 0.  0.
        1    1    3    3  502    0  0.62970734088E+03 -0.29923179143E+03 -0.57544318095E+03  0.90399438864E+03  0.50400001928E-02 0.  1.
       -1    1    3    3    0  502 -0.62970734088E+03  0.29923179143E+03 -0.75518410151E+03  0.10278005776E+04  0.50400001928E-02 0. -1.
</event>
<event>
 5   0  0.9978422E-05  0.1399023E+04  0.7818609E-02  0.8954526E-01
       -1   -1    0    0    0  501  0.00000000000E+00  0.00000000000E+00  0.33005389797E+03  0.33005389801E+03  0.50400001928E-02 0.  1.
        1   -1    0    0  501    0  0.00000000000E+00  0.00000000000E+00 -0.14825337301E+04  0.14825337301E+04  0.50400001928E-02 0. -1.
    10030    2    1    2    0    0  0.00000000000E+00  0.00000000000E+00 -0.11524798321E+04  0.18125876281E+04  0.13990225681E+04 0.  0.
        2    1    3    3  502    0  0.55739395410E+03  0.28740335064E+03 -0.97772713005E+03  0.11615674956E+04  0.25500000920E-02 0. -1.
       -2    1    3    3    0  502 -0.55739395410E+03 -0.28740335064E+03 -0.17475270207E+03  0.65102013249E+03  0.25500000920E-02 0.  1.
</event>
<event>
 5   0  0.9828111E-05  0.1402905E+04  0.7818609E-02  0.8951719E-01
       -1   -1    0    0    0  501  0.00000000000E+00  0.00000000000E+00  0.33171104505E+03  0.33171104509E+03  0.50400001928E-02 0. -1.
        1   -1    0    0  501    0  0.00000000000E+00  0.00000000000E+00 -0.14833255419E+04  0.14833255419E+04  0.50400001928E-02 0.  1.
    10030    2    1    2    0    0  0.00000000000E+00  0.00000000000E+00 -0.11516144968E+04  0.18150365870E+04  0.14029047946E+04 0.  0.
        4    1    3    3  502    0 -0.32017546388E+02 -0.69965918412E+03 -0.52593822415E+03  0.87587711793E+03  0.12699999809E+01 0. -1.
       -4    1    3    3    0  502  0.32017546388E+02  0.69965918412E+03 -0.62567627265E+03  0.93915946902E+03  0.12699999809E+01 0.  1.
</event>
<event>
 5   0  0.1766237E-04  0.1399108E+04  0.7818609E-02  0.8954464E-01
       -2   -1    0    0    0  501  0.00000000000E+00  0.00000000000E+00  0.32378075631E+03  0.32378075632E+03  0.25500000920E-02 0.  1.
        2   -1    0    0  501    0  0.00000000000E+00  0.00000000000E+00 -0.15114423313E+04  0.15114423313E+04  0.25500000920E-02 0. -1.
    10030    2    1    2    0    0  0.00000000000E+00  0.00000000000E+00 -0.11876615750E+04  0.18352230876E+04  0.13991082033E+04 0.  0.
        3    1    3    3  502    0  0.26180961304E+03  0.13803065148E+03 -0.14252714957E+04  0.14556770181E+04  0.10100000352E+00 0. -1.
       -3    1    3    3    0  502 -0.26180961304E+03 -0.13803065148E+03  0.23760992077E+03  0.37954606951E+03  0.10100000352E+00 0.  1.
</event>
<event>
 5   0  0.1780171E-04  0.1397823E+04  0.7818609E-02  0.8955396E-01
       -2   -1    0    0    0  501  0.00000000000E+00  0.00000000000E+00  0.50483931552E+03  0.50483931553E+03  0.25500000920E-02 0. -1.
        2   -1    0    0  501    0  0.00000000000E+00  0.00000000000E+00 -0.96759025346E+03  0.96759025346E+03  0.25500000920E-02 0.  1.
    10030    2    1    2    0    0  0.00000000000E+00  0.00000000000E+00 -0.46275093794E+03  0.14724295690E+04  0.13978234528E+04 0.  0.
        5    1    3    3  502    0 -0.14831646678E+03 -0.20176610883E+03  0.45594393464E+03  0.52020601546E+03  0.46999998093E+01 0. -1.
       -5    1    3    3    0  502  0.14831646678E+03  0.20176610883E+03 -0.91869487258E+03  0.95222355352E+03  0.46999998093E+01 0.  1.
</event>
<event>
 5   0  0.6671375E-05  0.1394594E+04  0.7818609E-02  0.8957741E-01
        1   -1    0    0  501    0  0.00000000000E+00  0.00000000000E+00  0.61201847887E+03  0.61201847889E+03  0.50400001928E-02 0. -1.
       -1   -1    0    0    0  501  0.00000000000E+00  0.00000000000E+00 -0.79445858878E+03  0.79445858880E+03  0.50400001928E-02 0.  1.
    10030    2    1    2    0    0  0.00000000000E+00  0.00000000000E+00 -0.18244010991E+03  0.14064770677E+04  0.13945943311E+04 0.  0.
        5    1    3    3  502    0 -0.10304585832E+03 -0.11018967895E+03  0.59534548515E+03  0.61418120368E+03  0.46999998093E+01 0. -1.
       -5    1    3    3    0  502  0.10304585832E+03  0.11018967895E+03 -0.77778559506E+03  0.79229586402E+03  0.46999998093E+01 0.  1.
</event>
<event>
 5   0  0.6671375E-05  0.1403968E+04  0.7818609E-02  0.8950951E-01
       -1   -1    0    0    0  501  0.00000000000E+00  0.00000000000E+00  0.12858029818E+04  0.12858029818E+04  0.50400001928E-02 0. -1.
        1   -1    0    0  501    0  0.00000000000E+00  0.00000000000E+00 -0.38324808536E+03  0.38324808539E+03  0.50400001928E-02 0.  1.
    10030    2    1    2    0    0  0.00000000000E+00  0.00000000000E+00  0.90255489641E+03  0.16690510672E+04  0.14039679924E+04 0.  0.
        5    1    3    3  502    0  0.32949380421E+02 -0.26549159858E+03 -0.32024827010E+03  0.41731582176E+03  0.46999998093E+01 0.  1.
       -5    1    3    3    0  502 -0.32949380421E+02  0.26549159858E+03  0.12228031665E+04  0.12517352454E+04  0.46999998093E+01 0. -1.
</event>
<event>
 5   0  0.1780171E-04  0.1401018E+04  0.7818609E-02  0.8953082E-01
       -2   -1    0    0    0  501  0.00000000000E+00  0.00000000000E+00  0.10681550945E+04  0.10681550945E+04  0.25500000920E-02 0.  1.
        2   -1    0    0  501    0  0.00000000000E+00  0.00000000000E+00 -0.45940252536E+03  0.45940252536E+03  0.25500000920E-02 0. -1.
    10030    2    1    2    0    0  0.00000000000E+00  0.00000000000E+00  0.60875256916E+03  0.15275576199E+04  0.14010184123E+04 0.  0.
        5    1    3    3  502    0 -0.39703532379E+03 -0.70292210330E+02 -0.32017123326E+03  0.51488809636E+03  0.46999998093E+01 0. -1.
       -5    1    3    3    0  502  0.39703532379E+03  0.70292210330E+02  0.92892380242E+03  0.10126695235E+04  0.46999998093E+01 0.  1.
</event>
<event>
 5   0  0.1712327E-04  0.1400803E+04  0.7818609E-02  0.8953237E-01
        2   -1    0    0  501    0  0.00000000000E+00  0.00000000000E+00  0.14201666759E+04  0.14201666759E+04  0.25500000920E-02 0. -1.
       -2   -1    0    0    0  501  0.00000000000E+00  0.00000000000E+00 -0.34542607970E+03  0.34542607971E+03  0.25500000920E-02 0.  1.
    10030    2    1    2    0    0  0.00000000000E+00  0.00000000000E+00  0.10747405962E+04  0.17655927556E+04  0.14008034943E+04 0.  0.
        1    1    3    3  502    0 -0.18879007309E+03  0.19486431663E+03 -0.27649905127E+03  0.38738291001E+03  0.50400001928E-02 0.  1.
       -1    1    3    3    0  502  0.18879007309E+03 -0.19486431663E+03  0.13512396475E+04  0.13782098456E+04  0.50400001928E-02 0. -1.
</event>
<event>
 5   0  0.9828111E-05  0.1402931E+04  0.7818609E-02  0.8951700E-01
       -1   -1    0    0    0  501  0.00000000000E+00  0.00000000000E+00  0.33150331972E+03  0.33150331976E+03  0.50400001928E-02 0.  1.
        1   -1    0    0  501    0  0.00000000000E+00  0.00000000000E+00 -0.14843102695E+04  0.14843102695E+04  0.50400001928E-02 0. -1.
    10030    2    1    2    0    0  0.00000000000E+00  0.00000000000E+00 -0.11528069497E+04  0.18158135892E+04  0.14029309062E+04 0.  0.
        4    1    3    3  502    0  0.39551611918E+03  0.39300117355E+03 -0.25497835958E+02  0.55815291407E+03  0.12699999809E+01 0.  1.
       -4    1    3    3    0  502 -0.39551611918E+03 -0.39300117355E+03 -0.11273091138E+04  0.12576606752E+04  0.12699999809E+01 0. -1.
</event>
<event>
 5   0  0.6671375E-05  0.1375472E+04  0.7818609E-02  0.8971767E-01
        3   -1    0    0  501    0  0.00000000000E+00  0.00000000000E+00  0.89274075908E+03  0.89274076479E+03  0.10100000352E+00 0. -1.
       -3   -1    0    0    0  501  0.00000000000E+00  0.00000000000E+00 -0.52980767187E+03  0.52980768150E+03  0.10100000352E+00 0.  1.
    10030    2    1    2    0    0  0.00000000000E+00  0.00000000000E+00  0.36293308721E+03  0.14225484463E+04  0.13754721576E+04 0.  0.
        1    1    3    3  502    0 -0.20174410062E+03 -0.65147329755E+03  0.89759399010E+02  0.68787708880E+03  0.50400001928E-02 0.  1.
       -1    1    3    3    0  502  0.20174410062E+03  0.65147329755E+03  0.27317368820E+03  0.73467135749E+03  0.50400001928E-02 0. -1.
</event>
<event>
 5   0  0.6671375E-05  0.1391778E+04  0.7818609E-02  0.8959792E-01
        1   -1    0    0  501    0  0.00000000000E+00  0.00000000000E+00  0.12311442507E+04  0.12311442507E+04  0.50400001928E-02 0. -1.
       -1   -1    0    0    0  501  0.00000000000E+00  0.00000000000E+00 -0.39334243594E+03  0.39334243597E+03  0.50400001928E-02 0.  1.
    10030    2    1    2    0    0  0.00000000000E+00  0.00000000000E+00  0.83780181475E+03  0.16244866867E+04  0.13917776814E+04 0.  0.
        5    1    3    3  502    0  0.54493081588E+03  0.43162874760E+03  0.45555588109E+03  0.83114753242E+03  0.46999998093E+01 0. -1.
       -5    1    3    3    0  502 -0.54493081588E+03 -0.43162874760E+03  0.38224593367E+03  0.79333915425E+03  0.46999998093E+01 0.  1.
</event>
<event>
 5   0  0.1780171E-04  0.1401029E+04  0.7818609E-02  0.8953074E-01
        2   -1    0    0  501    0  0.00000000000E+00  0.00000000000E+00  0.14546766757E+04  0.14546766757E+04  0.25500000920E-02 0. -1.
       -2   -1    0    0    0  501  0.00000000000E+00  0.00000000000E+00 -0.33733981585E+03  0.33733981586E+03  0.25500000920E-02 0.  1.
    10030    2    1    2    0    0  0.00000000000E+00  0.00000000000E+00  0.11173368599E+04  0.17920164916E+04  0.14010287105E+04 0.  0.
        5    1    3    3  502    0 -0.24015704500E+02  0.52511885204E+03 -0.33545613962E+02  0.52675797198E+03  0.46999998093E+01 0.  1.
       -5    1    3    3    0  502  0.24015704500E+02 -0.52511885204E+03  0.11508824738E+04  0.12652585196E+04  0.46999998093E+01 0. -1.
</event>
<event>
 5   0  0.1794185E-04  0.1396319E+04  0.7818609E-02  0.8956487E-01
       -2   -1    0    0    0  501  0.00000000000E+00  0.00000000000E+00  0.30536005749E+03  0.30536005750E+03  0.25500000920E-02 0. -1.
        2   -1    0    0  501    0  0.00000000000E+00  0.00000000000E+00 -0.15962365537E+04  0.15962365537E+04  0.25500000920E-02 0.  1.
    10030    2    1    2    0    0  0.00000000000E+00  0.00000000000E+00 -0.12908764962E+04  0.19015966112E+04  0.13963192842E+04 0.  0.
        2    1    3    3  502    0 -0.10440532173E+02 -0.18456633833E+03 -0.15623004589E+04  0.15731994348E+04  0.25500000920E-02 0.  1.
       -2    1    3    3    0  502  0.10440532173E+02  0.18456633833E+03  0.27142396265E+03  0.32839717639E+03  0.25500000920E-02 0. -1.
</event>
<event>
 5   0  0.1766237E-04  0.1403183E+04  0.7818609E-02  0.8951517E-01
        2   -1    0    0  501    0  0.00000000000E+00  0.00000000000E+00  0.10764233386E+04  0.10764233386E+04  0.25500000920E-02 0. -1.
       -2   -1    0    0    0  501  0.00000000000E+00  0.00000000000E+00 -0.45728379825E+03  0.45728379825E+03  0.25500000920E-02 0.  1.
    10030    2    1    2    0    0  0.00000000000E+00  0.00000000000E+00  0.61913954034E+03  0.15337071368E+04  0.14031834560E+04 0.  0.
        3    1    3    3  502    0  0.15064084569E+03  0.22062179404E+03  0.10186559616E+04  0.10531033276E+04  0.10100000352E+00 0. -1.
       -3    1    3    3    0  502 -0.15064084569E+03 -0.22062179404E+03 -0.39951642124E+03  0.48060380922E+03  0.10100000352E+00 0.  1.
</event>
<event>
 5   0  0.9260916E-05  0.1400040E+04  0.7818609E-02  0.8953790E-01
       -1   -1    0    0    0  501  0.00000000000E+00  0.00000000000E+00  0.35904756178E+03  0.35904756181E+03  0.50400001928E-02 0. -1.
        1   -1    0    0  501    0  0.00000000000E+00  0.00000000000E+00 -0.13647995854E+04  0.13647995854E+04  0.50400001928E-02 0.  1.
    10030    2    1    2    0    0  0.00000000000E+00  0.00000000000E+00 -0.10057520236E+04  0.17238471472E+04  0.14000399473E+04 0.  0.
        1    1    3    3  502    0  0.18624368913E+03 -0.30635844768E+03  0.23741746029E+03  0.43001076810E+03  0.50400001928E-02 0. -1.
       -1    1    3    3    0  502 -0.18624368913E+03  0.30635844768E+03 -0.12431694839E+04  0.12938363791E+04  0.50400001928E-02 0.  1.
</event>
<event>
 5   0  0.1766237E-04  0.1401474E+04  0.7818609E-02  0.8952752E-01
       -2   -1    0    0    0  501  0.00000000000E+00  0.00000000000E+00  0.78276433973E+03  0.78276433974E+03  0.25500000920E-02 0. -1.
        2   -1    0    0  501    0  0.00000000000E+00  0.00000000000E+00 -0.62730523417E+03  0.62730523418E+03  0.25500000920E-02 0.  1.
    10030    2    1    2    0    0  0.00000000000E+00  0.00000000000E+00  0.15545910556E+03  0.14100695739E+04  0.14014737492E+04 0.  0.
        3    1    3    3  502    0 -0.13968399243E+03  0.27710710509E+03  0.70986020101E+03  0.77472671350E+03  0.10100000352E+00 0. -1.
       -3    1    3    3    0  502  0.13968399243E+03 -0.27710710509E+03 -0.55440109545E+03  0.63534286041E+03  0.10100000352E+00 0.  1.
</event>
<event>
 5   0  0.1780171E-04  0.1398310E+04  0.7818609E-02  0.8955043E-01
       -2   -1    0    0    0  501  0.00000000000E+00  0.00000000000E+00  0.94319239349E+03  0.94319239349E+03  0.25500000920E-02 0.  1.
        2   -1    0    0  501    0  0.00000000000E+00  0.00000000000E+00 -0.51825889195E+03  0.51825889195E+03  0.25500000920E-02 0. -1.
    10030    2    1    2    0    0  0.00000000000E+00  0.00000000000E+00  0.42493350154E+03  0.14614512854E+04  0.13983101870E+04 0.  0.
        5    1    3    3  502    0 -0.28435470048E+03 -0.79845563489E+02  0.87477106384E+03  0.92329811752E+03  0.46999998093E+01 0.  1.
       -5    1    3    3    0  502  0.28435470048E+03  0.79845563489E+02 -0.44983756230E+03  0.53815316792E+03  0.46999998093E+01 0. -1.
</event>
<event>
 5   0  0.9260916E-05  0.1399225E+04  0.7818609E-02  0.8954379E-01
        1   -1    0    0  501    0  0.00000000000E+00  0.00000000000E+00  0.42118801983E+03  0.42118801986E+03  0.50400001928E-02 0.  1.
       -1   -1    0    0    0  501  0.00000000000E+00  0.00000000000E+00 -0.11620888187E+04  0.11620888187E+04  0.50400001928E-02 0. -1.
    10030    2    1    2    0    0  0.00000000000E+00  0.00000000000E+00 -0.74090079889E+03  0.15832768386E+04  0.13992253406E+04 0.  0.
        1    1    3    3  502    0  0.35869690992E+03  0.34993354533E+03 -0.92286927660E+03  0.10501450667E+04  0.50400001928E-02 0. -1.
       -1    1    3    3    0  502 -0.35869690992E+03 -0.34993354533E+03  0.18196847771E+03  0.53313177192E+03  0.50400001928E-02 0.  1.
</event>
<event>
 5   0  0.9978422E-05  0.1405653E+04  0.7818609E-02  0.8949737E-01
       -1   -1    0    0    0  501  0.00000000000E+00  0.00000000000E+00  0.94990385252E+03  0.94990385253E+03  0.50400001928E-02 0. -1.
        1   -1    0    0  501    0  0.00000000000E+00  0.00000000000E+00 -0.52001604110E+03  0.52001604113E+03  0.50400001928E-02 0.  1.
    10030    2    1    2    0    0  0.00000000000E+00  0.00000000000E+00  0.42988781142E+03  0.14699198937E+04  0.14056532159E+04 0.  0.
        2    1    3    3  502    0  0.23863194480E+03  0.62870868399E+03  0.12855272811E+01  0.67247413853E+03  0.25500000920E-02 0. -1.
       -2    1    3    3    0  502 -0.23863194480E+03 -0.62870868399E+03  0.42860228414E+03  0.79744575513E+03  0.25500000920E-02 0.  1.
</event>
<event>
 5   0  0.1833681E-04  0.1392858E+04  0.7818609E-02  0.8959004E-01
        2   -1    0    0  501    0  0.00000000000E+00  0.00000000000E+00  0.66171801012E+03  0.66171801013E+03  0.25500000920E-02 0. -1.
       -2   -1    0    0    0  501  0.00000000000E+00  0.00000000000E+00 -0.73296128654E+03  0.73296128655E+03  0.25500000920E-02 0.  1.
    10030    2    1    2    0    0  0.00000000000E+00  0.00000000000E+00 -0.71243276419E+02  0.13946792967E+04  0.13928584767E+04 0.  0.
        4    1    3    3  502    0  0.37571493665E+03  0.57902572482E+03 -0.12836867870E+03  0.70207737052E+03  0.12699999809E+01 0. -1.
       -4    1    3    3    0  502 -0.37571493665E+03 -0.57902572482E+03  0.57125402281E+02  0.69260192615E+03  0.12699999809E+01 0.  1.
</event>
<event>
 5   0  0.1833681E-04  0.1413663E+04  0.7818609E-02  0.8943988E-01
        2   -1    0    0  501    0  0.00000000000E+00  0.00000000000E+00  0.58028788473E+03  0.58028788474E+03  0.25500000920E-02 0. -1.
       -2   -1    0    0    0  501  0.00000000000E+00  0.00000000000E+00 -0.86097003823E+03  0.86097003824E+03  0.25500000920E-02 0.  1.
    10030    2    1    2    0    0  0.00000000000E+00  0.00000000000E+00 -0.28068215350E+03  0.14412579230E+04  0.14136625938E+04 0.  0.
        4    1    3    3  502    0 -0.22559955363E+03 -0.53601109587E+03 -0.54993691095E+03  0.80039694678E+03  0.12699999809E+01 0.  1.
       -4    1    3    3    0  502  0.22559955363E+03  0.53601109587E+03  0.26925475745E+03  0.64086097619E+03  0.12699999809E+01 0. -1.
</event>
<event>
 5   0  0.1794185E-04  0.1402560E+04  0.7818609E-02  0.8951968E-01
       -2   -1    0    0    0  501  0.00000000000E+00  0.00000000000E+00  0.99438496345E+03  0.99438496345E+03  0.25500000920E-02 0. -1.
        2   -1    0    0  501    0  0.00000000000E+00  0.00000000000E+00 -0.49457041827E+03  0.49457041828E+03  0.25500000920E-02 0.  1.
    10030    2    1    2    0    0  0.00000000000E+00  0.00000000000E+00  0.49981454518E+03  0.14889553817E+04  0.14025596420E+04 0.  0.
        2    1    3    3  502    0 -0.54517210378E+03  0.38194895745E+03  0.15643079179E+02  0.66583957134E+03  0.25500000920E-02 0. -1.
       -2    1    3    3    0  502  0.54517210378E+03 -0.38194895745E+03  0.48417146600E+03  0.82311581039E+03  0.25500000920E-02 0.  1.
</event>
<event>
 5   0  0.1712327E-04  0.1401118E+04  0.7818609E-02  0.8953009E-01
       -2   -1    0    0    0  501  0.00000000000E+00  0.00000000000E+00  0.26628268785E+03  0.26628268786E+03  0.25500000920E-02 0. -1.
        2   -1    0    0  501    0  0.00000000000E+00  0.00000000000E+00 -0.18430907027E+04  0.18430907027E+04  0.25500000920E-02 0.  1.
    10030    2    1    2    0    0  0.00000000000E+00  0.00000000000E+00 -0.15768080149E+04  0.21093733906E+04  0.14011183337E+04 0.  0.
        1    1    3    3  502    0  0.65270102388E+03 -0.17614517572E+03 -0.51187898797E+03  0.84797750433E+03  0.50400001928E-02 0.  1.
       -1    1    3    3    0  502 -0.65270102388E+03  0.17614517572E+03 -0.10649290269E+04  0.12613958863E+04  0.50400001928E-02 0. -1.
</event>
<event>
 5   0  0.1833681E-04  0.1399280E+04  0.7818609E-02  0.8954340E-01
       -2   -1    0    0    0  501  0.00000000000E+00  0.00000000000E+00  0.35270864178E+03  0.35270864179E+03  0.25500000920E-02 0.  1.
        2   -1    0    0  501    0  0.00000000000E+00  0.00000000000E+00 -0.13878195869E+04  0.13878195869E+04  0.25500000920E-02 0. -1.
    10030    2    1    2    0    0  0.00000000000E+00  0.00000000000E+00 -0.10351109452E+04  0.17405282287E+04  0.13992797598E+04 0.  0.
        4    1    3    3  502    0  0.64902825733E+03 -0.17901368130E+03 -0.75425392015E+03  0.10110312388E+04  0.12699999809E+01 0. -1.
       -4    1    3    3    0  502 -0.64902825733E+03  0.17901368130E+03 -0.28085702501E+03  0.72949698992E+03  0.12699999809E+01 0.  1.
</event>
<event>
 5   0  0.1766237E-04  0.1401268E+04  0.7818609E-02  0.8952901E-01
       -2   -1    0    0    0  501  0.00000000000E+00  0.00000000000E+00  0.41442024804E+03  0.41442024805E+03  0.25500000920E-02 0. -1.
        2   -1    0    0  501    0  0.00000000000E+00  0.00000000000E+00 -0.11845168408E+04  0.11845168409E+04  0.25500000920E-02 0.  1.
    10030    2    1    2    0    0  0.00000000000E+00  0.00000000000E+00 -0.77009659281E+03  0.15989370889E+04  0.14012676589E+04 0.  0.
        3    1    3    3  502    0  0.43575354011E+03  0.54666335557E+03 -0.43815110886E+03  0.82504446937E+03  0.10100000352E+00 0.  1.
       -3    1    3    3    0  502 -0.43575354011E+03 -0.54666335557E+03 -0.33194548395E+03  0.77389261953E+03  0.10100000352E+00 0. -1.
</event>
<event>
 5   0  0.6671375E-05  0.1400545E+04  0.7818609E-02  0.8953424E-01
       -3   -1    0    0    0  501  0.00000000000E+00  0.00000000000E+00  0.20324550086E+04  0.20324550111E+04  0.10100000352E+00 0. -1.
        3   -1    0    0  501    0  0.00000000000E+00  0.00000000000E+00 -0.24127548956E+03  0.24127551070E+03  0.10100000352E+00 0.  1.
    10030    2    1    2    0    0  0.00000000000E+00  0.00000000000E+00  0.17911795191E+04  0.22737305218E+04  0.14005450426E+04 0.  0.
        1    1    3    3  502    0 -0.41922884642E+03 -0.53578869368E+03  0.11651002291E+04  0.13491778585E+04  0.50400001928E-02 0. -1.
       -1    1    3    3    0  502  0.41922884642E+03  0.53578869368E+03  0.62607928997E+03  0.92455266335E+03  0.50400001928E-02 0.  1.
</event>
<event>
 5   0  0.9260916E-05  0.1401177E+04  0.7818609E-02  0.8952967E-01
        1   -1    0    0  501    0  0.00000000000E+00  0.00000000000E+00  0.48057616734E+03  0.48057616737E+03  0.50400001928E-02 0. -1.
       -1   -1    0    0    0  501  0.00000000000E+00  0.00000000000E+00 -0.10213249992E+04  0.10213249992E+04  0.50400001928E-02 0.  1.
    10030    2    1    2    0    0  0.00000000000E+00  0.00000000000E+00 -0.54074883187E+03  0.15019011666E+04  0.14011772961E+04 0.  0.
        1    1    3    3  502    0  0.56566304761E+03 -0.16405556981E+02 -0.71307808105E+03  0.91034288893E+03  0.50400001928E-02 0.  1.
       -1    1    3    3    0  502 -0.56566304761E+03  0.16405556981E+02  0.17232924918E+03  0.59155827767E+03  0.50400001928E-02 0. -1.
</event>
<event>
 5   0  0.9900839E-05  0.1398747E+04  0.7818609E-02  0.8954726E-01
        1   -1    0    0  501    0  0.00000000000E+00  0.00000000000E+00  0.82643521933E+03  0.82643521935E+03  0.50400001928E-02 0.  1.
       -1   -1    0    0    0  501  0.00000000000E+00  0.00000000000E+00 -0.59184683206E+03  0.59184683209E+03  0.50400001928E-02 0. -1.
    10030    2    1    2    0    0  0.00000000000E+00  0.00000000000E+00  0.23458838727E+03  0.14182820514E+04  0.13987466768E+04 0.  0.
        3    1    3    3  502    0 -0.15999186933E+03  0.41945634585E+03  0.66105063307E+03  0.79908007985E+03  0.10100000352E+00 0.  1.
       -3    1    3    3    0  502  0.15999186933E+03 -0.41945634585E+03 -0.42646224580E+03  0.61920197159E+03  0.10100000352E+00 0. -1.
</event>
<event>
 5   0  0.9828111E-05  0.1400054E+04  0.7818609E-02  0.8953780E-01
        1   -1    0    0  501    0  0.00000000000E+00  0.00000000000E+00  0.46070004764E+03  0.46070004767E+03  0.50400001928E-02 0. -1.
       -1   -1    0    0    0  501  0.00000000000E+00  0.00000000000E+00 -0.10636802958E+04  0.10636802959E+04  0.50400001928E-02 0.  1.
    10030    2    1    2    0    0  0.00000000000E+00  0.00000000000E+00 -0.60298024820E+03  0.15243803435E+04  0.14000536604E+04 0.  0.
        4    1    3    3  502    0  0.35057912727E+02 -0.36417933899E+03  0.34831571192E+03  0.50515452711E+03  0.12699999809E+01 0. -1.
       -4    1    3    3    0  502 -0.35057912727E+02  0.36417933899E+03 -0.95129596012E+03  0.10192258164E+04  0.12699999809E+01 0.  1.
</event>
<event>
 5   0  0.9260916E-05  0.1399488E+04  0.7818609E-02  0.8954189E-01
        1   -1    0    0  501    0  0.00000000000E+00  0.00000000000E+00  0.10102589422E+04  0.10102589422E+04  0.50400001928E-02 0. -1.
       -1   -1    0    0    0  501  0.00000000000E+00  0.00000000000E+00 -0.48466923503E+03  0.48466923506E+03  0.50400001928E-02 0.  1.
    10030    2    1    2    0    0  0.00000000000E+00  0.00000000000E+00  0.52558970715E+03  0.14949281772E+04  0.13994876616E+04 0.  0.
        1    1    3    3  502    0 -0.16371448472E+03  0.13650637402E+03  0.97473417152E+03  0.99776907539E+03  0.50400001928E-02 0. -1.
       -1    1    3    3    0  502  0.16371448472E+03 -0.13650637402E+03 -0.44914446437E+03  0.49715910186E+03  0.50400001928E-02 0.  1.
</event>
<event>
 5   0  0.1712327E-04  0.1401376E+04  0.7818609E-02  0.8952823E-01
        2   -1    0    0  501    0  0.00000000000E+00  0.00000000000E+00  0.11012476513E+04  0.11012476513E+04  0.25500000920E-02 0.  1.
       -2   -1    0    0    0  501  0.00000000000E+00  0.00000000000E+00 -0.44582479426E+03  0.44582479427E+03  0.25500000920E-02 0. -1.
    10030    2    1    2    0    0  0.00000000000E+00  0.00000000000E+00  0.65542285705E+03  0.15470724456E+04  0.14013757634E+04 0.  0.
        1    1    3    3  502    0  0.61806195847E+03 -0.19287667167E+03  0.62344582588E+03  0.89882517367E+03  0.50400001928E-02 0.  1.
       -1    1    3    3    0  502 -0.61806195847E+03  0.19287667167E+03  0.31977031167E+02  0.64824727191E+03  0.50400001928E-02 0. -1.
</event>
<event>
 5   0  0.1833681E-04  0.1400935E+04  0.7818609E-02  0.8953142E-01
       -2   -1    0    0    0  501  0.00000000000E+00  0.00000000000E+00  0.11668338539E+04  0.11668338539E+04  0.25500000920E-02 0. -1.
        2   -1    0    0  501    0  0.00000000000E+00  0.00000000000E+00 -0.42050117555E+03  0.42050117556E+03  0.25500000920E-02 0.  1.
    10030    2    1    2    0    0  0.00000000000E+00  0.00000000000E+00  0.74633267837E+03  0.15873350295E+04  0.14009354122E+04 0.  0.
        4    1    3    3  502    0 -0.56247310466E+03 -0.33426000414E+03  0.89794957620E+02  0.66043204885E+03  0.12699999809E+01 0.  1.
       -4    1    3    3    0  502  0.56247310466E+03  0.33426000414E+03  0.65653772075E+03  0.92690298063E+03  0.12699999809E+01 0. -1.
</event>
<event>
 5   0  0.1794185E-04  0.1397228E+04  0.7818609E-02  0.8955828E-01
       -2   -1    0    0    0  501  0.00000000000E+00  0.00000000000E+00  0.30395600241E+03  0.30395600242E+03  0.25500000920E-02 0. -1.
        2   -1    0    0  501    0  0.00000000000E+00  0.00000000000E+00 -0.16056977471E+04  0.16056977471E+04  0.25500000920E-02 0.  1.
    10030    2    1    2    0    0  0.00000000000E+00  0.00000000000E+00 -0.13017417447E+04  0.19096537495E+04  0.13972279246E+04 0.  0.
        2    1    3    3  502    0 -0.66330955655E+03 -0.19612272859E+03 -0.78490787208E+03  0.10461950392E+04  0.25500000920E-02 0. -1.
       -2    1    3    3    0  502  0.66330955655E+03  0.19612272859E+03 -0.51683387264E+03  0.86345871030E+03  0.25500000920E-02 0.  1.
</event>
<event>
 5   0  0.6671375E-05  0.1404867E+04  0.7818609E-02  0.8950303E-01
        1   -1    0    0  501    0  0.00000000000E+00  0.00000000000E+00  0.10697223103E+04  0.10697223103E+04  0.50400001928E-02 0. -1.
       -1   -1    0    0    0  501  0.00000000000E+00  0.00000000000E+00 -0.46125320030E+03  0.46125320033E+03  0.50400001928E-02 0.  1.
    10030    2    1    2    0    0  0.00000000000E+00  0.00000000000E+00  0.60846910996E+03  0.15309755106E+04  0.14048670244E+04 0.  0.
        5    1    3    3  502    0 -0.24178608846E+03  0.42237269277E+03 -0.24772011657E+03  0.54611953850E+03  0.46999998093E+01 0.  1.
       -5    1    3    3    0  502  0.24178608846E+03 -0.42237269277E+03  0.85618922653E+03  0.98485597211E+03  0.46999998093E+01 0. -1.
</event>
<event>
 5   0  0.9900839E-05  0.1400159E+04  0.7818609E-02  0.8953703E-01
       -1   -1    0    0    0  501  0.00000000000E+00  0.00000000000E+00  0.90705108687E+03  0.90705108688E+03  0.50400001928E-02 0. -1.
        1   -1    0    0  501    0  0.00000000000E+00  0.00000000000E+00 -0.54033482676E+03  0.54033482678E+03  0.50400001928E-02 0.  1.
    10030    2    1    2    0    0  0.00000000000E+00  0.00000000000E+00  0.36671626011E+03  0.14473859137E+04  0.14001589794E+04 0.  0.
        3    1    3    3  502    0 -0.21639887101E+03 -0.52713680854E+03 -0.23706571655E+03  0.61717246411E+03  0.10100000352E+00 0.  1.
       -3    1    3    3    0  502  0.21639887101E+03  0.52713680854E+03  0.60378197665E+03  0.83021344956E+03  0.10100000352E+00 0. -1.
</event>
<event>
 5   0  0.1712327E-04  0.1402239E+04  0.7818609E-02  0.8952199E-01
       -2   -1    0    0    0  501  0.00000000000E+00  0.00000000000E+00  0.13315461083E+04  0.13315461083E+04  0.25500000920E-02 0.  1.
        2   -1    0    0  501    0  0.00000000000E+00  0.00000000000E+00 -0.36917137888E+03  0.36917137889E+03  0.25500000920E-02 0. -1.
    10030    2    1    2    0    0  0.00000000000E+00  0.00000000000E+00  0.96237472939E+03  0.17007174872E+04  0.14022392276E+04 0.  0.
        1    1    3    3  502    0 -0.29281750945E+02  0.31649608348E+03  0.12391428000E+04  0.12792584065E+04  0.50400001928E-02 0.  1.
       -1    1    3    3    0  502  0.29281750945E+02 -0.31649608348E+03 -0.27676807057E+03  0.42145908070E+03  0.50400001928E-02 0. -1.
</event>
<event>
 5   0  0.9828111E-05  0.1401334E+04  0.7818609E-02  0.8952854E-01
        1   -1    0    0  501    0  0.00000000000E+00  0.00000000000E+00  0.67609207237E+03  0.67609207239E+03  0.50400001928E-02 0.  1.
       -1   -1    0    0    0  501  0.00000000000E+00  0.00000000000E+00 -0.72613495385E+03  0.72613495387E+03  0.50400001928E-02 0. -1.
    10030    2    1    2    0    0  0.00000000000E+00  0.00000000000E+00 -0.50042881476E+02  0.14022270263E+04  0.14013337729E+04 0.  0.
        4    1    3    3  502    0 -0.68915933588E+03 -0.10099463310E+03  0.51132042844E+02  0.69839573656E+03  0.12699999809E+01 0.  1.
       -4    1    3    3    0  502  0.68915933588E+03  0.10099463310E+03 -0.10117492432E+03  0.70383128970E+03  0.12699999809E+01 0. -1.
</event>
<event>
 5   0  0.9900839E-05  0.1403188E+04  0.7818609E-02  0.8951514E-01
       -1   -1    0    0    0  501  0.00000000000E+00  0.00000000000E+00  0.31949461831E+03  0.31949461835E+03  0.50400001928E-02 0. -1.
        1   -1    0    0  501    0  0.00000000000E+00  0.00000000000E+00 -0.15406648666E+04  0.15406648666E+04  0.50400001928E-02 0.  1.
    10030    2    1    2    0    0  0.00000000000E+00  0.00000000000E+00 -0.12211702483E+04  0.18601594850E+04  0.14031879896E+04 0.  0.
        3    1    3    3  502    0 -0.52153468981E+03 -0.45554895819E+03 -0.46112635426E+03  0.83196202484E+03  0.10100000352E+00 0. -1.
       -3    1    3    3    0  502  0.52153468981E+03  0.45554895819E+03 -0.76004389406E+03  0.10281974602E+04  0.10100000352E+00 0.  1.
</event>
<event>
 5   0  0.9260916E-05  0.1401375E+04  0.7818609E-02  0.8952824E-01
       -1   -1    0    0    0  501  0.00000000000E+00  0.00000000000E+00  0.19516569034E+04  0.19516569034E+04  0.50400001928E-02 0.  1.
        1   -1    0    0  501    0  0.00000000000E+00  0.00000000000E+00 -0.25156208193E+03  0.25156208199E+03  0.50400001928E-02 0. -1.
    10030    2    1    2    0    0  0.00000000000E+00  0.00000000000E+00  0.17000948215E+04  0.22032189854E+04  0.14013748591E+04 0.  0.
        1    1    3    3  502    0 -0.25380370392E+03 -0.58122321858E+02  0.18727749069E+04  0.18907882950E+04  0.50400001928E-02 0.  1.
       -1    1    3    3    0  502  0.25380370392E+03  0.58122321858E+02 -0.17268008541E+03  0.31243069046E+03  0.50400001928E-02 0. -1.
</event>
<event>
 5   0  0.6671375E-05  0.1399511E+04  0.7818609E-02  0.8954172E-01
        1   -1    0    0  501    0  0.00000000000E+00  0.00000000000E+00  0.52921960384E+03  0.52921960386E+03  0.50400001928E-02 0. -1.
       -1   -1    0    0    0  501  0.00000000000E+00  0.00000000000E+00 -0.92524525809E+03  0.92524525811E+03  0.50400001928E-02 0.  1.
    10030    2    1    2    0    0  0.00000000000E+00  0.00000000000E+00 -0.39602565425E+03  0.14544648620E+04  0.13995112418E+04 0.  0.
        5    1    3    3  502    0 -0.51134070297E+03  0.75845486728E+02 -0.68813899442E+03  0.86068531881E+03  0.46999998093E+01 0.  1.
       -5    1    3    3    0  502  0.51134070297E+03 -0.75845486728E+02  0.29211334017E+03  0.59377954316E+03  0.46999998093E+01 0. -1.
</event>
<event>
 5   0  0.6671375E-05  0.1396256E+04  0.7818609E-02  0.8956533E-01
        1   -1    0    0  501    0  0.00000000000E+00  0.00000000000E+00  0.43611591299E+03  0.43611591301E+03  0.50400001928E-02 0.  1.
       -1   -1    0    0    0  501  0.00000000000E+00  0.00000000000E+00 -0.11175538080E+04  0.11175538080E+04  0.50400001928E-02 0. -1.
    10030    2    1    2    0    0  0.00000000000E+00  0.00000000000E+00 -0.68143789498E+03  0.15536697210E+04  0.13962564224E+04 0.  0.
        5    1    3    3  502    0 -0.35947663249E+03  0.34510438960E+03 -0.88475689072E+03  0.10154493265E+04  0.46999998093E+01 0. -1.
       -5    1    3    3    0  502  0.35947663249E+03 -0.34510438960E+03  0.20331899574E+03  0.53822039449E+03  0.46999998093E+01 0.  1.
</event>
<event>
 5   0  0.9900839E-05  0.1406670E+04  0.7818609E-02  0.8949004E-01
       -1   -1    0    0    0  501  0.00000000000E+00  0.00000000000E+00  0.10523889674E+04  0.10523889675E+04  0.50400001928E-02 0. -1.
        1   -1    0    0  501    0  0.00000000000E+00  0.00000000000E+00 -0.47005464985E+03  0.47005464988E+03  0.50400001928E-02 0.  1.
    10030    2    1    2    0    0  0.00000000000E+00  0.00000000000E+00  0.58233431758E+03  0.15224436173E+04  0.14066702920E+04 0.  0.
        3    1    3    3  502    0 -0.88244631831E+02  0.64595687655E+03  0.55684803213E+01  0.65198038282E+03  0.10100000352E+00 0.  1.
       -3    1    3    3    0  502  0.88244631831E+02 -0.64595687655E+03  0.57676583726E+03  0.87046323451E+03  0.10100000352E+00 0. -1.
</event>
<event>
 5   0  0.1833681E-04  0.1400803E+04  0.7818609E-02  0.8953237E-01
       -2   -1    0    0    0  501  0.00000000000E+00  0.00000000000E+00  0.48614514569E+03  0.48614514570E+03  0.25500000920E-02 0. -1.
        2   -1    0    0  501    0  0.00000000000E+00  0.00000000000E+00 -0.10090865790E+04  0.10090865790E+04  0.25500000920E-02 0.  1.
    10030    2    1    2    0    0  0.00000000000E+00  0.00000000000E+00 -0.52294143329E+03  0.14952317247E+04  0.14008034009E+04 0.  0.
        4    1    3    3  502    0  0.27824886624E+03 -0.48066878332E+03  0.19402210837E+03  0.58831207897E+03  0.12699999809E+01 0. -1.
       -4    1    3    3    0  502 -0.27824886624E+03  0.48066878332E+03 -0.71696354167E+03  0.90691964572E+03  0.12699999809E+01 0.  1.
</event>
<event>
 5   0  0.1712327E-04  0.1402499E+04  0.7818609E-02  0.8952011E-01
       -2   -1    0    0    0  501  0.00000000000E+00  0.00000000000E+00  0.36871236459E+03  0.36871236460E+03  0.25500000920E-02 0.  1.
        2   -1    0    0  501    0  0.00000000000E+00  0.00000000000E+00 -0.13336983960E+04  0.13336983960E+04  0.25500000920E-02 0. -1.
    10030    2    1    2    0    0  0.00000000000E+00  0.00000000000E+00 -0.96498603140E+03  0.17024107606E+04  0.14024993251E+04 0.  0.
        1    1    3    3  502    0 -0.22011755262E+03 -0.28992798907E+03  0.24504335896E+03  0.43881228744E+03  0.50400001928E-02 0.  1.
       -1    1    3    3    0  502  0.22011755262E+03  0.28992798907E+03 -0.12100293904E+04  0.12635984732E+04  0.50400001928E-02 0. -1.
</event>
<event>
 5   0  0.9828111E-05  0.1400253E+04  0.7818609E-02  0.8953635E-01
       -1   -1    0    0    0  501  0.00000000000E+00  0.00000000000E+00  0.54984503938E+03  0.54984503941E+03  0.50400001928E-02 0.  1.
        1   -1    0    0  501    0  0.00000000000E+00  0.00000000000E+00 -0.89148226461E+03  0.89148226463E+03  0.50400001928E-02 0. -1.
    10030    2    1    2    0    0  0.00000000000E+00  0.00000000000E+00 -0.34163722523E+03  0.14413273040E+04  0.14002529785E+04 0.  0.
        4    1    3    3  502    0  0.34085322981E+03  0.52190338156E+03  0.15729736411E+03  0.64289045538E+03  0.12699999809E+01 0.  1.
       -4    1    3    3    0  502 -0.34085322981E+03 -0.52190338156E+03 -0.49893458933E+03  0.79843684866E+03  0.12699999809E+01 0. -1.
</event>
<event>
 5   0  0.1780171E-04  0.1413058E+04  0.7818609E-02  0.8944420E-01
        2   -1    0    0  501    0  0.00000000000E+00  0.00000000000E+00  0.21590590034E+04  0.21590590034E+04  0.25500000920E-02 0.  1.
       -2   -1    0    0    0  501  0.00000000000E+00  0.00000000000E+00 -0.23120417752E+03  0.23120417753E+03  0.25500000920E-02 0. -1.
    10030    2    1    2    0    0  0.00000000000E+00  0.00000000000E+00  0.19278548258E+04  0.23902631809E+04  0.14130583302E+04 0.  0.
        5    1    3    3  502    0  0.21068410913E+03  0.35726108640E+03 -0.35730717549E+01  0.41479890855E+03  0.46999998093E+01 0.  1.
       -5    1    3    3    0  502 -0.21068410913E+03 -0.35726108640E+03  0.19314278976E+04  0.19754642723E+04  0.46999998093E+01 0. -1.
</event>
<event>
 5   0  0.9828111E-05  0.1400241E+04  0.7818609E-02  0.8953644E-01
        1   -1    0    0  501    0  0.00000000000E+00  0.00000000000E+00  0.14969247521E+04  0.14969247521E+04  0.50400001928E-02 0.  1.
       -1   -1    0    0    0  501  0.00000000000E+00  0.00000000000E+00 -0.32745024762E+03  0.32745024766E+03  0.50400001928E-02 0. -1.
    10030    2    1    2    0    0  0.00000000000E+00  0.00000000000E+00  0.11694745044E+04  0.18243749997E+04  0.14002405233E+04 0.  0.
        4    1    3    3  502    0 -0.38539749821E+03  0.23773850172E+03  0.12804375993E+04  0.13581505386E+04  0.12699999809E+01 0.  1.
       -4    1    3    3    0  502  0.38539749821E+03 -0.23773850172E+03 -0.11096309489E+03  0.46622446113E+03  0.12699999809E+01 0. -1.
</event>
<event>
 5   0  0.9260916E-05  0.1408921E+04  0.7818609E-02  0.8947387E-01
       -1   -1    0    0    0  501  0.00000000000E+00  0.00000000000E+00  0.47150205437E+03  0.47150205440E+03  0.50400001928E-02 0. -1.
        1   -1    0    0  501    0  0.00000000000E+00  0.00000000000E+00 -0.10525179464E+04  0.10525179465E+04  0.50400001928E-02 0.  1.
    10030    2    1    2    0    0  0.00000000000E+00  0.00000000000E+00 -0.58101589208E+03  0.15240200009E+04  0.14089206848E+04 0.  0.
        1    1    3    3  502    0 -0.41387373785E+02 -0.18982983925E+03  0.44194783693E+03  0.48276927530E+03  0.50400001928E-02 0. -1.
       -1    1    3    3    0  502  0.41387373785E+02  0.18982983925E+03 -0.10229637290E+04  0.10412507256E+04  0.50400001928E-02 0.  1.
</event>
<event>
 5   0  0.9260916E-05  0.1399358E+04  0.7818609E-02  0.8954283E-01
       -1   -1    0    0    0  501  0.00000000000E+00  0.00000000000E+00  0.75448617610E+03  0.75448617612E+03  0.50400001928E-02 0.  1.
        1   -1    0    0  501    0  0.00000000000E+00  0.00000000000E+00 -0.64885308323E+03  0.64885308325E+03  0.50400001928E-02 0. -1.
    10030    2    1    2    0    0  0.00000000000E+00  0.00000000000E+00  0.10563309287E+03  0.14033392594E+04  0.13993579694E+04 0.  0.
        1    1    3    3  502    0 -0.66164048185E+03  0.17829480193E+03  0.19461727379E+03  0.71234334903E+03  0.50400001928E-02 0. -1.
       -1    1    3    3    0  502  0.66164048185E+03 -0.17829480193E+03 -0.88984180916E+02  0.69099591034E+03  0.50400001928E-02 0.  1.
</event>
<event>
 5   0  0.9900839E-05  0.1398757E+04  0.7818609E-02  0.8954718E-01
        1   -1    0    0  501    0  0.00000000000E+00  0.00000000000E+00  0.48999268353E+03  0.48999268355E+03  0.50400001928E-02 0. -1.
       -1   -1    0    0    0  501  0.00000000000E+00  0.00000000000E+00 -0.99824057645E+03  0.99824057646E+03  0.50400001928E-02 0.  1.
    10030    2    1    2    0    0  0.00000000000E+00  0.00000000000E+00 -0.50824789292E+03  0.14882332600E+04  0.13987574184E+04 0.  0.
        3    1    3    3  502    0 -0.24305255038E+03 -0.11416744825E+03  0.43295713906E+03  0.50947094417E+03  0.10100000352E+00 0. -1.
       -3    1    3    3    0  502  0.24305255038E+03  0.11416744825E+03 -0.94120503198E+03  0.97876231585E+03  0.10100000352E+00 0.  1.
</event>
<event>
 5   0  0.1780171E-04  0.1399623E+04  0.7818609E-02  0.8954091E-01
       -2   -1    0    0    0  501  0.00000000000E+00  0.00000000000E+00  0.53591399425E+03  0.53591399426E+03  0.25500000920E-02 0.  1.
        2   -1    0    0  501    0  0.00000000000E+00  0.00000000000E+00 -0.91383387516E+03  0.91383387516E+03  0.25500000920E-02 0. -1.
    10030    2    1    2    0    0  0.00000000000E+00  0.00000000000E+00 -0.37791988091E+03  0.14497478694E+04  0.13996233238E+04 0.  0.
        5    1    3    3  502    0  0.21403585516E+03 -0.54669713014E+02 -0.87675384882E+03  0.90416786396E+03  0.46999998093E+01 0. -1.
       -5    1    3    3    0  502 -0.21403585516E+03  0.54669713014E+02  0.49883396791E+03  0.54558000545E+03  0.46999998093E+01 0.  1.
</event>
<event>
 5   0  0.1712327E-04  0.1399315E+04  0.7818609E-02  0.8954314E-01
        2   -1    0    0  501    0  0.00000000000E+00  0.00000000000E+00  0.11438234844E+04  0.11438234844E+04  0.25500000920E-02 0.  1.
       -2   -1    0    0    0  501  0.00000000000E+00  0.00000000000E+00 -0.42796879841E+03  0.42796879842E+03  0.25500000920E-02 0. -1.
    10030    2    1    2    0    0  0.00000000000E+00  0.00000000000E+00  0.71585468597E+03  0.15717922828E+04  0.13993152071E+04 0.  0.
        1    1    3    3  502    0 -0.38861336449E+03  0.11536936840E+03  0.99847051426E+03  0.10776241488E+04  0.50400001928E-02 0.  1.
       -1    1    3    3    0  502  0.38861336449E+03 -0.11536936840E+03 -0.28261582829E+03  0.49416813399E+03  0.50400001928E-02 0. -1.
</event>
<event>
 5   0  0.9828111E-05  0.1400169E+04  0.7818609E-02  0.8953696E-01
       -1   -1    0    0    0  501  0.00000000000E+00  0.00000000000E+00  0.58504520479E+03  0.58504520481E+03  0.50400001928E-02 0.  1.
        1   -1    0    0  501    0  0.00000000000E+00  0.00000000000E+00 -0.83774429320E+03  0.83774429321E+03  0.50400001928E-02 0. -1.
    10030    2    1    2    0    0  0.00000000000E+00  0.00000000000E+00 -0.25269908841E+03  0.14227894980E+04  0.14001689635E+04 0.  0.
        4    1    3    3  502    0 -0.45247635579E+03  0.13804481340E+03 -0.65075419581E+03  0.80453331772E+03  0.12699999809E+01 0. -1.
       -4    1    3    3    0  502  0.45247635579E+03 -0.13804481340E+03  0.39805510740E+03  0.61825618031E+03  0.12699999809E+01 0.  1.
</event>
<event>
 5   0  0.9900839E-05  0.1399510E+04  0.7818609E-02  0.8954174E-01
        1   -1    0    0  501    0  0.00000000000E+00  0.00000000000E+00  0.14887481833E+04  0.14887481833E+04  0.50400001928E-02 0.  1.
       -1   -1    0    0    0  501  0.00000000000E+00  0.00000000000E+00 -0.32890510202E+03  0.32890510205E+03  0.50400001928E-02 0. -1.
    10030    2    1    2    0    0  0.00000000000E+00  0.00000000000E+00  0.11598430812E+04  0.18176532853E+04  0.13995097329E+04 0.  0.
        3    1    3    3  502    0 -0.60763385419E+03 -0.93783726098E+02  0.10138818846E+04  0.11857363848E+04  0.10100000352E+00 0.  1.
       -3    1    3    3    0  502  0.60763385419E+03  0.93783726098E+02  0.14596119660E+03  0.63191690052E+03  0.10100000352E+00 0. -1.
</event>
<event>
 5   0  0.1780171E-04  0.1397508E+04  0.7818609E-02  0.8955625E-01
        2   -1    0    0  501    0  0.00000000000E+00  0.00000000000E+00  0.23829561749E+04  0.23829561749E+04  0.25500000920E-02 0. -1.
       -2   -1    0    0    0  501  0.00000000000E+00  0.00000000000E+00 -0.20489544685E+03  0.20489544687E+03  0.25500000920E-02 0.  1.
    10030    2    1    2    0    0  0.00000000000E+00  0.00000000000E+00  0.21780607281E+04  0.25878516218E+04  0.13975075961E+04 0.  0.
        5    1    3    3  502    0  0.53191244328E+03  0.11821006342E+03  0.18990155699E+04  0.19756484229E+04  0.46999998093E+01 0. -1.
       -5    1    3    3    0  502 -0.53191244328E+03 -0.11821006342E+03  0.27904515824E+03  0.61220319890E+03  0.46999998093E+01 0.  1.
</event>
<event>
 5   0  0.9900839E-05  0.1400280E+04  0.7818609E-02  0.8953616E-01
        1   -1    0    0  501    0  0.00000000000E+00  0.00000000000E+00  0.63852100562E+03  0.63852100564E+03  0.50400001928E-02 0. -1.
       -1   -1    0    0    0  501  0.00000000000E+00  0.00000000000E+00 -0.76770500009E+03  0.76770500011E+03  0.50400001928E-02 0.  1.
    10030    2    1    2    0    0  0.00000000000E+00  0.00000000000E+00 -0.12918399447E+03  0.14062260058E+04  0.14002796417E+04 0.  0.
        3    1    3    3  502    0  0.46842297467E+03 -0.41212609498E+03 -0.38363238289E+03  0.73242188441E+03  0.10100000352E+00 0.  1.
       -3    1    3    3    0  502 -0.46842297467E+03  0.41212609498E+03  0.25444838843E+03  0.67380412134E+03  0.10100000352E+00 0. -1.
</event>
<event>
 5   0  0.9900839E-05  0.1400020E+04  0.7818609E-02  0.8953804E-01
       -1   -1    0    0    0  501  0.00000000000E+00  0.00000000000E+00  0.51225372096E+03  0.51225372098E+03  0.50400001928E-02 0.  1.
        1   -1    0    0  501    0  0.00000000000E+00  0.00000000000E+00 -0.95658488121E+03  0.95658488123E+03  0.50400001928E-02 0. -1.
    10030    2    1    2    0    0  0.00000000000E+00  0.00000000000E+00 -0.44433116025E+03  0.14688386022E+04  0.14000202353E+04 0.  0.
        3    1    3    3  502    0 -0.13128979436E+03  0.27574517111E+03 -0.88300161153E+03  0.93432556727E+03  0.10100000352E+00 0. -1.
       -3    1    3    3    0  502  0.13128979436E+03 -0.27574517111E+03  0.43867045128E+03  0.53451303494E+03  0.10100000352E+00 0.  1.
</event>
<event>
 5   0  0.1833681E-04  0.1398725E+04  0.7818609E-02  0.8954742E-01
       -2   -1    0    0    0  501  0.00000000000E+00  0.00000000000E+00  0.44210088020E+03  0.44210088020E+03  0.25500000920E-02 0. -1.
        2   -1    0    0  501    0  0.00000000000E+00  0.00000000000E+00 -0.11063268205E+04  0.11063268205E+04  0.25500000920E-02 0.  1.
    10030    2    1    2    0    0  0.00000000000E+00  0.00000000000E+00 -0.66422594028E+03  0.15484277007E+04  0.13987252212E+04 0.  0.
        4    1    3    3  502    0  0.62977988598E+01 -0.39041245679E+03  0.31019682580E+03  0.49868349915E+03  0.12699999809E+01 0. -1.
       -4    1    3    3    0  502 -0.62977988598E+01  0.39041245679E+03 -0.97442276609E+03  0.10497442015E+04  0.12699999809E+01 0.  1.
</event>
<event>
 5   0  0.1794185E-04  0.1400649E+04  0.7818609E-02  0.8953349E-01
       -2   -1    0    0    0  501  0.00000000000E+00  0.00000000000E+00  0.34104771394E+03  0.34104771395E+03  0.25500000920E-02 0. -1.
        2   -1    0    0  501    0  0.00000000000E+00  0.00000000000E+00 -0.14380814230E+04  0.14380814230E+04  0.25500000920E-02 0.  1.
    10030    2    1    2    0    0  0.00000000000E+00  0.00000000000E+00 -0.10970337090E+04  0.17791291369E+04  0.14006489664E+04 0.  0.
        2    1    3    3  502    0  0.21748677518E+03  0.65068366258E+03 -0.72709273219E+03  0.99967673141E+03  0.25500000920E-02 0.  1.
       -2    1    3    3    0  502 -0.21748677518E+03 -0.65068366258E+03 -0.36994097686E+03  0.77945240553E+03  0.25500000920E-02 0. -1.
</event>
<event>
 5   0  0.9978422E-05  0.1401009E+04  0.7818609E-02  0.8953089E-01
       -1   -1    0    0    0  501  0.00000000000E+00  0.00000000000E+00  0.43812335175E+03  0.43812335178E+03  0.50400001928E-02 0.  1.
        1   -1    0    0  501    0  0.00000000000E+00  0.00000000000E+00 -0.11200188044E+04  0.11200188044E+04  0.50400001928E-02 0. -1.
    10030    2    1    2    0    0  0.00000000000E+00  0.00000000000E+00 -0.68189545263E+03  0.15581421562E+04  0.14010087689E+04 0.  0.
        2    1    3    3  502    0  0.97469373039E+02 -0.45957931960E+03 -0.91883409009E+03  0.10319736018E+04  0.25500000920E-02 0. -1.
       -2    1    3    3    0  502 -0.97469373039E+02  0.45957931960E+03  0.23693863746E+03  0.52616855437E+03  0.25500000920E-02 0.  1.
</event>
<event>
 5   0  0.1794185E-04  0.1410156E+04  0.7818609E-02  0.8946500E-01
       -2   -1    0    0    0  501  0.00000000000E+00  0.00000000000E+00  0.74306727360E+03  0.74306727361E+03  0.25500000920E-02 0. -1.
        2   -1    0    0  501    0  0.00000000000E+00  0.00000000000E+00 -0.66903096450E+03  0.66903096450E+03  0.25500000920E-02 0.  1.
    10030    2    1    2    0    0  0.00000000000E+00  0.00000000000E+00  0.74036309107E+02  0.14120982381E+04  0.14101560407E+04 0.  0.
        2    1    3    3  502    0 -0.44697922726E+03 -0.51043733045E+03 -0.15507492375E+03  0.69597767916E+03  0.25500000920E-02 0. -1.
       -2    1    3    3    0  502  0.44697922726E+03  0.51043733045E+03  0.22911123286E+03  0.71612055894E+03  0.25500000920E-02 0.  1.
</event>
<event>
 5   0  0.9978422E-05  0.1398865E+04  0.7818609E-02  0.8954640E-01
       -1   -1    0    0    0  501  0.00000000000E+00  0.00000000000E+00  0.82282672253E+03  0.82282672255E+03  0.50400001928E-02 0. -1.
        1   -1    0    0  501    0  0.00000000000E+00  0.00000000000E+00 -0.59454318832E+03  0.59454318835E+03  0.50400001928E-02 0.  1.
    10030    2    1    2    0    0  0.00000000000E+00  0.00000000000E+00  0.22828353421E+03  0.14173699109E+04  0.13988652874E+04 0.  0.
        2    1    3    3  502    0 -0.33218008359E+03 -0.49115583512E+03 -0.26174867611E+03  0.64814352713E+03  0.25500000920E-02 0.  1.
       -2    1    3    3    0  502  0.33218008359E+03  0.49115583512E+03  0.49003221032E+03  0.76922638376E+03  0.25500000920E-02 0. -1.
</event>
<event>
 5   0  0.6671375E-05  0.1400598E+04  0.7818609E-02  0.8953386E-01
       -1   -1    0    0    0  501  0.00000000000E+00  0.00000000000E+00  0.31169899907E+03  0.31169899911E+03  0.50400001928E-02 0. -1.
        1   -1    0    0  501    0  0.00000000000E+00  0.00000000000E+00 -0.15733717106E+04  0.15733717106E+04  0.50400001928E-02 0.  1.
    10030    2    1    2    0    0  0.00000000000E+00  0.00000000000E+00 -0.12616727115E+04  0.18850707097E+04  0.14005975687E+04 0.  0.
        5    1    3    3  502    0  0.63770022104E+03  0.26827351640E+03 -0.77681611127E+03  0.10402392091E+04  0.46999998093E+01 0.  1.
       -5    1    3    3    0  502 -0.63770022104E+03 -0.26827351640E+03 -0.48485660022E+03  0.84483150054E+03  0.46999998093E+01 0. -1.
</event>
<event>
 5   0  0.9260916E-05  0.1398825E+04  0.7818609E-02  0.8954669E-01
        1   -1    0    0  501    0  0.00000000000E+00  0.00000000000E+00  0.51545812029E+03  0.51545812031E+03  0.50400001928E-02 0.  1.
       -1   -1    0    0    0  501  0.00000000000E+00  0.00000000000E+00 -0.94901630128E+03  0.94901630129E+03  0.50400001928E-02 0. -1.
    10030    2    1    2    0    0  0.00000000000E+00  0.00000000000E+00 -0.43355818099E+03  0.14644744216E+04  0.13988254484E+04 0.  0.
        1    1    3    3  502    0 -0.51210649028E+03 -0.19425763128E+03  0.23859287674E+03  0.59742417557E+03  0.50400001928E-02 0.  1.
       -1    1    3    3    0  502  0.51210649028E+03  0.19425763128E+03 -0.67215105774E+03  0.86705024603E+03  0.50400001928E-02 0. -1.
</event>
<event>
 5   0  0.1794185E-04  0.1405495E+04  0.7818609E-02  0.8949851E-01
       -2   -1    0    0    0  501  0.00000000000E+00  0.00000000000E+00  0.55103370844E+03  0.55103370845E+03  0.25500000920E-02 0.  1.
        2   -1    0    0  501    0  0.00000000000E+00  0.00000000000E+00 -0.89623193557E+03  0.89623193557E+03  0.25500000920E-02 0. -1.
    10030    2    1    2    0    0  0.00000000000E+00  0.00000000000E+00 -0.34519822713E+03  0.14472656440E+04  0.14054949407E+04 0.  0.
        2    1    3    3  502    0 -0.49163372425E+03  0.52713212458E+02  0.34161319349E+03  0.60098417247E+03  0.25500000920E-02 0.  1.
       -2    1    3    3    0  502  0.49163372425E+03 -0.52713212458E+02 -0.68681142062E+03  0.84628147155E+03  0.25500000920E-02 0. -1.
</event>
<event>
 5   0  0.1833681E-04  0.1411073E+04  0.7818609E-02  0.8945842E-01
        2   -1    0    0  501    0  0.00000000000E+00  0.00000000000E+00  0.86127324371E+03  0.86127324371E+03  0.25500000920E-02 0. -1.
       -2   -1    0    0    0  501  0.00000000000E+00  0.00000000000E+00 -0.57796071448E+03  0.57796071449E+03  0.25500000920E-02 0.  1.
    10030    2    1    2    0    0  0.00000000000E+00  0.00000000000E+00  0.28331252922E+03  0.14392339582E+04  0.14110734911E+04 0.  0.
        4    1    3    3  502    0  0.12796138196E+03 -0.37123326972E+03  0.73952168026E+03  0.83730650558E+03  0.12699999809E+01 0. -1.
       -4    1    3    3    0  502 -0.12796138196E+03  0.37123326972E+03 -0.45620915103E+03  0.60192745261E+03  0.12699999809E+01 0.  1.
</event>
<event>
 5   0  0.1712327E-04  0.1396439E+04  0.7818609E-02  0.8956400E-01
       -2   -1    0    0    0  501  0.00000000000E+00  0.00000000000E+00  0.31600671523E+03  0.31600671524E+03  0.25500000920E-02 0.  1.
        2   -1    0    0  501    0  0.00000000000E+00  0.00000000000E+00 -0.15427227275E+04  0.15427227275E+04  0.25500000920E-02 0. -1.
    10030    2    1    2    0    0  0.00000000000E+00  0.00000000000E+00 -0.12267160122E+04  0.18587294427E+04  0.13964393888E+04 0.  0.
        1    1    3    3  502    0  0.35407266771E+03  0.56305659104E+03 -0.89606282481E+03  0.11159429935E+04  0.50400001928E-02 0.  1.
       -1    1    3    3    0  502 -0.35407266771E+03 -0.56305659104E+03 -0.33065318742E+03  0.74278644920E+03  0.50400001928E-02 0. -1.
</event>
<event>
 5   0  0.1712327E-04  0.1400443E+04  0.7818609E-02  0.8953498E-01
        2   -1    0    0  501    0  0.00000000000E+00  0.00000000000E+00  0.41617781328E+03  0.41617781329E+03  0.25500000920E-02 0. -1.
       -2   -1    0    0    0  501  0.00000000000E+00  0.00000000000E+00 -0.11781266928E+04  0.11781266928E+04  0.25500000920E-02 0.  1.
    10030    2    1    2    0    0  0.00000000000E+00  0.00000000000E+00 -0.76194887951E+03  0.15943045061E+04  0.14004430596E+04 0.  0.
        1    1    3    3  502    0  0.24832992899E+03 -0.79532593553E+02  0.35884391492E+03  0.44357878936E+03  0.50400001928E-02 0. -1.
       -1    1    3    3    0  502 -0.24832992899E+03  0.79532593553E+02 -0.11207927944E+04  0.11507257167E+04  0.50400001928E-02 0.  1.
</event>
<event>
 5   0  0.9978422E-05  0.1400854E+04  0.7818609E-02  0.8953201E-01
        1   -1    0    0  501    0  0.00000000000E+00  0.00000000000E+00  0.60549795695E+03  0.60549795697E+03  0.50400001928E-02 0. -1.
       -1   -1    0    0    0  501  0.00000000000E+00  0.00000000000E+00 -0.81023871087E+03  0.81023871089E+03  0.50400001928E-02 0.  1.
    10030    2    1    2    0    0  0.00000000000E+00  0.00000000000E+00 -0.20474075392E+03  0.14157366679E+04  0.14008538598E+04 0.  0.
        2    1    3    3  502    0 -0.56489439289E+02  0.16972514150E+03  0.58202453329E+03  0.60889263238E+03  0.25500000920E-02 0. -1.
       -2    1    3    3    0  502  0.56489439289E+02 -0.16972514150E+03 -0.78676528722E+03  0.80684403548E+03  0.25500000920E-02 0.  1.
</event>
<event>
 5   0  0.6671375E-05  0.1396367E+04  0.7818609E-02  0.8956453E-01
        4   -1    0    0  501    0  0.00000000000E+00  0.00000000000E+00  0.70368829003E+03  0.70368943607E+03  0.12699999809E+01 0. -1.
       -4   -1    0    0    0  501  0.00000000000E+00  0.00000000000E+00 -0.69271920010E+03  0.69272036428E+03  0.12699999809E+01 0.  1.
    10030    2    1    2    0    0  0.00000000000E+00  0.00000000000E+00  0.10969089934E+02  0.13964098003E+04  0.13963667174E+04 0.  0.
        1    1    3    3  502    0 -0.18663065164E+02 -0.60940028281E+03  0.34570525268E+03  0.70087740472E+03  0.50400001928E-02 0. -1.
       -1    1    3    3    0  502  0.18663065164E+02  0.60940028281E+03 -0.33473616275E+03  0.69553239563E+03  0.50400001928E-02 0.  1.
</event>
<event>
 5   0  0.1712327E-04  0.1399459E+04  0.7818609E-02  0.8954210E-01
        2   -1    0    0  501    0  0.00000000000E+00  0.00000000000E+00  0.17759850419E+04  0.17759850419E+04  0.25500000920E-02 0. -1.
       -2   -1    0    0    0  501  0.00000000000E+00  0.00000000000E+00 -0.27569013365E+03  0.27569013367E+03  0.25500000920E-02 0.  1.
    10030    2    1    2    0    0  0.00000000000E+00  0.00000000000E+00  0.15002949082E+04  0.20516751755E+04  0.13994592578E+04 0.  0.
        1    1    3    3  502    0  0.58605262584E+03  0.33767209293E+03  0.48731381503E+03  0.83363953657E+03  0.50400001928E-02 0.  1.
       -1    1    3    3    0  502 -0.58605262584E+03 -0.33767209293E+03  0.10129810932E+04  0.12180356390E+04  0.50400001928E-02 0. -1.
</event>
<event>
 5   0  0.1780171E-04  0.1365349E+04  0.7818609E-02  0.8979290E-01
       -2   -1    0    0    0  501  0.00000000000E+00  0.00000000000E+00  0.54241410453E+03  0.54241410453E+03  0.25500000920E-02 0.  1.
        2   -1    0    0  501    0  0.00000000000E+00  0.00000000000E+00 -0.85920459952E+03  0.85920459952E+03  0.25500000920E-02 0. -1.
    10030    2    1    2    0    0  0.00000000000E+00  0.00000000000E+00 -0.31679049499E+03  0.14016187041E+04  0.13653493230E+04 0.  0.
        5    1    3    3  502    0  0.39113099619E+03 -0.67838844437E+02 -0.72851930497E+03  0.82966742295E+03  0.46999998093E+01 0. -1.
       -5    1    3    3    0  502 -0.39113099619E+03  0.67838844437E+02  0.41172880997E+03  0.57195128110E+03  0.46999998093E+01 0.  1.
</event>
<event>
 5   0  0.1833681E-04  0.1399686E+04  0.7818609E-02  0.8954046E-01
       -2   -1    0    0    0  501  0.00000000000E+00  0.00000000000E+00  0.80986445502E+03  0.80986445503E+03  0.25500000920E-02 0. -1.
        2   -1    0    0  501    0  0.00000000000E+00  0.00000000000E+00 -0.60476830143E+03  0.60476830144E+03  0.25500000920E-02 0.  1.
    10030    2    1    2    0    0  0.00000000000E+00  0.00000000000E+00  0.20509615359E+03  0.14146327565E+04  0.13996861803E+04 0.  0.
        4    1    3    3  502    0  0.11306837940E+03  0.23253807202E+03 -0.55471965889E+03  0.61202444904E+03  0.12699999809E+01 0.  1.
       -4    1    3    3    0  502 -0.11306837940E+03 -0.23253807202E+03  0.75981581248E+03  0.80260830743E+03  0.12699999809E+01 0. -1.
</event>
<event>
 5   0  0.9260916E-05  0.1398179E+04  0.7818609E-02  0.8955137E-01
       -1   -1    0    0    0  501  0.00000000000E+00  0.00000000000E+00  0.27095733046E+03  0.27095733050E+03  0.50400001928E-02 0. -1.
        1   -1    0    0  501    0  0.00000000000E+00  0.00000000000E+00 -0.18037024004E+04  0.18037024004E+04  0.50400001928E-02 0.  1.
    10030    2    1    2    0    0  0.00000000000E+00  0.00000000000E+00 -0.15327450700E+04  0.20746597309E+04  0.13981793696E+04 0.  0.
        1    1    3    3  502    0  0.37850236127E+03  0.52058081141E+03 -0.36148017726E+03  0.73819803391E+03  0.50400001928E-02 0.  1.
       -1    1    3    3    0  502 -0.37850236127E+03 -0.52058081141E+03 -0.11712648927E+04  0.13364616970E+04  0.50400001928E-02 0. -1.
</event>
<event>
 5   0  0.1766237E-04  0.1401504E+04  0.7818609E-02  0.8952731E-01
        2   -1    0    0  501    0  0.00000000000E+00  0.00000000000E+00  0.21096082610E+04  0.21096082610E+04  0.25500000920E-02 0. -1.
       -2   -1    0    0    0  501  0.00000000000E+00  0.00000000000E+00 -0.23276983668E+03  0.23276983670E+03  0.25500000920E-02 0.  1.
    10030    2    1    2    0    0  0.00000000000E+00  0.00000000000E+00  0.18768384243E+04  0.23423780977E+04  0.14015037216E+04 0.  0.
        3    1    3    3  502    0 -0.45495837954E+03 -0.18634742936E+03  0.10385587286E+03  0.50249233235E+03  0.10100000352E+00 0.  1.
       -3    1    3    3    0  502  0.45495837954E+03  0.18634742936E+03  0.17729825514E+04  0.18398857653E+04  0.10100000352E+00 0. -1.
</event>
<event>
 5   0  0.1712327E-04  0.1401229E+04  0.7818609E-02  0.8952930E-01
        2   -1    0    0  501    0  0.00000000000E+00  0.00000000000E+00  0.80623822438E+03  0.80623822438E+03  0.25500000920E-02 0.  1.
       -2   -1    0    0    0  501  0.00000000000E+00  0.00000000000E+00 -0.60882807785E+03  0.60882807786E+03  0.25500000920E-02 0. -1.
    10030    2    1    2    0    0  0.00000000000E+00  0.00000000000E+00  0.19741014652E+03  0.14150663022E+04  0.14012287015E+04 0.  0.
        1    1    3    3  502    0 -0.41847923280E+03 -0.25582621074E+03 -0.40652390903E+03  0.63705070993E+03  0.50400001928E-02 0. -1.
       -1    1    3    3    0  502  0.41847923280E+03  0.25582621074E+03  0.60393405555E+03  0.77801559231E+03  0.50400001928E-02 0.  1.
</event>
<event>
 5   0  0.9828111E-05  0.1399170E+04  0.7818609E-02  0.8954420E-01
        1   -1    0    0  501    0  0.00000000000E+00  0.00000000000E+00  0.87190817432E+03  0.87190817433E+03  0.50400001928E-02 0. -1.
       -1   -1    0    0    0  501  0.00000000000E+00  0.00000000000E+00 -0.56131960335E+03  0.56131960337E+03  0.50400001928E-02 0.  1.
    10030    2    1    2    0    0  0.00000000000E+00  0.00000000000E+00  0.31058857097E+03  0.14332277777E+04  0.13991699691E+04 0.  0.
        4    1    3    3  502    0  0.18221001614E+03 -0.29050591831E+03 -0.46932167398E+03  0.58125607534E+03  0.12699999809E+01 0.  1.
       -4    1    3    3    0  502 -0.18221001614E+03  0.29050591831E+03  0.77991024495E+03  0.85197170236E+03  0.12699999809E+01 0. -1.
</event>
<event>
 5   0  0.1766237E-04  0.1399034E+04  0.7818609E-02  0.8954518E-01
       -2   -1    0    0    0  501  0.00000000000E+00  0.00000000000E+00  0.77385107869E+03  0.77385107869E+03  0.25500000920E-02 0. -1.
        2   -1    0    0  501    0  0.00000000000E+00  0.00000000000E+00 -0.63232318944E+03  0.63232318945E+03  0.25500000920E-02 0.  1.
    10030    2    1    2    0    0  0.00000000000E+00  0.00000000000E+00  0.14152788925E+03  0.14061742681E+04  0.13990339270E+04 0.  0.
        3    1    3    3  502    0  0.29932403666E+03 -0.64471529263E+01  0.70619904076E+03  0.76704207191E+03  0.10100000352E+00 0. -1.
       -3    1    3    3    0  502 -0.29932403666E+03  0.64471529263E+01 -0.56467115152E+03  0.63913219623E+03  0.10100000352E+00 0.  1.
</event>
<event>
 5   0  0.1712327E-04  0.1400069E+04  0.7818609E-02  0.8953769E-01
       -2   -1    0    0    0  501  0.00000000000E+00  0.00000000000E+00  0.84933862219E+03  0.84933862220E+03  0.25500000920E-02 0. -1.
        2   -1    0    0  501    0  0.00000000000E+00  0.00000000000E+00 -0.57697615832E+03  0.57697615833E+03  0.25500000920E-02 0.  1.
    10030    2    1    2    0    0  0.00000000000E+00  0.00000000000E+00  0.27236246387E+03  0.14263147805E+04  0.14000687631E+04 0.  0.
        1    1    3    3  502    0 -0.63453549140E+03  0.12110848365E+02  0.43712751338E+03  0.77062469820E+03  0.50400001928E-02 0. -1.
       -1    1    3    3    0  502  0.63453549140E+03 -0.12110848365E+02 -0.16476504951E+03  0.65569008233E+03  0.50400001928E-02 0.  1.
</event>
<event>
 5   0  0.9978422E-05  0.1398840E+04  0.7818609E-02  0.8954658E-01
       -1   -1    0    0    0  501  0.00000000000E+00  0.00000000000E+00  0.26184942975E+03  0.26184942979E+03  0.50400001928E-02 0.  1.
        1   -1    0    0  501    0  0.00000000000E+00  0.00000000000E+00 -0.18682059106E+04  0.18682059106E+04  0.50400001928E-02 0. -1.
    10030    2    1    2    0    0  0.00000000000E+00  0.00000000000E+00 -0.16063564808E+04  0.21300553404E+04  0.13988404518E+04 0.  0.
        2    1    3    3  502    0  0.53349264729E+03  0.19652551694E+03 -0.14234955624E+04  0.15328327696E+04  0.25500000920E-02 0. -1.
       -2    1    3    3    0  502 -0.53349264729E+03 -0.19652551694E+03 -0.18286091848E+03  0.59722257077E+03  0.25500000920E-02 0.  1.
</event>
<event>
 5   0  0.1780171E-04  0.1399941E+04  0.7818609E-02  0.8953862E-01
        2   -1    0    0  501    0  0.00000000000E+00  0.00000000000E+00  0.10282495042E+04  0.10282495042E+04  0.25500000920E-02 0.  1.
       -2   -1    0    0    0  501  0.00000000000E+00  0.00000000000E+00 -0.47649754745E+03  0.47649754745E+03  0.25500000920E-02 0. -1.
    10030    2    1    2    0    0  0.00000000000E+00  0.00000000000E+00  0.55175195678E+03  0.15047470517E+04  0.13999405229E+04 0.  0.
        5    1    3    3  502    0 -0.37712898774E+03  0.46713792300E+02 -0.35594701895E+03  0.52070031889E+03  0.46999998093E+01 0. -1.
       -5    1    3    3    0  502  0.37712898774E+03 -0.46713792300E+02  0.90769897573E+03  0.98404673280E+03  0.46999998093E+01 0.  1.
</event>
<event>
 5   0  0.9260916E-05  0.1405189E+04  0.7818609E-02  0.8950071E-01
       -1   -1    0    0    0  501  0.00000000000E+00  0.00000000000E+00  0.57360439548E+03  0.57360439550E+03  0.50400001928E-02 0. -1.
        1   -1    0    0  501    0  0.00000000000E+00  0.00000000000E+00 -0.86059132285E+03  0.86059132287E+03  0.50400001928E-02 0.  1.
    10030    2    1    2    0    0  0.00000000000E+00  0.00000000000E+00 -0.28698692738E+03  0.14341957184E+04  0.14051889062E+04 0.  0.
        1    1    3    3  502    0 -0.38981013109E+03  0.54010465643E+02 -0.73754772442E+03  0.83596992441E+03  0.50400001928E-02 0.  1.
       -1    1    3    3    0  502  0.38981013109E+03 -0.54010465643E+02  0.45056079704E+03  0.59822579396E+03  0.50400001928E-02 0. -1.
</event>
<event>
 5   0  0.1712327E-04  0.1398167E+04  0.7818609E-02  0.8955146E-01
       -2   -1    0    0    0  501  0.00000000000E+00  0.00000000000E+00  0.59857103439E+03  0.59857103440E+03  0.25500000920E-02 0.  1.
        2   -1    0    0  501    0  0.00000000000E+00  0.00000000000E+00 -0.81647449993E+03  0.81647449993E+03  0.25500000920E-02 0. -1.
    10030    2    1    2    0    0  0.00000000000E+00  0.00000000000E+00 -0.21790346553E+03  0.14150455343E+04  0.13981673519E+04 0.  0.
        1    1    3    3  502    0 -0.40631172443E+03 -0.54914484984E+03 -0.25930042600E+03  0.73067502658E+03  0.50400001928E-02 0. -1.
       -1    1    3    3    0  502  0.40631172443E+03  0.54914484984E+03  0.41396960464E+02  0.68437050775E+03  0.50400001928E-02 0.  1.
</event>
<event>
 5   0  0.1794185E-04  0.1400240E+04  0.7818609E-02  0.8953645E-01
        2   -1    0    0  501    0  0.00000000000E+00  0.00000000000E+00  0.11518638431E+04  0.11518638431E+04  0.25500000920E-02 0.  1.
       -2   -1    0    0    0  501  0.00000000000E+00  0.00000000000E+00 -0.42554347973E+03  0.42554347974E+03  0.25500000920E-02 0. -1.
    10030    2    1    2    0    0  0.00000000000E+00  0.00000000000E+00  0.72632036336E+03  0.15774073228E+04  0.14002401908E+04 0.  0.
        2    1    3    3  502    0 -0.35911625386E+03 -0.18163867546E+03  0.10085437690E+04  0.10858718277E+04  0.25500000920E-02 0.  1.
       -2    1    3    3    0  502  0.35911625386E+03  0.18163867546E+03 -0.28222340568E+03  0.49153549509E+03  0.25500000920E-02 0. -1.
</event>
<event>
 5   0  0.6671375E-05  0.1401793E+04  0.7818609E-02  0.8952522E-01
        1   -1    0    0  501    0  0.00000000000E+00  0.00000000000E+00  0.14660169201E+04  0.14660169201E+04  0.50400001928E-02 0.  1.
       -1   -1    0    0    0  501  0.00000000000E+00  0.00000000000E+00 -0.33509569872E+03  0.33509569876E+03  0.50400001928E-02 0. -1.
    10030    2    1    2    0    0  0.00000000000E+00  0.00000000000E+00  0.11309212214E+04  0.18011126188E+04  0.14017930863E+04 0.  0.
        5    1    3    3  502    0  0.33024936418E+03  0.53861723767E+03  0.17561369855E+03  0.65577086880E+03  0.46999998093E+01 0. -1.
       -5    1    3    3    0  502 -0.33024936418E+03 -0.53861723767E+03  0.95530752281E+03  0.11453417500E+04  0.46999998093E+01 0.  1.
</event>
<event>
 5   0  0.9900839E-05  0.1400967E+04  0.7818609E-02  0.8953119E-01
       -1   -1    0    0    0  501  0.00000000000E+00  0.00000000000E+00  0.56183006224E+03  0.56183006227E+03  0.50400001928E-02 0. -1.
        1   -1    0    0  501    0  0.00000000000E+00  0.00000000000E+00 -0.87335528509E+03  0.87335528511E+03  0.50400001928E-02 0.  1.
    10030    2    1    2    0    0  0.00000000000E+00  0.00000000000E+00 -0.31152522285E+03  0.14351853474E+04  0.14009671719E+04 0.  0.
        3    1    3    3  502    0 -0.30309550572E+02 -0.53565418592E+02  0.55905485782E+03  0.56243245566E+03  0.10100000352E+00 0. -1.
       -3    1    3    3    0  502  0.30309550572E+02  0.53565418592E+02 -0.87058008067E+03  0.87275289171E+03  0.10100000352E+00 0.  1.
</event>
<event>
 5   0  0.1766237E-04  0.1400835E+04  0.7818609E-02  0.8953214E-01
        2   -1    0    0  501    0  0.00000000000E+00  0.00000000000E+00  0.12215911243E+04  0.12215911243E+04  0.25500000920E-02 0. -1.
       -2   -1    0    0    0  501  0.00000000000E+00  0.00000000000E+00 -0.40159511142E+03  0.40159511143E+03  0.25500000920E-02 0.  1.
    10030    2    1    2    0    0  0.00000000000E+00  0.00000000000E+00  0.81999601286E+03  0.16231862357E+04  0.14008354988E+04 0.  0.
        3    1    3    3  502    0 -0.15294443027E+03  0.31862853896E+03 -0.29069084373E+03  0.45762137343E+03  0.10100000352E+00 0.  1.
       -3    1    3    3    0  502  0.15294443027E+03 -0.31862853896E+03  0.11106868566E+04  0.11655648623E+04  0.10100000352E+00 0. -1.
</event>
<event>
 5   0  0.1780171E-04  0.1400595E+04  0.7818609E-02  0.8953388E-01
       -2   -1    0    0    0  501  0.00000000000E+00  0.00000000000E+00  0.26276937661E+03  0.26276937663E+03  0.25500000920E-02 0.  1.
        2   -1    0    0  501    0  0.00000000000E+00  0.00000000000E+00 -0.18663381706E+04  0.18663381706E+04  0.25500000920E-02 0. -1.
    10030    2    1    2    0    0  0.00000000000E+00  0.00000000000E+00 -0.16035687940E+04  0.21291075472E+04  0.14005948988E+04 0.  0.
        5    1    3    3  502    0 -0.35737262112E+02 -0.64173360300E+03 -0.12244155302E+04  0.13828646534E+04  0.46999998093E+01 0. -1.
       -5    1    3    3    0  502  0.35737262112E+02  0.64173360300E+03 -0.37915326382E+03  0.74624289383E+03  0.46999998093E+01 0.  1.
</event>
<event>
 5   0  0.6671375E-05  0.1401138E+04  0.7818609E-02  0.8952995E-01
        1   -1    0    0  501    0  0.00000000000E+00  0.00000000000E+00  0.17061528413E+04  0.17061528413E+04  0.50400001928E-02 0. -1.
       -1   -1    0    0    0  501  0.00000000000E+00  0.00000000000E+00 -0.28766304853E+03  0.28766304857E+03  0.50400001928E-02 0.  1.
    10030    2    1    2    0    0  0.00000000000E+00  0.00000000000E+00  0.14184897928E+04  0.19938158899E+04  0.14011382910E+04 0.  0.
        5    1    3    3  502    0  0.41400356090E+03  0.12741588106E+03 -0.74232718884E+02  0.43950693024E+03  0.46999998093E+01 0.  1.
       -5    1    3    3    0  502 -0.41400356090E+03 -0.12741588106E+03  0.14927225117E+04  0.15543089596E+04  0.46999998093E+01 0. -1.
</event>
<event>
 5   0  0.1712327E-04  0.1402032E+04  0.7818609E-02  0.8952349E-01
       -2   -1    0    0    0  501  0.00000000000E+00  0.00000000000E+00  0.98059746910E+03  0.98059746910E+03  0.25500000920E-02 0.  1.
        2   -1    0    0  501    0  0.00000000000E+00  0.00000000000E+00 -0.50114694062E+03  0.50114694062E+03  0.25500000920E-02 0. -1.
    10030    2    1    2    0    0  0.00000000000E+00  0.00000000000E+00  0.47945052848E+03  0.14817444097E+04  0.14020319848E+04 0.  0.
        1    1    3    3  502    0 -0.44301876115E+03 -0.39586630268E+02 -0.33292111812E+03  0.55558005269E+03  0.50400001928E-02 0. -1.
       -1    1    3    3    0  502  0.44301876115E+03  0.39586630268E+02  0.81237164660E+03  0.92616435704E+03  0.50400001928E-02 0.  1.
</event>
<event>
 5   0  0.9260916E-05  0.1398445E+04  0.7818609E-02  0.8954945E-01
        1   -1    0    0  501    0  0.00000000000E+00  0.00000000000E+00  0.15274188239E+04  0.15274188239E+04  0.50400001928E-02 0. -1.
       -1   -1    0    0    0  501  0.00000000000E+00  0.00000000000E+00 -0.32009022607E+03  0.32009022611E+03  0.50400001928E-02 0.  1.
    10030    2    1    2    0    0  0.00000000000E+00  0.00000000000E+00  0.12073285978E+04  0.18475090500E+04  0.13984446170E+04 0.  0.
        1    1    3    3  502    0 -0.45988236405E+03  0.37927481285E+03  0.10864971886E+04  0.12392809662E+04  0.50400001928E-02 0. -1.
       -1    1    3    3    0  502  0.45988236405E+03 -0.37927481285E+03  0.12083140924E+03  0.60822808379E+03  0.50400001928E-02 0.  1.
</event>
<event>
 5   0  0.1766237E-04  0.1398285E+04  0.7818609E-02  0.8955061E-01
        2   -1    0    0  501    0  0.00000000000E+00  0.00000000000E+00  0.72086057559E+03  0.72086057559E+03  0.25500000920E-02 0.  1.
       -2   -1    0    0    0  501  0.00000000000E+00  0.00000000000E+00 -0.67807910587E+03  0.67807910587E+03  0.25500000920E-02 0. -1.
    10030    2    1    2    0    0  0.00000000000E+00  0.00000000000E+00  0.42781469720E+02  0.13989396815E+04  0.13982853708E+04 0.  0.
        3    1    3    3  502    0  0.14203910207E+03  0.73459000260E+02 -0.65953714638E+03  0.67864614410E+03  0.10100000352E+00 0. -1.
       -3    1    3    3    0  502 -0.14203910207E+03 -0.73459000260E+02  0.70231861610E+03  0.72029353736E+03  0.10100000352E+00 0.  1.
</event>
<event>
 5   0  0.6671375E-05  0.1402471E+04  0.7818609E-02  0.8952032E-01
        3   -1    0    0  501    0  0.00000000000E+00  0.00000000000E+00  0.38381834734E+03  0.38381836063E+03  0.10100000352E+00 0.  1.
       -3   -1    0    0    0  501  0.00000000000E+00  0.00000000000E+00 -0.12811559511E+04  0.12811559551E+04  0.10100000352E+00 0. -1.
    10030    2    1    2    0    0  0.00000000000E+00  0.00000000000E+00 -0.89733760375E+03  0.16649743157E+04  0.14024709255E+04 0.  0.
        1    1    3    3  502    0  0.17238060124E+03  0.14353019995E+03  0.34007744518E+03  0.40739251187E+03  0.50400001928E-02 0.  1.
       -1    1    3    3    0  502 -0.17238060124E+03 -0.14353019995E+03 -0.12374150489E+04  0.12575818038E+04  0.50400001928E-02 0. -1.
</event>
<event>
 5   0  0.1833681E-04  0.1399198E+04  0.7818609E-02  0.8954399E-01
        2   -1    0    0  501    0  0.00000000000E+00  0.00000000000E+00  0.61479650889E+03  0.61479650890E+03  0.25500000920E-02 0. -1.
       -2   -1    0    0    0  501  0.00000000000E+00  0.00000000000E+00 -0.79609911614E+03  0.79609911615E+03  0.25500000920E-02 0.  1.
    10030    2    1    2    0    0  0.00000000000E+00  0.00000000000E+00 -0.18130260725E+03  0.14108956250E+04  0.13991982809E+04 0.  0.
        4    1    3    3  502    0  0.43119565210E+03  0.26477578971E+03 -0.57780655116E+03  0.76804813174E+03  0.12699999809E+01 0.  1.
       -4    1    3    3    0  502 -0.43119565210E+03 -0.26477578971E+03  0.39650394391E+03  0.64284749330E+03  0.12699999809E+01 0. -1.
</event>
<event>
 5   0  0.1794185E-04  0.1398827E+04  0.7818609E-02  0.8954668E-01
        2   -1    0    0  501    0  0.00000000000E+00  0.00000000000E+00  0.23238277355E+04  0.23238277355E+04  0.25500000920E-02 0. -1.
       -2   -1    0    0    0  501  0.00000000000E+00  0.00000000000E+00 -0.21050595859E+03  0.21050595860E+03  0.25500000920E-02 0.  1.
    10030    2    1    2    0    0  0.00000000000E+00  0.00000000000E+00  0.21133217769E+04  0.25343336941E+04  0.13988274877E+04 0.  0.
        2    1    3    3  502    0 -0.71995763490E+02  0.55489724709E+03  0.29640268172E+03  0.63320525465E+03  0.25500000920E-02 0.  1.
       -2    1    3    3    0  502  0.71995763490E+02 -0.55489724709E+03  0.18169190952E+04  0.19011284395E+04  0.25500000920E-02 0. -1.
</event>
<event>
 5   0  0.1794185E-04  0.1398488E+04  0.7818609E-02  0.8954913E-01
       -2   -1    0    0    0  501  0.00000000000E+00  0.00000000000E+00  0.34904978334E+03  0.34904978335E+03  0.25500000920E-02 0. -1.
        2   -1    0    0  501    0  0.00000000000E+00  0.00000000000E+00 -0.14007815149E+04  0.14007815149E+04  0.25500000920E-02 0.  1.
    10030    2    1    2    0    0  0.00000000000E+00  0.00000000000E+00 -0.10517317315E+04  0.17498312982E+04  0.13984884473E+04 0.  0.
        2    1    3    3  502    0  0.60155844897E+03  0.66096387342E+02 -0.96415597936E+03  0.11383488272E+04  0.25500000920E-02 0.  1.
       -2    1    3    3    0  502 -0.60155844897E+03 -0.66096387342E+02 -0.87575752179E+02  0.61148247099E+03  0.25500000920E-02 0. -1.
</event>
<event>
 5   0  0.1712327E-04  0.1398386E+04  0.7818609E-02  0.8954988E-01
        2   -1    0    0  501    0  0.00000000000E+00  0.00000000000E+00  0.21189103843E+04  0.21189103843E+04  0.25500000920E-02 0.  1.
       -2   -1    0    0    0  501  0.00000000000E+00  0.00000000000E+00 -0.23071792227E+03  0.23071792228E+03  0.25500000920E-02 0. -1.
    10030    2    1    2    0    0  0.00000000000E+00  0.00000000000E+00  0.18881924620E+04  0.23496283065E+04  0.13983856426E+04 0.  0.
        1    1    3    3  502    0 -0.24609268408E+03  0.65416430915E+03  0.91142645645E+03  0.11485602893E+04  0.50400001928E-02 0.  1.
       -1    1    3    3    0  502  0.24609268408E+03 -0.65416430915E+03  0.97676600555E+03  0.12010680173E+04  0.50400001928E-02 0. -1.
</event>
<event>
 5   0  0.6671375E-05  0.1401299E+04  0.7818609E-02  0.8952879E-01
        1   -1    0    0  501    0  0.00000000000E+00  0.00000000000E+00  0.17405706696E+04  0.17405706696E+04  0.50400001928E-02 0.  1.
       -1   -1    0    0    0  501  0.00000000000E+00  0.00000000000E+00 -0.28203944667E+03  0.28203944671E+03  0.50400001928E-02 0. -1.
    10030    2    1    2    0    0  0.00000000000E+00  0.00000000000E+00  0.14585312230E+04  0.20226101163E+04  0.14012988098E+04 0.  0.
        5    1    3    3  502    0  0.28088606376E+02  0.24496279475E+03  0.16758557637E+04  0.16939038849E+04  0.46999998093E+01 0.  1.
       -5    1    3    3    0  502 -0.28088606376E+02 -0.24496279475E+03 -0.21732454070E+03  0.32870623147E+03  0.46999998093E+01 0. -1.
</event>
<event>
 5   0  0.9260916E-05  0.1400634E+04  0.7818609E-02  0.8953360E-01
        1   -1    0    0  501    0  0.00000000000E+00  0.00000000000E+00  0.72554755363E+03  0.72554755364E+03  0.50400001928E-02 0.  1.
       -1   -1    0    0    0  501  0.00000000000E+00  0.00000000000E+00 -0.67596374581E+03  0.67596374583E+03  0.50400001928E-02 0. -1.
    10030    2    1    2    0    0  0.00000000000E+00  0.00000000000E+00  0.49583807814E+02  0.14015112995E+04  0.14006339167E+04 0.  0.
        1    1    3    3  502    0 -0.48225120072E+03 -0.71590662669E+02  0.52785169677E+03  0.71855330866E+03  0.50400001928E-02 0.  1.
       -1    1    3    3    0  502  0.48225120072E+03  0.71590662669E+02 -0.47826788896E+03  0.68295799081E+03  0.50400001928E-02 0. -1.
</event>
<event>
 5   0  0.1712327E-04  0.1401653E+04  0.7818609E-02  0.8952623E-01
        2   -1    0    0  501    0  0.00000000000E+00  0.00000000000E+00  0.79402596860E+03  0.79402596860E+03  0.25500000920E-02 0.  1.
       -2   -1    0    0    0  501  0.00000000000E+00  0.00000000000E+00 -0.61856620358E+03  0.61856620359E+03  0.25500000920E-02 0. -1.
    10030    2    1    2    0    0  0.00000000000E+00  0.00000000000E+00  0.17545976502E+03  0.14125921722E+04  0.14016527800E+04 0.  0.
        1    1    3    3  502    0 -0.18591745971E+03 -0.19548482561E+03 -0.56413979162E+03  0.62532657338E+03  0.50400001928E-02 0. -1.
       -1    1    3    3    0  502  0.18591745971E+03  0.19548482561E+03  0.73959955664E+03  0.78726559881E+03  0.50400001928E-02 0.  1.
</event>
<event>
 5   0  0.9978422E-05  0.1399287E+04  0.7818609E-02  0.8954335E-01
        1   -1    0    0  501    0  0.00000000000E+00  0.00000000000E+00  0.78792903172E+03  0.78792903173E+03  0.50400001928E-02 0.  1.
       -1   -1    0    0    0  501  0.00000000000E+00  0.00000000000E+00 -0.62124986004E+03  0.62124986006E+03  0.50400001928E-02 0. -1.
    10030    2    1    2    0    0  0.00000000000E+00  0.00000000000E+00  0.16667917168E+03  0.14091788918E+04  0.13992866764E+04 0.  0.
        2    1    3    3  502    0  0.58883439889E+03 -0.19713743891E+02 -0.29666900095E+03  0.65964162781E+03  0.25500000920E-02 0. -1.
       -2    1    3    3    0  502 -0.58883439889E+03  0.19713743891E+02  0.46334817263E+03  0.74953726398E+03  0.25500000920E-02 0.  1.
</event>
<event>
 5   0  0.9900839E-05  0.1396919E+04  0.7818609E-02  0.8956052E-01
        1   -1    0    0  501    0  0.00000000000E+00  0.00000000000E+00  0.38894814354E+03  0.38894814357E+03  0.50400001928E-02 0.  1.
       -1   -1    0    0    0  501  0.00000000000E+00  0.00000000000E+00 -0.12542696658E+04  0.12542696659E+04  0.50400001928E-02 0. -1.
    10030    2    1    2    0    0  0.00000000000E+00  0.00000000000E+00 -0.86532152230E+03  0.16432178094E+04  0.13969192648E+04 0.  0.
        3    1    3    3  502    0  0.19455417443E+02 -0.26279936934E+03 -0.11935503647E+04  0.12222947701E+04  0.10100000352E+00 0. -1.
       -3    1    3    3    0  502 -0.19455417443E+02  0.26279936934E+03  0.32822884242E+03  0.42092303928E+03  0.10100000352E+00 0.  1.
</event>
<event>
 5   0  0.9828111E-05  0.1400878E+04  0.7818609E-02  0.8953183E-01
       -1   -1    0    0    0  501  0.00000000000E+00  0.00000000000E+00  0.58600401773E+03  0.58600401775E+03  0.50400001928E-02 0.  1.
        1   -1    0    0  501    0  0.00000000000E+00  0.00000000000E+00 -0.83722124198E+03  0.83722124200E+03  0.50400001928E-02 0. -1.
    10030    2    1    2    0    0  0.00000000000E+00  0.00000000000E+00 -0.25121722426E+03  0.14232252597E+04  0.14008783124E+04 0.  0.
        4    1    3    3  502    0  0.39811316677E+03 -0.56745622491E+03 -0.23442325848E+02  0.69357899066E+03  0.12699999809E+01 0. -1.
       -4    1    3    3    0  502 -0.39811316677E+03  0.56745622491E+03 -0.22777489841E+03  0.72964626908E+03  0.12699999809E+01 0.  1.
</event>
<event>
 5   0  0.1712327E-04  0.1400430E+04  0.7818609E-02  0.8953508E-01
       -2   -1    0    0    0  501  0.00000000000E+00  0.00000000000E+00  0.35073549897E+03  0.35073549898E+03  0.25500000920E-02 0. -1.
        2   -1    0    0  501    0  0.00000000000E+00  0.00000000000E+00 -0.13979219279E+04  0.13979219279E+04  0.25500000920E-02 0.  1.
    10030    2    1    2    0    0  0.00000000000E+00  0.00000000000E+00 -0.10471864290E+04  0.17486574269E+04  0.14004297125E+04 0.  0.
        1    1    3    3  502    0  0.53392004526E+03  0.38641230659E+02  0.40016493198E+02  0.53681009602E+03  0.50400001928E-02 0. -1.
       -1    1    3    3    0  502 -0.53392004526E+03 -0.38641230659E+02 -0.10872029222E+04  0.12118473309E+04  0.50400001928E-02 0.  1.
</event>
<event>
 5   0  0.9978422E-05  0.1398059E+04  0.7818609E-02  0.8955225E-01
       -1   -1    0    0    0  501  0.00000000000E+00  0.00000000000E+00  0.44749787166E+03  0.44749787169E+03  0.50400001928E-02 0. -1.
        1   -1    0    0  501    0  0.00000000000E+00  0.00000000000E+00 -0.10919436709E+04  0.10919436709E+04  0.50400001928E-02 0.  1.
    10030    2    1    2    0    0  0.00000000000E+00  0.00000000000E+00 -0.64444579922E+03  0.15394415426E+04  0.13980593245E+04 0.  0.
        2    1    3    3  502    0 -0.11314138046E+02 -0.19403722140E+03  0.41714465560E+03  0.46020442926E+03  0.25500000920E-02 0. -1.
       -2    1    3    3    0  502  0.11314138046E+02  0.19403722140E+03 -0.10615904548E+04  0.10792371133E+04  0.25500000920E-02 0.  1.
</event>
<event>
 5   0  0.9900839E-05  0.1396204E+04  0.7818609E-02  0.8956571E-01
        1   -1    0    0  501    0  0.00000000000E+00  0.00000000000E+00  0.10711877268E+04  0.10711877268E+04  0.50400001928E-02 0.  1.
       -1   -1    0    0    0  501  0.00000000000E+00  0.00000000000E+00 -0.45495915096E+03  0.45495915099E+03  0.50400001928E-02 0. -1.
    10030    2    1    2    0    0  0.00000000000E+00  0.00000000000E+00  0.61622857585E+03  0.15261468778E+04  0.13962043672E+04 0.  0.
        3    1    3    3  502    0  0.40768234071E+03  0.55417992540E+03  0.43756962303E+03  0.81534499805E+03  0.10100000352E+00 0. -1.
       -3    1    3    3    0  502 -0.40768234071E+03 -0.55417992540E+03  0.17865895282E+03  0.71080187976E+03  0.10100000352E+00 0.  1.
</event>
<event>
 5   0  0.6671375E-05  0.1400674E+04  0.7818609E-02  0.8953331E-01
        1   -1    0    0  501    0  0.00000000000E+00  0.00000000000E+00  0.67152912237E+03  0.67152912239E+03  0.50400001928E-02 0. -1.
       -1   -1    0    0    0  501  0.00000000000E+00  0.00000000000E+00 -0.73038048849E+03  0.73038048851E+03  0.50400001928E-02 0.  1.
    10030    2    1    2    0    0  0.00000000000E+00  0.00000000000E+00 -0.58851366121E+02  0.14019096109E+04  0.14006737928E+04 0.  0.
        5    1    3    3  502    0  0.30292307674E+02 -0.58645623223E+03 -0.41133952688E+03  0.71698733085E+03  0.46999998093E+01 0.  1.
       -5    1    3    3    0  502 -0.30292307674E+02  0.58645623223E+03  0.35248816076E+03  0.68492228005E+03  0.46999998093E+01 0. -1.
</event>
<event>
 5   0  0.1712327E-04  0.1399237E+04  0.7818609E-02  0.8954371E-01
       -2   -1    0    0    0  501  0.00000000000E+00  0.00000000000E+00  0.10019233439E+04  0.10019233439E+04  0.25500000920E-02 0.  1.
        2   -1    0    0  501    0  0.00000000000E+00  0.00000000000E+00 -0.48852677069E+03  0.48852677070E+03  0.25500000920E-02 0. -1.
    10030    2    1    2    0    0  0.00000000000E+00  0.00000000000E+00  0.51339657316E+03  0.14904501146E+04  0.13992374719E+04 0.  0.
        1    1    3    3  502    0  0.20381501903E+03  0.47729462754E+03 -0.24305019189E+03  0.57308299510E+03  0.50400001928E-02 0. -1.
       -1    1    3    3    0  502 -0.20381501903E+03 -0.47729462754E+03  0.75644676506E+03  0.91736711945E+03  0.50400001928E-02 0.  1.
</event>
<event>
 5   0  0.6671375E-05  0.1402138E+04  0.7818609E-02  0.8952273E-01
       -1   -1    0    0    0  501  0.00000000000E+00  0.00000000000E+00  0.44949506592E+03  0.44949506595E+03  0.50400001928E-02 0. -1.
        1   -1    0    0  501    0  0.00000000000E+00  0.00000000000E+00 -0.10934436929E+04  0.10934436929E+04  0.50400001928E-02 0.  1.
    10030    2    1    2    0    0  0.00000000000E+00  0.00000000000E+00 -0.64394862698E+03  0.15429387589E+04  0.14021377177E+04 0.  0.
        5    1    3    3  502    0  0.26217289616E+03  0.91970362890E+02 -0.10302562979E+04  0.10670723052E+04  0.46999998093E+01 0.  1.
       -5    1    3    3    0  502 -0.26217289616E+03 -0.91970362890E+02  0.38630767092E+03  0.47586645368E+03  0.46999998093E+01 0. -1.
</event>
<event>
 5   0  0.6671375E-05  0.1397085E+04  0.7818609E-02  0.8955931E-01
        1   -1    0    0  501    0  0.00000000000E+00  0.00000000000E+00  0.30214534197E+03  0.30214534202E+03  0.50400001928E-02 0. -1.
       -1   -1    0    0    0  501  0.00000000000E+00  0.00000000000E+00 -0.16149894035E+04  0.16149894035E+04  0.50400001928E-02 0.  1.
    10030    2    1    2    0    0  0.00000000000E+00  0.00000000000E+00 -0.13128440615E+04  0.19171347455E+04  0.13970848588E+04 0.  0.
        5    1    3    3  502    0 -0.50897072189E+03 -0.44581597834E+03 -0.41820368627E+03  0.79543666969E+03  0.46999998093E+01 0. -1.
       -5    1    3    3    0  502  0.50897072189E+03  0.44581597834E+03 -0.89464037524E+03  0.11216980758E+04  0.46999998093E+01 0.  1.
</event>
<event>
 5   0  0.6671375E-05  0.1397970E+04  0.7818609E-02  0.8955289E-01
       -3   -1    0    0    0  501  0.00000000000E+00  0.00000000000E+00  0.52376042880E+03  0.52376043854E+03  0.10100000352E+00 0. -1.
        3   -1    0    0  501    0  0.00000000000E+00  0.00000000000E+00 -0.93283072044E+03  0.93283072591E+03  0.10100000352E+00 0.  1.
    10030    2    1    2    0    0  0.00000000000E+00  0.00000000000E+00 -0.40907029164E+03  0.14565911645E+04  0.13979697124E+04 0.  0.
        4    1    3    3  502    0 -0.60922440171E+03  0.44715320659E+02  0.14945297902E+03  0.62888125856E+03  0.12699999809E+01 0.  1.
       -4    1    3    3    0  502  0.60922440171E+03 -0.44715320659E+02 -0.55852327066E+03  0.82770990589E+03  0.12699999809E+01 0. -1.
</event>
<event>
 5   0  0.1794185E-04  0.1400122E+04  0.7818609E-02  0.8953730E-01
        2   -1    0    0  501    0  0.00000000000E+00  0.00000000000E+00  0.77178878665E+03  0.77178878665E+03  0.25500000920E-02 0.  1.
       -2   -1    0    0    0  501  0.00000000000E+00  0.00000000000E+00 -0.63499945382E+03  0.63499945382E+03  0.25500000920E-02 0. -1.
    10030    2    1    2    0    0  0.00000000000E+00  0.00000000000E+00  0.13678933283E+03  0.14067882405E+04  0.14001220775E+04 0.  0.
        2    1    3    3  502    0 -0.38147521550E+03  0.27026849827E+02  0.65755806975E+03  0.76068154030E+03  0.25500000920E-02 0.  1.
       -2    1    3    3    0  502  0.38147521550E+03 -0.27026849827E+02 -0.52076873692E+03  0.64610670017E+03  0.25500000920E-02 0. -1.
</event>
<event>
 5   0  0.9978422E-05  0.1393669E+04  0.7818609E-02  0.8958414E-01
       -1   -1    0    0    0  501  0.00000000000E+00  0.00000000000E+00  0.55406148070E+03  0.55406148073E+03  0.50400001928E-02 0. -1.
        1   -1    0    0  501    0  0.00000000000E+00  0.00000000000E+00 -0.87639780108E+03  0.87639780109E+03  0.50400001928E-02 0.  1.
    10030    2    1    2    0    0  0.00000000000E+00  0.00000000000E+00 -0.32233632038E+03  0.14304592818E+04  0.13936689182E+04 0.  0.
        2    1    3    3  502    0 -0.47773669120E+03 -0.49541923839E+03 -0.27316177708E+03  0.74046601837E+03  0.25500000920E-02 0.  1.
       -2    1    3    3    0  502  0.47773669120E+03  0.49541923839E+03 -0.49174543294E+02  0.68999326345E+03  0.25500000920E-02 0. -1.
</event>
<event>
 5   0  0.1780171E-04  0.1398676E+04  0.7818609E-02  0.8954778E-01
       -2   -1    0    0    0  501  0.00000000000E+00  0.00000000000E+00  0.39877724719E+03  0.39877724720E+03  0.25500000920E-02 0. -1.
        2   -1    0    0  501    0  0.00000000000E+00  0.00000000000E+00 -0.12264322849E+04  0.12264322849E+04  0.25500000920E-02 0.  1.
    10030    2    1    2    0    0  0.00000000000E+00  0.00000000000E+00 -0.82765503770E+03  0.16252095321E+04  0.13986755027E+04 0.  0.
        5    1    3    3  502    0 -0.13830303463E+03  0.49368591032E+03 -0.96646009026E+03  0.10940387121E+04  0.46999998093E+01 0.  1.
       -5    1    3    3    0  502  0.13830303463E+03 -0.49368591032E+03  0.13880505256E+03  0.53117082003E+03  0.46999998093E+01 0. -1.
</event>
<event>
 5   0  0.1833681E-04  0.1400370E+04  0.7818609E-02  0.8953551E-01
       -2   -1    0    0    0  501  0.00000000000E+00  0.00000000000E+00  0.90207939005E+03  0.90207939006E+03  0.25500000920E-02 0. -1.
        2   -1    0    0  501    0  0.00000000000E+00  0.00000000000E+00 -0.54347632277E+03  0.54347632277E+03  0.25500000920E-02 0.  1.
    10030    2    1    2    0    0  0.00000000000E+00  0.00000000000E+00  0.35860306729E+03  0.14455557128E+04  0.14003696508E+04 0.  0.
        4    1    3    3  502    0 -0.51465361584E+03 -0.35290784987E+03 -0.14850610963E+03  0.64145769330E+03  0.12699999809E+01 0.  1.
       -4    1    3    3    0  502  0.51465361584E+03  0.35290784987E+03  0.50710917692E+03  0.80409801953E+03  0.12699999809E+01 0. -1.
</event>
<event>
 5   0  0.1833681E-04  0.1400439E+04  0.7818609E-02  0.8953501E-01
       -2   -1    0    0    0  501  0.00000000000E+00  0.00000000000E+00  0.82603402856E+03  0.82603402856E+03  0.25500000920E-02 0.  1.
        2   -1    0    0  501    0  0.00000000000E+00  0.00000000000E+00 -0.59356825809E+03  0.59356825810E+03  0.25500000920E-02 0. -1.
    10030    2    1    2    0    0  0.00000000000E+00  0.00000000000E+00  0.23246577047E+03  0.14196022867E+04  0.14004393303E+04 0.  0.
        4    1    3    3  502    0  0.31554938144E+03 -0.60882621401E+03 -0.27357079753E+02  0.68628769019E+03  0.12699999809E+01 0.  1.
       -4    1    3    3    0  502 -0.31554938144E+03  0.60882621401E+03  0.25982285022E+03  0.73331459647E+03  0.12699999809E+01 0. -1.
</event>
<event>
 5   0  0.6671375E-05  0.1398910E+04  0.7818609E-02  0.8954608E-01
       -1   -1    0    0    0  501  0.00000000000E+00  0.00000000000E+00  0.50618181917E+03  0.50618181920E+03  0.50400001928E-02 0.  1.
        1   -1    0    0  501    0  0.00000000000E+00  0.00000000000E+00 -0.96652547741E+03  0.96652547743E+03  0.50400001928E-02 0. -1.
    10030    2    1    2    0    0  0.00000000000E+00  0.00000000000E+00 -0.46034365824E+03  0.14727072966E+04  0.13989104681E+04 0.  0.
        5    1    3    3  502    0 -0.63461663812E+03  0.14993371162E+03  0.36150020798E+02  0.65310589437E+03  0.46999998093E+01 0. -1.
       -5    1    3    3    0  502  0.63461663812E+03 -0.14993371162E+03 -0.49649367904E+03  0.81960140226E+03  0.46999998093E+01 0.  1.
</event>
<event>
 5   0  0.6671375E-05  0.1401918E+04  0.7818609E-02  0.8952431E-01
       -1   -1    0    0    0  501  0.00000000000E+00  0.00000000000E+00  0.27149647928E+03  0.27149647932E+03  0.50400001928E-02 0. -1.
        1   -1    0    0  501    0  0.00000000000E+00  0.00000000000E+00 -0.18097612857E+04  0.18097612858E+04  0.50400001928E-02 0.  1.
    10030    2    1    2    0    0  0.00000000000E+00  0.00000000000E+00 -0.15382648065E+04  0.20812577651E+04  0.14019184248E+04 0.  0.
        5    1    3    3  502    0 -0.68540892816E+03  0.72366442232E+02 -0.57959745876E+03  0.90054295009E+03  0.46999998093E+01 0. -1.
       -5    1    3    3    0  502  0.68540892816E+03 -0.72366442232E+02 -0.95866734771E+03  0.11807148150E+04  0.46999998093E+01 0.  1.
</event>
<event>
 5   0  0.6671375E-05  0.1400341E+04  0.7818609E-02  0.8953572E-01
       -1   -1    0    0    0  501  0.00000000000E+00  0.00000000000E+00  0.42326039334E+03  0.42326039337E+03  0.50400001928E-02 0. -1.
        1   -1    0    0  501    0  0.00000000000E+00  0.00000000000E+00 -0.11582441007E+04  0.11582441007E+04  0.50400001928E-02 0.  1.
    10030    2    1    2    0    0  0.00000000000E+00  0.00000000000E+00 -0.73498370738E+03  0.15815044941E+04  0.14003411780E+04 0.  0.
        5    1    3    3  502    0 -0.49056037772E+03  0.45027612826E+02 -0.92939191940E+03  0.10518880168E+04  0.46999998093E+01 0.  1.
       -5    1    3    3    0  502  0.49056037772E+03 -0.45027612826E+02  0.19440821202E+03  0.52961647728E+03  0.46999998093E+01 0. -1.
</event>
<event>
 5   0  0.1712327E-04  0.1399010E+04  0.7818609E-02  0.8954535E-01
        2   -1    0    0  501    0  0.00000000000E+00  0.00000000000E+00  0.12860517803E+04  0.12860517803E+04  0.25500000920E-02 0.  1.
       -2   -1    0    0    0  501  0.00000000000E+00  0.00000000000E+00 -0.38047248543E+03  0.38047248544E+03  0.25500000920E-02 0. -1.
    10030    2    1    2    0    0  0.00000000000E+00  0.00000000000E+00  0.90557929486E+03  0.16665242657E+04  0.13990101032E+04 0.  0.
        1    1    3    3  502    0  0.64962887133E+03 -0.25322347709E+03  0.51983216213E+03  0.86969263342E+03  0.50400001928E-02 0.  1.
       -1    1    3    3    0  502 -0.64962887133E+03  0.25322347709E+03  0.38574713273E+03  0.79683163231E+03  0.50400001928E-02 0. -1.
</event>
<event>
 5   0  0.1780171E-04  0.1402240E+04  0.7818609E-02  0.8952198E-01
        2   -1    0    0  501    0  0.00000000000E+00  0.00000000000E+00  0.95871056841E+03  0.95871056841E+03  0.25500000920E-02 0.  1.
       -2   -1    0    0    0  501  0.00000000000E+00  0.00000000000E+00 -0.51274022868E+03  0.51274022869E+03  0.25500000920E-02 0. -1.
    10030    2    1    2    0    0  0.00000000000E+00  0.00000000000E+00  0.44597033973E+03  0.14714507971E+04  0.14022403162E+04 0.  0.
        5    1    3    3  502    0 -0.30606382405E+03 -0.62593625692E+03  0.14118831436E+03  0.71093423903E+03  0.46999998093E+01 0.  1.
       -5    1    3    3    0  502  0.30606382405E+03  0.62593625692E+03  0.30478202537E+03  0.76051655807E+03  0.46999998093E+01 0. -1.
</event>
<event>
 5   0  0.9900839E-05  0.1401634E+04  0.7818609E-02  0.8952637E-01
       -1   -1    0    0    0  501  0.00000000000E+00  0.00000000000E+00  0.93041790804E+03  0.93041790806E+03  0.50400001928E-02 0.  1.
        1   -1    0    0  501    0  0.00000000000E+00  0.00000000000E+00 -0.52787477499E+03  0.52787477501E+03  0.50400001928E-02 0. -1.
    10030    2    1    2    0    0  0.00000000000E+00  0.00000000000E+00  0.40254313306E+03  0.14582926831E+04  0.14016335382E+04 0.  0.
        3    1    3    3  502    0  0.55613093640E+03  0.36863262878E+03  0.42435086907E+03  0.79072454350E+03  0.10100000352E+00 0.  1.
       -3    1    3    3    0  502 -0.55613093640E+03 -0.36863262878E+03 -0.21807736010E+02  0.66756813957E+03  0.10100000352E+00 0. -1.
</event>
<event>
 5   0  0.1833681E-04  0.1401940E+04  0.7818609E-02  0.8952416E-01
       -2   -1    0    0    0  501  0.00000000000E+00  0.00000000000E+00  0.80568500425E+03  0.80568500426E+03  0.25500000920E-02 0.  1.
        2   -1    0    0  501    0  0.00000000000E+00  0.00000000000E+00 -0.60986459384E+03  0.60986459384E+03  0.25500000920E-02 0. -1.
    10030    2    1    2    0    0  0.00000000000E+00  0.00000000000E+00  0.19582041042E+03  0.14155495981E+04  0.14019397389E+04 0.  0.
        4    1    3    3  502    0  0.57134012290E+03  0.12056158850E+03 -0.29365929042E+03  0.65360693418E+03  0.12699999809E+01 0. -1.
       -4    1    3    3    0  502 -0.57134012290E+03 -0.12056158850E+03  0.48947970084E+03  0.76194266391E+03  0.12699999809E+01 0.  1.
</event>
<event>
 5   0  0.1712327E-04  0.1399835E+04  0.7818609E-02  0.8953938E-01
       -2   -1    0    0    0  501  0.00000000000E+00  0.00000000000E+00  0.50980645673E+03  0.50980645673E+03  0.25500000920E-02 0.  1.
        2   -1    0    0  501    0  0.00000000000E+00  0.00000000000E+00 -0.96092211165E+03  0.96092211166E+03  0.25500000920E-02 0. -1.
    10030    2    1    2    0    0  0.00000000000E+00  0.00000000000E+00 -0.45111565493E+03  0.14707285684E+04  0.13998347002E+04 0.  0.
        1    1    3    3  502    0 -0.63056301520E+03 -0.89611663309E+01  0.93454714777E+02  0.63751376642E+03  0.50400001928E-02 0.  1.
       -1    1    3    3    0  502  0.63056301520E+03  0.89611663309E+01 -0.54457036970E+03  0.83321480197E+03  0.50400001928E-02 0. -1.
</event>
<event>
 5   0  0.6671375E-05  0.1426981E+04  0.7818609E-02  0.8934517E-01
       -3   -1    0    0    0  501  0.00000000000E+00  0.00000000000E+00  0.72719615224E+03  0.72719615926E+03  0.10100000352E+00 0.  1.
        3   -1    0    0  501    0  0.00000000000E+00  0.00000000000E+00 -0.70004323578E+03  0.70004324307E+03  0.10100000352E+00 0. -1.
    10030    2    1    2    0    0  0.00000000000E+00  0.00000000000E+00  0.27152916462E+02  0.14272394023E+04  0.14269810898E+04 0.  0.
        4    1    3    3  502    0  0.54910897751E+03 -0.41653387849E+03 -0.17097253475E+03  0.71010869707E+03  0.12699999809E+01 0. -1.
       -4    1    3    3    0  502 -0.54910897751E+03  0.41653387849E+03  0.19812545121E+03  0.71713070526E+03  0.12699999809E+01 0.  1.
</event>
<event>
 5   0  0.9900839E-05  0.1400994E+04  0.7818609E-02  0.8953099E-01
        1   -1    0    0  501    0  0.00000000000E+00  0.00000000000E+00  0.18694273768E+04  0.18694273768E+04  0.50400001928E-02 0. -1.
       -1   -1    0    0    0  501  0.00000000000E+00  0.00000000000E+00 -0.26248467574E+03  0.26248467579E+03  0.50400001928E-02 0.  1.
    10030    2    1    2    0    0  0.00000000000E+00  0.00000000000E+00  0.16069427010E+04  0.21319120526E+04  0.14009939884E+04 0.  0.
        3    1    3    3  502    0 -0.24252260208E+02 -0.54085150719E+03  0.12705709734E+03  0.55610434375E+03  0.10100000352E+00 0. -1.
       -3    1    3    3    0  502  0.24252260208E+02  0.54085150719E+03  0.14798856037E+04  0.15758077088E+04  0.10100000352E+00 0.  1.
</event>
<event>
 5   0  0.1766237E-04  0.1383430E+04  0.7818609E-02  0.8965901E-01
       -2   -1    0    0    0  501  0.00000000000E+00  0.00000000000E+00  0.83041384298E+03  0.83041384299E+03  0.25500000920E-02 0. -1.
        2   -1    0    0  501    0  0.00000000000E+00  0.00000000000E+00 -0.57618204929E+03  0.57618204930E+03  0.25500000920E-02 0.  1.
    10030    2    1    2    0    0  0.00000000000E+00  0.00000000000E+00  0.25423179369E+03  0.14065958923E+04  0.13834298679E+04 0.  0.
        3    1    3    3  502    0  0.17178344108E+03  0.64286146303E+03  0.31919502136E+03  0.73801482583E+03  0.10100000352E+00 0. -1.
       -3    1    3    3    0  502 -0.17178344108E+03 -0.64286146303E+03 -0.64963227668E+02  0.66858106646E+03  0.10100000352E+00 0.  1.
</event>
<event>
 5   0  0.9900839E-05  0.1397832E+04  0.7818609E-02  0.8955389E-01
       -1   -1    0    0    0  501  0.00000000000E+00  0.00000000000E+00  0.67196493388E+03  0.67196493389E+03  0.50400001928E-02 0. -1.
        1   -1    0    0  501    0  0.00000000000E+00  0.00000000000E+00 -0.72694834498E+03  0.72694834500E+03  0.50400001928E-02 0.  1.
    10030    2    1    2    0    0  0.00000000000E+00  0.00000000000E+00 -0.54983411105E+02  0.13989132789E+04  0.13978323170E+04 0.  0.
        3    1    3    3  502    0  0.20211176388E+03 -0.63103254333E+02  0.63909589601E+03  0.67325683086E+03  0.10100000352E+00 0. -1.
       -3    1    3    3    0  502 -0.20211176388E+03  0.63103254333E+02 -0.69407930711E+03  0.72565644803E+03  0.10100000352E+00 0.  1.
</event>
<event>
 5   0  0.6671375E-05  0.1398853E+04  0.7818609E-02  0.8954649E-01
       -1   -1    0    0    0  501  0.00000000000E+00  0.00000000000E+00  0.12147486914E+04  0.12147486915E+04  0.50400001928E-02 0.  1.
        1   -1    0    0  501    0  0.00000000000E+00  0.00000000000E+00 -0.40271515881E+03  0.40271515884E+03  0.50400001928E-02 0. -1.
    10030    2    1    2    0    0  0.00000000000E+00  0.00000000000E+00  0.81203353263E+03  0.16174638503E+04  0.13988534051E+04 0.  0.
        5    1    3    3  502    0 -0.42162690105E+03  0.39489875535E+03  0.86192097177E+03  0.10376146309E+04  0.46999998093E+01 0.  1.
       -5    1    3    3    0  502  0.42162690105E+03 -0.39489875535E+03 -0.49887439141E+02  0.57984921941E+03  0.46999998093E+01 0. -1.
</event>
<event>
 5   0  0.6671375E-05  0.1399948E+04  0.7818609E-02  0.8953857E-01
        3   -1    0    0  501    0  0.00000000000E+00  0.00000000000E+00  0.85257436161E+03  0.85257436759E+03  0.10100000352E+00 0.  1.
       -3   -1    0    0    0  501  0.00000000000E+00  0.00000000000E+00 -0.57468682502E+03  0.57468683389E+03  0.10100000352E+00 0. -1.
    10030    2    1    2    0    0  0.00000000000E+00  0.00000000000E+00  0.27788753659E+03  0.14272612015E+04  0.13999475184E+04 0.  0.
        2    1    3    3  502    0  0.43087426814E+03  0.28325679182E+03 -0.34365875520E+03  0.61966796358E+03  0.25500000920E-02 0. -1.
       -2    1    3    3    0  502 -0.43087426814E+03 -0.28325679182E+03  0.62154629179E+03  0.80759323790E+03  0.25500000920E-02 0.  1.
</event>
<event>
 5   0  0.9260916E-05  0.1401441E+04  0.7818609E-02  0.8952776E-01
        1   -1    0    0  501    0  0.00000000000E+00  0.00000000000E+00  0.16395889881E+04  0.16395889881E+04  0.50400001928E-02 0.  1.
       -1   -1    0    0    0  501  0.00000000000E+00  0.00000000000E+00 -0.29947092988E+03  0.29947092992E+03  0.50400001928E-02 0. -1.
    10030    2    1    2    0    0  0.00000000000E+00  0.00000000000E+00  0.13401180582E+04  0.19390599180E+04  0.14014410283E+04 0.  0.
        1    1    3    3  502    0  0.56376900296E+03 -0.33853304557E+03  0.10049093951E+04  0.12009508749E+04  0.50400001928E-02 0.  1.
       -1    1    3    3    0  502 -0.56376900296E+03  0.33853304557E+03  0.33520866315E+03  0.73810904311E+03  0.50400001928E-02 0. -1.
</event>
<event>
 5   0  0.9260916E-05  0.1378670E+04  0.7818609E-02  0.8969405E-01
       -1   -1    0    0    0  501  0.00000000000E+00  0.00000000000E+00  0.52838674347E+03  0.52838674350E+03  0.50400001928E-02 0. -1.
        1   -1    0    0  501    0  0.00000000000E+00  0.00000000000E+00 -0.89930827565E+03  0.89930827567E+03  0.50400001928E-02 0.  1.
    10030    2    1    2    0    0  0.00000000000E+00  0.00000000000E+00 -0.37092153218E+03  0.14276950192E+04  0.13786697519E+04 0.  0.
        1    1    3    3  502    0  0.35471131237E+03 -0.38246914274E+03 -0.65212935762E+03  0.83509009057E+03  0.50400001928E-02 0.  1.
       -1    1    3    3    0  502 -0.35471131237E+03  0.38246914274E+03  0.28120782544E+03  0.59260492859E+03  0.50400001928E-02 0. -1.
</event>
<event>
 5   0  0.6671375E-05  0.1400289E+04  0.7818609E-02  0.8953609E-01
       -3   -1    0    0    0  501  0.00000000000E+00  0.00000000000E+00  0.44401206565E+03  0.44401207713E+03  0.10100000352E+00 0. -1.
        3   -1    0    0  501    0  0.00000000000E+00  0.00000000000E+00 -0.11040295093E+04  0.11040295139E+04  0.10100000352E+00 0.  1.
    10030    2    1    2    0    0  0.00000000000E+00  0.00000000000E+00 -0.66001744367E+03  0.15480415911E+04  0.14002891636E+04 0.  0.
        2    1    3    3  502    0  0.65422883822E+03  0.24897133589E+03 -0.31436121971E+03  0.76734938282E+03  0.25500000920E-02 0. -1.
       -2    1    3    3    0  502 -0.65422883822E+03 -0.24897133589E+03 -0.34565622396E+03  0.78069220825E+03  0.25500000920E-02 0.  1.
</event>
<event>
 5   0  0.1766237E-04  0.1401167E+04  0.7818609E-02  0.8952974E-01
       -2   -1    0    0    0  501  0.00000000000E+00  0.00000000000E+00  0.40646138572E+03  0.40646138572E+03  0.25500000920E-02 0.  1.
        2   -1    0    0  501    0  0.00000000000E+00  0.00000000000E+00 -0.12075367213E+04  0.12075367213E+04  0.25500000920E-02 0. -1.
    10030    2    1    2    0    0  0.00000000000E+00  0.00000000000E+00 -0.80107533561E+03  0.16139981071E+04  0.14011667268E+04 0.  0.
        3    1    3    3  502    0 -0.25233138746E+03 -0.23380914674E+02 -0.11528934194E+04  0.11804156229E+04  0.10100000352E+00 0. -1.
       -3    1    3    3    0  502  0.25233138746E+03  0.23380914674E+02  0.35181808375E+03  0.43358248411E+03  0.10100000352E+00 0.  1.
</event>
<event>
 5   0  0.6671375E-05  0.1396336E+04  0.7818609E-02  0.8956475E-01
        3   -1    0    0  501    0  0.00000000000E+00  0.00000000000E+00  0.15281773338E+04  0.15281773372E+04  0.10100000352E+00 0.  1.
       -3   -1    0    0    0  501  0.00000000000E+00  0.00000000000E+00 -0.31896741005E+03  0.31896742604E+03  0.10100000352E+00 0. -1.
    10030    2    1    2    0    0  0.00000000000E+00  0.00000000000E+00  0.12092099238E+04  0.18471447632E+04  0.13963363264E+04 0.  0.
        1    1    3    3  502    0  0.48735419149E+03  0.30376875822E+03  0.11298437691E+04  0.12674133142E+04  0.50400001928E-02 0.  1.
       -1    1    3    3    0  502 -0.48735419149E+03 -0.30376875822E+03  0.79366154707E+02  0.57973144901E+03  0.50400001928E-02 0. -1.
</event>
<event>
 5   0  0.9260916E-05  0.1399969E+04  0.7818609E-02  0.8953841E-01
        1   -1    0    0  501    0  0.00000000000E+00  0.00000000000E+00  0.66929503079E+03  0.66929503080E+03  0.50400001928E-02 0.  1.
       -1   -1    0    0    0  501  0.00000000000E+00  0.00000000000E+00 -0.73208151820E+03  0.73208151821E+03  0.50400001928E-02 0. -1.
    10030    2    1    2    0    0  0.00000000000E+00  0.00000000000E+00 -0.62786487411E+02  0.14013765490E+04  0.13999693172E+04 0.  0.
        1    1    3    3  502    0  0.92882448605E+02  0.15945581619E+03 -0.70729431421E+03  0.73097096626E+03  0.50400001928E-02 0. -1.
       -1    1    3    3    0  502 -0.92882448605E+02 -0.15945581619E+03  0.64450782680E+03  0.67040558276E+03  0.50400001928E-02 0.  1.
</event>
<event>
 5   0  0.9978422E-05  0.1400223E+04  0.7818609E-02  0.8953657E-01
       -1   -1    0    0    0  501  0.00000000000E+00  0.00000000000E+00  0.49570818579E+03  0.49570818581E+03  0.50400001928E-02 0.  1.
        1   -1    0    0  501    0  0.00000000000E+00  0.00000000000E+00 -0.98880024476E+03  0.98880024477E+03  0.50400001928E-02 0. -1.
    10030    2    1    2    0    0  0.00000000000E+00  0.00000000000E+00 -0.49309205897E+03  0.14845084306E+04  0.14002233757E+04 0.  0.
        2    1    3    3  502    0  0.42877278305E+03  0.54396891046E+03 -0.13838493294E+03  0.70632759022E+03  0.25500000920E-02 0.  1.
       -2    1    3    3    0  502 -0.42877278305E+03 -0.54396891046E+03 -0.35470712604E+03  0.77818084036E+03  0.25500000920E-02 0. -1.
</event>
<event>
 5   0  0.6671375E-05  0.1398511E+04  0.7818609E-02  0.8954897E-01
        1   -1    0    0  501    0  0.00000000000E+00  0.00000000000E+00  0.76614843846E+03  0.76614843847E+03  0.50400001928E-02 0.  1.
       -1   -1    0    0    0  501  0.00000000000E+00  0.00000000000E+00 -0.63820312236E+03  0.63820312238E+03  0.50400001928E-02 0. -1.
    10030    2    1    2    0    0  0.00000000000E+00  0.00000000000E+00  0.12794531610E+03  0.14043515609E+04  0.13985111020E+04 0.  0.
        5    1    3    3  502    0  0.13335966741E+03 -0.61477954268E+02  0.75047373015E+03  0.76472037333E+03  0.46999998093E+01 0.  1.
       -5    1    3    3    0  502 -0.13335966741E+03  0.61477954268E+02 -0.62252841405E+03  0.63963118752E+03  0.46999998093E+01 0. -1.
</event>
<event>
 5   0  0.1712327E-04  0.1399229E+04  0.7818609E-02  0.8954377E-01
       -2   -1    0    0    0  501  0.00000000000E+00  0.00000000000E+00  0.37757796974E+03  0.37757796975E+03  0.25500000920E-02 0.  1.
        2   -1    0    0  501    0  0.00000000000E+00  0.00000000000E+00 -0.12963167213E+04  0.12963167213E+04  0.25500000920E-02 0. -1.
    10030    2    1    2    0    0  0.00000000000E+00  0.00000000000E+00 -0.91873875157E+03  0.16738946911E+04  0.13992292675E+04 0.  0.
        1    1    3    3  502    0  0.41905492800E+03  0.55255843963E+03 -0.56987499685E+03  0.89759978495E+03  0.50400001928E-02 0. -1.
       -1    1    3    3    0  502 -0.41905492800E+03 -0.55255843963E+03 -0.34886375472E+03  0.77629490612E+03  0.50400001928E-02 0.  1.
</event>
<event>
 5   0  0.1766237E-04  0.1435994E+04  0.7818609E-02  0.8928169E-01
        2   -1    0    0  501    0  0.00000000000E+00  0.00000000000E+00  0.12156016783E+04  0.12156016783E+04  0.25500000920E-02 0.  1.
       -2   -1    0    0    0  501  0.00000000000E+00  0.00000000000E+00 -0.42408596912E+03  0.42408596912E+03  0.25500000920E-02 0. -1.
    10030    2    1    2    0    0  0.00000000000E+00  0.00000000000E+00  0.79151570921E+03  0.16396876474E+04  0.14359938939E+04 0.  0.
        3    1    3    3  502    0 -0.28250235373E+03 -0.20226576446E+03 -0.32170170430E+03  0.47350925660E+03  0.10100000352E+00 0. -1.
       -3    1    3    3    0  502  0.28250235373E+03  0.20226576446E+03  0.11132174135E+04  0.11661783908E+04  0.10100000352E+00 0.  1.
</event>
<event>
 5   0  0.9828111E-05  0.1394708E+04  0.7818609E-02  0.8957658E-01
        1   -1    0    0  501    0  0.00000000000E+00  0.00000000000E+00  0.84918812405E+03  0.84918812406E+03  0.50400001928E-02 0. -1.
       -1   -1    0    0    0  501  0.00000000000E+00  0.00000000000E+00 -0.57266792266E+03  0.57266792268E+03  0.50400001928E-02 0.  1.
    10030    2    1    2    0    0  0.00000000000E+00  0.00000000000E+00  0.27652020138E+03  0.14218560467E+04  0.13947082834E+04 0.  0.
        4    1    3    3  502    0  0.20840440167E+03  0.65283589655E+03  0.26990172625E+03  0.73652946797E+03  0.12699999809E+01 0.  1.
       -4    1    3    3    0  502 -0.20840440167E+03 -0.65283589655E+03  0.66184751393E+01  0.68532657877E+03  0.12699999809E+01 0. -1.
</event>
<event>
 5   0  0.9978422E-05  0.1397610E+04  0.7818609E-02  0.8955550E-01
        1   -1    0    0  501    0  0.00000000000E+00  0.00000000000E+00  0.71449693530E+03  0.71449693532E+03  0.50400001928E-02 0.  1.
       -1   -1    0    0    0  501  0.00000000000E+00  0.00000000000E+00 -0.68345771429E+03  0.68345771431E+03  0.50400001928E-02 0. -1.
    10030    2    1    2    0    0  0.00000000000E+00  0.00000000000E+00  0.31039221007E+02  0.13979546496E+04  0.13976100204E+04 0.  0.
        2    1    3    3  502    0 -0.19569995473E+03  0.37975974907E+03  0.56865913986E+03  0.71125885348E+03  0.25500000920E-02 0.  1.
       -2    1    3    3    0  502  0.19569995473E+03 -0.37975974907E+03 -0.53761991886E+03  0.68669579615E+03  0.25500000920E-02 0. -1.
</event>
<event>
 5   0  0.9828111E-05  0.1367404E+04  0.7818609E-02  0.8977757E-01
       -1   -1    0    0    0  501  0.00000000000E+00  0.00000000000E+00  0.83318674935E+03  0.83318674937E+03  0.50400001928E-02 0. -1.
        1   -1    0    0  501    0  0.00000000000E+00  0.00000000000E+00 -0.56103646290E+03  0.56103646292E+03  0.50400001928E-02 0.  1.
    10030    2    1    2    0    0  0.00000000000E+00  0.00000000000E+00  0.27215028645E+03  0.13942232123E+04  0.13674035934E+04 0.  0.
        4    1    3    3  502    0 -0.46178919628E+03  0.21476793291E+03 -0.32902065967E+03  0.60632560081E+03  0.12699999809E+01 0.  1.
       -4    1    3    3    0  502  0.46178919628E+03 -0.21476793291E+03  0.60117094612E+03  0.78789761148E+03  0.12699999809E+01 0. -1.
</event>
<event>
 5   0  0.9260916E-05  0.1387737E+04  0.7818609E-02  0.8962743E-01
       -1   -1    0    0    0  501  0.00000000000E+00  0.00000000000E+00  0.16674154937E+04  0.16674154937E+04  0.50400001928E-02 0. -1.
        1   -1    0    0  501    0  0.00000000000E+00  0.00000000000E+00 -0.28874246387E+03  0.28874246392E+03  0.50400001928E-02 0.  1.
    10030    2    1    2    0    0  0.00000000000E+00  0.00000000000E+00  0.13786730298E+04  0.19561579576E+04  0.13877372345E+04 0.  0.
        1    1    3    3  502    0  0.43090958437E+03 -0.28109048241E+03  0.13456101801E+04  0.14406115666E+04  0.50400001928E-02 0.  1.
       -1    1    3    3    0  502 -0.43090958437E+03  0.28109048241E+03  0.33062849758E+02  0.51554639099E+03  0.50400001928E-02 0. -1.
</event>
<event>
 5   0  0.6671375E-05  0.1401538E+04  0.7818609E-02  0.8952706E-01
       -1   -1    0    0    0  501  0.00000000000E+00  0.00000000000E+00  0.25717112661E+03  0.25717112666E+03  0.50400001928E-02 0. -1.
        1   -1    0    0  501    0  0.00000000000E+00  0.00000000000E+00 -0.19095344596E+04  0.19095344596E+04  0.50400001928E-02 0.  1.
    10030    2    1    2    0    0  0.00000000000E+00  0.00000000000E+00 -0.16523633329E+04  0.21667055862E+04  0.14015379100E+04 0.  0.
        5    1    3    3  502    0  0.62988015225E+03 -0.30706400038E+03 -0.81967181049E+03  0.10783882758E+04  0.46999998093E+01 0.  1.
       -5    1    3    3    0  502 -0.62988015225E+03  0.30706400038E+03 -0.83269152246E+03  0.10883173104E+04  0.46999998093E+01 0. -1.
</event>
<event>
 5   0  0.9828111E-05  0.1399123E+04  0.7818609E-02  0.8954453E-01
        1   -1    0    0  501    0  0.00000000000E+00  0.00000000000E+00  0.11332922198E+04  0.11332922199E+04  0.50400001928E-02 0.  1.
       -1   -1    0    0    0  501  0.00000000000E+00  0.00000000000E+00 -0.43182735394E+03  0.43182735397E+03  0.50400001928E-02 0. -1.
    10030    2    1    2    0    0  0.00000000000E+00  0.00000000000E+00  0.70146486590E+03  0.15651195738E+04  0.13991234121E+04 0.  0.
        4    1    3    3  502    0 -0.61928920361E+03 -0.28065260852E+03  0.16658068297E+03  0.70002552898E+03  0.12699999809E+01 0.  1.
       -4    1    3    3    0  502  0.61928920361E+03  0.28065260852E+03  0.53488418293E+03  0.86509404485E+03  0.12699999809E+01 0. -1.
</event>
<event>
 5   0  0.1833681E-04  0.1400392E+04  0.7818609E-02  0.8953535E-01
       -2   -1    0    0    0  501  0.00000000000E+00  0.00000000000E+00  0.42133712996E+03  0.42133712996E+03  0.25500000920E-02 0.  1.
        2   -1    0    0  501    0  0.00000000000E+00  0.00000000000E+00 -0.11636160191E+04  0.11636160191E+04  0.25500000920E-02 0. -1.
    10030    2    1    2    0    0  0.00000000000E+00  0.00000000000E+00 -0.74227888915E+03  0.15849531491E+04  0.14003922791E+04 0.  0.
        4    1    3    3  502    0 -0.67295144390E+03 -0.91416242323E+01 -0.15247845077E+03  0.69007137746E+03  0.12699999809E+01 0. -1.
       -4    1    3    3    0  502  0.67295144390E+03  0.91416242323E+01 -0.58980043837E+03  0.89488177160E+03  0.12699999809E+01 0.  1.
</event>
<event>
 5   0  0.6671375E-05  0.1393221E+04  0.7818609E-02  0.8958740E-01
        1   -1    0    0  501    0  0.00000000000E+00  0.00000000000E+00  0.10468898564E+04  0.10468898564E+04  0.50400001928E-02 0. -1.
       -1   -1    0    0    0  501  0.00000000000E+00  0.00000000000E+00 -0.46353157760E+03  0.46353157763E+03  0.50400001928E-02 0.  1.
    10030    2    1    2    0    0  0.00000000000E+00  0.00000000000E+00  0.58335827876E+03  0.15104214340E+04  0.13932214565E+04 0.  0.
        5    1    3    3  502    0  0.99001713977E+02 -0.29356994843E+03 -0.38471173949E+03  0.49397354837E+03  0.46999998093E+01 0.  1.
       -5    1    3    3    0  502 -0.99001713977E+02  0.29356994843E+03  0.96807001825E+03  0.10164478856E+04  0.46999998093E+01 0. -1.
</event>
<event>
 5   0  0.1833681E-04  0.1411616E+04  0.7818609E-02  0.8945453E-01
       -2   -1    0    0    0  501  0.00000000000E+00  0.00000000000E+00  0.36217475427E+03  0.36217475428E+03  0.25500000920E-02 0.  1.
        2   -1    0    0  501    0  0.00000000000E+00  0.00000000000E+00 -0.13754824787E+04  0.13754824787E+04  0.25500000920E-02 0. -1.
    10030    2    1    2    0    0  0.00000000000E+00  0.00000000000E+00 -0.10133077245E+04  0.17376572330E+04  0.14116161359E+04 0.  0.
        4    1    3    3  502    0 -0.42882577681E+03 -0.54355311572E+03 -0.67553416211E+03  0.96731047422E+03  0.12699999809E+01 0. -1.
       -4    1    3    3    0  502  0.42882577681E+03  0.54355311572E+03 -0.33777356235E+03  0.77034675880E+03  0.12699999809E+01 0.  1.
</event>
<event>
 5   0  0.9260916E-05  0.1399337E+04  0.7818609E-02  0.8954298E-01
       -1   -1    0    0    0  501  0.00000000000E+00  0.00000000000E+00  0.23716142068E+03  0.23716142073E+03  0.50400001928E-02 0.  1.
        1   -1    0    0  501    0  0.00000000000E+00  0.00000000000E+00 -0.20641476629E+04  0.20641476629E+04  0.50400001928E-02 0. -1.
    10030    2    1    2    0    0  0.00000000000E+00  0.00000000000E+00 -0.18269862422E+04  0.23013090836E+04  0.13993372607E+04 0.  0.
        1    1    3    3  502    0  0.43054437777E+03 -0.48808570003E+03 -0.49118708430E+03  0.81539000706E+03  0.50400001928E-02 0.  1.
       -1    1    3    3    0  502 -0.43054437777E+03  0.48808570003E+03 -0.13357991579E+04  0.14859190765E+04  0.50400001928E-02 0. -1.
</event>
<event>
 5   0  0.9828111E-05  0.1404379E+04  0.7818609E-02  0.8950655E-01
       -1   -1    0    0    0  501  0.00000000000E+00  0.00000000000E+00  0.52136115303E+03  0.52136115305E+03  0.50400001928E-02 0.  1.
        1   -1    0    0  501    0  0.00000000000E+00  0.00000000000E+00 -0.94573671144E+03  0.94573671146E+03  0.50400001928E-02 0. -1.
    10030    2    1    2    0    0  0.00000000000E+00  0.00000000000E+00 -0.42437555842E+03  0.14670978645E+04  0.14043794108E+04 0.  0.
        4    1    3    3  502    0 -0.10088421347E+03  0.60738719868E+03 -0.56486190103E+03  0.83556412907E+03  0.12699999809E+01 0. -1.
       -4    1    3    3    0  502  0.10088421347E+03 -0.60738719868E+03  0.14048634261E+03  0.63153373545E+03  0.12699999809E+01 0.  1.
</event>
<event>
 5   0  0.1833681E-04  0.1400897E+04  0.7818609E-02  0.8953170E-01
       -2   -1    0    0    0  501  0.00000000000E+00  0.00000000000E+00  0.13747025522E+04  0.13747025522E+04  0.25500000920E-02 0.  1.
        2   -1    0    0  501    0  0.00000000000E+00  0.00000000000E+00 -0.35689740248E+03  0.35689740249E+03  0.25500000920E-02 0. -1.
    10030    2    1    2    0    0  0.00000000000E+00  0.00000000000E+00  0.10178051498E+04  0.17315999547E+04  0.14008965274E+04 0.  0.
        4    1    3    3  502    0  0.19053335022E+03  0.26393259031E+03 -0.25771998301E+03  0.41519221129E+03  0.12699999809E+01 0. -1.
       -4    1    3    3    0  502 -0.19053335022E+03 -0.26393259031E+03  0.12755251328E+04  0.13164077434E+04  0.12699999809E+01 0.  1.
</event>
<event>
 5   0  0.1833681E-04  0.1399053E+04  0.7818609E-02  0.8954504E-01
       -2   -1    0    0    0  501  0.00000000000E+00  0.00000000000E+00  0.48488730622E+03  0.48488730623E+03  0.25500000920E-02 0. -1.
        2   -1    0    0  501    0  0.00000000000E+00  0.00000000000E+00 -0.10091780732E+04  0.10091780732E+04  0.25500000920E-02 0.  1.
    10030    2    1    2    0    0  0.00000000000E+00  0.00000000000E+00 -0.52429076700E+03  0.14940653794E+04  0.13990534478E+04 0.  0.
        4    1    3    3  502    0  0.51553885519E+03  0.44468633705E+03 -0.43370987416E+03  0.80723733648E+03  0.12699999809E+01 0. -1.
       -4    1    3    3    0  502 -0.51553885519E+03 -0.44468633705E+03 -0.90580892836E+02  0.68682804297E+03  0.12699999809E+01 0.  1.
</event>
<event>
 5   0  0.1780171E-04  0.1399222E+04  0.7818609E-02  0.8954382E-01
        2   -1    0    0  501    0  0.00000000000E+00  0.00000000000E+00  0.61926712336E+03  0.61926712337E+03  0.25500000920E-02 0.  1.
       -2   -1    0    0    0  501  0.00000000000E+00  0.00000000000E+00 -0.79037846861E+03  0.79037846862E+03  0.25500000920E-02 0. -1.
    10030    2    1    2    0    0  0.00000000000E+00  0.00000000000E+00 -0.17111134525E+03  0.14096455920E+04  0.13992217846E+04 0.  0.
        5    1    3    3  502    0 -0.15998796936E+03 -0.48409240304E+03 -0.56817740740E+03  0.76340635398E+03  0.46999998093E+01 0. -1.
       -5    1    3    3    0  502  0.15998796936E+03  0.48409240304E+03  0.39706606215E+03  0.64623923800E+03  0.46999998093E+01 0.  1.
</event>
<event>
 5   0  0.1712327E-04  0.1398697E+04  0.7818609E-02  0.8954763E-01
        2   -1    0    0  501    0  0.00000000000E+00  0.00000000000E+00  0.53023739441E+03  0.53023739442E+03  0.25500000920E-02 0. -1.
       -2   -1    0    0    0  501  0.00000000000E+00  0.00000000000E+00 -0.92239451676E+03  0.92239451677E+03  0.25500000920E-02 0.  1.
    10030    2    1    2    0    0  0.00000000000E+00  0.00000000000E+00 -0.39215712235E+03  0.14526319112E+04  0.13986966293E+04 0.  0.
        1    1    3    3  502    0 -0.41686589593E+02 -0.50592119567E+02  0.52703949500E+03  0.53110070949E+03  0.50400001928E-02 0. -1.
       -1    1    3    3    0  502  0.41686589593E+02  0.50592119567E+02 -0.91919661735E+03  0.92153120169E+03  0.50400001928E-02 0.  1.
</event>
<event>
 5   0  0.6671375E-05  0.1400036E+04  0.7818609E-02  0.8953792E-01
        1   -1    0    0  501    0  0.00000000000E+00  0.00000000000E+00  0.95244946105E+03  0.95244946106E+03  0.50400001928E-02 0. -1.
       -1   -1    0    0    0  501  0.00000000000E+00  0.00000000000E+00 -0.51448947725E+03  0.51448947728E+03  0.50400001928E-02 0.  1.
    10030    2    1    2    0    0  0.00000000000E+00  0.00000000000E+00  0.43795998380E+03  0.14669389383E+04  0.14000360358E+04 0.  0.
        5    1    3    3  502    0  0.17549635535E+03 -0.66282898770E+03  0.36664690375E+03  0.77755596564E+03  0.46999998093E+01 0.  1.
       -5    1    3    3    0  502 -0.17549635535E+03  0.66282898770E+03  0.71313080046E+02  0.68938297270E+03  0.46999998093E+01 0. -1.
</event>
<event>
 5   0  0.1780171E-04  0.1391850E+04  0.7818609E-02  0.8959739E-01
        2   -1    0    0  501    0  0.00000000000E+00  0.00000000000E+00  0.12486433517E+04  0.12486433517E+04  0.25500000920E-02 0.  1.
       -2   -1    0    0    0  501  0.00000000000E+00  0.00000000000E+00 -0.38787042965E+03  0.38787042966E+03  0.25500000920E-02 0. -1.
    10030    2    1    2    0    0  0.00000000000E+00  0.00000000000E+00  0.86077292202E+03  0.16365137813E+04  0.13918503272E+04 0.  0.
        5    1    3    3  502    0  0.10370516606E+03  0.52490539307E+03  0.95358911273E+03  0.10934508307E+04  0.46999998093E+01 0.  1.
       -5    1    3    3    0  502 -0.10370516606E+03 -0.52490539307E+03 -0.92816190708E+02  0.54306295068E+03  0.46999998093E+01 0. -1.
</event>
<event>
 5   0  0.9978422E-05  0.1400354E+04  0.7818609E-02  0.8953562E-01
       -1   -1    0    0    0  501  0.00000000000E+00  0.00000000000E+00  0.71445879903E+03  0.71445879905E+03  0.50400001928E-02 0. -1.
        1   -1    0    0  501    0  0.00000000000E+00  0.00000000000E+00 -0.68618097927E+03  0.68618097929E+03  0.50400001928E-02 0.  1.
    10030    2    1    2    0    0  0.00000000000E+00  0.00000000000E+00  0.28277819762E+02  0.14006397783E+04  0.14003542957E+04 0.  0.
        2    1    3    3  502    0 -0.18829589139E+03  0.63854684982E+03  0.23109467062E+03  0.70470005600E+03  0.25500000920E-02 0. -1.
       -2    1    3    3    0  502  0.18829589139E+03 -0.63854684982E+03 -0.20281685086E+03  0.69593972234E+03  0.25500000920E-02 0.  1.
</event>
<event>
 5   0  0.1780171E-04  0.1400518E+04  0.7818609E-02  0.8953444E-01
       -2   -1    0    0    0  501  0.00000000000E+00  0.00000000000E+00  0.72758326429E+03  0.72758326430E+03  0.25500000920E-02 0.  1.
        2   -1    0    0  501    0  0.00000000000E+00  0.00000000000E+00 -0.67396082725E+03  0.67396082726E+03  0.25500000920E-02 0. -1.
    10030    2    1    2    0    0  0.00000000000E+00  0.00000000000E+00  0.53622437041E+02  0.14015440916E+04  0.14005179309E+04 0.  0.
        5    1    3    3  502    0 -0.32699930253E+03  0.67215446404E+02  0.64280594578E+03  0.72433972280E+03  0.46999998093E+01 0.  1.
       -5    1    3    3    0  502  0.32699930253E+03 -0.67215446404E+02 -0.58918350874E+03  0.67720436876E+03  0.46999998093E+01 0. -1.
</event>
<event>
 5   0  0.9900839E-05  0.1401770E+04  0.7818609E-02  0.8952538E-01
       -1   -1    0    0    0  501  0.00000000000E+00  0.00000000000E+00  0.53163502477E+03  0.53163502480E+03  0.50400001928E-02 0.  1.
        1   -1    0    0  501    0  0.00000000000E+00  0.00000000000E+00 -0.92401693563E+03  0.92401693564E+03  0.50400001928E-02 0. -1.
    10030    2    1    2    0    0  0.00000000000E+00  0.00000000000E+00 -0.39238191086E+03  0.14556519604E+04  0.14017699761E+04 0.  0.
        3    1    3    3  502    0 -0.10596106935E+03  0.37612937829E+03 -0.80039684761E+03  0.89069421313E+03  0.10100000352E+00 0. -1.
       -3    1    3    3    0  502  0.10596106935E+03 -0.37612937829E+03  0.40801493675E+03  0.56495774731E+03  0.10100000352E+00 0.  1.
</event>
<event>
 5   0  0.9828111E-05  0.1400031E+04  0.7818609E-02  0.8953796E-01
       -1   -1    0    0    0  501  0.00000000000E+00  0.00000000000E+00  0.34164657732E+03  0.34164657736E+03  0.50400001928E-02 0. -1.
        1   -1    0    0  501    0  0.00000000000E+00  0.00000000000E+00 -0.14342939816E+04  0.14342939816E+04  0.50400001928E-02 0.  1.
    10030    2    1    2    0    0  0.00000000000E+00  0.00000000000E+00 -0.10926474042E+04  0.17759405589E+04  0.14000308992E+04 0.  0.
        4    1    3    3  502    0  0.70377878715E+02  0.13087583825E+03 -0.14140548513E+04  0.14218418569E+04  0.12699999809E+01 0.  1.
       -4    1    3    3    0  502 -0.70377878715E+02 -0.13087583825E+03  0.32140744702E+03  0.35409870199E+03  0.12699999809E+01 0. -1.
</event>
<event>
 5   0  0.9900839E-05  0.1413961E+04  0.7818609E-02  0.8943774E-01
       -1   -1    0    0    0  501  0.00000000000E+00  0.00000000000E+00  0.10689661647E+04  0.10689661647E+04  0.50400001928E-02 0.  1.
        1   -1    0    0  501    0  0.00000000000E+00  0.00000000000E+00 -0.46757459288E+03  0.46757459290E+03  0.50400001928E-02 0. -1.
    10030    2    1    2    0    0  0.00000000000E+00  0.00000000000E+00  0.60139157185E+03  0.15365407576E+04  0.14139609886E+04 0.  0.
        3    1    3    3  502    0  0.26802192815E+03  0.13207589712E+03 -0.39558634407E+03  0.49575030246E+03  0.10100000352E+00 0. -1.
       -3    1    3    3    0  502 -0.26802192815E+03 -0.13207589712E+03  0.99697791592E+03  0.10407904552E+04  0.10100000352E+00 0.  1.
</event>
<event>
 5   0  0.9900839E-05  0.1400311E+04  0.7818609E-02  0.8953594E-01
       -1   -1    0    0    0  501  0.00000000000E+00  0.00000000000E+00  0.38692703570E+03  0.38692703574E+03  0.50400001928E-02 0. -1.
        1   -1    0    0  501    0  0.00000000000E+00  0.00000000000E+00 -0.12669511057E+04  0.12669511057E+04  0.50400001928E-02 0.  1.
    10030    2    1    2    0    0  0.00000000000E+00  0.00000000000E+00 -0.88002406998E+03  0.16538781414E+04  0.14003108737E+04 0.  0.
        3    1    3    3  502    0  0.53783082556E+03  0.42972806030E+03 -0.28927086070E+03  0.74673010103E+03  0.10100000352E+00 0. -1.
       -3    1    3    3    0  502 -0.53783082556E+03 -0.42972806030E+03 -0.59075320928E+03  0.90714804040E+03  0.10100000352E+00 0.  1.
</event>
<event>
 5   0  0.1794185E-04  0.1399663E+04  0.7818609E-02  0.8954063E-01
        2   -1    0    0  501    0  0.00000000000E+00  0.00000000000E+00  0.89296664110E+03  0.89296664110E+03  0.25500000920E-02 0. -1.
       -2   -1    0    0    0  501  0.00000000000E+00  0.00000000000E+00 -0.54846829423E+03  0.54846829424E+03  0.25500000920E-02 0.  1.
    10030    2    1    2    0    0  0.00000000000E+00  0.00000000000E+00  0.34449834686E+03  0.14414349353E+04  0.13996626600E+04 0.  0.
        2    1    3    3  502    0  0.35321470367E+03 -0.46024766270E+03 -0.23080749537E+03  0.62438821084E+03  0.25500000920E-02 0.  1.
       -2    1    3    3    0  502 -0.35321470367E+03  0.46024766270E+03  0.57530584223E+03  0.81704672450E+03  0.25500000920E-02 0. -1.
</event>
<event>
 5   0  0.6671375E-05  0.1418440E+04  0.7818609E-02  0.8940578E-01
        1   -1    0    0  501    0  0.00000000000E+00  0.00000000000E+00  0.96786541114E+03  0.96786541116E+03  0.50400001928E-02 0.  1.
       -1   -1    0    0    0  501  0.00000000000E+00  0.00000000000E+00 -0.51969342877E+03  0.51969342880E+03  0.50400001928E-02 0. -1.
    10030    2    1    2    0    0  0.00000000000E+00  0.00000000000E+00  0.44817198237E+03  0.14875588400E+04  0.14184404029E+04 0.  0.
        5    1    3    3  502    0 -0.42188947536E+03  0.10786540941E+03  0.81113561013E+03  0.92064582983E+03  0.46999998093E+01 0.  1.
       -5    1    3    3    0  502  0.42188947536E+03 -0.10786540941E+03 -0.36296362776E+03  0.56691301012E+03  0.46999998093E+01 0. -1.
</event>
<event>
 5   0  0.9978422E-05  0.1403086E+04  0.7818609E-02  0.8951587E-01
        1   -1    0    0  501    0  0.00000000000E+00  0.00000000000E+00  0.92315602316E+03  0.92315602317E+03  0.50400001928E-02 0. -1.
       -1   -1    0    0    0  501  0.00000000000E+00  0.00000000000E+00 -0.53313074600E+03  0.53313074602E+03  0.50400001928E-02 0.  1.
    10030    2    1    2    0    0  0.00000000000E+00  0.00000000000E+00  0.39002527716E+03  0.14562867692E+04  0.14030863970E+04 0.  0.
        2    1    3    3  502    0 -0.44821797153E+03 -0.15609326706E+03  0.73122333845E+03  0.87175227487E+03  0.25500000920E-02 0. -1.
       -2    1    3    3    0  502  0.44821797153E+03  0.15609326706E+03 -0.34119806129E+03  0.58453449433E+03  0.25500000920E-02 0.  1.
</event>
<event>
 5   0  0.9900839E-05  0.1402643E+04  0.7818609E-02  0.8951907E-01
       -1   -1    0    0    0  501  0.00000000000E+00  0.00000000000E+00  0.37357496333E+03  0.37357496337E+03  0.50400001928E-02 0.  1.
        1   -1    0    0  501    0  0.00000000000E+00  0.00000000000E+00 -0.13166089662E+04  0.13166089663E+04  0.50400001928E-02 0. -1.
    10030    2    1    2    0    0  0.00000000000E+00  0.00000000000E+00 -0.94303400291E+03  0.16901839296E+04  0.14026434277E+04 0.  0.
        3    1    3    3  502    0  0.18145178432E+03 -0.56971902734E+03 -0.29843169590E+02  0.59866112711E+03  0.10100000352E+00 0.  1.
       -3    1    3    3    0  502 -0.18145178432E+03  0.56971902734E+03 -0.91319083332E+03  0.10915228025E+04  0.10100000352E+00 0. -1.
</event>
<event>
 5   0  0.1712327E-04  0.1402252E+04  0.7818609E-02  0.8952190E-01
       -2   -1    0    0    0  501  0.00000000000E+00  0.00000000000E+00  0.39844155516E+03  0.39844155517E+03  0.25500000920E-02 0.  1.
        2   -1    0    0  501    0  0.00000000000E+00  0.00000000000E+00 -0.12337514845E+04  0.12337514845E+04  0.25500000920E-02 0. -1.
    10030    2    1    2    0    0  0.00000000000E+00  0.00000000000E+00 -0.83530992936E+03  0.16321930397E+04  0.14022522743E+04 0.  0.
        1    1    3    3  502    0 -0.24853579172E+03  0.56531738419E+03 -0.80409632389E+03  0.10138662055E+04  0.50400001928E-02 0. -1.
       -1    1    3    3    0  502  0.24853579172E+03 -0.56531738419E+03 -0.31213605473E+02  0.61832683415E+03  0.50400001928E-02 0.  1.
</event>
<event>
 5   0  0.1794185E-04  0.1399232E+04  0.7818609E-02  0.8954375E-01
       -2   -1    0    0    0  501  0.00000000000E+00  0.00000000000E+00  0.38127353060E+03  0.38127353061E+03  0.25500000920E-02 0.  1.
        2   -1    0    0  501    0  0.00000000000E+00  0.00000000000E+00 -0.12837565311E+04  0.12837565311E+04  0.25500000920E-02 0. -1.
    10030    2    1    2    0    0  0.00000000000E+00  0.00000000000E+00 -0.90248300053E+03  0.16650300617E+04  0.13992317679E+04 0.  0.
        2    1    3    3  502    0 -0.39203555963E+03  0.39380251781E+03 -0.95706567283E+03  0.11066828837E+04  0.25500000920E-02 0. -1.
       -2    1    3    3    0  502  0.39203555963E+03 -0.39380251781E+03  0.54582672305E+02  0.55834717799E+03  0.25500000920E-02 0.  1.
</event>
<event>
 5   0  0.6671375E-05  0.1401759E+04  0.7818609E-02  0.8952546E-01
       -3   -1    0    0    0  501  0.00000000000E+00  0.00000000000E+00  0.57298426145E+03  0.57298427035E+03  0.10100000352E+00 0. -1.
        3   -1    0    0  501    0  0.00000000000E+00  0.00000000000E+00 -0.85732212601E+03  0.85732213196E+03  0.10100000352E+00 0.  1.
    10030    2    1    2    0    0  0.00000000000E+00  0.00000000000E+00 -0.28433786456E+03  0.14303064023E+04  0.14017590318E+04 0.  0.
        5    1    3    3  502    0 -0.69243126518E+03  0.87674786500E+02 -0.77136501146E+02  0.70222507431E+03  0.46999998093E+01 0. -1.
       -5    1    3    3    0  502  0.69243126518E+03 -0.87674786500E+02 -0.20720136342E+03  0.72808132800E+03  0.46999998093E+01 0.  1.
</event>
<event>
 5   0  0.9900839E-05  0.1414586E+04  0.7818609E-02  0.8943328E-01
        1   -1    0    0  501    0  0.00000000000E+00  0.00000000000E+00  0.65923633903E+03  0.65923633905E+03  0.50400001928E-02 0.  1.
       -1   -1    0    0    0  501  0.00000000000E+00  0.00000000000E+00 -0.75885270508E+03  0.75885270509E+03  0.50400001928E-02 0. -1.
    10030    2    1    2    0    0  0.00000000000E+00  0.00000000000E+00 -0.99616366047E+02  0.14180890441E+04  0.14145858464E+04 0.  0.
        3    1    3    3  502    0  0.61370451734E+03  0.30738516054E+03  0.12133189825E+03  0.69702246108E+03  0.10100000352E+00 0. -1.
       -3    1    3    3    0  502 -0.61370451734E+03 -0.30738516054E+03 -0.22094826430E+03  0.72106658307E+03  0.10100000352E+00 0.  1.
</event>
<event>
 5   0  0.1712327E-04  0.1392606E+04  0.7818609E-02  0.8959188E-01
       -2   -1    0    0    0  501  0.00000000000E+00  0.00000000000E+00  0.41932554316E+03  0.41932554317E+03  0.25500000920E-02 0.  1.
        2   -1    0    0  501    0  0.00000000000E+00  0.00000000000E+00 -0.11562328928E+04  0.11562328928E+04  0.25500000920E-02 0. -1.
    10030    2    1    2    0    0  0.00000000000E+00  0.00000000000E+00 -0.73690734967E+03  0.15755584360E+04  0.13926061695E+04 0.  0.
        1    1    3    3  502    0 -0.53480078783E+03  0.33386963406E+03 -0.34061981810E+02  0.63138026089E+03  0.50400001928E-02 0.  1.
       -1    1    3    3    0  502  0.53480078783E+03 -0.33386963406E+03 -0.70284536786E+03  0.94417817511E+03  0.50400001928E-02 0. -1.
</event>
<event>
 5   0  0.9260916E-05  0.1410033E+04  0.7818609E-02  0.8946588E-01
        1   -1    0    0  501    0  0.00000000000E+00  0.00000000000E+00  0.96422706384E+03  0.96422706385E+03  0.50400001928E-02 0. -1.
       -1   -1    0    0    0  501  0.00000000000E+00  0.00000000000E+00 -0.51548860865E+03  0.51548860867E+03  0.50400001928E-02 0.  1.
    10030    2    1    2    0    0  0.00000000000E+00  0.00000000000E+00  0.44873845519E+03  0.14797156725E+04  0.14100327196E+04 0.  0.
        1    1    3    3  502    0 -0.32736556159E+03  0.61411881140E+03  0.34280931496E+03  0.77577596758E+03  0.50400001928E-02 0. -1.
       -1    1    3    3    0  502  0.32736556159E+03 -0.61411881140E+03  0.10592914023E+03  0.70393970495E+03  0.50400001928E-02 0.  1.
</event>
<event>
 5   0  0.9900839E-05  0.1397014E+04  0.7818609E-02  0.8955983E-01
        1   -1    0    0  501    0  0.00000000000E+00  0.00000000000E+00  0.11564031045E+04  0.11564031045E+04  0.50400001928E-02 0.  1.
       -1   -1    0    0    0  501  0.00000000000E+00  0.00000000000E+00 -0.42192203443E+03  0.42192203446E+03  0.50400001928E-02 0. -1.
    10030    2    1    2    0    0  0.00000000000E+00  0.00000000000E+00  0.73448107007E+03  0.15783251390E+04  0.13970138875E+04 0.  0.
        3    1    3    3  502    0 -0.64167858148E+03  0.12407019846E+03  0.64574367275E+03  0.91876532214E+03  0.10100000352E+00 0.  1.
       -3    1    3    3    0  502  0.64167858148E+03 -0.12407019846E+03  0.88737397322E+02  0.65955981682E+03  0.10100000352E+00 0. -1.
</event>
<event>
 5   0  0.1833681E-04  0.1398769E+04  0.7818609E-02  0.8954710E-01
       -2   -1    0    0    0  501  0.00000000000E+00  0.00000000000E+00  0.36910675322E+03  0.36910675323E+03  0.25500000920E-02 0. -1.
        2   -1    0    0  501    0  0.00000000000E+00  0.00000000000E+00 -0.13251956993E+04  0.13251956993E+04  0.25500000920E-02 0.  1.
    10030    2    1    2    0    0  0.00000000000E+00  0.00000000000E+00 -0.95608894604E+03  0.16943024525E+04  0.13987690044E+04 0.  0.
        4    1    3    3  502    0  0.20696034923E+03  0.14151937356E+03 -0.12688883604E+04  0.12934216650E+04  0.12699999809E+01 0.  1.
       -4    1    3    3    0  502 -0.20696034923E+03 -0.14151937356E+03  0.31279941441E+03  0.40088078752E+03  0.12699999809E+01 0. -1.
</event>
<event>
 5   0  0.6671375E-05  0.1398725E+04  0.7818609E-02  0.8954742E-01
       -4   -1    0    0    0  501  0.00000000000E+00  0.00000000000E+00  0.64355655386E+03  0.64355780697E+03  0.12699999809E+01 0. -1.
        4   -1    0    0  501    0  0.00000000000E+00  0.00000000000E+00 -0.76000530498E+03  0.76000636610E+03  0.12699999809E+01 0.  1.
    10030    2    1    2    0    0  0.00000000000E+00  0.00000000000E+00 -0.11644875113E+03  0.14035641731E+04  0.13987251611E+04 0.  0.
        2    1    3    3  502    0  0.66432810227E+03 -0.14239175190E+03  0.10818293332E+03  0.68797586116E+03  0.25500000920E-02 0. -1.
       -2    1    3    3    0  502 -0.66432810227E+03  0.14239175190E+03 -0.22463168445E+03  0.71558831190E+03  0.25500000920E-02 0.  1.
</event>
<event>
 5   0  0.6671375E-05  0.1400545E+04  0.7818609E-02  0.8953424E-01
       -1   -1    0    0    0  501  0.00000000000E+00  0.00000000000E+00  0.36281064286E+03  0.36281064289E+03  0.50400001928E-02 0. -1.
        1   -1    0    0  501    0  0.00000000000E+00  0.00000000000E+00 -0.13516185553E+04  0.13516185553E+04  0.50400001928E-02 0.  1.
    10030    2    1    2    0    0  0.00000000000E+00  0.00000000000E+00 -0.98880791244E+03  0.17144291982E+04  0.14005450325E+04 0.  0.
        5    1    3    3  502    0  0.52495906305E+03  0.10960852398E+03  0.56806343941E+02  0.53930056288E+03  0.46999998093E+01 0. -1.
       -5    1    3    3    0  502 -0.52495906305E+03 -0.10960852398E+03 -0.10456142564E+04  0.11751286353E+04  0.46999998093E+01 0.  1.
</event>
<event>
 5   0  0.1712327E-04  0.1400289E+04  0.7818609E-02  0.8953609E-01
       -2   -1    0    0    0  501  0.00000000000E+00  0.00000000000E+00  0.57281147761E+03  0.57281147761E+03  0.25500000920E-02 0. -1.
        2   -1    0    0  501    0  0.00000000000E+00  0.00000000000E+00 -0.85578327442E+03  0.85578327442E+03  0.25500000920E-02 0.  1.
    10030    2    1    2    0    0  0.00000000000E+00  0.00000000000E+00 -0.28297179682E+03  0.14285947520E+04  0.14002892300E+04 0.  0.
        1    1    3    3  502    0 -0.25590916294E+02 -0.67390365751E+03 -0.33344195106E+03  0.75231945964E+03  0.50400001928E-02 0.  1.
       -1    1    3    3    0  502  0.25590916294E+02  0.67390365751E+03  0.50470154248E+02  0.67627529239E+03  0.50400001928E-02 0. -1.
</event>
<event>
 5   0  0.1780171E-04  0.1398742E+04  0.7818609E-02  0.8954730E-01
        2   -1    0    0  501    0  0.00000000000E+00  0.00000000000E+00  0.25338655328E+04  0.25338655328E+04  0.25500000920E-02 0.  1.
       -2   -1    0    0    0  501  0.00000000000E+00  0.00000000000E+00 -0.19303301376E+03  0.19303301377E+03  0.25500000920E-02 0. -1.
    10030    2    1    2    0    0  0.00000000000E+00  0.00000000000E+00  0.23408325191E+04  0.27268985466E+04  0.13987418637E+04 0.  0.
        5    1    3    3  502    0 -0.18853522632E+03  0.42902207801E+02  0.24806897995E+04  0.24882182586E+04  0.46999998093E+01 0.  1.
       -5    1    3    3    0  502  0.18853522632E+03 -0.42902207801E+02 -0.13985728044E+03  0.23868028802E+03  0.46999998093E+01 0. -1.
</event>
<event>
 5   0  0.1833681E-04  0.1400959E+04  0.7818609E-02  0.8953124E-01
       -2   -1    0    0    0  501  0.00000000000E+00  0.00000000000E+00  0.48459272393E+03  0.48459272394E+03  0.25500000920E-02 0. -1.
        2   -1    0    0  501    0  0.00000000000E+00  0.00000000000E+00 -0.10125446869E+04  0.10125446869E+04  0.25500000920E-02 0.  1.
    10030    2    1    2    0    0  0.00000000000E+00  0.00000000000E+00 -0.52795196298E+03  0.14971374109E+04  0.14009593684E+04 0.  0.
        4    1    3    3  502    0  0.62342139430E+03 -0.26548734871E+03 -0.74211603799E+02  0.68165001448E+03  0.12699999809E+01 0. -1.
       -4    1    3    3    0  502 -0.62342139430E+03  0.26548734871E+03 -0.45374035918E+03  0.81548739638E+03  0.12699999809E+01 0.  1.
</event>
<event>
 5   0  0.9900839E-05  0.1394974E+04  0.7818609E-02  0.8957465E-01
       -1   -1    0    0    0  501  0.00000000000E+00  0.00000000000E+00  0.37160357524E+03  0.37160357528E+03  0.50400001928E-02 0.  1.
        1   -1    0    0  501    0  0.00000000000E+00  0.00000000000E+00 -0.13091584876E+04  0.13091584876E+04  0.50400001928E-02 0. -1.
    10030    2    1    2    0    0  0.00000000000E+00  0.00000000000E+00 -0.93755491234E+03  0.16807620629E+04  0.13949737984E+04 0.  0.
        3    1    3    3  502    0  0.17928269644E+03 -0.33551457501E+03  0.23560859134E+03  0.44746366757E+03  0.10100000352E+00 0.  1.
       -3    1    3    3    0  502 -0.17928269644E+03  0.33551457501E+03 -0.11731635037E+04  0.12332983953E+04  0.10100000352E+00 0. -1.
</event>
<event>
 5   0  0.9900839E-05  0.1399624E+04  0.7818609E-02  0.8954091E-01
        1   -1    0    0  501    0  0.00000000000E+00  0.00000000000E+00  0.68854338904E+03  0.68854338906E+03  0.50400001928E-02 0. -1.
       -1   -1    0    0    0  501  0.00000000000E+00  0.00000000000E+00 -0.71126469941E+03  0.71126469943E+03  0.50400001928E-02 0.  1.
    10030    2    1    2    0    0  0.00000000000E+00  0.00000000000E+00 -0.22721310376E+02  0.13998080885E+04  0.13996236732E+04 0.  0.
        3    1    3    3  502    0  0.16243791989E+01  0.67625752416E+03 -0.19141137051E+03  0.70282657928E+03  0.10100000352E+00 0.  1.
       -3    1    3    3    0  502 -0.16243791989E+01 -0.67625752416E+03  0.16869006013E+03  0.69698150921E+03  0.10100000352E+00 0. -1.
</event>
<event>
 5   0  0.1766237E-04  0.1400407E+04  0.7818609E-02  0.8953524E-01
       -2   -1    0    0    0  501  0.00000000000E+00  0.00000000000E+00  0.10531248594E+04  0.10531248594E+04  0.25500000920E-02 0.  1.
        2   -1    0    0  501    0  0.00000000000E+00  0.00000000000E+00 -0.46555228471E+03  0.46555228472E+03  0.25500000920E-02 0. -1.
    10030    2    1    2    0    0  0.00000000000E+00  0.00000000000E+00  0.58757257472E+03  0.15186771442E+04  0.14004066330E+04 0.  0.
        3    1    3    3  502    0 -0.33929170884E+03 -0.35020130898E+03 -0.25117212609E+03  0.54849545816E+03  0.10100000352E+00 0. -1.
       -3    1    3    3    0  502  0.33929170884E+03  0.35020130898E+03  0.83874470081E+03  0.97018168599E+03  0.10100000352E+00 0.  1.
</event>
<event>
 5   0  0.1833681E-04  0.1400528E+04  0.7818609E-02  0.8953436E-01
        2   -1    0    0  501    0  0.00000000000E+00  0.00000000000E+00  0.19132103880E+04  0.19132103880E+04  0.25500000920E-02 0.  1.
       -2   -1    0    0    0  501  0.00000000000E+00  0.00000000000E+00 -0.25630733595E+03  0.25630733596E+03  0.25500000920E-02 0. -1.
    10030    2    1    2    0    0  0.00000000000E+00  0.00000000000E+00  0.16569030520E+04  0.21695177239E+04  0.14005282684E+04 0.  0.
        4    1    3    3  502    0 -0.46093401607E+02 -0.53840123582E+03  0.15183844331E+04  0.16116740961E+04  0.12699999809E+01 0.  1.
       -4    1    3    3    0  502  0.46093401607E+02  0.53840123582E+03  0.13851861886E+03  0.55784362779E+03  0.12699999809E+01 0. -1.
</event>
<event>
 5   0  0.9978422E-05  0.1399060E+04  0.7818609E-02  0.8954499E-01
        1   -1    0    0  501    0  0.00000000000E+00  0.00000000000E+00  0.24765504069E+03  0.24765504075E+03  0.50400001928E-02 0.  1.
       -1   -1    0    0    0  501  0.00000000000E+00  0.00000000000E+00 -0.19759025843E+04  0.19759025843E+04  0.50400001928E-02 0. -1.
    10030    2    1    2    0    0  0.00000000000E+00  0.00000000000E+00 -0.17282475436E+04  0.22235576251E+04  0.13990600201E+04 0.  0.
        2    1    3    3  502    0  0.19946785760E+03  0.54575300738E+03 -0.14831612568E+04  0.15929221842E+04  0.25500000920E-02 0. -1.
       -2    1    3    3    0  502 -0.19946785760E+03 -0.54575300738E+03 -0.24508628685E+03  0.63063544088E+03  0.25500000920E-02 0.  1.
</event>
<event>
 5   0  0.9260916E-05  0.1398554E+04  0.7818609E-02  0.8954866E-01
        1   -1    0    0  501    0  0.00000000000E+00  0.00000000000E+00  0.88829161905E+03  0.88829161907E+03  0.50400001928E-02 0.  1.
       -1   -1    0    0    0  501  0.00000000000E+00  0.00000000000E+00 -0.55048139294E+03  0.55048139297E+03  0.50400001928E-02 0. -1.
    10030    2    1    2    0    0  0.00000000000E+00  0.00000000000E+00  0.33781022611E+03  0.14387730120E+04  0.13985535497E+04 0.  0.
        1    1    3    3  502    0  0.42481508288E+03 -0.38305670158E+02 -0.40115379214E+03  0.58554209411E+03  0.50400001928E-02 0. -1.
       -1    1    3    3    0  502 -0.42481508288E+03  0.38305670158E+02  0.73896401824E+03  0.85323091792E+03  0.50400001928E-02 0.  1.
</event>
<event>
 5   0  0.9978422E-05  0.1402629E+04  0.7818609E-02  0.8951918E-01
       -1   -1    0    0    0  501  0.00000000000E+00  0.00000000000E+00  0.85548332017E+03  0.85548332018E+03  0.50400001928E-02 0.  1.
        1   -1    0    0  501    0  0.00000000000E+00  0.00000000000E+00 -0.57492859320E+03  0.57492859322E+03  0.50400001928E-02 0. -1.
    10030    2    1    2    0    0  0.00000000000E+00  0.00000000000E+00  0.28055472697E+03  0.14304119134E+04  0.14026287061E+04 0.  0.
        2    1    3    3  502    0 -0.43632892546E+03  0.14177875834E+03 -0.40066099447E+03  0.60910867668E+03  0.25500000920E-02 0. -1.
       -2    1    3    3    0  502  0.43632892546E+03 -0.14177875834E+03  0.68121572144E+03  0.82130323672E+03  0.25500000920E-02 0.  1.
</event>
<event>
 5   0  0.6671375E-05  0.1400763E+04  0.7818609E-02  0.8953266E-01
       -1   -1    0    0    0  501  0.00000000000E+00  0.00000000000E+00  0.39404213324E+03  0.39404213327E+03  0.50400001928E-02 0. -1.
        1   -1    0    0  501    0  0.00000000000E+00  0.00000000000E+00 -0.12448783260E+04  0.12448783260E+04  0.50400001928E-02 0.  1.
    10030    2    1    2    0    0  0.00000000000E+00  0.00000000000E+00 -0.85083619279E+03  0.16389204593E+04  0.14007633794E+04 0.  0.
        5    1    3    3  502    0  0.61475945427E+03 -0.14124091900E+02 -0.33184448669E+02  0.61583437239E+03  0.46999998093E+01 0. -1.
       -5    1    3    3    0  502 -0.61475945427E+03  0.14124091900E+02 -0.81765174413E+03  0.10230860869E+04  0.46999998093E+01 0.  1.
</event>
<event>
 5   0  0.1833681E-04  0.1398073E+04  0.7818609E-02  0.8955214E-01
        2   -1    0    0  501    0  0.00000000000E+00  0.00000000000E+00  0.12558363834E+04  0.12558363835E+04  0.25500000920E-02 0.  1.
       -2   -1    0    0    0  501  0.00000000000E+00  0.00000000000E+00 -0.38910496518E+03  0.38910496518E+03  0.25500000920E-02 0. -1.
    10030    2    1    2    0    0  0.00000000000E+00  0.00000000000E+00  0.86673141827E+03  0.16449413486E+04  0.13980732059E+04 0.  0.
        4    1    3    3  502    0  0.41594839067E+03  0.54929557738E+03  0.29459009058E+03  0.74934880356E+03  0.12699999809E+01 0.  1.
       -4    1    3    3    0  502 -0.41594839067E+03 -0.54929557738E+03  0.57214132769E+03  0.89559254507E+03  0.12699999809E+01 0. -1.
</event>
<event>
 5   0  0.1833681E-04  0.1402655E+04  0.7818609E-02  0.8951899E-01
       -2   -1    0    0    0  501  0.00000000000E+00  0.00000000000E+00  0.61496247566E+03  0.61496247566E+03  0.25500000920E-02 0.  1.
        2   -1    0    0  501    0  0.00000000000E+00  0.00000000000E+00 -0.79982203601E+03  0.79982203601E+03  0.25500000920E-02 0. -1.
    10030    2    1    2    0    0  0.00000000000E+00  0.00000000000E+00 -0.18485956035E+03  0.14147845117E+04  0.14026553951E+04 0.  0.
        4    1    3    3  502    0 -0.82942360709E+02  0.45619396520E+03 -0.62316090852E+03  0.77673901659E+03  0.12699999809E+01 0. -1.
       -4    1    3    3    0  502  0.82942360709E+02 -0.45619396520E+03  0.43830134817E+03  0.63804549508E+03  0.12699999809E+01 0.  1.
</event>
<event>
 5   0  0.1780171E-04  0.1398080E+04  0.7818609E-02  0.8955210E-01
       -2   -1    0    0    0  501  0.00000000000E+00  0.00000000000E+00  0.45478851236E+03  0.45478851237E+03  0.25500000920E-02 0. -1.
        2   -1    0    0  501    0  0.00000000000E+00  0.00000000000E+00 -0.10744699282E+04  0.10744699282E+04  0.25500000920E-02 0.  1.
    10030    2    1    2    0    0  0.00000000000E+00  0.00000000000E+00 -0.61968141582E+03  0.15292584406E+04  0.13980795117E+04 0.  0.
        5    1    3    3  502    0  0.48632974910E+03  0.25638770201E+03 -0.78206944300E+03  0.95598430023E+03  0.46999998093E+01 0.  1.
       -5    1    3    3    0  502 -0.48632974910E+03 -0.25638770201E+03  0.16238802718E+03  0.57327414033E+03  0.46999998093E+01 0. -1.
</event>
<event>
 5   0  0.6671375E-05  0.1399981E+04  0.7818609E-02  0.8953832E-01
       -3   -1    0    0    0  501  0.00000000000E+00  0.00000000000E+00  0.77173232169E+03  0.77173232830E+03  0.10100000352E+00 0. -1.
        3   -1    0    0  501    0  0.00000000000E+00  0.00000000000E+00 -0.63491791502E+03  0.63491792305E+03  0.10100000352E+00 0.  1.
    10030    2    1    2    0    0  0.00000000000E+00  0.00000000000E+00  0.13681440668E+03  0.14066502514E+04  0.13999809812E+04 0.  0.
        2    1    3    3  502    0 -0.63223873509E+03 -0.21820725388E+03  0.27590118368E+03  0.72350652172E+03  0.25500000920E-02 0. -1.
       -2    1    3    3    0  502  0.63223873509E+03  0.21820725388E+03 -0.13908677701E+03  0.68314372964E+03  0.25500000920E-02 0.  1.
</event>
<event>
 5   0  0.9900839E-05  0.1401154E+04  0.7818609E-02  0.8952984E-01
       -1   -1    0    0    0  501  0.00000000000E+00  0.00000000000E+00  0.25648032665E+03  0.25648032670E+03  0.50400001928E-02 0.  1.
        1   -1    0    0  501    0  0.00000000000E+00  0.00000000000E+00 -0.19136287126E+04  0.19136287126E+04  0.50400001928E-02 0. -1.
    10030    2    1    2    0    0  0.00000000000E+00  0.00000000000E+00 -0.16571483860E+04  0.21701090393E+04  0.14011539778E+04 0.  0.
        3    1    3    3  502    0  0.33812153822E+03  0.10171772457E+03  0.10859191521E+03  0.36941153792E+03  0.10100000352E+00 0.  1.
       -3    1    3    3    0  502 -0.33812153822E+03 -0.10171772457E+03 -0.17657403012E+04  0.18006975014E+04  0.10100000352E+00 0. -1.
</event>
<event>
 5   0  0.9978422E-05  0.1405795E+04  0.7818609E-02  0.8949634E-01
       -1   -1    0    0    0  501  0.00000000000E+00  0.00000000000E+00  0.74031415327E+03  0.74031415329E+03  0.50400001928E-02 0. -1.
        1   -1    0    0  501    0  0.00000000000E+00  0.00000000000E+00 -0.66737238396E+03  0.66737238398E+03  0.50400001928E-02 0.  1.
    10030    2    1    2    0    0  0.00000000000E+00  0.00000000000E+00  0.72941769310E+02  0.14076865373E+04  0.14057954636E+04 0.  0.
        2    1    3    3  502    0  0.62143981356E+03  0.30168301247E+03  0.16651143183E+03  0.71058154974E+03  0.25500000920E-02 0.  1.
       -2    1    3    3    0  502 -0.62143981356E+03 -0.30168301247E+03 -0.93569662523E+02  0.69710498753E+03  0.25500000920E-02 0. -1.
</event>
<event>
 5   0  0.1712327E-04  0.1398303E+04  0.7818609E-02  0.8955048E-01
        2   -1    0    0  501    0  0.00000000000E+00  0.00000000000E+00  0.11126175784E+04  0.11126175784E+04  0.25500000920E-02 0.  1.
       -2   -1    0    0    0  501  0.00000000000E+00  0.00000000000E+00 -0.43933586464E+03  0.43933586465E+03  0.25500000920E-02 0. -1.
    10030    2    1    2    0    0  0.00000000000E+00  0.00000000000E+00  0.67328171378E+03  0.15519534431E+04  0.13983029798E+04 0.  0.
        1    1    3    3  502    0 -0.51726389796E+03  0.15384610014E+03  0.82998657302E+03  0.99000417882E+03  0.50400001928E-02 0.  1.
       -1    1    3    3    0  502  0.51726389796E+03 -0.15384610014E+03 -0.15670485924E+03  0.56194926426E+03  0.50400001928E-02 0. -1.
</event>
<event>
 5   0  0.9828111E-05  0.1402369E+04  0.7818609E-02  0.8952105E-01
       -1   -1    0    0    0  501  0.00000000000E+00  0.00000000000E+00  0.36879608527E+03  0.36879608531E+03  0.50400001928E-02 0.  1.
        1   -1    0    0  501    0  0.00000000000E+00  0.00000000000E+00 -0.13331485097E+04  0.13331485097E+04  0.50400001928E-02 0. -1.
    10030    2    1    2    0    0  0.00000000000E+00  0.00000000000E+00 -0.96435242442E+03  0.17019445950E+04  0.14023693543E+04 0.  0.
        4    1    3    3  502    0 -0.10395705431E+02 -0.22958273628E+03 -0.12861411623E+04  0.13065133011E+04  0.12699999809E+01 0. -1.
       -4    1    3    3    0  502  0.10395705431E+02  0.22958273628E+03  0.32178873791E+03  0.39543129395E+03  0.12699999809E+01 0.  1.
</event>
<event>
 5   0  0.1712327E-04  0.1397921E+04  0.7818609E-02  0.8955325E-01
       -2   -1    0    0    0  501  0.00000000000E+00  0.00000000000E+00  0.71896686682E+03  0.71896686682E+03  0.25500000920E-02 0.  1.
        2   -1    0    0  501    0  0.00000000000E+00  0.00000000000E+00 -0.67951040471E+03  0.67951040471E+03  0.25500000920E-02 0. -1.
    10030    2    1    2    0    0  0.00000000000E+00  0.00000000000E+00  0.39456462108E+02  0.13984772715E+04  0.13979205509E+04 0.  0.
        1    1    3    3  502    0  0.51071119778E+03  0.82072548499E+02 -0.45054794738E+03  0.68597032273E+03  0.50400001928E-02 0. -1.
       -1    1    3    3    0  502 -0.51071119778E+03 -0.82072548499E+02  0.49000440948E+03  0.71250694880E+03  0.50400001928E-02 0.  1.
</event>
<event>
 5   0  0.6671375E-05  0.1398944E+04  0.7818609E-02  0.8954583E-01
       -1   -1    0    0    0  501  0.00000000000E+00  0.00000000000E+00  0.60206311136E+03  0.60206311138E+03  0.50400001928E-02 0. -1.
        1   -1    0    0  501    0  0.00000000000E+00  0.00000000000E+00 -0.81264131228E+03  0.81264131230E+03  0.50400001928E-02 0.  1.
    10030    2    1    2    0    0  0.00000000000E+00  0.00000000000E+00 -0.21057820092E+03  0.14147044237E+04  0.13989443976E+04 0.  0.
        5    1    3    3  502    0  0.34570863536E+03 -0.58240892887E+03 -0.28197039620E+03  0.73365115370E+03  0.46999998093E+01 0. -1.
       -5    1    3    3    0  502 -0.34570863536E+03  0.58240892887E+03  0.71392195286E+02  0.68105326997E+03  0.46999998093E+01 0.  1.
</event>
<event>
 5   0  0.1794185E-04  0.1397979E+04  0.7818609E-02  0.8955283E-01
        2   -1    0    0  501    0  0.00000000000E+00  0.00000000000E+00  0.14537990361E+04  0.14537990361E+04  0.25500000920E-02 0. -1.
       -2   -1    0    0    0  501  0.00000000000E+00  0.00000000000E+00 -0.33607562718E+03  0.33607562719E+03  0.25500000920E-02 0.  1.
    10030    2    1    2    0    0  0.00000000000E+00  0.00000000000E+00  0.11177234089E+04  0.17898746633E+04  0.13979791456E+04 0.  0.
        2    1    3    3  502    0  0.32024422780E+03 -0.45271545578E+03  0.11036850387E+04  0.12351632742E+04  0.25500000920E-02 0. -1.
       -2    1    3    3    0  502 -0.32024422780E+03  0.45271545578E+03  0.14038370259E+02  0.55471138909E+03  0.25500000920E-02 0.  1.
</event>
<event>
 5   0  0.9828111E-05  0.1400494E+04  0.7818609E-02  0.8953461E-01
        1   -1    0    0  501    0  0.00000000000E+00  0.00000000000E+00  0.12152737795E+04  0.12152737795E+04  0.50400001928E-02 0.  1.
       -1   -1    0    0    0  501  0.00000000000E+00  0.00000000000E+00 -0.40348596172E+03  0.40348596175E+03  0.50400001928E-02 0. -1.
    10030    2    1    2    0    0  0.00000000000E+00  0.00000000000E+00  0.81178781774E+03  0.16187597412E+04  0.14004940695E+04 0.  0.
        4    1    3    3  502    0 -0.38506063840E+03  0.26415017086E+03 -0.19725254580E+03  0.50690944727E+03  0.12699999809E+01 0. -1.
       -4    1    3    3    0  502  0.38506063840E+03 -0.26415017086E+03  0.10090403635E+04  0.11118502940E+04  0.12699999809E+01 0.  1.
</event>
<event>
 5   0  0.1833681E-04  0.1400009E+04  0.7818609E-02  0.8953812E-01
        2   -1    0    0  501    0  0.00000000000E+00  0.00000000000E+00  0.13412859601E+04  0.13412859601E+04  0.25500000920E-02 0.  1.
       -2   -1    0    0    0  501  0.00000000000E+00  0.00000000000E+00 -0.36532575188E+03  0.36532575189E+03  0.25500000920E-02 0. -1.
    10030    2    1    2    0    0  0.00000000000E+00  0.00000000000E+00  0.97596020825E+03  0.17066117120E+04  0.14000090026E+04 0.  0.
        4    1    3    3  502    0 -0.10527611012E+03 -0.53040047629E+03 -0.53888548450E+02  0.54342737616E+03  0.12699999809E+01 0.  1.
       -4    1    3    3    0  502  0.10527611012E+03  0.53040047629E+03  0.10298487567E+04  0.11631843359E+04  0.12699999809E+01 0. -1.
</event>
<event>
 5   0  0.9900839E-05  0.1401291E+04  0.7818609E-02  0.8952884E-01
       -1   -1    0    0    0  501  0.00000000000E+00  0.00000000000E+00  0.16534188120E+04  0.16534188120E+04  0.50400001928E-02 0. -1.
        1   -1    0    0  501    0  0.00000000000E+00  0.00000000000E+00 -0.29690264743E+03  0.29690264748E+03  0.50400001928E-02 0.  1.
    10030    2    1    2    0    0  0.00000000000E+00  0.00000000000E+00  0.13565161645E+04  0.19503214594E+04  0.14012914367E+04 0.  0.
        3    1    3    3  502    0 -0.31835844967E+03 -0.18472725693E+03 -0.15150410929E+03  0.39803236962E+03  0.10100000352E+00 0.  1.
       -3    1    3    3    0  502  0.31835844967E+03  0.18472725693E+03  0.15080202738E+04  0.15522890898E+04  0.10100000352E+00 0. -1.
</event>
<event>
 5   0  0.1780171E-04  0.1399507E+04  0.7818609E-02  0.8954175E-01
        2   -1    0    0  501    0  0.00000000000E+00  0.00000000000E+00  0.13915021924E+04  0.13915021924E+04  0.25500000920E-02 0.  1.
       -2   -1    0    0    0  501  0.00000000000E+00  0.00000000000E+00 -0.35188949542E+03  0.35188949543E+03  0.25500000920E-02 0. -1.
    10030    2    1    2    0    0  0.00000000000E+00  0.00000000000E+00  0.10396126970E+04  0.17433916879E+04  0.13995070623E+04 0.  0.
        5    1    3    3  502    0  0.83041077146E+02 -0.23027616077E+03 -0.29679031031E+03  0.38474603183E+03  0.46999998093E+01 0. -1.
       -5    1    3    3    0  502 -0.83041077146E+02  0.23027616077E+03  0.13364030073E+04  0.13586456561E+04  0.46999998093E+01 0.  1.
</event>
<event>
 5   0  0.1780171E-04  0.1398479E+04  0.7818609E-02  0.8954921E-01
        2   -1    0    0  501    0  0.00000000000E+00  0.00000000000E+00  0.51332335152E+03  0.51332335152E+03  0.25500000920E-02 0. -1.
       -2   -1    0    0    0  501  0.00000000000E+00  0.00000000000E+00 -0.95249043220E+03  0.95249043220E+03  0.25500000920E-02 0.  1.
    10030    2    1    2    0    0  0.00000000000E+00  0.00000000000E+00 -0.43916708068E+03  0.14658137837E+04  0.13984785747E+04 0.  0.
        5    1    3    3  502    0 -0.38975251011E+03 -0.13576316737E+03 -0.81118429178E+03  0.91015421879E+03  0.46999998093E+01 0.  1.
       -5    1    3    3    0  502  0.38975251011E+03  0.13576316737E+03  0.37201721109E+03  0.55565956494E+03  0.46999998093E+01 0. -1.
</event>
<event>
 5   0  0.1712327E-04  0.1400224E+04  0.7818609E-02  0.8953656E-01
       -2   -1    0    0    0  501  0.00000000000E+00  0.00000000000E+00  0.30965914224E+03  0.30965914225E+03  0.25500000920E-02 0. -1.
        2   -1    0    0  501    0  0.00000000000E+00  0.00000000000E+00 -0.15828920034E+04  0.15828920034E+04  0.25500000920E-02 0.  1.
    10030    2    1    2    0    0  0.00000000000E+00  0.00000000000E+00 -0.12732328612E+04  0.18925511457E+04  0.14002242393E+04 0.  0.
        1    1    3    3  502    0 -0.42563465283E+03 -0.49441153475E+03 -0.29321982921E+03  0.71525204764E+03  0.50400001928E-02 0. -1.
       -1    1    3    3    0  502  0.42563465283E+03  0.49441153475E+03 -0.98001303199E+03  0.11772990981E+04  0.50400001928E-02 0.  1.
</event>
<event>
 5   0  0.9978422E-05  0.1398002E+04  0.7818609E-02  0.8955266E-01
       -1   -1    0    0    0  501  0.00000000000E+00  0.00000000000E+00  0.33350505548E+03  0.33350505552E+03  0.50400001928E-02 0.  1.
        1   -1    0    0  501    0  0.00000000000E+00  0.00000000000E+00 -0.14650532426E+04  0.14650532426E+04  0.50400001928E-02 0. -1.
    10030    2    1    2    0    0  0.00000000000E+00  0.00000000000E+00 -0.11315481871E+04  0.17985582981E+04  0.13980023791E+04 0.  0.
        2    1    3    3  502    0 -0.42472850274E+03  0.22548082396E+03  0.86894682900E+02  0.48865794676E+03  0.25500000920E-02 0.  1.
       -2    1    3    3    0  502  0.42472850274E+03 -0.22548082396E+03 -0.12184428700E+04  0.13099003513E+04  0.25500000920E-02 0. -1.
</event>
<event>
 5   0  0.9900839E-05  0.1402756E+04  0.7818609E-02  0.8951826E-01
       -1   -1    0    0    0  501  0.00000000000E+00  0.00000000000E+00  0.19069783156E+03  0.19069783163E+03  0.50400001928E-02 0.  1.
        1   -1    0    0  501    0  0.00000000000E+00  0.00000000000E+00 -0.25796366998E+04  0.25796366998E+04  0.50400001928E-02 0. -1.
    10030    2    1    2    0    0  0.00000000000E+00  0.00000000000E+00 -0.23889388682E+04  0.27703345314E+04  0.14027560372E+04 0.  0.
        3    1    3    3  502    0  0.11370037582E+03  0.67523160008E+03 -0.89453060790E+03  0.11265214192E+04  0.10100000352E+00 0. -1.
       -3    1    3    3    0  502 -0.11370037582E+03 -0.67523160008E+03 -0.14944082603E+04  0.16438131122E+04  0.10100000352E+00 0.  1.
</event>
<event>
 5   0  0.9900839E-05  0.1403505E+04  0.7818609E-02  0.8951285E-01
        1   -1    0    0  501    0  0.00000000000E+00  0.00000000000E+00  0.43163792308E+03  0.43163792311E+03  0.50400001928E-02 0. -1.
       -1   -1    0    0    0  501  0.00000000000E+00  0.00000000000E+00 -0.11409026817E+04  0.11409026817E+04  0.50400001928E-02 0.  1.
    10030    2    1    2    0    0  0.00000000000E+00  0.00000000000E+00 -0.70926475859E+03  0.15725406048E+04  0.14035054171E+04 0.  0.
        3    1    3    3  502    0  0.56779239706E+03 -0.40416784210E+03 -0.44646046845E+03  0.82768762878E+03  0.10100000352E+00 0. -1.
       -3    1    3    3    0  502 -0.56779239706E+03  0.40416784210E+03 -0.26280429014E+03  0.74485297600E+03  0.10100000352E+00 0.  1.
</event>
<event>
 5   0  0.1833681E-04  0.1400785E+04  0.7818609E-02  0.8953250E-01
        2   -1    0    0  501    0  0.00000000000E+00  0.00000000000E+00  0.14352599210E+04  0.14352599210E+04  0.25500000920E-02 0. -1.
       -2   -1    0    0    0  501  0.00000000000E+00  0.00000000000E+00 -0.34178472523E+03  0.34178472524E+03  0.25500000920E-02 0.  1.
    10030    2    1    2    0    0  0.00000000000E+00  0.00000000000E+00  0.10934751957E+04  0.17770446462E+04  0.14007853765E+04 0.  0.
        4    1    3    3  502    0 -0.76339384143E+02 -0.52336030514E+03 -0.35737115424E+02  0.53010608833E+03  0.12699999809E+01 0.  1.
       -4    1    3    3    0  502  0.76339384143E+02  0.52336030514E+03  0.11292123111E+04  0.12469385579E+04  0.12699999809E+01 0. -1.
</event>
<event>
 5   0  0.6671375E-05  0.1400468E+04  0.7818609E-02  0.8953480E-01
       -1   -1    0    0    0  501  0.00000000000E+00  0.00000000000E+00  0.63378962511E+03  0.63378962513E+03  0.50400001928E-02 0. -1.
        1   -1    0    0  501    0  0.00000000000E+00  0.00000000000E+00 -0.77364452790E+03  0.77364452791E+03  0.50400001928E-02 0.  1.
    10030    2    1    2    0    0  0.00000000000E+00  0.00000000000E+00 -0.13985490279E+03  0.14074341530E+04  0.14004683150E+04 0.  0.
        5    1    3    3  502    0  0.12016725686E+02 -0.56592229415E+03 -0.48415881256E+03  0.74487870858E+03  0.46999998093E+01 0. -1.
       -5    1    3    3    0  502 -0.12016725686E+02  0.56592229415E+03  0.34430390977E+03  0.66255544447E+03  0.46999998093E+01 0.  1.
</event>
<event>
 5   0  0.9828111E-05  0.1399134E+04  0.7818609E-02  0.8954445E-01
        1   -1    0    0  501    0  0.00000000000E+00  0.00000000000E+00  0.16268530452E+04  0.16268530452E+04  0.50400001928E-02 0. -1.
       -1   -1    0    0    0  501  0.00000000000E+00  0.00000000000E+00 -0.30082264079E+03  0.30082264083E+03  0.50400001928E-02 0.  1.
    10030    2    1    2    0    0  0.00000000000E+00  0.00000000000E+00  0.13260304044E+04  0.19276756860E+04  0.13991343456E+04 0.  0.
        4    1    3    3  502    0  0.22195063244E+02 -0.68430759334E+03  0.46515809040E+03  0.82773375255E+03  0.12699999809E+01 0.  1.
       -4    1    3    3    0  502 -0.22195063244E+02  0.68430759334E+03  0.86087231399E+03  0.10999419335E+04  0.12699999809E+01 0. -1.
</event>
<event>
 5   0  0.9978422E-05  0.1399881E+04  0.7818609E-02  0.8953905E-01
       -1   -1    0    0    0  501  0.00000000000E+00  0.00000000000E+00  0.32378593860E+03  0.32378593864E+03  0.50400001928E-02 0.  1.
        1   -1    0    0  501    0  0.00000000000E+00  0.00000000000E+00 -0.15130886662E+04  0.15130886662E+04  0.50400001928E-02 0. -1.
    10030    2    1    2    0    0  0.00000000000E+00  0.00000000000E+00 -0.11893027276E+04  0.18368746048E+04  0.13998811864E+04 0.  0.
        2    1    3    3  502    0  0.51760148375E+03  0.41370366189E+03 -0.29874494502E+03  0.72684974928E+03  0.25500000920E-02 0.  1.
       -2    1    3    3    0  502 -0.51760148375E+03 -0.41370366189E+03 -0.89055778254E+03  0.11100248555E+04  0.25500000920E-02 0. -1.
</event>
<event>
 5   0  0.1766237E-04  0.1405156E+04  0.7818609E-02  0.8950095E-01
       -2   -1    0    0    0  501  0.00000000000E+00  0.00000000000E+00  0.34111953495E+03  0.34111953496E+03  0.25500000920E-02 0.  1.
        2   -1    0    0  501    0  0.00000000000E+00  0.00000000000E+00 -0.14470471524E+04  0.14470471524E+04  0.25500000920E-02 0. -1.
    10030    2    1    2    0    0  0.00000000000E+00  0.00000000000E+00 -0.11059276174E+04  0.17881666873E+04  0.14051562926E+04 0.  0.
        3    1    3    3  502    0  0.34672732654E+03 -0.22872888457E+03 -0.12740538886E+04  0.13400559925E+04  0.10100000352E+00 0. -1.
       -3    1    3    3    0  502 -0.34672732654E+03  0.22872888457E+03  0.16812627118E+03  0.44811069489E+03  0.10100000352E+00 0.  1.
</event>
<event>
 5   0  0.1833681E-04  0.1397178E+04  0.7818609E-02  0.8955864E-01
       -2   -1    0    0    0  501  0.00000000000E+00  0.00000000000E+00  0.86855606459E+03  0.86855606460E+03  0.25500000920E-02 0.  1.
        2   -1    0    0  501    0  0.00000000000E+00  0.00000000000E+00 -0.56188252533E+03  0.56188252533E+03  0.25500000920E-02 0. -1.
    10030    2    1    2    0    0  0.00000000000E+00  0.00000000000E+00  0.30667353926E+03  0.14304385899E+04  0.13971778340E+04 0.  0.
        4    1    3    3  502    0 -0.80633838206E+02 -0.10800157715E+03  0.85511706482E+03  0.86567486043E+03  0.12699999809E+01 0.  1.
       -4    1    3    3    0  502  0.80633838206E+02  0.10800157715E+03 -0.54844352556E+03  0.56476372950E+03  0.12699999809E+01 0. -1.
</event>
<event>
 5   0  0.1712327E-04  0.1397050E+04  0.7818609E-02  0.8955957E-01
        2   -1    0    0  501    0  0.00000000000E+00  0.00000000000E+00  0.16285329751E+04  0.16285329751E+04  0.25500000920E-02 0. -1.
       -2   -1    0    0    0  501  0.00000000000E+00  0.00000000000E+00 -0.29961766579E+03  0.29961766580E+03  0.25500000920E-02 0.  1.
    10030    2    1    2    0    0  0.00000000000E+00  0.00000000000E+00  0.13289153093E+04  0.19281506409E+04  0.13970501046E+04 0.  0.
        1    1    3    3  502    0 -0.49083778112E+03 -0.24895051102E+03  0.12581491233E+04  0.13732579149E+04  0.50400001928E-02 0. -1.
       -1    1    3    3    0  502  0.49083778112E+03  0.24895051102E+03  0.70766186040E+02  0.55489272605E+03  0.50400001928E-02 0.  1.
</event>
<event>
 5   0  0.1766237E-04  0.1397561E+04  0.7818609E-02  0.8955586E-01
        2   -1    0    0  501    0  0.00000000000E+00  0.00000000000E+00  0.91886137022E+03  0.91886137022E+03  0.25500000920E-02 0. -1.
       -2   -1    0    0    0  501  0.00000000000E+00  0.00000000000E+00 -0.53141238094E+03  0.53141238094E+03  0.25500000920E-02 0.  1.
    10030    2    1    2    0    0  0.00000000000E+00  0.00000000000E+00  0.38744898928E+03  0.14502737512E+04  0.13975611736E+04 0.  0.
        3    1    3    3  502    0 -0.26587796709E+03 -0.38579118044E+03 -0.34425811666E+03  0.58141172105E+03  0.10100000352E+00 0.  1.
       -3    1    3    3    0  502  0.26587796709E+03  0.38579118044E+03  0.73170710594E+03  0.86886203011E+03  0.10100000352E+00 0. -1.
</event>
<event>
 5   0  0.6671375E-05  0.1401970E+04  0.7818609E-02  0.8952393E-01
       -1   -1    0    0    0  501  0.00000000000E+00  0.00000000000E+00  0.71522050721E+03  0.71522050723E+03  0.50400001928E-02 0. -1.
        1   -1    0    0  501    0  0.00000000000E+00  0.00000000000E+00 -0.68703329458E+03  0.68703329460E+03  0.50400001928E-02 0.  1.
    10030    2    1    2    0    0  0.00000000000E+00  0.00000000000E+00  0.28187212624E+02  0.14022538018E+04  0.14019704725E+04 0.  0.
        5    1    3    3  502    0  0.45574995431E+03  0.13617080661E+03 -0.50089655477E+03  0.69077489677E+03  0.46999998093E+01 0.  1.
       -5    1    3    3    0  502 -0.45574995431E+03 -0.13617080661E+03  0.52908376739E+03  0.71147890506E+03  0.46999998093E+01 0. -1.
</event>
<event>
 5   0  0.9828111E-05  0.1399004E+04  0.7818609E-02  0.8954539E-01
        1   -1    0    0  501    0  0.00000000000E+00  0.00000000000E+00  0.22799477687E+04  0.22799477687E+04  0.50400001928E-02 0.  1.
       -1   -1    0    0    0  501  0.00000000000E+00  0.00000000000E+00 -0.21461165296E+03  0.21461165301E+03  0.50400001928E-02 0. -1.
    10030    2    1    2    0    0  0.00000000000E+00  0.00000000000E+00  0.20653361157E+04  0.24945594217E+04  0.13990044451E+04 0.  0.
        4    1    3    3  502    0  0.49532273369E+03 -0.19749221709E+03  0.18399085086E+04  0.19156233240E+04  0.12699999809E+01 0.  1.
       -4    1    3    3    0  502 -0.49532273369E+03  0.19749221709E+03  0.22542760711E+03  0.57893609774E+03  0.12699999809E+01 0. -1.
</event>
<event>
 5   0  0.6671375E-05  0.1396528E+04  0.7818609E-02  0.8956335E-01
       -1   -1    0    0    0  501  0.00000000000E+00  0.00000000000E+00  0.15165919450E+04  0.15165919451E+04  0.50400001928E-02 0. -1.
        1   -1    0    0  501    0  0.00000000000E+00  0.00000000000E+00 -0.32149250070E+03  0.32149250074E+03  0.50400001928E-02 0.  1.
    10030    2    1    2    0    0  0.00000000000E+00  0.00000000000E+00  0.11950994443E+04  0.18380844458E+04  0.13965284630E+04 0.  0.
        5    1    3    3  502    0  0.64195110542E+03 -0.13233530236E+03  0.28074354283E+03  0.71305882004E+03  0.46999998093E+01 0.  1.
       -5    1    3    3    0  502 -0.64195110542E+03  0.13233530236E+03  0.91435590151E+03  0.11250256258E+04  0.46999998093E+01 0. -1.
</event>
<event>
 5   0  0.9260916E-05  0.1400077E+04  0.7818609E-02  0.8953762E-01
        1   -1    0    0  501    0  0.00000000000E+00  0.00000000000E+00  0.99042449710E+03  0.99042449711E+03  0.50400001928E-02 0. -1.
       -1   -1    0    0    0  501  0.00000000000E+00  0.00000000000E+00 -0.49479209246E+03  0.49479209248E+03  0.50400001928E-02 0.  1.
    10030    2    1    2    0    0  0.00000000000E+00  0.00000000000E+00  0.49563240464E+03  0.14852165896E+04  0.14000774398E+04 0.  0.
        1    1    3    3  502    0 -0.48058103001E+03 -0.38760327563E+03 -0.10218655632E+03  0.62580869122E+03  0.50400001928E-02 0.  1.
       -1    1    3    3    0  502  0.48058103001E+03  0.38760327563E+03  0.59781896095E+03  0.85940789838E+03  0.50400001928E-02 0. -1.
</event>
<event>
 5   0  0.1833681E-04  0.1399164E+04  0.7818609E-02  0.8954424E-01
       -2   -1    0    0    0  501  0.00000000000E+00  0.00000000000E+00  0.52498960210E+03  0.52498960211E+03  0.25500000920E-02 0.  1.
        2   -1    0    0  501    0  0.00000000000E+00  0.00000000000E+00 -0.93223759617E+03  0.93223759617E+03  0.25500000920E-02 0. -1.
    10030    2    1    2    0    0  0.00000000000E+00  0.00000000000E+00 -0.40724799407E+03  0.14572271983E+04  0.13991641000E+04 0.  0.
        4    1    3    3  502    0  0.32936538411E+03  0.14268606876E+03 -0.82901978584E+03  0.90339154783E+03  0.12699999809E+01 0. -1.
       -4    1    3    3    0  502 -0.32936538411E+03 -0.14268606876E+03  0.42177179178E+03  0.55383565045E+03  0.12699999809E+01 0.  1.
</event>
<event>
 5   0  0.1712327E-04  0.1399740E+04  0.7818609E-02  0.8954007E-01
        2   -1    0    0  501    0  0.00000000000E+00  0.00000000000E+00  0.13759977118E+04  0.13759977118E+04  0.25500000920E-02 0. -1.
       -2   -1    0    0    0  501  0.00000000000E+00  0.00000000000E+00 -0.35597280307E+03  0.35597280308E+03  0.25500000920E-02 0.  1.
    10030    2    1    2    0    0  0.00000000000E+00  0.00000000000E+00  0.10200249088E+04  0.17319705149E+04  0.13997396365E+04 0.  0.
        1    1    3    3  502    0 -0.52880862180E+03  0.40398744521E+02 -0.55048577748E+02  0.53319880250E+03  0.50400001928E-02 0.  1.
       -1    1    3    3    0  502  0.52880862180E+03 -0.40398744521E+02  0.10750734865E+04  0.11987717124E+04  0.50400001928E-02 0. -1.
</event>
<event>
 5   0  0.1794185E-04  0.1399161E+04  0.7818609E-02  0.8954426E-01
       -2   -1    0    0    0  501  0.00000000000E+00  0.00000000000E+00  0.37305088021E+03  0.37305088021E+03  0.25500000920E-02 0.  1.
        2   -1    0    0  501    0  0.00000000000E+00  0.00000000000E+00 -0.13119191005E+04  0.13119191005E+04  0.25500000920E-02 0. -1.
    10030    2    1    2    0    0  0.00000000000E+00  0.00000000000E+00 -0.93886822028E+03  0.16849699807E+04  0.13991605701E+04 0.  0.
        2    1    3    3  502    0 -0.45252397575E+03  0.36018448700E+02 -0.11104613489E+04  0.11996664890E+04  0.25500000920E-02 0. -1.
       -2    1    3    3    0  502  0.45252397575E+03 -0.36018448700E+02  0.17159312866E+03  0.48530349173E+03  0.25500000920E-02 0.  1.
</event>
<event>
 5   0  0.9900839E-05  0.1398373E+04  0.7818609E-02  0.8954997E-01
        1   -1    0    0  501    0  0.00000000000E+00  0.00000000000E+00  0.18424681037E+04  0.18424681037E+04  0.50400001928E-02 0. -1.
       -1   -1    0    0    0  501  0.00000000000E+00  0.00000000000E+00 -0.26532978408E+03  0.26532978413E+03  0.50400001928E-02 0.  1.
    10030    2    1    2    0    0  0.00000000000E+00  0.00000000000E+00  0.15771383197E+04  0.21077978879E+04  0.13983728604E+04 0.  0.
        3    1    3    3  502    0 -0.33817811941E+02  0.52334232928E+03  0.14855825559E+04  0.15754321244E+04  0.10100000352E+00 0. -1.
       -3    1    3    3    0  502  0.33817811941E+02 -0.52334232928E+03  0.91555763738E+02  0.53236576345E+03  0.10100000352E+00 0.  1.
</event>
<event>
 5   0  0.1766237E-04  0.1393383E+04  0.7818609E-02  0.8958622E-01
       -2   -1    0    0    0  501  0.00000000000E+00  0.00000000000E+00  0.80125827639E+03  0.80125827639E+03  0.25500000920E-02 0. -1.
        2   -1    0    0  501    0  0.00000000000E+00  0.00000000000E+00 -0.60577123275E+03  0.60577123275E+03  0.25500000920E-02 0.  1.
    10030    2    1    2    0    0  0.00000000000E+00  0.00000000000E+00  0.19548704364E+03  0.14070295091E+04  0.13933832407E+04 0.  0.
        3    1    3    3  502    0  0.49441549889E+03  0.32314365303E+03  0.47083554709E+03  0.75535066601E+03  0.10100000352E+00 0. -1.
       -3    1    3    3    0  502 -0.49441549889E+03 -0.32314365303E+03 -0.27534850345E+03  0.65167884313E+03  0.10100000352E+00 0.  1.
</event>
<event>
 5   0  0.1780171E-04  0.1400369E+04  0.7818609E-02  0.8953552E-01
        2   -1    0    0  501    0  0.00000000000E+00  0.00000000000E+00  0.18628487100E+04  0.18628487100E+04  0.25500000920E-02 0.  1.
       -2   -1    0    0    0  501  0.00000000000E+00  0.00000000000E+00 -0.26317652769E+03  0.26317652770E+03  0.25500000920E-02 0. -1.
    10030    2    1    2    0    0  0.00000000000E+00  0.00000000000E+00  0.15996721823E+04  0.21260252377E+04  0.14003686017E+04 0.  0.
        5    1    3    3  502    0  0.35784553444E+03 -0.55040150159E+03  0.11693546334E+04  0.13410471983E+04  0.46999998093E+01 0. -1.
       -5    1    3    3    0  502 -0.35784553444E+03  0.55040150159E+03  0.43031754898E+03  0.78497803945E+03  0.46999998093E+01 0.  1.
</event>
<event>
 5   0  0.1712327E-04  0.1400477E+04  0.7818609E-02  0.8953474E-01
       -2   -1    0    0    0  501  0.00000000000E+00  0.00000000000E+00  0.75905637983E+03  0.75905637983E+03  0.25500000920E-02 0.  1.
        2   -1    0    0  501    0  0.00000000000E+00  0.00000000000E+00 -0.64597791841E+03  0.64597791842E+03  0.25500000920E-02 0. -1.
    10030    2    1    2    0    0  0.00000000000E+00  0.00000000000E+00  0.11307846142E+03  0.14050342982E+04  0.14004765763E+04 0.  0.
        1    1    3    3  502    0  0.28376411786E+03 -0.32116681081E+03 -0.49903500296E+03  0.65780402032E+03  0.50400001928E-02 0. -1.
       -1    1    3    3    0  502 -0.28376411786E+03  0.32116681081E+03  0.61211346438E+03  0.74723027792E+03  0.50400001928E-02 0.  1.
</event>
<event>
 5   0  0.9900839E-05  0.1399794E+04  0.7818609E-02  0.8953968E-01
       -1   -1    0    0    0  501  0.00000000000E+00  0.00000000000E+00  0.29834380337E+03  0.29834380341E+03  0.50400001928E-02 0.  1.
        1   -1    0    0  501    0  0.00000000000E+00  0.00000000000E+00 -0.16419169782E+04  0.16419169782E+04  0.50400001928E-02 0. -1.
    10030    2    1    2    0    0  0.00000000000E+00  0.00000000000E+00 -0.13435731748E+04  0.19402607816E+04  0.13997939222E+04 0.  0.
        3    1    3    3  502    0 -0.52325731968E+03  0.23349703855E+03 -0.12288845196E+04  0.13559042231E+04  0.10100000352E+00 0. -1.
       -3    1    3    3    0  502  0.52325731968E+03 -0.23349703855E+03 -0.11468865524E+03  0.58435655849E+03  0.10100000352E+00 0.  1.
</event>
<event>
 5   0  0.9828111E-05  0.1396862E+04  0.7818609E-02  0.8956093E-01
       -1   -1    0    0    0  501  0.00000000000E+00  0.00000000000E+00  0.24877544943E+03  0.24877544948E+03  0.50400001928E-02 0.  1.
        1   -1    0    0  501    0  0.00000000000E+00  0.00000000000E+00 -0.19608285532E+04  0.19608285532E+04  0.50400001928E-02 0. -1.
    10030    2    1    2    0    0  0.00000000000E+00  0.00000000000E+00 -0.17120531038E+04  0.22096040027E+04  0.13968622046E+04 0.  0.
        4    1    3    3  502    0  0.44534008178E+03 -0.52789070827E+03 -0.69157665019E+03  0.97738235318E+03  0.12699999809E+01 0.  1.
       -4    1    3    3    0  502 -0.44534008178E+03  0.52789070827E+03 -0.10204764536E+04  0.12322216495E+04  0.12699999809E+01 0. -1.
</event>
<event>
 5   0  0.9900839E-05  0.1392397E+04  0.7818609E-02  0.8959340E-01
        1   -1    0    0  501    0  0.00000000000E+00  0.00000000000E+00  0.64075932885E+03  0.64075932887E+03  0.50400001928E-02 0.  1.
       -1   -1    0    0    0  501  0.00000000000E+00  0.00000000000E+00 -0.75643429711E+03  0.75643429712E+03  0.50400001928E-02 0. -1.
    10030    2    1    2    0    0  0.00000000000E+00  0.00000000000E+00 -0.11567496825E+03  0.13971936260E+04  0.13923969729E+04 0.  0.
        3    1    3    3  502    0  0.12092594959E+03  0.60997584818E+03 -0.37196334106E+03  0.72460358676E+03  0.10100000352E+00 0. -1.
       -3    1    3    3    0  502 -0.12092594959E+03 -0.60997584818E+03  0.25628837281E+03  0.67259003924E+03  0.10100000352E+00 0.  1.
</event>
<event>
 5   0  0.1712327E-04  0.1400675E+04  0.7818609E-02  0.8953330E-01
       -2   -1    0    0    0  501  0.00000000000E+00  0.00000000000E+00  0.31176771405E+03  0.31176771406E+03  0.25500000920E-02 0.  1.
        2   -1    0    0  501    0  0.00000000000E+00  0.00000000000E+00 -0.15731988952E+04  0.15731988952E+04  0.25500000920E-02 0. -1.
    10030    2    1    2    0    0  0.00000000000E+00  0.00000000000E+00 -0.12614311811E+04  0.18849666092E+04  0.14006750134E+04 0.  0.
        1    1    3    3  502    0  0.95379821839E+02 -0.37149365168E+02  0.30164679466E+03  0.31854069520E+03  0.50400001928E-02 0.  1.
       -1    1    3    3    0  502 -0.95379821839E+02  0.37149365168E+02 -0.15630779758E+04  0.15664259140E+04  0.50400001928E-02 0. -1.
</event>
<event>
 5   0  0.1780171E-04  0.1400867E+04  0.7818609E-02  0.8953191E-01
       -2   -1    0    0    0  501  0.00000000000E+00  0.00000000000E+00  0.86723289013E+03  0.86723289013E+03  0.25500000920E-02 0.  1.
        2   -1    0    0  501    0  0.00000000000E+00  0.00000000000E+00 -0.56571564084E+03  0.56571564085E+03  0.25500000920E-02 0. -1.
    10030    2    1    2    0    0  0.00000000000E+00  0.00000000000E+00  0.30151724929E+03  0.14329485310E+04  0.14008671746E+04 0.  0.
        5    1    3    3  502    0 -0.23459330165E+03 -0.55957745446E+03  0.50866318039E+03  0.79178359784E+03  0.46999998093E+01 0.  1.
       -5    1    3    3    0  502  0.23459330165E+03  0.55957745446E+03 -0.20714593110E+03  0.64116493314E+03  0.46999998093E+01 0. -1.
</event>
<event>
 5   0  0.1794185E-04  0.1413284E+04  0.7818609E-02  0.8944258E-01
       -2   -1    0    0    0  501  0.00000000000E+00  0.00000000000E+00  0.51281561108E+03  0.51281561109E+03  0.25500000920E-02 0.  1.
        2   -1    0    0  501    0  0.00000000000E+00  0.00000000000E+00 -0.97372866272E+03  0.97372866272E+03  0.25500000920E-02 0. -1.
    10030    2    1    2    0    0  0.00000000000E+00  0.00000000000E+00 -0.46091305163E+03  0.14865442738E+04  0.14132844855E+04 0.  0.
        2    1    3    3  502    0 -0.53222035730E+03  0.85229840878E+02 -0.71111317245E+03  0.89230296343E+03  0.25500000920E-02 0. -1.
       -2    1    3    3    0  502  0.53222035730E+03 -0.85229840878E+02  0.25020012082E+03  0.59424131038E+03  0.25500000920E-02 0.  1.
</event>
<event>
 5   0  0.1766237E-04  0.1402128E+04  0.7818609E-02  0.8952280E-01
       -2   -1    0    0    0  501  0.00000000000E+00  0.00000000000E+00  0.40632239842E+03  0.40632239843E+03  0.25500000920E-02 0.  1.
        2   -1    0    0  501    0  0.00000000000E+00  0.00000000000E+00 -0.12096076428E+04  0.12096076428E+04  0.25500000920E-02 0. -1.
    10030    2    1    2    0    0  0.00000000000E+00  0.00000000000E+00 -0.80328524442E+03  0.16159300413E+04  0.14021279237E+04 0.  0.
        3    1    3    3  502    0 -0.45689114621E+03 -0.37980348307E+03 -0.83053156544E+03  0.10211674185E+04  0.10100000352E+00 0. -1.
       -3    1    3    3    0  502  0.45689114621E+03  0.37980348307E+03  0.27246321018E+02  0.59476262277E+03  0.10100000352E+00 0.  1.
</event>
<event>
 5   0  0.1794185E-04  0.1399621E+04  0.7818609E-02  0.8954093E-01
       -2   -1    0    0    0  501  0.00000000000E+00  0.00000000000E+00  0.76210446604E+03  0.76210446604E+03  0.25500000920E-02 0. -1.
        2   -1    0    0  501    0  0.00000000000E+00  0.00000000000E+00 -0.64260808262E+03  0.64260808262E+03  0.25500000920E-02 0.  1.
    10030    2    1    2    0    0  0.00000000000E+00  0.00000000000E+00  0.11949638342E+03  0.14047125487E+04  0.13996206481E+04 0.  0.
        2    1    3    3  502    0  0.46622946391E+03  0.95956082023E+02  0.57460278349E+03  0.74615403336E+03  0.25500000920E-02 0. -1.
       -2    1    3    3    0  502 -0.46622946391E+03 -0.95956082023E+02 -0.45510640007E+03  0.65855851531E+03  0.25500000920E-02 0.  1.
</event>
<event>
 5   0  0.1766237E-04  0.1397503E+04  0.7818609E-02  0.8955628E-01
        2   -1    0    0  501    0  0.00000000000E+00  0.00000000000E+00  0.58223126198E+03  0.58223126198E+03  0.25500000920E-02 0.  1.
       -2   -1    0    0    0  501  0.00000000000E+00  0.00000000000E+00 -0.83859025973E+03  0.83859025973E+03  0.25500000920E-02 0. -1.
    10030    2    1    2    0    0  0.00000000000E+00  0.00000000000E+00 -0.25635899775E+03  0.14208215217E+04  0.13975027230E+04 0.  0.
        3    1    3    3  502    0 -0.12956271186E+03  0.86423408300E+02 -0.82071955295E+03  0.83536584596E+03  0.10100000352E+00 0. -1.
       -3    1    3    3    0  502  0.12956271186E+03 -0.86423408300E+02  0.56436055520E+03  0.58545567575E+03  0.10100000352E+00 0.  1.
</event>
<event>
 5   0  0.1766237E-04  0.1399382E+04  0.7818609E-02  0.8954266E-01
       -2   -1    0    0    0  501  0.00000000000E+00  0.00000000000E+00  0.22670173814E+03  0.22670173816E+03  0.25500000920E-02 0.  1.
        2   -1    0    0  501    0  0.00000000000E+00  0.00000000000E+00 -0.21595221202E+04  0.21595221203E+04  0.25500000920E-02 0. -1.
    10030    2    1    2    0    0  0.00000000000E+00  0.00000000000E+00 -0.19328203821E+04  0.23862238584E+04  0.13993818896E+04 0.  0.
        3    1    3    3  502    0 -0.59382705703E+03  0.35977461161E+03 -0.11140754876E+04  0.13127195234E+04  0.10100000352E+00 0.  1.
       -3    1    3    3    0  502  0.59382705703E+03 -0.35977461161E+03 -0.81874489454E+03  0.10735043350E+04  0.10100000352E+00 0. -1.
</event>
<event>
 5   0  0.1833681E-04  0.1402712E+04  0.7818609E-02  0.8951858E-01
        2   -1    0    0  501    0  0.00000000000E+00  0.00000000000E+00  0.11702243144E+04  0.11702243144E+04  0.25500000920E-02 0.  1.
       -2   -1    0    0    0  501  0.00000000000E+00  0.00000000000E+00 -0.42034685701E+03  0.42034685701E+03  0.25500000920E-02 0. -1.
    10030    2    1    2    0    0  0.00000000000E+00  0.00000000000E+00  0.74987745741E+03  0.15905711714E+04  0.14027118201E+04 0.  0.
        4    1    3    3  502    0  0.17092116024E+03  0.36473632983E+03  0.10259858449E+04  0.11022228451E+04  0.12699999809E+01 0.  1.
       -4    1    3    3    0  502 -0.17092116024E+03 -0.36473632983E+03 -0.27610838751E+03  0.48834832637E+03  0.12699999809E+01 0. -1.
</event>
<event>
 5   0  0.9900839E-05  0.1401830E+04  0.7818609E-02  0.8952495E-01
       -1   -1    0    0    0  501  0.00000000000E+00  0.00000000000E+00  0.54834061347E+03  0.54834061350E+03  0.50400001928E-02 0.  1.
        1   -1    0    0  501    0  0.00000000000E+00  0.00000000000E+00 -0.89594324502E+03  0.89594324503E+03  0.50400001928E-02 0. -1.
    10030    2    1    2    0    0  0.00000000000E+00  0.00000000000E+00 -0.34760263154E+03  0.14442838585E+04  0.14018303302E+04 0.  0.
        3    1    3    3  502    0 -0.29127074251E+02  0.48818026644E+02  0.54596161198E+03  0.54891317905E+03  0.10100000352E+00 0.  1.
       -3    1    3    3    0  502  0.29127074251E+02 -0.48818026644E+02 -0.89356424352E+03  0.89537067948E+03  0.10100000352E+00 0. -1.
</event>
<event>
 5   0  0.9978422E-05  0.1398709E+04  0.7818609E-02  0.8954754E-01
        1   -1    0    0  501    0  0.00000000000E+00  0.00000000000E+00  0.46655196080E+03  0.46655196083E+03  0.50400001928E-02 0.  1.
       -1   -1    0    0    0  501  0.00000000000E+00  0.00000000000E+00 -0.10483213819E+04  0.10483213819E+04  0.50400001928E-02 0. -1.
    10030    2    1    2    0    0  0.00000000000E+00  0.00000000000E+00 -0.58176942107E+03  0.15148733427E+04  0.13987085419E+04 0.  0.
        2    1    3    3  502    0 -0.15653084132E+03  0.47377597153E+03 -0.82161399159E+03  0.96125705546E+03  0.25500000920E-02 0. -1.
       -2    1    3    3    0  502  0.15653084132E+03 -0.47377597153E+03  0.23984457053E+03  0.55361628725E+03  0.25500000920E-02 0.  1.
</event>
<event>
 5   0  0.9978422E-05  0.1401492E+04  0.7818609E-02  0.8952739E-01
       -1   -1    0    0    0  501  0.00000000000E+00  0.00000000000E+00  0.30427753948E+03  0.30427753952E+03  0.50400001928E-02 0.  1.
        1   -1    0    0  501    0  0.00000000000E+00  0.00000000000E+00 -0.16138067754E+04  0.16138067754E+04  0.50400001928E-02 0. -1.
    10030    2    1    2    0    0  0.00000000000E+00  0.00000000000E+00 -0.13095292359E+04  0.19180843149E+04  0.14014922830E+04 0.  0.
        2    1    3    3  502    0 -0.24282193597E+02 -0.26381721967E+03 -0.15426230980E+04  0.15652077092E+04  0.25500000920E-02 0. -1.
       -2    1    3    3    0  502  0.24282193597E+02  0.26381721967E+03  0.23309386211E+03  0.35287660574E+03  0.25500000920E-02 0.  1.
</event>
<event>
 5   0  0.9900839E-05  0.1400187E+04  0.7818609E-02  0.8953683E-01
        1   -1    0    0  501    0  0.00000000000E+00  0.00000000000E+00  0.17982941914E+04  0.17982941914E+04  0.50400001928E-02 0. -1.
       -1   -1    0    0    0  501  0.00000000000E+00  0.00000000000E+00 -0.27255311602E+03  0.27255311607E+03  0.50400001928E-02 0.  1.
    10030    2    1    2    0    0  0.00000000000E+00  0.00000000000E+00  0.15257410754E+04  0.20708473075E+04  0.14001866811E+04 0.  0.
        3    1    3    3  502    0  0.39431120291E+03  0.46888714263E+03  0.12639678860E+04  0.14046178499E+04  0.10100000352E+00 0. -1.
       -3    1    3    3    0  502 -0.39431120291E+03 -0.46888714263E+03  0.26177318941E+03  0.66622945759E+03  0.10100000352E+00 0.  1.
</event>
<event>
 5   0  0.1712327E-04  0.1401108E+04  0.7818609E-02  0.8953017E-01
       -2   -1    0    0    0  501  0.00000000000E+00  0.00000000000E+00  0.54844558147E+03  0.54844558148E+03  0.25500000920E-02 0. -1.
        2   -1    0    0  501    0  0.00000000000E+00  0.00000000000E+00 -0.89484947586E+03  0.89484947586E+03  0.25500000920E-02 0.  1.
    10030    2    1    2    0    0  0.00000000000E+00  0.00000000000E+00 -0.34640389438E+03  0.14432950573E+04  0.14011084771E+04 0.  0.
        1    1    3    3  502    0 -0.66937355912E+03 -0.19391668000E+03 -0.99553800445E+02  0.70397130598E+03  0.50400001928E-02 0. -1.
       -1    1    3    3    0  502  0.66937355912E+03  0.19391668000E+03 -0.24685009394E+03  0.73932375136E+03  0.50400001928E-02 0.  1.
</event>
<event>
 5   0  0.9900839E-05  0.1400570E+04  0.7818609E-02  0.8953406E-01
        1   -1    0    0  501    0  0.00000000000E+00  0.00000000000E+00  0.13469691944E+04  0.13469691944E+04  0.50400001928E-02 0. -1.
       -1   -1    0    0    0  501  0.00000000000E+00  0.00000000000E+00 -0.36407618057E+03  0.36407618061E+03  0.50400001928E-02 0.  1.
    10030    2    1    2    0    0  0.00000000000E+00  0.00000000000E+00  0.98289301381E+03  0.17110453750E+04  0.14005704548E+04 0.  0.
        3    1    3    3  502    0  0.49109766451E+03  0.19320912872E+03 -0.70913683977E+02  0.53248046376E+03  0.10100000352E+00 0.  1.
       -3    1    3    3    0  502 -0.49109766451E+03 -0.19320912872E+03  0.10538066978E+04  0.11785649112E+04  0.10100000352E+00 0. -1.
</event>
<event>
 5   0  0.1766237E-04  0.1401152E+04  0.7818609E-02  0.8952985E-01
        2   -1    0    0  501    0  0.00000000000E+00  0.00000000000E+00  0.13871174989E+04  0.13871174989E+04  0.25500000920E-02 0. -1.
       -2   -1    0    0    0  501  0.00000000000E+00  0.00000000000E+00 -0.35383204875E+03  0.35383204876E+03  0.25500000920E-02 0.  1.
    10030    2    1    2    0    0  0.00000000000E+00  0.00000000000E+00  0.10332854501E+04  0.17409495476E+04  0.14011518497E+04 0.  0.
        3    1    3    3  502    0  0.58872402811E+03  0.19080935026E+02  0.45393433150E+02  0.59077968594E+03  0.10100000352E+00 0.  1.
       -3    1    3    3    0  502 -0.58872402811E+03 -0.19080935026E+02  0.98789201696E+03  0.11501698617E+04  0.10100000352E+00 0. -1.
</event>
<event>
 5   0  0.9260916E-05  0.1395813E+04  0.7818609E-02  0.8956855E-01
       -1   -1    0    0    0  501  0.00000000000E+00  0.00000000000E+00  0.23644967003E+03  0.23644967009E+03  0.50400001928E-02 0. -1.
        1   -1    0    0  501    0  0.00000000000E+00  0.00000000000E+00 -0.20599462554E+04  0.20599462554E+04  0.50400001928E-02 0.  1.
    10030    2    1    2    0    0  0.00000000000E+00  0.00000000000E+00 -0.18234965854E+04  0.22963959255E+04  0.13958131858E+04 0.  0.
        1    1    3    3  502    0  0.10672866225E+03  0.40067190101E+03 -0.18353280986E+04  0.18815839629E+04  0.50400001928E-02 0.  1.
       -1    1    3    3    0  502 -0.10672866225E+03 -0.40067190101E+03  0.11831513277E+02  0.41481196263E+03  0.50400001928E-02 0. -1.
</event>
<event>
 5   0  0.1833681E-04  0.1401380E+04  0.7818609E-02  0.8952820E-01
        2   -1    0    0  501    0  0.00000000000E+00  0.00000000000E+00  0.11387320632E+04  0.11387320632E+04  0.25500000920E-02 0.  1.
       -2   -1    0    0    0  501  0.00000000000E+00  0.00000000000E+00 -0.43115184471E+03  0.43115184471E+03  0.25500000920E-02 0. -1.
    10030    2    1    2    0    0  0.00000000000E+00  0.00000000000E+00  0.70758021847E+03  0.15698839079E+04  0.14013799337E+04 0.  0.
        4    1    3    3  502    0  0.28373673098E+03  0.26037243674E+03 -0.30197179993E+03  0.48937605088E+03  0.12699999809E+01 0. -1.
       -4    1    3    3    0  502 -0.28373673098E+03 -0.26037243674E+03  0.10095520184E+04  0.10805078570E+04  0.12699999809E+01 0.  1.
</event>
<event>
 5   0  0.1833681E-04  0.1398962E+04  0.7818609E-02  0.8954570E-01
        2   -1    0    0  501    0  0.00000000000E+00  0.00000000000E+00  0.76589367349E+03  0.76589367349E+03  0.25500000920E-02 0.  1.
       -2   -1    0    0    0  501  0.00000000000E+00  0.00000000000E+00 -0.63882760016E+03  0.63882760017E+03  0.25500000920E-02 0. -1.
    10030    2    1    2    0    0  0.00000000000E+00  0.00000000000E+00  0.12706607333E+03  0.14047212737E+04  0.13989624976E+04 0.  0.
        4    1    3    3  502    0  0.37044640041E+02  0.19502463777E+03  0.73701415843E+03  0.76328133563E+03  0.12699999809E+01 0.  1.
       -4    1    3    3    0  502 -0.37044640041E+02 -0.19502463777E+03 -0.60994808510E+03  0.64143993804E+03  0.12699999809E+01 0. -1.
</event>
<event>
 5   0  0.6671375E-05  0.1367152E+04  0.7818609E-02  0.8977945E-01
        1   -1    0    0  501    0  0.00000000000E+00  0.00000000000E+00  0.97949570654E+03  0.97949570656E+03  0.50400001928E-02 0. -1.
       -1   -1    0    0    0  501  0.00000000000E+00  0.00000000000E+00 -0.47705756667E+03  0.47705756669E+03  0.50400001928E-02 0.  1.
    10030    2    1    2    0    0  0.00000000000E+00  0.00000000000E+00  0.50243813988E+03  0.14565532733E+04  0.13671515473E+04 0.  0.
        5    1    3    3  502    0  0.87800743529E+02  0.41831544539E+03 -0.31710274407E+03  0.53223399244E+03  0.46999998093E+01 0.  1.
       -5    1    3    3    0  502 -0.87800743529E+02 -0.41831544539E+03  0.81954088395E+03  0.92431928081E+03  0.46999998093E+01 0. -1.
</event>
<event>
 5   0  0.9900839E-05  0.1394854E+04  0.7818609E-02  0.8957552E-01
        1   -1    0    0  501    0  0.00000000000E+00  0.00000000000E+00  0.35923769135E+03  0.35923769138E+03  0.50400001928E-02 0. -1.
       -1   -1    0    0    0  501  0.00000000000E+00  0.00000000000E+00 -0.13539903561E+04  0.13539903561E+04  0.50400001928E-02 0.  1.
    10030    2    1    2    0    0  0.00000000000E+00  0.00000000000E+00 -0.99475266471E+03  0.17132280475E+04  0.13948539273E+04 0.  0.
        3    1    3    3  502    0 -0.22118955025E+03 -0.34150619198E+03 -0.11931044266E+04  0.12605750590E+04  0.10100000352E+00 0.  1.
       -3    1    3    3    0  502  0.22118955025E+03  0.34150619198E+03  0.19835176192E+03  0.45265298846E+03  0.10100000352E+00 0. -1.
</event>
<event>
 5   0  0.9978422E-05  0.1397377E+04  0.7818609E-02  0.8955719E-01
       -1   -1    0    0    0  501  0.00000000000E+00  0.00000000000E+00  0.57127064636E+03  0.57127064638E+03  0.50400001928E-02 0. -1.
        1   -1    0    0  501    0  0.00000000000E+00  0.00000000000E+00 -0.85452608069E+03  0.85452608070E+03  0.50400001928E-02 0.  1.
    10030    2    1    2    0    0  0.00000000000E+00  0.00000000000E+00 -0.28325543433E+03  0.14257967271E+04  0.13973770665E+04 0.  0.
        2    1    3    3  502    0  0.40977894434E+03 -0.80330981351E+01  0.43572697238E+03  0.59819838545E+03  0.25500000920E-02 0. -1.
       -2    1    3    3    0  502 -0.40977894434E+03  0.80330981351E+01 -0.71898240672E+03  0.82759834163E+03  0.25500000920E-02 0.  1.
</event>
<event>
 5   0  0.1833681E-04  0.1385924E+04  0.7818609E-02  0.8964071E-01
       -2   -1    0    0    0  501  0.00000000000E+00  0.00000000000E+00  0.56378882569E+03  0.56378882570E+03  0.25500000920E-02 0.  1.
        2   -1    0    0  501    0  0.00000000000E+00  0.00000000000E+00 -0.85173135501E+03  0.85173135501E+03  0.25500000920E-02 0. -1.
    10030    2    1    2    0    0  0.00000000000E+00  0.00000000000E+00 -0.28794252932E+03  0.14155201807E+04  0.13859244142E+04 0.  0.
        4    1    3    3  502    0 -0.49650846113E+03 -0.33606885250E+03  0.21091391650E+03  0.63556999510E+03  0.12699999809E+01 0.  1.
       -4    1    3    3    0  502  0.49650846113E+03  0.33606885250E+03 -0.49885644582E+03  0.77995018561E+03  0.12699999809E+01 0. -1.
</event>
<event>
 5   0  0.9900839E-05  0.1401087E+04  0.7818609E-02  0.8953032E-01
        1   -1    0    0  501    0  0.00000000000E+00  0.00000000000E+00  0.41086593895E+03  0.41086593898E+03  0.50400001928E-02 0. -1.
       -1   -1    0    0    0  501  0.00000000000E+00  0.00000000000E+00 -0.11944562636E+04  0.11944562636E+04  0.50400001928E-02 0.  1.
    10030    2    1    2    0    0  0.00000000000E+00  0.00000000000E+00 -0.78359032465E+03  0.16053222026E+04  0.14010872840E+04 0.  0.
        3    1    3    3  502    0  0.49923145631E+03 -0.33749761478E+03  0.17526173788E+02  0.60286305569E+03  0.10100000352E+00 0. -1.
       -3    1    3    3    0  502 -0.49923145631E+03  0.33749761478E+03 -0.80111649844E+03  0.10024591469E+04  0.10100000352E+00 0.  1.
</event>
<event>
 5   0  0.1794185E-04  0.1401817E+04  0.7818609E-02  0.8952504E-01
       -2   -1    0    0    0  501  0.00000000000E+00  0.00000000000E+00  0.79954084001E+03  0.79954084001E+03  0.25500000920E-02 0.  1.
        2   -1    0    0  501    0  0.00000000000E+00  0.00000000000E+00 -0.61444340894E+03  0.61444340894E+03  0.25500000920E-02 0. -1.
    10030    2    1    2    0    0  0.00000000000E+00  0.00000000000E+00  0.18509743107E+03  0.14139842490E+04  0.14018168202E+04 0.  0.
        2    1    3    3  502    0  0.31896277783E+03 -0.28005651596E+03 -0.47005926539E+03  0.63334399717E+03  0.25500000920E-02 0. -1.
       -2    1    3    3    0  502 -0.31896277783E+03  0.28005651596E+03  0.65515669647E+03  0.78064025178E+03  0.25500000920E-02 0.  1.
</event>
<event>
 5   0  0.1833681E-04  0.1402788E+04  0.7818609E-02  0.8951803E-01
        2   -1    0    0  501    0  0.00000000000E+00  0.00000000000E+00  0.11810493022E+04  0.11810493022E+04  0.25500000920E-02 0. -1.
       -2   -1    0    0    0  501  0.00000000000E+00  0.00000000000E+00 -0.41653933272E+03  0.41653933273E+03  0.25500000920E-02 0.  1.
    10030    2    1    2    0    0  0.00000000000E+00  0.00000000000E+00  0.76450996945E+03  0.15975886349E+04  0.14027879216E+04 0.  0.
        4    1    3    3  502    0 -0.48643642139E+03 -0.83384795031E+01  0.95764985847E+03  0.10741437458E+04  0.12699999809E+01 0. -1.
       -4    1    3    3    0  502  0.48643642139E+03  0.83384795031E+01 -0.19313988902E+03  0.52344488910E+03  0.12699999809E+01 0.  1.
</event>
<event>
 5   0  0.6671375E-05  0.1403417E+04  0.7818609E-02  0.8951349E-01
       -1   -1    0    0    0  501  0.00000000000E+00  0.00000000000E+00  0.57569430346E+03  0.57569430349E+03  0.50400001928E-02 0.  1.
        1   -1    0    0  501    0  0.00000000000E+00  0.00000000000E+00 -0.85530648065E+03  0.85530648066E+03  0.50400001928E-02 0. -1.
    10030    2    1    2    0    0  0.00000000000E+00  0.00000000000E+00 -0.27961217719E+03  0.14310007841E+04  0.14034173558E+04 0.  0.
        5    1    3    3  502    0 -0.17627264947E+03  0.67645215546E+03 -0.77670608235E+02  0.70335935265E+03  0.46999998093E+01 0. -1.
       -5    1    3    3    0  502  0.17627264947E+03 -0.67645215546E+03 -0.20194156895E+03  0.72764143150E+03  0.46999998093E+01 0.  1.
</event>
<event>
 5   0  0.6671375E-05  0.1400392E+04  0.7818609E-02  0.8953535E-01
       -4   -1    0    0    0  501  0.00000000000E+00  0.00000000000E+00  0.14193483059E+04  0.14193488740E+04  0.12699999809E+01 0. -1.
        4   -1    0    0  501    0  0.00000000000E+00  0.00000000000E+00 -0.34542018208E+03  0.34542251677E+03  0.12699999809E+01 0.  1.
    10030    2    1    2    0    0  0.00000000000E+00  0.00000000000E+00  0.10739281238E+04  0.17647713908E+04  0.14003915334E+04 0.  0.
        5    1    3    3  502    0  0.40640769457E+03  0.56406016247E+03  0.43212538305E+03  0.81858751381E+03  0.46999998093E+01 0.  1.
       -5    1    3    3    0  502 -0.40640769457E+03 -0.56406016247E+03  0.64180274072E+03  0.94618387699E+03  0.46999998093E+01 0. -1.
</event>
<event>
 5   0  0.1794185E-04  0.1391095E+04  0.7818609E-02  0.8960289E-01
        2   -1    0    0  501    0  0.00000000000E+00  0.00000000000E+00  0.63907997943E+03  0.63907997943E+03  0.25500000920E-02 0.  1.
       -2   -1    0    0    0  501  0.00000000000E+00  0.00000000000E+00 -0.75700482709E+03  0.75700482710E+03  0.25500000920E-02 0. -1.
    10030    2    1    2    0    0  0.00000000000E+00  0.00000000000E+00 -0.11792484766E+03  0.13960848065E+04  0.13910954379E+04 0.  0.
        2    1    3    3  502    0 -0.31152826792E+03 -0.35723205066E+03 -0.56982847436E+03  0.74119436717E+03  0.25500000920E-02 0. -1.
       -2    1    3    3    0  502  0.31152826792E+03  0.35723205066E+03  0.45190362669E+03  0.65489043936E+03  0.25500000920E-02 0.  1.
</event>
<event>
 5   0  0.1766237E-04  0.1399357E+04  0.7818609E-02  0.8954284E-01
       -2   -1    0    0    0  501  0.00000000000E+00  0.00000000000E+00  0.33668142185E+03  0.33668142186E+03  0.25500000920E-02 0. -1.
        2   -1    0    0  501    0  0.00000000000E+00  0.00000000000E+00 -0.14540448569E+04  0.14540448569E+04  0.25500000920E-02 0.  1.
    10030    2    1    2    0    0  0.00000000000E+00  0.00000000000E+00 -0.11173634350E+04  0.17907262788E+04  0.13993568378E+04 0.  0.
        3    1    3    3  502    0 -0.88407758811E+02 -0.39033493822E+03 -0.12931016512E+04  0.13536207690E+04  0.10100000352E+00 0.  1.
       -3    1    3    3    0  502  0.88407758811E+02  0.39033493822E+03  0.17573821615E+03  0.43710550973E+03  0.10100000352E+00 0. -1.
</event>
<event>
 5   0  0.1780171E-04  0.1399269E+04  0.7818609E-02  0.8954348E-01
       -2   -1    0    0    0  501  0.00000000000E+00  0.00000000000E+00  0.53577767043E+03  0.53577767044E+03  0.25500000920E-02 0.  1.
        2   -1    0    0  501    0  0.00000000000E+00  0.00000000000E+00 -0.91360344854E+03  0.91360344855E+03  0.25500000920E-02 0. -1.
    10030    2    1    2    0    0  0.00000000000E+00  0.00000000000E+00 -0.37782577811E+03  0.14493811190E+04  0.13992688482E+04 0.  0.
        5    1    3    3  502    0  0.48897587583E+03 -0.47487585586E+03 -0.25589908593E+02  0.68211540009E+03  0.46999998093E+01 0.  1.
       -5    1    3    3    0  502 -0.48897587583E+03  0.47487585586E+03 -0.35223586952E+03  0.76726571889E+03  0.46999998093E+01 0. -1.
</event>
<event>
 5   0  0.9978422E-05  0.1399680E+04  0.7818609E-02  0.8954050E-01
       -1   -1    0    0    0  501  0.00000000000E+00  0.00000000000E+00  0.83004929154E+03  0.83004929156E+03  0.50400001928E-02 0.  1.
        1   -1    0    0  501    0  0.00000000000E+00  0.00000000000E+00 -0.59005622874E+03  0.59005622876E+03  0.50400001928E-02 0. -1.
    10030    2    1    2    0    0  0.00000000000E+00  0.00000000000E+00  0.23999306280E+03  0.14201055203E+04  0.13996796129E+04 0.  0.
        2    1    3    3  502    0  0.18655891973E+03  0.60095031906E+03  0.43078392054E+03  0.76257478499E+03  0.25500000920E-02 0.  1.
       -2    1    3    3    0  502 -0.18655891973E+03 -0.60095031906E+03 -0.19079085774E+03  0.65753073533E+03  0.25500000920E-02 0. -1.
</event>
<event>
 5   0  0.1794185E-04  0.1399842E+04  0.7818609E-02  0.8953933E-01
        2   -1    0    0  501    0  0.00000000000E+00  0.00000000000E+00  0.11374500276E+04  0.11374500276E+04  0.25500000920E-02 0. -1.
       -2   -1    0    0    0  501  0.00000000000E+00  0.00000000000E+00 -0.43069074539E+03  0.43069074540E+03  0.25500000920E-02 0.  1.
    10030    2    1    2    0    0  0.00000000000E+00  0.00000000000E+00  0.70675928220E+03  0.15681407730E+04  0.13998417057E+04 0.  0.
        2    1    3    3  502    0 -0.57384507730E+03 -0.12776799327E+03  0.77886896432E+03  0.97583794579E+03  0.25500000920E-02 0. -1.
       -2    1    3    3    0  502  0.57384507730E+03  0.12776799327E+03 -0.72109682122E+02  0.59230282720E+03  0.25500000920E-02 0.  1.
</event>
<event>
 5   0  0.9978422E-05  0.1400473E+04  0.7818609E-02  0.8953476E-01
       -1   -1    0    0    0  501  0.00000000000E+00  0.00000000000E+00  0.32715050930E+03  0.32715050934E+03  0.50400001928E-02 0.  1.
        1   -1    0    0  501    0  0.00000000000E+00  0.00000000000E+00 -0.14987945191E+04  0.14987945191E+04  0.50400001928E-02 0. -1.
    10030    2    1    2    0    0  0.00000000000E+00  0.00000000000E+00 -0.11716440098E+04  0.18259450284E+04  0.14004733347E+04 0.  0.
        2    1    3    3  502    0  0.28413090632E+02 -0.67869475681E+03 -0.36418458123E+03  0.77075565898E+03  0.25500000920E-02 0. -1.
       -2    1    3    3    0  502 -0.28413090632E+02  0.67869475681E+03 -0.80745942855E+03  0.10551893694E+04  0.25500000920E-02 0.  1.
</event>
<event>
 5   0  0.1780171E-04  0.1407091E+04  0.7818609E-02  0.8948702E-01
       -2   -1    0    0    0  501  0.00000000000E+00  0.00000000000E+00  0.38607859305E+03  0.38607859306E+03  0.25500000920E-02 0.  1.
        2   -1    0    0  501    0  0.00000000000E+00  0.00000000000E+00 -0.12820613016E+04  0.12820613016E+04  0.25500000920E-02 0. -1.
    10030    2    1    2    0    0  0.00000000000E+00  0.00000000000E+00 -0.89598270855E+03  0.16681398947E+04  0.14070912174E+04 0.  0.
        5    1    3    3  502    0 -0.61443501741E+02 -0.77482467509E+02 -0.12737623909E+04  0.12776038334E+04  0.46999998093E+01 0. -1.
       -5    1    3    3    0  502  0.61443501741E+02  0.77482467509E+02  0.37777968239E+03  0.39053606121E+03  0.46999998093E+01 0.  1.
</event>
<event>
 5   0  0.9260916E-05  0.1406768E+04  0.7818609E-02  0.8948934E-01
       -1   -1    0    0    0  501  0.00000000000E+00  0.00000000000E+00  0.63284026151E+03  0.63284026153E+03  0.50400001928E-02 0.  1.
        1   -1    0    0  501    0  0.00000000000E+00  0.00000000000E+00 -0.78179153192E+03  0.78179153194E+03  0.50400001928E-02 0. -1.
    10030    2    1    2    0    0  0.00000000000E+00  0.00000000000E+00 -0.14895127041E+03  0.14146317935E+04  0.14067681508E+04 0.  0.
        1    1    3    3  502    0  0.63776228663E+03 -0.24136243269E+02 -0.37180709027E+03  0.73862291116E+03  0.50400001928E-02 0. -1.
       -1    1    3    3    0  502 -0.63776228663E+03  0.24136243269E+02  0.22285581986E+03  0.67600888231E+03  0.50400001928E-02 0.  1.
</event>
<event>
 5   0  0.9978422E-05  0.1399225E+04  0.7818609E-02  0.8954380E-01
       -1   -1    0    0    0  501  0.00000000000E+00  0.00000000000E+00  0.64919561023E+03  0.64919561025E+03  0.50400001928E-02 0.  1.
        1   -1    0    0  501    0  0.00000000000E+00  0.00000000000E+00 -0.75394428188E+03  0.75394428190E+03  0.50400001928E-02 0. -1.
    10030    2    1    2    0    0  0.00000000000E+00  0.00000000000E+00 -0.10474867165E+03  0.14031398922E+04  0.13992245255E+04 0.  0.
        2    1    3    3  502    0 -0.26887456483E+03  0.50413124163E+03  0.35250721132E+03  0.67134430395E+03  0.25500000920E-02 0.  1.
       -2    1    3    3    0  502  0.26887456483E+03 -0.50413124163E+03 -0.45725588297E+03  0.73179558821E+03  0.25500000920E-02 0. -1.
</event>
<event>
 5   0  0.9260916E-05  0.1398660E+04  0.7818609E-02  0.8954789E-01
       -1   -1    0    0    0  501  0.00000000000E+00  0.00000000000E+00  0.42777657402E+03  0.42777657405E+03  0.50400001928E-02 0. -1.
        1   -1    0    0  501    0  0.00000000000E+00  0.00000000000E+00 -0.11432666241E+04  0.11432666241E+04  0.50400001928E-02 0.  1.
    10030    2    1    2    0    0  0.00000000000E+00  0.00000000000E+00 -0.71549005011E+03  0.15710431982E+04  0.13986603300E+04 0.  0.
        1    1    3    3  502    0 -0.34104302299E+03 -0.64787270021E+02  0.32416486824E+03  0.47496378358E+03  0.50400001928E-02 0. -1.
       -1    1    3    3    0  502  0.34104302299E+03  0.64787270021E+02 -0.10396549183E+04  0.10960794146E+04  0.50400001928E-02 0.  1.
</event>
<event>
 5   0  0.1780171E-04  0.1400000E+04  0.7818609E-02  0.8953819E-01
        2   -1    0    0  501    0  0.00000000000E+00  0.00000000000E+00  0.93258201569E+03  0.93258201569E+03  0.25500000920E-02 0. -1.
       -2   -1    0    0    0  501  0.00000000000E+00  0.00000000000E+00 -0.52542261185E+03  0.52542261186E+03  0.25500000920E-02 0.  1.
    10030    2    1    2    0    0  0.00000000000E+00  0.00000000000E+00  0.40715940384E+03  0.14580046275E+04  0.13999995407E+04 0.  0.
        5    1    3    3  502    0  0.24272949289E+03  0.65504608944E+03  0.15730210009E+03  0.71607892491E+03  0.46999998093E+01 0. -1.
       -5    1    3    3    0  502 -0.24272949289E+03 -0.65504608944E+03  0.24985730375E+03  0.74192570264E+03  0.46999998093E+01 0.  1.
</event>
<event>
 5   0  0.6671375E-05  0.1401535E+04  0.7818609E-02  0.8952708E-01
       -1   -1    0    0    0  501  0.00000000000E+00  0.00000000000E+00  0.51807534387E+03  0.51807534390E+03  0.50400001928E-02 0.  1.
        1   -1    0    0  501    0  0.00000000000E+00  0.00000000000E+00 -0.94788383342E+03  0.94788383344E+03  0.50400001928E-02 0. -1.
    10030    2    1    2    0    0  0.00000000000E+00  0.00000000000E+00 -0.42980848955E+03  0.14659591773E+04  0.14015352197E+04 0.  0.
        5    1    3    3  502    0  0.20057150176E+03  0.30649696732E+03 -0.83976219415E+03  0.91618336102E+03  0.46999998093E+01 0. -1.
       -5    1    3    3    0  502 -0.20057150176E+03 -0.30649696732E+03  0.40995370460E+03  0.54977581632E+03  0.46999998093E+01 0.  1.
</event>
<event>
 5   0  0.9900839E-05  0.1397598E+04  0.7818609E-02  0.8955559E-01
       -1   -1    0    0    0  501  0.00000000000E+00  0.00000000000E+00  0.55924747533E+03  0.55924747536E+03  0.50400001928E-02 0.  1.
        1   -1    0    0  501    0  0.00000000000E+00  0.00000000000E+00 -0.87317355283E+03  0.87317355285E+03  0.50400001928E-02 0. -1.
    10030    2    1    2    0    0  0.00000000000E+00  0.00000000000E+00 -0.31392607750E+03  0.14324210282E+04  0.13975980895E+04 0.  0.
        3    1    3    3  502    0  0.32576949173E+03 -0.13322835165E+03 -0.77569722642E+03  0.85181086674E+03  0.10100000352E+00 0. -1.
       -3    1    3    3    0  502 -0.32576949173E+03  0.13322835165E+03  0.46177114892E+03  0.58061016147E+03  0.10100000352E+00 0.  1.
</event>
<event>
 5   0  0.1712327E-04  0.1400208E+04  0.7818609E-02  0.8953668E-01
        2   -1    0    0  501    0  0.00000000000E+00  0.00000000000E+00  0.11695457767E+04  0.11695457767E+04  0.25500000920E-02 0.  1.
       -2   -1    0    0    0  501  0.00000000000E+00  0.00000000000E+00 -0.41909046635E+03  0.41909046636E+03  0.25500000920E-02 0. -1.
    10030    2    1    2    0    0  0.00000000000E+00  0.00000000000E+00  0.75045531039E+03  0.15886362431E+04  0.14002078203E+04 0.  0.
        1    1    3    3  502    0 -0.62595592644E+03  0.25071490590E+03  0.16155824432E+03  0.69338290448E+03  0.50400001928E-02 0. -1.
       -1    1    3    3    0  502  0.62595592644E+03 -0.25071490590E+03  0.58889706606E+03  0.89525333863E+03  0.50400001928E-02 0.  1.
</event>
<event>
 5   0  0.9260916E-05  0.1424036E+04  0.7818609E-02  0.8936602E-01
       -1   -1    0    0    0  501  0.00000000000E+00  0.00000000000E+00  0.46370183853E+03  0.46370183856E+03  0.50400001928E-02 0. -1.
        1   -1    0    0  501    0  0.00000000000E+00  0.00000000000E+00 -0.10933094066E+04  0.10933094066E+04  0.50400001928E-02 0.  1.
    10030    2    1    2    0    0  0.00000000000E+00  0.00000000000E+00 -0.62960756808E+03  0.15570112452E+04  0.14240359293E+04 0.  0.
        1    1    3    3  502    0  0.26630161703E+03 -0.12957218275E+03 -0.10227734180E+04  0.10647868173E+04  0.50400001928E-02 0.  1.
       -1    1    3    3    0  502 -0.26630161703E+03  0.12957218275E+03  0.39316584994E+03  0.49222442783E+03  0.50400001928E-02 0. -1.
</event>
<event>
 5   0  0.1766237E-04  0.1399053E+04  0.7818609E-02  0.8954504E-01
       -2   -1    0    0    0  501  0.00000000000E+00  0.00000000000E+00  0.73473324065E+03  0.73473324066E+03  0.25500000920E-02 0. -1.
        2   -1    0    0  501    0  0.00000000000E+00  0.00000000000E+00 -0.66600704437E+03  0.66600704437E+03  0.25500000920E-02 0.  1.
    10030    2    1    2    0    0  0.00000000000E+00  0.00000000000E+00  0.68726196286E+02  0.14007402850E+04  0.13990532713E+04 0.  0.
        3    1    3    3  502    0 -0.14482310343E+02 -0.57807103381E+02  0.73218711456E+03  0.73460831703E+03  0.10100000352E+00 0. -1.
       -3    1    3    3    0  502  0.14482310343E+02  0.57807103381E+02 -0.66346091828E+03  0.66613196800E+03  0.10100000352E+00 0.  1.
</event>
<event>
 5   0  0.9260916E-05  0.1396932E+04  0.7818609E-02  0.8956042E-01
        1   -1    0    0  501    0  0.00000000000E+00  0.00000000000E+00  0.13024824010E+04  0.13024824010E+04  0.50400001928E-02 0. -1.
       -1   -1    0    0    0  501  0.00000000000E+00  0.00000000000E+00 -0.37455761401E+03  0.37455761404E+03  0.50400001928E-02 0.  1.
    10030    2    1    2    0    0  0.00000000000E+00  0.00000000000E+00  0.92792478701E+03  0.16770400151E+04  0.13969319245E+04 0.  0.
        1    1    3    3  502    0 -0.31736574237E+03  0.50257688816E+03  0.90432485222E+03  0.10821774260E+04  0.50400001928E-02 0. -1.
       -1    1    3    3    0  502  0.31736574237E+03 -0.50257688816E+03  0.23599934790E+02  0.59486258908E+03  0.50400001928E-02 0.  1.
</event>
<event>
 5   0  0.9260916E-05  0.1399809E+04  0.7818609E-02  0.8953957E-01
       -1   -1    0    0    0  501  0.00000000000E+00  0.00000000000E+00  0.33982461277E+03  0.33982461281E+03  0.50400001928E-02 0. -1.
        1   -1    0    0  501    0  0.00000000000E+00  0.00000000000E+00 -0.14415266764E+04  0.14415266764E+04  0.50400001928E-02 0.  1.
    10030    2    1    2    0    0  0.00000000000E+00  0.00000000000E+00 -0.11017020637E+04  0.17813512892E+04  0.13998089079E+04 0.  0.
        1    1    3    3  502    0 -0.24411130724E+03  0.61307001192E+03 -0.25398235494E+03  0.70707298526E+03  0.50400001928E-02 0.  1.
       -1    1    3    3    0  502  0.24411130724E+03 -0.61307001192E+03 -0.84771970871E+03  0.10742783040E+04  0.50400001928E-02 0. -1.
</event>
<event>
 5   0  0.1712327E-04  0.1402006E+04  0.7818609E-02  0.8952368E-01
       -2   -1    0    0    0  501  0.00000000000E+00  0.00000000000E+00  0.41433330199E+03  0.41433330199E+03  0.25500000920E-02 0.  1.
        2   -1    0    0  501    0  0.00000000000E+00  0.00000000000E+00 -0.11860135489E+04  0.11860135489E+04  0.25500000920E-02 0. -1.
    10030    2    1    2    0    0  0.00000000000E+00  0.00000000000E+00 -0.77168024691E+03  0.16003468509E+04  0.14020055776E+04 0.  0.
        1    1    3    3  502    0 -0.26262994718E+03  0.37121538314E+03 -0.99482201522E+03  0.10938218282E+04  0.50400001928E-02 0. -1.
       -1    1    3    3    0  502  0.26262994718E+03 -0.37121538314E+03  0.22314176831E+03  0.50652502270E+03  0.50400001928E-02 0.  1.
</event>
<event>
 5   0  0.9260916E-05  0.1400835E+04  0.7818609E-02  0.8953214E-01
       -1   -1    0    0    0  501  0.00000000000E+00  0.00000000000E+00  0.30582300265E+03  0.30582300269E+03  0.50400001928E-02 0. -1.
        1   -1    0    0  501    0  0.00000000000E+00  0.00000000000E+00 -0.16041467395E+04  0.16041467395E+04  0.50400001928E-02 0.  1.
    10030    2    1    2    0    0  0.00000000000E+00  0.00000000000E+00 -0.12983237368E+04  0.19099697422E+04  0.14008354259E+04 0.  0.
        1    1    3    3  502    0  0.68283626037E+03  0.33629006087E+02 -0.44153784148E+03  0.81385006851E+03  0.50400001928E-02 0.  1.
       -1    1    3    3    0  502 -0.68283626037E+03 -0.33629006087E+02 -0.85678589537E+03  0.10961196737E+04  0.50400001928E-02 0. -1.
</event>
<event>
 5   0  0.9260916E-05  0.1400481E+04  0.7818609E-02  0.8953471E-01
       -1   -1    0    0    0  501  0.00000000000E+00  0.00000000000E+00  0.97307512012E+03  0.97307512013E+03  0.50400001928E-02 0. -1.
        1   -1    0    0  501    0  0.00000000000E+00  0.00000000000E+00 -0.50390401801E+03  0.50390401804E+03  0.50400001928E-02 0.  1.
    10030    2    1    2    0    0  0.00000000000E+00  0.00000000000E+00  0.46917110211E+03  0.14769791382E+04  0.14004805788E+04 0.  0.
        1    1    3    3  502    0 -0.36336071236E+03  0.18700594072E+03  0.83427045306E+03  0.92898300201E+03  0.50400001928E-02 0. -1.
       -1    1    3    3    0  502  0.36336071236E+03 -0.18700594072E+03 -0.36509935096E+03  0.54799613616E+03  0.50400001928E-02 0.  1.
</event>
<event>
 5   0  0.1766237E-04  0.1399077E+04  0.7818609E-02  0.8954487E-01
       -2   -1    0    0    0  501  0.00000000000E+00  0.00000000000E+00  0.29057306114E+03  0.29057306115E+03  0.25500000920E-02 0. -1.
        2   -1    0    0  501    0  0.00000000000E+00  0.00000000000E+00 -0.16841007178E+04  0.16841007178E+04  0.25500000920E-02 0.  1.
    10030    2    1    2    0    0  0.00000000000E+00  0.00000000000E+00 -0.13935276567E+04  0.19746737790E+04  0.13990772686E+04 0.  0.
        3    1    3    3  502    0 -0.10704051523E+03  0.61053227694E+03 -0.11544333738E+04  0.13103143737E+04  0.10100000352E+00 0.  1.
       -3    1    3    3    0  502  0.10704051523E+03 -0.61053227694E+03 -0.23909428284E+03  0.66435940527E+03  0.10100000352E+00 0. -1.
</event>
<event>
 5   0  0.1780171E-04  0.1397006E+04  0.7818609E-02  0.8955989E-01
        2   -1    0    0  501    0  0.00000000000E+00  0.00000000000E+00  0.54608464120E+03  0.54608464121E+03  0.25500000920E-02 0.  1.
       -2   -1    0    0    0  501  0.00000000000E+00  0.00000000000E+00 -0.89346299396E+03  0.89346299397E+03  0.25500000920E-02 0. -1.
    10030    2    1    2    0    0  0.00000000000E+00  0.00000000000E+00 -0.34737835276E+03  0.14395476352E+04  0.13970059678E+04 0.  0.
        5    1    3    3  502    0  0.21971853034E+03 -0.24274421382E+03 -0.80947335454E+03  0.87319538914E+03  0.46999998093E+01 0. -1.
       -5    1    3    3    0  502 -0.21971853034E+03  0.24274421382E+03  0.46209500178E+03  0.56635224603E+03  0.46999998093E+01 0.  1.
</event>
<event>
 5   0  0.6671375E-05  0.1400632E+04  0.7818609E-02  0.8953361E-01
       -3   -1    0    0    0  501  0.00000000000E+00  0.00000000000E+00  0.86427575430E+03  0.86427576020E+03  0.10100000352E+00 0.  1.
        3   -1    0    0  501    0  0.00000000000E+00  0.00000000000E+00 -0.56746101135E+03  0.56746102034E+03  0.10100000352E+00 0. -1.
    10030    2    1    2    0    0  0.00000000000E+00  0.00000000000E+00  0.29681474295E+03  0.14317367805E+04  0.14006324347E+04 0.  0.
        3    1    3    3  502    0  0.56906430269E+02  0.30720955337E+03  0.78908495018E+03  0.84868788155E+03  0.10100000352E+00 0.  1.
       -3    1    3    3    0  502 -0.56906430269E+02 -0.30720955337E+03 -0.49227020723E+03  0.58304889899E+03  0.10100000352E+00 0. -1.
</event>
<event>
 5   0  0.1794185E-04  0.1400643E+04  0.7818609E-02  0.8953353E-01
        2   -1    0    0  501    0  0.00000000000E+00  0.00000000000E+00  0.90671300032E+03  0.90671300032E+03  0.25500000920E-02 0. -1.
       -2   -1    0    0    0  501  0.00000000000E+00  0.00000000000E+00 -0.54091015513E+03  0.54091015514E+03  0.25500000920E-02 0.  1.
    10030    2    1    2    0    0  0.00000000000E+00  0.00000000000E+00  0.36580284519E+03  0.14476231555E+04  0.14006430947E+04 0.  0.
        2    1    3    3  502    0 -0.33781280994E+03 -0.45393731187E+03 -0.24358166450E+03  0.61604269735E+03  0.25500000920E-02 0.  1.
       -2    1    3    3    0  502  0.33781280994E+03  0.45393731187E+03  0.60938450969E+03  0.83158045812E+03  0.25500000920E-02 0. -1.
</event>
<event>
 5   0  0.1794185E-04  0.1397435E+04  0.7818609E-02  0.8955677E-01
       -2   -1    0    0    0  501  0.00000000000E+00  0.00000000000E+00  0.22516076585E+03  0.22516076586E+03  0.25500000920E-02 0. -1.
        2   -1    0    0  501    0  0.00000000000E+00  0.00000000000E+00 -0.21682557875E+04  0.21682557875E+04  0.25500000920E-02 0.  1.
    10030    2    1    2    0    0  0.00000000000E+00  0.00000000000E+00 -0.19430950216E+04  0.23934165533E+04  0.13974349841E+04 0.  0.
        2    1    3    3  502    0  0.27424010190E+03 -0.17008063393E+03 -0.20329802554E+04  0.20584323585E+04  0.25500000920E-02 0.  1.
       -2    1    3    3    0  502 -0.27424010190E+03  0.17008063393E+03  0.89885233807E+02  0.33498419483E+03  0.25500000920E-02 0. -1.
</event>
<event>
 5   0  0.1766237E-04  0.1397071E+04  0.7818609E-02  0.8955941E-01
        2   -1    0    0  501    0  0.00000000000E+00  0.00000000000E+00  0.14536042420E+04  0.14536042420E+04  0.25500000920E-02 0. -1.
       -2   -1    0    0    0  501  0.00000000000E+00  0.00000000000E+00 -0.33568406939E+03  0.33568406940E+03  0.25500000920E-02 0.  1.
    10030    2    1    2    0    0  0.00000000000E+00  0.00000000000E+00  0.11179201726E+04  0.17892883114E+04  0.13970709177E+04 0.  0.
        3    1    3    3  502    0 -0.67105446586E+02 -0.27238931318E+03  0.13782878062E+04  0.14065476763E+04  0.10100000352E+00 0. -1.
       -3    1    3    3    0  502  0.67105446586E+02  0.27238931318E+03 -0.26036763359E+03  0.38274063505E+03  0.10100000352E+00 0.  1.
</event>
<event>
 5   0  0.9978422E-05  0.1403537E+04  0.7818609E-02  0.8951262E-01
        1   -1    0    0  501    0  0.00000000000E+00  0.00000000000E+00  0.13068624490E+04  0.13068624490E+04  0.50400001928E-02 0. -1.
       -1   -1    0    0    0  501  0.00000000000E+00  0.00000000000E+00 -0.37684059429E+03  0.37684059432E+03  0.50400001928E-02 0.  1.
    10030    2    1    2    0    0  0.00000000000E+00  0.00000000000E+00  0.93002185469E+03  0.16837030433E+04  0.14035367070E+04 0.  0.
        2    1    3    3  502    0  0.35161293405E+03 -0.15921963507E+03  0.11680876782E+04  0.12302078571E+04  0.25500000920E-02 0. -1.
       -2    1    3    3    0  502 -0.35161293405E+03  0.15921963507E+03 -0.23806582354E+03  0.45349518622E+03  0.25500000920E-02 0.  1.
</event>
<event>
 5   0  0.1712327E-04  0.1400883E+04  0.7818609E-02  0.8953179E-01
       -2   -1    0    0    0  501  0.00000000000E+00  0.00000000000E+00  0.39006850444E+03  0.39006850445E+03  0.25500000920E-02 0. -1.
        2   -1    0    0  501    0  0.00000000000E+00  0.00000000000E+00 -0.12577751651E+04  0.12577751651E+04  0.25500000920E-02 0.  1.
    10030    2    1    2    0    0  0.00000000000E+00  0.00000000000E+00 -0.86770666062E+03  0.16478436695E+04  0.14008832608E+04 0.  0.
        1    1    3    3  502    0 -0.16386655924E+03 -0.14128985390E+03 -0.12174803050E+04  0.12365570610E+04  0.50400001928E-02 0.  1.
       -1    1    3    3    0  502  0.16386655924E+03  0.14128985390E+03  0.34977364434E+03  0.41128660853E+03  0.50400001928E-02 0. -1.
</event>
<event>
 5   0  0.9900839E-05  0.1397145E+04  0.7818609E-02  0.8955888E-01
        1   -1    0    0  501    0  0.00000000000E+00  0.00000000000E+00  0.78820458773E+03  0.78820458774E+03  0.50400001928E-02 0. -1.
       -1   -1    0    0    0  501  0.00000000000E+00  0.00000000000E+00 -0.61913311542E+03  0.61913311544E+03  0.50400001928E-02 0.  1.
    10030    2    1    2    0    0  0.00000000000E+00  0.00000000000E+00  0.16907147231E+03  0.14073377032E+04  0.13971450347E+04 0.  0.
        3    1    3    3  502    0  0.38190180143E+02  0.60483390014E+03 -0.26544832841E+03  0.66162327792E+03  0.10100000352E+00 0.  1.
       -3    1    3    3    0  502 -0.38190180143E+02 -0.60483390014E+03  0.43451980073E+03  0.74571442526E+03  0.10100000352E+00 0. -1.
</event>
<event>
 5   0  0.9900839E-05  0.1403998E+04  0.7818609E-02  0.8950929E-01
       -1   -1    0    0    0  501  0.00000000000E+00  0.00000000000E+00  0.31074921821E+03  0.31074921826E+03  0.50400001928E-02 0. -1.
        1   -1    0    0  501    0  0.00000000000E+00  0.00000000000E+00 -0.15858540048E+04  0.15858540048E+04  0.50400001928E-02 0.  1.
    10030    2    1    2    0    0  0.00000000000E+00  0.00000000000E+00 -0.12751047866E+04  0.18966032231E+04  0.14039984220E+04 0.  0.
        3    1    3    3  502    0 -0.63402579466E+03 -0.30029482525E+03 -0.60345313679E+03  0.92537634986E+03  0.10100000352E+00 0.  1.
       -3    1    3    3    0  502  0.63402579466E+03  0.30029482525E+03 -0.67165164979E+03  0.97122687321E+03  0.10100000352E+00 0. -1.
</event>
<event>
 5   0  0.9828111E-05  0.1401339E+04  0.7818609E-02  0.8952850E-01
        1   -1    0    0  501    0  0.00000000000E+00  0.00000000000E+00  0.94382545480E+03  0.94382545481E+03  0.50400001928E-02 0.  1.
       -1   -1    0    0    0  501  0.00000000000E+00  0.00000000000E+00 -0.52015728346E+03  0.52015728348E+03  0.50400001928E-02 0. -1.
    10030    2    1    2    0    0  0.00000000000E+00  0.00000000000E+00  0.42366817134E+03  0.14639827383E+04  0.14013389093E+04 0.  0.
        4    1    3    3  502    0  0.54086813100E+03  0.25223196765E+03 -0.17169676097E+03  0.62099975142E+03  0.12699999809E+01 0. -1.
       -4    1    3    3    0  502 -0.54086813100E+03 -0.25223196765E+03  0.59536493231E+03  0.84298298688E+03  0.12699999809E+01 0.  1.
</event>
<event>
 5   0  0.1833681E-04  0.1399235E+04  0.7818609E-02  0.8954372E-01
        2   -1    0    0  501    0  0.00000000000E+00  0.00000000000E+00  0.10314049851E+04  0.10314049851E+04  0.25500000920E-02 0. -1.
       -2   -1    0    0    0  501  0.00000000000E+00  0.00000000000E+00 -0.47456116393E+03  0.47456116394E+03  0.25500000920E-02 0.  1.
    10030    2    1    2    0    0  0.00000000000E+00  0.00000000000E+00  0.55684382121E+03  0.15059661491E+04  0.13992351486E+04 0.  0.
        4    1    3    3  502    0 -0.46460635566E+01  0.95855752949E+02  0.10242859165E+04  0.10287726488E+04  0.12699999809E+01 0. -1.
       -4    1    3    3    0  502  0.46460635566E+01 -0.95855752949E+02 -0.46744209533E+03  0.47719350024E+03  0.12699999809E+01 0.  1.
</event>
<event>
 5   0  0.9900839E-05  0.1398599E+04  0.7818609E-02  0.8954833E-01
       -1   -1    0    0    0  501  0.00000000000E+00  0.00000000000E+00  0.83308557552E+03  0.83308557554E+03  0.50400001928E-02 0. -1.
        1   -1    0    0  501    0  0.00000000000E+00  0.00000000000E+00 -0.58699819667E+03  0.58699819669E+03  0.50400001928E-02 0.  1.
    10030    2    1    2    0    0  0.00000000000E+00  0.00000000000E+00  0.24608737885E+03  0.14200837722E+04  0.13985989140E+04 0.  0.
        3    1    3    3  502    0  0.36298400454E+03 -0.10732629409E+03 -0.47398847216E+03  0.60658173636E+03  0.10100000352E+00 0.  1.
       -3    1    3    3    0  502 -0.36298400454E+03  0.10732629409E+03  0.72007585101E+03  0.81350203587E+03  0.10100000352E+00 0. -1.
</event>
<event>
 5   0  0.1780171E-04  0.1397925E+04  0.7818609E-02  0.8955322E-01
       -2   -1    0    0    0  501  0.00000000000E+00  0.00000000000E+00  0.30648639047E+03  0.30648639049E+03  0.25500000920E-02 0.  1.
        2   -1    0    0  501    0  0.00000000000E+00  0.00000000000E+00 -0.15940299338E+04  0.15940299338E+04  0.25500000920E-02 0. -1.
    10030    2    1    2    0    0  0.00000000000E+00  0.00000000000E+00 -0.12875435433E+04  0.19005163243E+04  0.13979248631E+04 0.  0.
        5    1    3    3  502    0  0.14595017298E+03 -0.16444601904E+03  0.25822323648E+03  0.33918324845E+03  0.46999998093E+01 0.  1.
       -5    1    3    3    0  502 -0.14595017298E+03  0.16444601904E+03 -0.15457667798E+04  0.15613330758E+04  0.46999998093E+01 0. -1.
</event>
<event>
 5   0  0.9900839E-05  0.1401145E+04  0.7818609E-02  0.8952990E-01
       -1   -1    0    0    0  501  0.00000000000E+00  0.00000000000E+00  0.35971387929E+03  0.35971387933E+03  0.50400001928E-02 0.  1.
        1   -1    0    0  501    0  0.00000000000E+00  0.00000000000E+00 -0.13644229724E+04  0.13644229724E+04  0.50400001928E-02 0. -1.
    10030    2    1    2    0    0  0.00000000000E+00  0.00000000000E+00 -0.10047090931E+04  0.17241368517E+04  0.14011450752E+04 0.  0.
        3    1    3    3  502    0 -0.13479025308E+03  0.19565309328E+02  0.34326480909E+03  0.36929927297E+03  0.10100000352E+00 0.  1.
       -3    1    3    3    0  502  0.13479025308E+03 -0.19565309328E+02 -0.13479739022E+04  0.13548375788E+04  0.10100000352E+00 0. -1.
</event>
<event>
 5   0  0.1712327E-04  0.1401780E+04  0.7818609E-02  0.8952531E-01
       -2   -1    0    0    0  501  0.00000000000E+00  0.00000000000E+00  0.29196984414E+03  0.29196984415E+03  0.25500000920E-02 0.  1.
        2   -1    0    0  501    0  0.00000000000E+00  0.00000000000E+00 -0.16825269410E+04  0.16825269410E+04  0.25500000920E-02 0. -1.
    10030    2    1    2    0    0  0.00000000000E+00  0.00000000000E+00 -0.13905570969E+04  0.19744967852E+04  0.14017804803E+04 0.  0.
        1    1    3    3  502    0 -0.39883960510E+03 -0.22107169777E+03  0.54444366586E+02  0.45924929529E+03  0.50400001928E-02 0.  1.
       -1    1    3    3    0  502  0.39883960510E+03  0.22107169777E+03 -0.14450014634E+04  0.15152474899E+04  0.50400001928E-02 0. -1.
</event>
<event>
 5   0  0.9900839E-05  0.1400252E+04  0.7818609E-02  0.8953636E-01
        1   -1    0    0  501    0  0.00000000000E+00  0.00000000000E+00  0.61939856527E+03  0.61939856529E+03  0.50400001928E-02 0. -1.
       -1   -1    0    0    0  501  0.00000000000E+00  0.00000000000E+00 -0.79137434594E+03  0.79137434596E+03  0.50400001928E-02 0.  1.
    10030    2    1    2    0    0  0.00000000000E+00  0.00000000000E+00 -0.17197578067E+03  0.14107729113E+04  0.14002515981E+04 0.  0.
        3    1    3    3  502    0 -0.28534191340E+03 -0.40513068360E+03 -0.58430026557E+03  0.76613163939E+03  0.10100000352E+00 0.  1.
       -3    1    3    3    0  502  0.28534191340E+03  0.40513068360E+03  0.41232448490E+03  0.64464127186E+03  0.10100000352E+00 0. -1.
</event>
<event>
 5   0  0.1780171E-04  0.1398805E+04  0.7818609E-02  0.8954684E-01
       -2   -1    0    0    0  501  0.00000000000E+00  0.00000000000E+00  0.29564174593E+03  0.29564174594E+03  0.25500000920E-02 0.  1.
        2   -1    0    0  501    0  0.00000000000E+00  0.00000000000E+00 -0.16545826765E+04  0.16545826765E+04  0.25500000920E-02 0. -1.
    10030    2    1    2    0    0  0.00000000000E+00  0.00000000000E+00 -0.13589409306E+04  0.19502244225E+04  0.13988047917E+04 0.  0.
        5    1    3    3  502    0  0.77058500478E+02 -0.54657393443E+03 -0.12782669206E+04  0.13923611200E+04  0.46999998093E+01 0. -1.
       -5    1    3    3    0  502 -0.77058500478E+02  0.54657393443E+03 -0.80674009967E+02  0.55786330241E+03  0.46999998093E+01 0.  1.
</event>
<event>
 5   0  0.1766237E-04  0.1407555E+04  0.7818609E-02  0.8948368E-01
        2   -1    0    0  501    0  0.00000000000E+00  0.00000000000E+00  0.26568532047E+04  0.26568532047E+04  0.25500000920E-02 0.  1.
       -2   -1    0    0    0  501  0.00000000000E+00  0.00000000000E+00 -0.18642452636E+03  0.18642452638E+03  0.25500000920E-02 0. -1.
    10030    2    1    2    0    0  0.00000000000E+00  0.00000000000E+00  0.24704286784E+04  0.28432777311E+04  0.14075547596E+04 0.  0.
        3    1    3    3  502    0 -0.10401793669E+02  0.62926326113E+03  0.59891967568E+03  0.86878376898E+03  0.10100000352E+00 0. -1.
       -3    1    3    3    0  502  0.10401793669E+02 -0.62926326113E+03  0.18715090027E+04  0.19744939621E+04  0.10100000352E+00 0.  1.
</event>
<event>
 5   0  0.6671375E-05  0.1400174E+04  0.7818609E-02  0.8953693E-01
        3   -1    0    0  501    0  0.00000000000E+00  0.00000000000E+00  0.88756683298E+03  0.88756683872E+03  0.10100000352E+00 0. -1.
       -3   -1    0    0    0  501  0.00000000000E+00  0.00000000000E+00 -0.55220794935E+03  0.55220795858E+03  0.10100000352E+00 0.  1.
    10030    2    1    2    0    0  0.00000000000E+00  0.00000000000E+00  0.33535888363E+03  0.14397747973E+04  0.14001735200E+04 0.  0.
        2    1    3    3  502    0 -0.31263512775E+03 -0.25600437872E+03 -0.42019147229E+03  0.58295783589E+03  0.25500000920E-02 0.  1.
       -2    1    3    3    0  502  0.31263512775E+03  0.25600437872E+03  0.75555035592E+03  0.85681696142E+03  0.25500000920E-02 0. -1.
</event>
<event>
 5   0  0.1766237E-04  0.1399743E+04  0.7818609E-02  0.8954005E-01
       -2   -1    0    0    0  501  0.00000000000E+00  0.00000000000E+00  0.33960062011E+03  0.33960062012E+03  0.25500000920E-02 0. -1.
        2   -1    0    0  501    0  0.00000000000E+00  0.00000000000E+00 -0.14423406609E+04  0.14423406609E+04  0.25500000920E-02 0.  1.
    10030    2    1    2    0    0  0.00000000000E+00  0.00000000000E+00 -0.11027400408E+04  0.17819412811E+04  0.13997425233E+04 0.  0.
        3    1    3    3  502    0 -0.32544055400E+03 -0.39781430922E+03 -0.11561046241E+04  0.12652057900E+04  0.10100000352E+00 0.  1.
       -3    1    3    3    0  502  0.32544055400E+03  0.39781430922E+03  0.53364583302E+02  0.51673549110E+03  0.10100000352E+00 0. -1.
</event>
<event>
 5   0  0.9260916E-05  0.1392656E+04  0.7818609E-02  0.8959152E-01
       -1   -1    0    0    0  501  0.00000000000E+00  0.00000000000E+00  0.37535423970E+03  0.37535423973E+03  0.50400001928E-02 0.  1.
        1   -1    0    0  501    0  0.00000000000E+00  0.00000000000E+00 -0.12917730429E+04  0.12917730429E+04  0.50400001928E-02 0. -1.
    10030    2    1    2    0    0  0.00000000000E+00  0.00000000000E+00 -0.91641880322E+03  0.16671272826E+04  0.13926557197E+04 0.  0.
        1    1    3    3  502    0 -0.39935003815E+03  0.57009279513E+03 -0.48173571181E+03  0.84649603902E+03  0.50400001928E-02 0. -1.
       -1    1    3    3    0  502  0.39935003815E+03 -0.57009279513E+03 -0.43468309141E+03  0.82063124362E+03  0.50400001928E-02 0.  1.
</event>
<event>
 5   0  0.9828111E-05  0.1390555E+04  0.7818609E-02  0.8960684E-01
       -1   -1    0    0    0  501  0.00000000000E+00  0.00000000000E+00  0.31896655458E+03  0.31896655462E+03  0.50400001928E-02 0. -1.
        1   -1    0    0  501    0  0.00000000000E+00  0.00000000000E+00 -0.15155536980E+04  0.15155536980E+04  0.50400001928E-02 0.  1.
    10030    2    1    2    0    0  0.00000000000E+00  0.00000000000E+00 -0.11965871434E+04  0.18345202526E+04  0.13905552004E+04 0.  0.
        4    1    3    3  502    0  0.49185178428E+02  0.68008855028E+03 -0.77758697907E+03  0.10342063338E+04  0.12699999809E+01 0. -1.
       -4    1    3    3    0  502 -0.49185178428E+02 -0.68008855028E+03 -0.41900016431E+03  0.80031391878E+03  0.12699999809E+01 0.  1.
</event>
<event>
 5   0  0.9260916E-05  0.1401371E+04  0.7818609E-02  0.8952827E-01
       -1   -1    0    0    0  501  0.00000000000E+00  0.00000000000E+00  0.49197453316E+03  0.49197453319E+03  0.50400001928E-02 0. -1.
        1   -1    0    0  501    0  0.00000000000E+00  0.00000000000E+00 -0.99793795811E+03  0.99793795813E+03  0.50400001928E-02 0.  1.
    10030    2    1    2    0    0  0.00000000000E+00  0.00000000000E+00 -0.50596342495E+03  0.14899124913E+04  0.14013708447E+04 0.  0.
        1    1    3    3  502    0  0.61885947252E+03 -0.31792428181E+03 -0.16468531117E+03  0.71497143120E+03  0.50400001928E-02 0.  1.
       -1    1    3    3    0  502 -0.61885947252E+03  0.31792428181E+03 -0.34127811378E+03  0.77494106012E+03  0.50400001928E-02 0. -1.
</event>
<event>
 5   0  0.6671375E-05  0.1399187E+04  0.7818609E-02  0.8954408E-01
        1   -1    0    0  501    0  0.00000000000E+00  0.00000000000E+00  0.81835558605E+03  0.81835558606E+03  0.50400001928E-02 0.  1.
       -1   -1    0    0    0  501  0.00000000000E+00  0.00000000000E+00 -0.59806611272E+03  0.59806611274E+03  0.50400001928E-02 0. -1.
    10030    2    1    2    0    0  0.00000000000E+00  0.00000000000E+00  0.22028947332E+03  0.14164216988E+04  0.13991865411E+04 0.  0.
        5    1    3    3  502    0  0.27259168977E+03 -0.56628682309E+03  0.42121089477E+03  0.75658952095E+03  0.46999998093E+01 0.  1.
       -5    1    3    3    0  502 -0.27259168977E+03  0.56628682309E+03 -0.20092142145E+03  0.65983217786E+03  0.46999998093E+01 0. -1.
</event>
<event>
 5   0  0.9900839E-05  0.1399058E+04  0.7818609E-02  0.8954501E-01
       -1   -1    0    0    0  501  0.00000000000E+00  0.00000000000E+00  0.10672710899E+04  0.10672710899E+04  0.50400001928E-02 0.  1.
        1   -1    0    0  501    0  0.00000000000E+00  0.00000000000E+00 -0.45849733584E+03  0.45849733586E+03  0.50400001928E-02 0. -1.
    10030    2    1    2    0    0  0.00000000000E+00  0.00000000000E+00  0.60877375408E+03  0.15257684258E+04  0.13990581852E+04 0.  0.
        3    1    3    3  502    0 -0.62923772136E+03  0.30433464910E+03  0.27390451838E+03  0.75072190858E+03  0.10100000352E+00 0. -1.
       -3    1    3    3    0  502  0.62923772136E+03 -0.30433464910E+03  0.33486923569E+03  0.77504651721E+03  0.10100000352E+00 0.  1.
</event>
<event>
 5   0  0.9828111E-05  0.1410166E+04  0.7818609E-02  0.8946493E-01
       -1   -1    0    0    0  501  0.00000000000E+00  0.00000000000E+00  0.65721195364E+03  0.65721195366E+03  0.50400001928E-02 0.  1.
        1   -1    0    0  501    0  0.00000000000E+00  0.00000000000E+00 -0.75644064794E+03  0.75644064796E+03  0.50400001928E-02 0. -1.
    10030    2    1    2    0    0  0.00000000000E+00  0.00000000000E+00 -0.99228694300E+02  0.14136526016E+04  0.14101657152E+04 0.  0.
        4    1    3    3  502    0 -0.68453052057E+03  0.53645269456E+02 -0.21026157020E+03  0.71810263148E+03  0.12699999809E+01 0. -1.
       -4    1    3    3    0  502  0.68453052057E+03 -0.53645269456E+02  0.11103287590E+03  0.69554997014E+03  0.12699999809E+01 0.  1.
</event>
<event>
 5   0  0.9978422E-05  0.1400797E+04  0.7818609E-02  0.8953242E-01
       -1   -1    0    0    0  501  0.00000000000E+00  0.00000000000E+00  0.29799266775E+03  0.29799266779E+03  0.50400001928E-02 0. -1.
        1   -1    0    0  501    0  0.00000000000E+00  0.00000000000E+00 -0.16462081255E+04  0.16462081256E+04  0.50400001928E-02 0.  1.
    10030    2    1    2    0    0  0.00000000000E+00  0.00000000000E+00 -0.13482154578E+04  0.19442007933E+04  0.14007968462E+04 0.  0.
        2    1    3    3  502    0 -0.48418708324E+03 -0.38197571939E+03 -0.21333470978E+03  0.65257511459E+03  0.25500000920E-02 0. -1.
       -2    1    3    3    0  502  0.48418708324E+03  0.38197571939E+03 -0.11348807480E+04  0.12916256788E+04  0.25500000920E-02 0.  1.
</event>
<event>
 5   0  0.1794185E-04  0.1414333E+04  0.7818609E-02  0.8943508E-01
        2   -1    0    0  501    0  0.00000000000E+00  0.00000000000E+00  0.17245757656E+04  0.17245757656E+04  0.25500000920E-02 0. -1.
       -2   -1    0    0    0  501  0.00000000000E+00  0.00000000000E+00 -0.28997543064E+03  0.28997543065E+03  0.25500000920E-02 0.  1.
    10030    2    1    2    0    0  0.00000000000E+00  0.00000000000E+00  0.14346003349E+04  0.20145511962E+04  0.14143332002E+04 0.  0.
        2    1    3    3  502    0 -0.33875035180E+02  0.65348223119E+03  0.10992313750E+04  0.12792560964E+04  0.25500000920E-02 0. -1.
       -2    1    3    3    0  502  0.33875035180E+02 -0.65348223119E+03  0.33536895995E+03  0.73529509980E+03  0.25500000920E-02 0.  1.
</event>
<event>
 5   0  0.6671375E-05  0.1401876E+04  0.7818609E-02  0.8952462E-01
        1   -1    0    0  501    0  0.00000000000E+00  0.00000000000E+00  0.14666120697E+04  0.14666120697E+04  0.50400001928E-02 0. -1.
       -1   -1    0    0    0  501  0.00000000000E+00  0.00000000000E+00 -0.33499925592E+03  0.33499925595E+03  0.50400001928E-02 0.  1.
    10030    2    1    2    0    0  0.00000000000E+00  0.00000000000E+00  0.11316128138E+04  0.18016113256E+04  0.14018758178E+04 0.  0.
        5    1    3    3  502    0  0.36290881007E+03  0.18585126602E+03 -0.16689251369E+03  0.44058903599E+03  0.46999998093E+01 0.  1.
       -5    1    3    3    0  502 -0.36290881007E+03 -0.18585126602E+03  0.12985053274E+04  0.13610222896E+04  0.46999998093E+01 0. -1.
</event>
<event>
 5   0  0.9900839E-05  0.1398681E+04  0.7818609E-02  0.8954774E-01
       -1   -1    0    0    0  501  0.00000000000E+00  0.00000000000E+00  0.61756749595E+03  0.61756749597E+03  0.50400001928E-02 0. -1.
        1   -1    0    0  501    0  0.00000000000E+00  0.00000000000E+00 -0.79194152158E+03  0.79194152159E+03  0.50400001928E-02 0.  1.
    10030    2    1    2    0    0  0.00000000000E+00  0.00000000000E+00 -0.17437402563E+03  0.14095090176E+04  0.13986812967E+04 0.  0.
        3    1    3    3  502    0  0.38639737606E+02 -0.26686379754E+03  0.56307408361E+03  0.62430901771E+03  0.10100000352E+00 0. -1.
       -3    1    3    3    0  502 -0.38639737606E+02  0.26686379754E+03 -0.73744810924E+03  0.78519999986E+03  0.10100000352E+00 0.  1.
</event>
<event>
 5   0  0.1794185E-04  0.1396464E+04  0.7818609E-02  0.8956382E-01
        2   -1    0    0  501    0  0.00000000000E+00  0.00000000000E+00  0.14839988401E+04  0.14839988401E+04  0.25500000920E-02 0.  1.
       -2   -1    0    0    0  501  0.00000000000E+00  0.00000000000E+00 -0.32852293967E+03  0.32852293968E+03  0.25500000920E-02 0. -1.
    10030    2    1    2    0    0  0.00000000000E+00  0.00000000000E+00  0.11554759004E+04  0.18125217798E+04  0.13964636213E+04 0.  0.
        2    1    3    3  502    0 -0.49073677891E+03  0.32531121796E+03  0.90574482539E+02  0.59569598924E+03  0.25500000920E-02 0.  1.
       -2    1    3    3    0  502  0.49073677891E+03 -0.32531121796E+03  0.10649014179E+04  0.12168257905E+04  0.25500000920E-02 0. -1.
</event>
<event>
 5   0  0.9978422E-05  0.1427214E+04  0.7818609E-02  0.8934352E-01
        1   -1    0    0  501    0  0.00000000000E+00  0.00000000000E+00  0.80874647524E+03  0.80874647526E+03  0.50400001928E-02 0.  1.
       -1   -1    0    0    0  501  0.00000000000E+00  0.00000000000E+00 -0.62965978672E+03  0.62965978674E+03  0.50400001928E-02 0. -1.
    10030    2    1    2    0    0  0.00000000000E+00  0.00000000000E+00  0.17908668852E+03  0.14384062620E+04  0.14272142560E+04 0.  0.
        2    1    3    3  502    0  0.19392658806E+03  0.49473485855E+03  0.56958195444E+03  0.77896964296E+03  0.25500000920E-02 0.  1.
       -2    1    3    3    0  502 -0.19392658806E+03 -0.49473485855E+03 -0.39049526592E+03  0.65943661904E+03  0.25500000920E-02 0. -1.
</event>
<event>
 5   0  0.6671375E-05  0.1399841E+04  0.7818609E-02  0.8953934E-01
        1   -1    0    0  501    0  0.00000000000E+00  0.00000000000E+00  0.42304952993E+03  0.42304952996E+03  0.50400001928E-02 0.  1.
       -1   -1    0    0    0  501  0.00000000000E+00  0.00000000000E+00 -0.11579936724E+04  0.11579936724E+04  0.50400001928E-02 0. -1.
    10030    2    1    2    0    0  0.00000000000E+00  0.00000000000E+00 -0.73494414242E+03  0.15810432023E+04  0.13998409607E+04 0.  0.
        5    1    3    3  502    0 -0.41542023138E+03 -0.55703789162E+03 -0.46197770874E+03  0.83445232021E+03  0.46999998093E+01 0. -1.
       -5    1    3    3    0  502  0.41542023138E+03  0.55703789162E+03 -0.27296643369E+03  0.74659088211E+03  0.46999998093E+01 0.  1.
</event>
<event>
 5   0  0.1712327E-04  0.1399465E+04  0.7818609E-02  0.8954206E-01
        2   -1    0    0  501    0  0.00000000000E+00  0.00000000000E+00  0.87394740284E+03  0.87394740284E+03  0.25500000920E-02 0.  1.
       -2   -1    0    0    0  501  0.00000000000E+00  0.00000000000E+00 -0.56024625735E+03  0.56024625736E+03  0.25500000920E-02 0. -1.
    10030    2    1    2    0    0  0.00000000000E+00  0.00000000000E+00  0.31370114549E+03  0.14341936602E+04  0.13994652715E+04 0.  0.
        1    1    3    3  502    0  0.30610001548E+03  0.22546846313E+03  0.75887406957E+03  0.84877741537E+03  0.50400001928E-02 0.  1.
       -1    1    3    3    0  502 -0.30610001548E+03 -0.22546846313E+03 -0.44517292409E+03  0.58541624483E+03  0.50400001928E-02 0. -1.
</event>
<event>
 5   0  0.1794185E-04  0.1388668E+04  0.7818609E-02  0.8962062E-01
       -2   -1    0    0    0  501  0.00000000000E+00  0.00000000000E+00  0.55888714770E+03  0.55888714770E+03  0.25500000920E-02 0. -1.
        2   -1    0    0  501    0  0.00000000000E+00  0.00000000000E+00 -0.86260665474E+03  0.86260665475E+03  0.25500000920E-02 0.  1.
    10030    2    1    2    0    0  0.00000000000E+00  0.00000000000E+00 -0.30371950705E+03  0.14214938024E+04  0.13886680998E+04 0.  0.
        2    1    3    3  502    0 -0.27865268525E+03 -0.13238147988E+03  0.48487912021E+03  0.57469986640E+03  0.25500000920E-02 0. -1.
       -2    1    3    3    0  502  0.27865268525E+03  0.13238147988E+03 -0.78859862726E+03  0.84679393605E+03  0.25500000920E-02 0.  1.
</event>
<event>
 5   0  0.1833681E-04  0.1398221E+04  0.7818609E-02  0.8955107E-01
       -2   -1    0    0    0  501  0.00000000000E+00  0.00000000000E+00  0.74934872934E+03  0.74934872934E+03  0.25500000920E-02 0.  1.
        2   -1    0    0  501    0  0.00000000000E+00  0.00000000000E+00 -0.65224068835E+03  0.65224068836E+03  0.25500000920E-02 0. -1.
    10030    2    1    2    0    0  0.00000000000E+00  0.00000000000E+00  0.97108040982E+02  0.14015894177E+04  0.13982213431E+04 0.  0.
        4    1    3    3  502    0  0.42536706327E+03  0.55334065830E+03  0.89038128762E+02  0.70359961904E+03  0.12699999809E+01 0. -1.
       -4    1    3    3    0  502 -0.42536706327E+03 -0.55334065830E+03  0.80699122203E+01  0.69798979866E+03  0.12699999809E+01 0.  1.
</event>
<event>
 5   0  0.1780171E-04  0.1401132E+04  0.7818609E-02  0.8952999E-01
       -2   -1    0    0    0  501  0.00000000000E+00  0.00000000000E+00  0.74190557857E+03  0.74190557858E+03  0.25500000920E-02 0.  1.
        2   -1    0    0  501    0  0.00000000000E+00  0.00000000000E+00 -0.66153034891E+03  0.66153034891E+03  0.25500000920E-02 0. -1.
    10030    2    1    2    0    0  0.00000000000E+00  0.00000000000E+00  0.80375229667E+02  0.14034359275E+04  0.14011324795E+04 0.  0.
        5    1    3    3  502    0  0.49401586792E+02 -0.63623693910E+03 -0.24930830475E+03  0.68513843876E+03  0.46999998093E+01 0. -1.
       -5    1    3    3    0  502 -0.49401586792E+02  0.63623693910E+03  0.32968353442E+03  0.71829748873E+03  0.46999998093E+01 0.  1.
</event>
<event>
 5   0  0.1833681E-04  0.1400095E+04  0.7818609E-02  0.8953749E-01
       -2   -1    0    0    0  501  0.00000000000E+00  0.00000000000E+00  0.32750283757E+03  0.32750283758E+03  0.25500000920E-02 0.  1.
        2   -1    0    0  501    0  0.00000000000E+00  0.00000000000E+00 -0.14963742273E+04  0.14963742273E+04  0.25500000920E-02 0. -1.
    10030    2    1    2    0    0  0.00000000000E+00  0.00000000000E+00 -0.11688713897E+04  0.18238770649E+04  0.14000954332E+04 0.  0.
        4    1    3    3  502    0  0.10830536666E+03 -0.29544215564E+03 -0.13990528531E+04  0.14340037024E+04  0.12699999809E+01 0. -1.
       -4    1    3    3    0  502 -0.10830536666E+03  0.29544215564E+03  0.23018146340E+03  0.38987336248E+03  0.12699999809E+01 0.  1.
</event>
<event>
 5   0  0.1712327E-04  0.1397686E+04  0.7818609E-02  0.8955495E-01
       -2   -1    0    0    0  501  0.00000000000E+00  0.00000000000E+00  0.17568709726E+03  0.17568709728E+03  0.25500000920E-02 0.  1.
        2   -1    0    0  501    0  0.00000000000E+00  0.00000000000E+00 -0.27798364219E+04  0.27798364219E+04  0.25500000920E-02 0. -1.
    10030    2    1    2    0    0  0.00000000000E+00  0.00000000000E+00 -0.26041493246E+04  0.29555235192E+04  0.13976857899E+04 0.  0.
        1    1    3    3  502    0 -0.58422686099E+03  0.32498750569E+03 -0.87159462262E+03  0.10984603271E+04  0.50400001928E-02 0.  1.
       -1    1    3    3    0  502  0.58422686099E+03 -0.32498750569E+03 -0.17325547020E+04  0.18570631921E+04  0.50400001928E-02 0. -1.
</event>
<event>
 5   0  0.9978422E-05  0.1422934E+04  0.7818609E-02  0.8937383E-01
        1   -1    0    0  501    0  0.00000000000E+00  0.00000000000E+00  0.53725576773E+03  0.53725576776E+03  0.50400001928E-02 0.  1.
       -1   -1    0    0    0  501  0.00000000000E+00  0.00000000000E+00 -0.94216842070E+03  0.94216842071E+03  0.50400001928E-02 0. -1.
    10030    2    1    2    0    0  0.00000000000E+00  0.00000000000E+00 -0.40491265297E+03  0.14794241885E+04  0.14229341773E+04 0.  0.
        2    1    3    3  502    0  0.34361974220E+03 -0.53150990425E+02 -0.84781245927E+03  0.91634356064E+03  0.25500000920E-02 0. -1.
       -2    1    3    3    0  502 -0.34361974220E+03  0.53150990425E+02  0.44289980630E+03  0.56308062784E+03  0.25500000920E-02 0.  1.
</event>
<event>
 5   0  0.1794185E-04  0.1399127E+04  0.7818609E-02  0.8954451E-01
        2   -1    0    0  501    0  0.00000000000E+00  0.00000000000E+00  0.19850416615E+04  0.19850416615E+04  0.25500000920E-02 0.  1.
       -2   -1    0    0    0  501  0.00000000000E+00  0.00000000000E+00 -0.24653851033E+03  0.24653851034E+03  0.25500000920E-02 0. -1.
    10030    2    1    2    0    0  0.00000000000E+00  0.00000000000E+00  0.17385031512E+04  0.22315801719E+04  0.13991271768E+04 0.  0.
        2    1    3    3  502    0  0.68409681000E+03 -0.45630474995E+02  0.64756293167E+03  0.94308447988E+03  0.25500000920E-02 0. -1.
       -2    1    3    3    0  502 -0.68409681000E+03  0.45630474995E+02  0.10909402195E+04  0.12884956920E+04  0.25500000920E-02 0.  1.
</event>
<event>
 5   0  0.1766237E-04  0.1402596E+04  0.7818609E-02  0.8951941E-01
        2   -1    0    0  501    0  0.00000000000E+00  0.00000000000E+00  0.27203027699E+03  0.27203027700E+03  0.25500000920E-02 0. -1.
       -2   -1    0    0    0  501  0.00000000000E+00  0.00000000000E+00 -0.18079571628E+04  0.18079571628E+04  0.25500000920E-02 0.  1.
    10030    2    1    2    0    0  0.00000000000E+00  0.00000000000E+00 -0.15359268859E+04  0.20799874398E+04  0.14025962895E+04 0.  0.
        3    1    3    3  502    0 -0.11242467177E+03  0.37382624404E+03 -0.16319470697E+04  0.16779858808E+04  0.10100000352E+00 0.  1.
       -3    1    3    3    0  502  0.11242467177E+03 -0.37382624404E+03  0.96020183881E+02  0.40200155904E+03  0.10100000352E+00 0. -1.
</event>
<event>
 5   0  0.6671375E-05  0.1398711E+04  0.7818609E-02  0.8954752E-01
        4   -1    0    0  501    0  0.00000000000E+00  0.00000000000E+00  0.11152561537E+04  0.11152568769E+04  0.12699999809E+01 0. -1.
       -4   -1    0    0    0  501  0.00000000000E+00  0.00000000000E+00 -0.43855051657E+03  0.43855235547E+03  0.12699999809E+01 0.  1.
    10030    2    1    2    0    0  0.00000000000E+00  0.00000000000E+00  0.67670563717E+03  0.15538092323E+04  0.13987110535E+04 0.  0.
        2    1    3    3  502    0  0.26830555506E+03  0.50673346862E+03 -0.10646183190E+03  0.58318161901E+03  0.25500000920E-02 0.  1.
       -2    1    3    3    0  502 -0.26830555506E+03 -0.50673346862E+03  0.78316746907E+03  0.97062761330E+03  0.25500000920E-02 0. -1.
</event>
<event>
 5   0  0.1712327E-04  0.1400275E+04  0.7818609E-02  0.8953620E-01
       -2   -1    0    0    0  501  0.00000000000E+00  0.00000000000E+00  0.80612069607E+03  0.80612069607E+03  0.25500000920E-02 0. -1.
        2   -1    0    0  501    0  0.00000000000E+00  0.00000000000E+00 -0.60808783553E+03  0.60808783553E+03  0.25500000920E-02 0.  1.
    10030    2    1    2    0    0  0.00000000000E+00  0.00000000000E+00  0.19803286054E+03  0.14142085316E+04  0.14002745292E+04 0.  0.
        1    1    3    3  502    0 -0.64722946217E+03 -0.26658383360E+03  0.84061236623E+02  0.70501007692E+03  0.50400001928E-02 0. -1.
       -1    1    3    3    0  502  0.64722946217E+03  0.26658383360E+03  0.11397162392E+03  0.70919845468E+03  0.50400001928E-02 0.  1.
</event>
<event>
 5   0  0.9260916E-05  0.1400310E+04  0.7818609E-02  0.8953594E-01
       -1   -1    0    0    0  501  0.00000000000E+00  0.00000000000E+00  0.84499262311E+03  0.84499262312E+03  0.50400001928E-02 0.  1.
        1   -1    0    0  501    0  0.00000000000E+00  0.00000000000E+00 -0.58014367010E+03  0.58014367012E+03  0.50400001928E-02 0. -1.
    10030    2    1    2    0    0  0.00000000000E+00  0.00000000000E+00  0.26484895301E+03  0.14251362932E+04  0.14003101394E+04 0.  0.
        1    1    3    3  502    0 -0.69448425609E+03  0.46008700587E+02  0.54970421537E+02  0.69817399677E+03  0.50400001928E-02 0. -1.
       -1    1    3    3    0  502  0.69448425609E+03 -0.46008700587E+02  0.20987853148E+03  0.72696229647E+03  0.50400001928E-02 0.  1.
</event>
<event>
 5   0  0.1794185E-04  0.1398934E+04  0.7818609E-02  0.8954591E-01
        2   -1    0    0  501    0  0.00000000000E+00  0.00000000000E+00  0.12046457995E+04  0.12046457995E+04  0.25500000920E-02 0.  1.
       -2   -1    0    0    0  501  0.00000000000E+00  0.00000000000E+00 -0.40613938128E+03  0.40613938129E+03  0.25500000920E-02 0. -1.
    10030    2    1    2    0    0  0.00000000000E+00  0.00000000000E+00  0.79850641820E+03  0.16107851808E+04  0.13989340223E+04 0.  0.
        2    1    3    3  502    0 -0.36574202162E+03  0.25488108086E+03  0.10198796659E+04  0.11130526155E+04  0.25500000920E-02 0.  1.
       -2    1    3    3    0  502  0.36574202162E+03 -0.25488108086E+03 -0.22137324774E+03  0.49773256532E+03  0.25500000920E-02 0. -1.
</event>
<event>
 5   0  0.9900839E-05  0.1399215E+04  0.7818609E-02  0.8954387E-01
       -1   -1    0    0    0  501  0.00000000000E+00  0.00000000000E+00  0.70326040081E+03  0.70326040083E+03  0.50400001928E-02 0. -1.
        1   -1    0    0  501    0  0.00000000000E+00  0.00000000000E+00 -0.69597330947E+03  0.69597330949E+03  0.50400001928E-02 0.  1.
    10030    2    1    2    0    0  0.00000000000E+00  0.00000000000E+00  0.72870913451E+01  0.13992337103E+04  0.13992147349E+04 0.  0.
        3    1    3    3  502    0  0.14255996298E+03  0.23316185844E+03  0.64767298039E+03  0.70297090623E+03  0.10100000352E+00 0. -1.
       -3    1    3    3    0  502 -0.14255996298E+03 -0.23316185844E+03 -0.64038588904E+03  0.69626280409E+03  0.10100000352E+00 0.  1.
</event>
<event>
 5   0  0.1780171E-04  0.1400343E+04  0.7818609E-02  0.8953570E-01
       -2   -1    0    0    0  501  0.00000000000E+00  0.00000000000E+00  0.27281034392E+03  0.27281034394E+03  0.25500000920E-02 0. -1.
        2   -1    0    0  501    0  0.00000000000E+00  0.00000000000E+00 -0.17969994740E+04  0.17969994740E+04  0.25500000920E-02 0.  1.
    10030    2    1    2    0    0  0.00000000000E+00  0.00000000000E+00 -0.15241891301E+04  0.20698098180E+04  0.14003428788E+04 0.  0.
        5    1    3    3  502    0  0.25096665741E+03 -0.56183895105E+03 -0.12558036333E+04  0.13984677778E+04  0.46999998093E+01 0.  1.
       -5    1    3    3    0  502 -0.25096665741E+03  0.56183895105E+03 -0.26838549681E+03  0.67134204020E+03  0.46999998093E+01 0. -1.
</event>
<event>
 5   0  0.9828111E-05  0.1390129E+04  0.7818609E-02  0.8960995E-01
       -1   -1    0    0    0  501  0.00000000000E+00  0.00000000000E+00  0.64960208066E+03  0.64960208068E+03  0.50400001928E-02 0.  1.
        1   -1    0    0  501    0  0.00000000000E+00  0.00000000000E+00 -0.74370876449E+03  0.74370876451E+03  0.50400001928E-02 0. -1.
    10030    2    1    2    0    0  0.00000000000E+00  0.00000000000E+00 -0.94106683830E+02  0.13933108452E+04  0.13901291463E+04 0.  0.
        4    1    3    3  502    0  0.64128491901E+03  0.18011389203E+03  0.15196039351E+03  0.68321368220E+03  0.12699999809E+01 0.  1.
       -4    1    3    3    0  502 -0.64128491901E+03 -0.18011389203E+03 -0.24606707734E+03  0.71009716300E+03  0.12699999809E+01 0. -1.
</event>
<event>
 5   0  0.1833681E-04  0.1400922E+04  0.7818609E-02  0.8953151E-01
       -2   -1    0    0    0  501  0.00000000000E+00  0.00000000000E+00  0.25771352197E+03  0.25771352199E+03  0.25500000920E-02 0. -1.
        2   -1    0    0  501    0  0.00000000000E+00  0.00000000000E+00 -0.19038420398E+04  0.19038420398E+04  0.25500000920E-02 0.  1.
    10030    2    1    2    0    0  0.00000000000E+00  0.00000000000E+00 -0.16461285179E+04  0.21615555618E+04  0.14009223210E+04 0.  0.
        4    1    3    3  502    0 -0.15914550008E+03  0.46436841931E+03 -0.52083971189E+02  0.49363921238E+03  0.12699999809E+01 0. -1.
       -4    1    3    3    0  502  0.15914550008E+03 -0.46436841931E+03 -0.15940445467E+04  0.16679163494E+04  0.12699999809E+01 0.  1.
</event>
<event>
 5   0  0.9260916E-05  0.1402174E+04  0.7818609E-02  0.8952246E-01
       -1   -1    0    0    0  501  0.00000000000E+00  0.00000000000E+00  0.50127750152E+03  0.50127750155E+03  0.50400001928E-02 0. -1.
        1   -1    0    0  501    0  0.00000000000E+00  0.00000000000E+00 -0.98054051575E+03  0.98054051576E+03  0.50400001928E-02 0.  1.
    10030    2    1    2    0    0  0.00000000000E+00  0.00000000000E+00 -0.47926301423E+03  0.14818180173E+04  0.14021738835E+04 0.  0.
        1    1    3    3  502    0  0.70044903612E+03  0.69064813683E+01 -0.27037601407E+03  0.75085267576E+03  0.50400001928E-02 0. -1.
       -1    1    3    3    0  502 -0.70044903612E+03 -0.69064813683E+01 -0.20888700016E+03  0.73096534155E+03  0.50400001928E-02 0.  1.
</event>
<event>
 5   0  0.1712327E-04  0.1401238E+04  0.7818609E-02  0.8952923E-01
        2   -1    0    0  501    0  0.00000000000E+00  0.00000000000E+00  0.59219098525E+03  0.59219098526E+03  0.25500000920E-02 0. -1.
       -2   -1    0    0    0  501  0.00000000000E+00  0.00000000000E+00 -0.82889926738E+03  0.82889926738E+03  0.25500000920E-02 0.  1.
    10030    2    1    2    0    0  0.00000000000E+00  0.00000000000E+00 -0.23670828212E+03  0.14210902526E+04  0.14012375585E+04 0.  0.
        1    1    3    3  502    0  0.33842421343E+03  0.11669576569E+03  0.49243926465E+03  0.60880643834E+03  0.50400001928E-02 0. -1.
       -1    1    3    3    0  502 -0.33842421343E+03 -0.11669576569E+03 -0.72914754678E+03  0.81228381429E+03  0.50400001928E-02 0.  1.
</event>
<event>
 5   0  0.9828111E-05  0.1399011E+04  0.7818609E-02  0.8954534E-01
       -1   -1    0    0    0  501  0.00000000000E+00  0.00000000000E+00  0.13878850652E+04  0.13878850652E+04  0.50400001928E-02 0. -1.
        1   -1    0    0  501    0  0.00000000000E+00  0.00000000000E+00 -0.35255673599E+03  0.35255673602E+03  0.50400001928E-02 0.  1.
    10030    2    1    2    0    0  0.00000000000E+00  0.00000000000E+00  0.10353283292E+04  0.17404418013E+04  0.13990114061E+04 0.  0.
        4    1    3    3  502    0 -0.22513486646E+03 -0.53187500052E+03  0.10085994420E+04  0.11622612321E+04  0.12699999809E+01 0. -1.
       -4    1    3    3    0  502  0.22513486646E+03  0.53187500052E+03  0.26728887241E+02  0.57818056919E+03  0.12699999809E+01 0.  1.
</event>
<event>
 5   0  0.6671375E-05  0.1399972E+04  0.7818609E-02  0.8953839E-01
       -1   -1    0    0    0  501  0.00000000000E+00  0.00000000000E+00  0.18962800763E+03  0.18962800769E+03  0.50400001928E-02 0.  1.
        1   -1    0    0  501    0  0.00000000000E+00  0.00000000000E+00 -0.25839041910E+04  0.25839041910E+04  0.50400001928E-02 0. -1.
    10030    2    1    2    0    0  0.00000000000E+00  0.00000000000E+00 -0.23942761834E+04  0.27735321987E+04  0.13999722908E+04 0.  0.
        5    1    3    3  502    0 -0.51862073038E+03  0.33163106046E+03 -0.53705512888E+03  0.81694364781E+03  0.46999998093E+01 0.  1.
       -5    1    3    3    0  502  0.51862073038E+03 -0.33163106046E+03 -0.18572210545E+04  0.19565885509E+04  0.46999998093E+01 0. -1.
</event>
<event>
 5   0  0.1766237E-04  0.1399322E+04  0.7818609E-02  0.8954309E-01
       -2   -1    0    0    0  501  0.00000000000E+00  0.00000000000E+00  0.58762589371E+03  0.58762589372E+03  0.25500000920E-02 0.  1.
        2   -1    0    0  501    0  0.00000000000E+00  0.00000000000E+00 -0.83305643723E+03  0.83305643724E+03  0.25500000920E-02 0. -1.
    10030    2    1    2    0    0  0.00000000000E+00  0.00000000000E+00 -0.24543054352E+03  0.14206823310E+04  0.13993220265E+04 0.  0.
        3    1    3    3  502    0 -0.17116808855E+03 -0.48157487746E+03 -0.60782981282E+03  0.79414732178E+03  0.10100000352E+00 0. -1.
       -3    1    3    3    0  502  0.17116808855E+03  0.48157487746E+03  0.36239926930E+03  0.62653500918E+03  0.10100000352E+00 0.  1.
</event>
<event>
 5   0  0.9900839E-05  0.1401323E+04  0.7818609E-02  0.8952861E-01
       -1   -1    0    0    0  501  0.00000000000E+00  0.00000000000E+00  0.10902239200E+04  0.10902239200E+04  0.50400001928E-02 0. -1.
        1   -1    0    0  501    0  0.00000000000E+00  0.00000000000E+00 -0.45029896037E+03  0.45029896040E+03  0.50400001928E-02 0.  1.
    10030    2    1    2    0    0  0.00000000000E+00  0.00000000000E+00  0.63992495960E+03  0.15405228804E+04  0.14013232286E+04 0.  0.
        3    1    3    3  502    0 -0.62846315794E+03 -0.29648982628E+03  0.22130047798E+03  0.72927777268E+03  0.10100000352E+00 0.  1.
       -3    1    3    3    0  502  0.62846315794E+03  0.29648982628E+03  0.41862448163E+03  0.81124510771E+03  0.10100000352E+00 0. -1.
</event>
<event>
 5   0  0.1712327E-04  0.1396798E+04  0.7818609E-02  0.8956140E-01
       -2   -1    0    0    0  501  0.00000000000E+00  0.00000000000E+00  0.80829546077E+03  0.80829546078E+03  0.25500000920E-02 0.  1.
        2   -1    0    0  501    0  0.00000000000E+00  0.00000000000E+00 -0.60344390277E+03  0.60344390278E+03  0.25500000920E-02 0. -1.
    10030    2    1    2    0    0  0.00000000000E+00  0.00000000000E+00  0.20485155800E+03  0.14117393636E+04  0.13967977197E+04 0.  0.
        1    1    3    3  502    0  0.93713397963E+02  0.40505781948E+03  0.66959429595E+03  0.78816911845E+03  0.50400001928E-02 0.  1.
       -1    1    3    3    0  502 -0.93713397963E+02 -0.40505781948E+03 -0.46474273795E+03  0.62357024511E+03  0.50400001928E-02 0. -1.
</event>
<event>
 5   0  0.9828111E-05  0.1396285E+04  0.7818609E-02  0.8956512E-01
        1   -1    0    0  501    0  0.00000000000E+00  0.00000000000E+00  0.95262300291E+03  0.95262300292E+03  0.50400001928E-02 0.  1.
       -1   -1    0    0    0  501  0.00000000000E+00  0.00000000000E+00 -0.51164325999E+03  0.51164326001E+03  0.50400001928E-02 0. -1.
    10030    2    1    2    0    0  0.00000000000E+00  0.00000000000E+00  0.44097974292E+03  0.14642662629E+04  0.13962852700E+04 0.  0.
        4    1    3    3  502    0 -0.55117926751E+03  0.23200311373E+02 -0.22820198550E+03  0.59700468882E+03  0.12699999809E+01 0. -1.
       -4    1    3    3    0  502  0.55117926751E+03 -0.23200311373E+02  0.66918172842E+03  0.86726157412E+03  0.12699999809E+01 0.  1.
</event>
<event>
 5   0  0.1766237E-04  0.1400739E+04  0.7818609E-02  0.8953283E-01
        2   -1    0    0  501    0  0.00000000000E+00  0.00000000000E+00  0.73010468073E+03  0.73010468074E+03  0.25500000920E-02 0. -1.
       -2   -1    0    0    0  501  0.00000000000E+00  0.00000000000E+00 -0.67184574765E+03  0.67184574765E+03  0.25500000920E-02 0.  1.
    10030    2    1    2    0    0  0.00000000000E+00  0.00000000000E+00  0.58258933087E+02  0.14019504284E+04  0.14007394120E+04 0.  0.
        3    1    3    3  502    0  0.26750352911E+03  0.37787629889E+03  0.55510172126E+03  0.72283232253E+03  0.10100000352E+00 0. -1.
       -3    1    3    3    0  502 -0.26750352911E+03 -0.37787629889E+03 -0.49684278817E+03  0.67911810586E+03  0.10100000352E+00 0.  1.
</event>
<event>
 5   0  0.9828111E-05  0.1399636E+04  0.7818609E-02  0.8954082E-01
        1   -1    0    0  501    0  0.00000000000E+00  0.00000000000E+00  0.32723119913E+03  0.32723119917E+03  0.50400001928E-02 0. -1.
       -1   -1    0    0    0  501  0.00000000000E+00  0.00000000000E+00 -0.14966346174E+04  0.14966346174E+04  0.50400001928E-02 0.  1.
    10030    2    1    2    0    0  0.00000000000E+00  0.00000000000E+00 -0.11694034183E+04  0.18238658166E+04  0.13996364393E+04 0.  0.
        4    1    3    3  502    0 -0.37017939130E+03  0.30071649222E+03 -0.12520627362E+04  0.13398230848E+04  0.12699999809E+01 0.  1.
       -4    1    3    3    0  502  0.37017939130E+03 -0.30071649222E+03  0.82659317879E+02  0.48404273176E+03  0.12699999809E+01 0. -1.
</event>
<event>
 5   0  0.6671375E-05  0.1399622E+04  0.7818609E-02  0.8954092E-01
       -1   -1    0    0    0  501  0.00000000000E+00  0.00000000000E+00  0.11446468455E+04  0.11446468455E+04  0.50400001928E-02 0. -1.
        1   -1    0    0  501    0  0.00000000000E+00  0.00000000000E+00 -0.42784876434E+03  0.42784876437E+03  0.50400001928E-02 0.  1.
    10030    2    1    2    0    0  0.00000000000E+00  0.00000000000E+00  0.71679808116E+03  0.15724956099E+04  0.13996224326E+04 0.  0.
        5    1    3    3  502    0 -0.69607404314E+03  0.71805416763E+02  0.36537542913E+03  0.78942788500E+03  0.46999998093E+01 0. -1.
       -5    1    3    3    0  502  0.69607404314E+03 -0.71805416763E+02  0.35142265203E+03  0.78306772489E+03  0.46999998093E+01 0.  1.
</event>
<event>
 5   0  0.9828111E-05  0.1398965E+04  0.7818609E-02  0.8954568E-01
       -1   -1    0    0    0  501  0.00000000000E+00  0.00000000000E+00  0.45494868159E+03  0.45494868162E+03  0.50400001928E-02 0.  1.
        1   -1    0    0  501    0  0.00000000000E+00  0.00000000000E+00 -0.10754524871E+04  0.10754524871E+04  0.50400001928E-02 0. -1.
    10030    2    1    2    0    0  0.00000000000E+00  0.00000000000E+00 -0.62050380551E+03  0.15304011687E+04  0.13989648904E+04 0.  0.
        4    1    3    3  502    0 -0.72489897858E+02 -0.46464888715E+03 -0.87670460053E+03  0.99486981214E+03  0.12699999809E+01 0. -1.
       -4    1    3    3    0  502  0.72489897858E+02  0.46464888715E+03  0.25620079502E+03  0.53553135659E+03  0.12699999809E+01 0.  1.
</event>
<event>
 5   0  0.6671375E-05  0.1399919E+04  0.7818609E-02  0.8953877E-01
       -1   -1    0    0    0  501  0.00000000000E+00  0.00000000000E+00  0.82372432941E+03  0.82372432943E+03  0.50400001928E-02 0.  1.
        1   -1    0    0  501    0  0.00000000000E+00  0.00000000000E+00 -0.59479014764E+03  0.59479014766E+03  0.50400001928E-02 0. -1.
    10030    2    1    2    0    0  0.00000000000E+00  0.00000000000E+00  0.22893418177E+03  0.14185144771E+04  0.13999187341E+04 0.  0.
        5    1    3    3  502    0 -0.16845800873E+03  0.26034605410E+03 -0.52137360501E+03  0.60663885022E+03  0.46999998093E+01 0. -1.
       -5    1    3    3    0  502  0.16845800873E+03 -0.26034605410E+03  0.75030778679E+03  0.81187562687E+03  0.46999998093E+01 0.  1.
</event>
<event>
 5   0  0.1794185E-04  0.1397944E+04  0.7818609E-02  0.8955308E-01
       -2   -1    0    0    0  501  0.00000000000E+00  0.00000000000E+00  0.78018081215E+03  0.78018081215E+03  0.25500000920E-02 0.  1.
        2   -1    0    0  501    0  0.00000000000E+00  0.00000000000E+00 -0.62621574952E+03  0.62621574952E+03  0.25500000920E-02 0. -1.
    10030    2    1    2    0    0  0.00000000000E+00  0.00000000000E+00  0.15396506263E+03  0.14063965617E+04  0.13979435068E+04 0.  0.
        2    1    3    3  502    0 -0.16224686353E+03 -0.49031026062E+03  0.55082235715E+03  0.75507182807E+03  0.25500000920E-02 0.  1.
       -2    1    3    3    0  502  0.16224686353E+03  0.49031026062E+03 -0.39685729452E+03  0.65132473361E+03  0.25500000920E-02 0. -1.
</event>
<event>
 5   0  0.1833681E-04  0.1405176E+04  0.7818609E-02  0.8950081E-01
        2   -1    0    0  501    0  0.00000000000E+00  0.00000000000E+00  0.20987112720E+04  0.20987112720E+04  0.25500000920E-02 0. -1.
       -2   -1    0    0    0  501  0.00000000000E+00  0.00000000000E+00 -0.23520603567E+03  0.23520603569E+03  0.25500000920E-02 0.  1.
    10030    2    1    2    0    0  0.00000000000E+00  0.00000000000E+00  0.18635052364E+04  0.23339173077E+04  0.14051755169E+04 0.  0.
        4    1    3    3  502    0 -0.47324397711E+02  0.66706527919E+03  0.57392714920E+03  0.88125460045E+03  0.12699999809E+01 0. -1.
       -4    1    3    3    0  502  0.47324397711E+02 -0.66706527919E+03  0.12895780872E+04  0.14526627073E+04  0.12699999809E+01 0.  1.
</event>
<event>
 5   0  0.1780171E-04  0.1394117E+04  0.7818609E-02  0.8958088E-01
       -2   -1    0    0    0  501  0.00000000000E+00  0.00000000000E+00  0.21619435879E+03  0.21619435880E+03  0.25500000920E-02 0. -1.
        2   -1    0    0  501    0  0.00000000000E+00  0.00000000000E+00 -0.22474725886E+04  0.22474725886E+04  0.25500000920E-02 0.  1.
    10030    2    1    2    0    0  0.00000000000E+00  0.00000000000E+00 -0.20312782298E+04  0.24636669474E+04  0.13941174917E+04 0.  0.
        5    1    3    3  502    0 -0.67809073951E+03  0.15964620666E+03 -0.10580089917E+04  0.12667671762E+04  0.46999998093E+01 0.  1.
       -5    1    3    3    0  502  0.67809073951E+03 -0.15964620666E+03 -0.97326923808E+03  0.11968997711E+04  0.46999998093E+01 0. -1.
</event>
<event>
 5   0  0.1780171E-04  0.1401295E+04  0.7818609E-02  0.8952882E-01
       -2   -1    0    0    0  501  0.00000000000E+00  0.00000000000E+00  0.32853847872E+03  0.32853847873E+03  0.25500000920E-02 0.  1.
        2   -1    0    0  501    0  0.00000000000E+00  0.00000000000E+00 -0.14942144871E+04  0.14942144871E+04  0.25500000920E-02 0. -1.
    10030    2    1    2    0    0  0.00000000000E+00  0.00000000000E+00 -0.11656760084E+04  0.18227529658E+04  0.14012950503E+04 0.  0.
        5    1    3    3  502    0 -0.34138738117E+02  0.67005083270E+03 -0.32025360487E+03  0.74345008795E+03  0.46999998093E+01 0.  1.
       -5    1    3    3    0  502  0.34138738117E+02 -0.67005083270E+03 -0.84542240351E+03  0.10793028779E+04  0.46999998093E+01 0. -1.
</event>
<event>
 5   0  0.9828111E-05  0.1404570E+04  0.7818609E-02  0.8950517E-01
       -1   -1    0    0    0  501  0.00000000000E+00  0.00000000000E+00  0.56085279920E+03  0.56085279922E+03  0.50400001928E-02 0. -1.
        1   -1    0    0  501    0  0.00000000000E+00  0.00000000000E+00 -0.87938307037E+03  0.87938307039E+03  0.50400001928E-02 0.  1.
    10030    2    1    2    0    0  0.00000000000E+00  0.00000000000E+00 -0.31853027117E+03  0.14402358696E+04  0.14045703352E+04 0.  0.
        4    1    3    3  502    0  0.29712470966E+03  0.30398811058E+02  0.49248102673E+03  0.57597426626E+03  0.12699999809E+01 0. -1.
       -4    1    3    3    0  502 -0.29712470966E+03 -0.30398811058E+02 -0.81101129791E+03  0.86426160335E+03  0.12699999809E+01 0.  1.
</event>
<event>
 5   0  0.9260916E-05  0.1400072E+04  0.7818609E-02  0.8953766E-01
        1   -1    0    0  501    0  0.00000000000E+00  0.00000000000E+00  0.12629425090E+04  0.12629425090E+04  0.50400001928E-02 0.  1.
       -1   -1    0    0    0  501  0.00000000000E+00  0.00000000000E+00 -0.38802288162E+03  0.38802288165E+03  0.50400001928E-02 0. -1.
    10030    2    1    2    0    0  0.00000000000E+00  0.00000000000E+00  0.87491962739E+03  0.16509653907E+04  0.14000722720E+04 0.  0.
        1    1    3    3  502    0  0.18316113666E+03  0.14960527355E+02  0.12339907478E+04  0.12475996894E+04  0.50400001928E-02 0.  1.
       -1    1    3    3    0  502 -0.18316113666E+03 -0.14960527355E+02 -0.35907112044E+03  0.40336570122E+03  0.50400001928E-02 0. -1.
</event>
<event>
 5   0  0.1766237E-04  0.1405255E+04  0.7818609E-02  0.8950023E-01
       -2   -1    0    0    0  501  0.00000000000E+00  0.00000000000E+00  0.52717643705E+03  0.52717643705E+03  0.25500000920E-02 0. -1.
        2   -1    0    0  501    0  0.00000000000E+00  0.00000000000E+00 -0.93647129125E+03  0.93647129125E+03  0.25500000920E-02 0.  1.
    10030    2    1    2    0    0  0.00000000000E+00  0.00000000000E+00 -0.40929485420E+03  0.14636477283E+04  0.14052552775E+04 0.  0.
        3    1    3    3  502    0 -0.11886089355E+02  0.20648402954E+03 -0.90404742031E+03  0.92740427104E+03  0.10100000352E+00 0.  1.
       -3    1    3    3    0  502  0.11886089355E+02 -0.20648402954E+03  0.49475256611E+03  0.53624345726E+03  0.10100000352E+00 0. -1.
</event>
<event>
 5   0  0.1712327E-04  0.1399319E+04  0.7818609E-02  0.8954312E-01
       -2   -1    0    0    0  501  0.00000000000E+00  0.00000000000E+00  0.11224244186E+04  0.11224244186E+04  0.25500000920E-02 0. -1.
        2   -1    0    0  501    0  0.00000000000E+00  0.00000000000E+00 -0.43613039503E+03  0.43613039504E+03  0.25500000920E-02 0.  1.
    10030    2    1    2    0    0  0.00000000000E+00  0.00000000000E+00  0.68629402352E+03  0.15585548136E+04  0.13993189845E+04 0.  0.
        1    1    3    3  502    0 -0.92275054643E+02 -0.47068801032E+03 -0.22419093221E+03  0.52945581768E+03  0.50400001928E-02 0.  1.
       -1    1    3    3    0  502  0.92275054643E+02  0.47068801032E+03  0.91048495573E+03  0.10290989959E+04  0.50400001928E-02 0. -1.
</event>
<event>
 5   0  0.6671375E-05  0.1401147E+04  0.7818609E-02  0.8952989E-01
       -1   -1    0    0    0  501  0.00000000000E+00  0.00000000000E+00  0.39495981042E+03  0.39495981045E+03  0.50400001928E-02 0.  1.
        1   -1    0    0  501    0  0.00000000000E+00  0.00000000000E+00 -0.12426653957E+04  0.12426653957E+04  0.50400001928E-02 0. -1.
    10030    2    1    2    0    0  0.00000000000E+00  0.00000000000E+00 -0.84770558528E+03  0.16376252062E+04  0.14011465150E+04 0.  0.
        5    1    3    3  502    0  0.33135126881E+03 -0.26570817157E+03 -0.10750045810E+04  0.11558769117E+04  0.46999998093E+01 0. -1.
       -5    1    3    3    0  502 -0.33135126881E+03  0.26570817157E+03  0.22729899572E+03  0.48174829448E+03  0.46999998093E+01 0.  1.
</event>
<event>
 5   0  0.1780171E-04  0.1399531E+04  0.7818609E-02  0.8954158E-01
       -2   -1    0    0    0  501  0.00000000000E+00  0.00000000000E+00  0.54697137782E+03  0.54697137783E+03  0.25500000920E-02 0. -1.
        2   -1    0    0  501    0  0.00000000000E+00  0.00000000000E+00 -0.89524156573E+03  0.89524156573E+03  0.25500000920E-02 0.  1.
    10030    2    1    2    0    0  0.00000000000E+00  0.00000000000E+00 -0.34827018791E+03  0.14422129436E+04  0.13995306537E+04 0.  0.
        5    1    3    3  502    0  0.38123869018E+03 -0.29302601792E+03  0.34974116701E+03  0.59459915907E+03  0.46999998093E+01 0. -1.
       -5    1    3    3    0  502 -0.38123869018E+03  0.29302601792E+03 -0.69801135492E+03  0.84761378449E+03  0.46999998093E+01 0.  1.
</event>
<event>
 5   0  0.9900839E-05  0.1379739E+04  0.7818609E-02  0.8968617E-01
        1   -1    0    0  501    0  0.00000000000E+00  0.00000000000E+00  0.28445094872E+03  0.28445094876E+03  0.50400001928E-02 0. -1.
       -1   -1    0    0    0  501  0.00000000000E+00  0.00000000000E+00 -0.16731171371E+04  0.16731171371E+04  0.50400001928E-02 0.  1.
    10030    2    1    2    0    0  0.00000000000E+00  0.00000000000E+00 -0.13886661884E+04  0.19575680859E+04  0.13797387536E+04 0.  0.
        3    1    3    3  502    0 -0.24017867130E+02  0.20807237817E+03 -0.16269137484E+04  0.16403412229E+04  0.10100000352E+00 0.  1.
       -3    1    3    3    0  502  0.24017867130E+02 -0.20807237817E+03  0.23824756007E+03  0.31722686295E+03  0.10100000352E+00 0. -1.
</event>
<event>
 5   0  0.6671375E-05  0.1400890E+04  0.7818609E-02  0.8953174E-01
        1   -1    0    0  501    0  0.00000000000E+00  0.00000000000E+00  0.42803826540E+03  0.42803826542E+03  0.50400001928E-02 0. -1.
       -1   -1    0    0    0  501  0.00000000000E+00  0.00000000000E+00 -0.11462140845E+04  0.11462140845E+04  0.50400001928E-02 0.  1.
    10030    2    1    2    0    0  0.00000000000E+00  0.00000000000E+00 -0.71817581910E+03  0.15742523499E+04  0.14008904147E+04 0.  0.
        5    1    3    3  502    0  0.39859003177E+03 -0.44200356912E+03 -0.77405537580E+03  0.97643483313E+03  0.46999998093E+01 0.  1.
       -5    1    3    3    0  502 -0.39859003177E+03  0.44200356912E+03  0.55879556706E+02  0.59781751680E+03  0.46999998093E+01 0. -1.
</event>
<event>
 5   0  0.1794185E-04  0.1393246E+04  0.7818609E-02  0.8958722E-01
        2   -1    0    0  501    0  0.00000000000E+00  0.00000000000E+00  0.68064141800E+03  0.68064141800E+03  0.25500000920E-02 0.  1.
       -2   -1    0    0    0  501  0.00000000000E+00  0.00000000000E+00 -0.71298004225E+03  0.71298004225E+03  0.25500000920E-02 0. -1.
    10030    2    1    2    0    0  0.00000000000E+00  0.00000000000E+00 -0.32338624253E+02  0.13936214603E+04  0.13932462050E+04 0.  0.
        2    1    3    3  502    0 -0.56118021936E+03  0.40644153087E+03  0.55723478972E+02  0.69514247657E+03  0.25500000920E-02 0.  1.
       -2    1    3    3    0  502  0.56118021936E+03 -0.40644153087E+03 -0.88062103225E+02  0.69847898368E+03  0.25500000920E-02 0. -1.
</event>
<event>
 5   0  0.9260916E-05  0.1405767E+04  0.7818609E-02  0.8949654E-01
        1   -1    0    0  501    0  0.00000000000E+00  0.00000000000E+00  0.10693003524E+04  0.10693003524E+04  0.50400001928E-02 0. -1.
       -1   -1    0    0    0  501  0.00000000000E+00  0.00000000000E+00 -0.46202678295E+03  0.46202678298E+03  0.50400001928E-02 0.  1.
    10030    2    1    2    0    0  0.00000000000E+00  0.00000000000E+00  0.60727356943E+03  0.15313271354E+04  0.14057672664E+04 0.  0.
        1    1    3    3  502    0  0.46910534950E+03 -0.46791585935E+03  0.48075517625E+02  0.66431644251E+03  0.50400001928E-02 0.  1.
       -1    1    3    3    0  502 -0.46910534950E+03  0.46791585935E+03  0.55919805181E+03  0.86701069286E+03  0.50400001928E-02 0. -1.
</event>
<event>
 5   0  0.1766237E-04  0.1400081E+04  0.7818609E-02  0.8953760E-01
       -2   -1    0    0    0  501  0.00000000000E+00  0.00000000000E+00  0.18903514524E+04  0.18903514524E+04  0.25500000920E-02 0.  1.
        2   -1    0    0  501    0  0.00000000000E+00  0.00000000000E+00 -0.25924090989E+03  0.25924090990E+03  0.25500000920E-02 0. -1.
    10030    2    1    2    0    0  0.00000000000E+00  0.00000000000E+00  0.16311105425E+04  0.21495923623E+04  0.14000806128E+04 0.  0.
        3    1    3    3  502    0  0.20714017714E+03  0.28201175677E+03 -0.11534227906E+03  0.36843118147E+03  0.10100000352E+00 0. -1.
       -3    1    3    3    0  502 -0.20714017714E+03 -0.28201175677E+03  0.17464528216E+04  0.17811611808E+04  0.10100000352E+00 0.  1.
</event>
<event>
 5   0  0.1794185E-04  0.1401509E+04  0.7818609E-02  0.8952727E-01
       -2   -1    0    0    0  501  0.00000000000E+00  0.00000000000E+00  0.35940436549E+03  0.35940436550E+03  0.25500000920E-02 0.  1.
        2   -1    0    0  501    0  0.00000000000E+00  0.00000000000E+00 -0.13663075077E+04  0.13663075077E+04  0.25500000920E-02 0. -1.
    10030    2    1    2    0    0  0.00000000000E+00  0.00000000000E+00 -0.10069031422E+04  0.17257118732E+04  0.14015090194E+04 0.  0.
        2    1    3    3  502    0  0.14954941666E+03  0.58506006212E+03 -0.65687565898E+02  0.60743325612E+03  0.25500000920E-02 0.  1.
       -2    1    3    3    0  502 -0.14954941666E+03 -0.58506006212E+03 -0.94121557628E+03  0.11182786170E+04  0.25500000920E-02 0. -1.
</event>
<event>
 5   0  0.9260916E-05  0.1398816E+04  0.7818609E-02  0.8954676E-01
       -1   -1    0    0    0  501  0.00000000000E+00  0.00000000000E+00  0.58713513595E+03  0.58713513597E+03  0.50400001928E-02 0. -1.
        1   -1    0    0  501    0  0.00000000000E+00  0.00000000000E+00 -0.83315003729E+03  0.83315003730E+03  0.50400001928E-02 0.  1.
    10030    2    1    2    0    0  0.00000000000E+00  0.00000000000E+00 -0.24601490133E+03  0.14202851733E+04  0.13988161572E+04 0.  0.
        1    1    3    3  502    0 -0.37035889593E+03  0.44793229791E+03 -0.51803211271E+03  0.77856684050E+03  0.50400001928E-02 0.  1.
       -1    1    3    3    0  502  0.37035889593E+03 -0.44793229791E+03  0.27201721138E+03  0.64171833277E+03  0.50400001928E-02 0. -1.
</event>
<event>
 5   0  0.1780171E-04  0.1402191E+04  0.7818609E-02  0.8952234E-01
       -2   -1    0    0    0  501  0.00000000000E+00  0.00000000000E+00  0.67584651196E+03  0.67584651196E+03  0.25500000920E-02 0. -1.
        2   -1    0    0  501    0  0.00000000000E+00  0.00000000000E+00 -0.72728754124E+03  0.72728754124E+03  0.25500000920E-02 0.  1.
    10030    2    1    2    0    0  0.00000000000E+00  0.00000000000E+00 -0.51441029281E+02  0.14031340532E+04  0.14021907829E+04 0.  0.
        5    1    3    3  502    0 -0.10006699567E+03 -0.83469238608E+02 -0.71504685390E+03  0.72683877902E+03  0.46999998093E+01 0.  1.
       -5    1    3    3    0  502  0.10006699567E+03  0.83469238608E+02  0.66360582462E+03  0.67629527418E+03  0.46999998093E+01 0. -1.
</event>
<event>
 5   0  0.1794185E-04  0.1401505E+04  0.7818609E-02  0.8952730E-01
        2   -1    0    0  501    0  0.00000000000E+00  0.00000000000E+00  0.17583759359E+04  0.17583759359E+04  0.25500000920E-02 0.  1.
       -2   -1    0    0    0  501  0.00000000000E+00  0.00000000000E+00 -0.27926565920E+03  0.27926565922E+03  0.25500000920E-02 0. -1.
    10030    2    1    2    0    0  0.00000000000E+00  0.00000000000E+00  0.14791102767E+04  0.20376415951E+04  0.14015049267E+04 0.  0.
        2    1    3    3  502    0 -0.20056520542E+03  0.26786831828E+03  0.16347040114E+04  0.16686033208E+04  0.25500000920E-02 0.  1.
       -2    1    3    3    0  502  0.20056520542E+03 -0.26786831828E+03 -0.15559373470E+03  0.36903827423E+03  0.25500000920E-02 0. -1.
</event>
<event>
 5   0  0.1780171E-04  0.1402279E+04  0.7818609E-02  0.8952171E-01
       -2   -1    0    0    0  501  0.00000000000E+00  0.00000000000E+00  0.94932769818E+03  0.94932769819E+03  0.25500000920E-02 0. -1.
        2   -1    0    0  501    0  0.00000000000E+00  0.00000000000E+00 -0.51783655163E+03  0.51783655163E+03  0.25500000920E-02 0.  1.
    10030    2    1    2    0    0  0.00000000000E+00  0.00000000000E+00  0.43149114656E+03  0.14671642498E+04  0.14022789759E+04 0.  0.
        5    1    3    3  502    0 -0.49094166416E+03  0.22361212667E+01 -0.30796079378E+03  0.57956074604E+03  0.46999998093E+01 0.  1.
       -5    1    3    3    0  502  0.49094166416E+03 -0.22361212667E+01  0.73945194034E+03  0.88760350378E+03  0.46999998093E+01 0. -1.
</event>
<event>
 5   0  0.9260916E-05  0.1392276E+04  0.7818609E-02  0.8959429E-01
        1   -1    0    0  501    0  0.00000000000E+00  0.00000000000E+00  0.37504739036E+03  0.37504739040E+03  0.50400001928E-02 0. -1.
       -1   -1    0    0    0  501  0.00000000000E+00  0.00000000000E+00 -0.12921244221E+04  0.12921244221E+04  0.50400001928E-02 0.  1.
    10030    2    1    2    0    0  0.00000000000E+00  0.00000000000E+00 -0.91707703175E+03  0.16671718125E+04  0.13922756804E+04 0.  0.
        1    1    3    3  502    0  0.10222514365E+03  0.46362675988E+03  0.15110988597E+03  0.49823082014E+03  0.50400001928E-02 0. -1.
       -1    1    3    3    0  502 -0.10222514365E+03 -0.46362675988E+03 -0.10681869177E+04  0.11689409924E+04  0.50400001928E-02 0.  1.
</event>
<event>
 5   0  0.1833681E-04  0.1403813E+04  0.7818609E-02  0.8951063E-01
        2   -1    0    0  501    0  0.00000000000E+00  0.00000000000E+00  0.11748885195E+04  0.11748885195E+04  0.25500000920E-02 0. -1.
       -2   -1    0    0    0  501  0.00000000000E+00  0.00000000000E+00 -0.41933588906E+03  0.41933588907E+03  0.25500000920E-02 0.  1.
    10030    2    1    2    0    0  0.00000000000E+00  0.00000000000E+00  0.75555263048E+03  0.15942244086E+04  0.14038132666E+04 0.  0.
        4    1    3    3  502    0 -0.36597358030E+03 -0.44858777240E+03 -0.72921480566E+02  0.58351247309E+03  0.12699999809E+01 0.  1.
       -4    1    3    3    0  502  0.36597358030E+03  0.44858777240E+03  0.82847411105E+03  0.10107119355E+04  0.12699999809E+01 0. -1.
</event>
<event>
 5   0  0.1766237E-04  0.1400195E+04  0.7818609E-02  0.8953677E-01
        2   -1    0    0  501    0  0.00000000000E+00  0.00000000000E+00  0.60884202246E+03  0.60884202246E+03  0.25500000920E-02 0. -1.
       -2   -1    0    0    0  501  0.00000000000E+00  0.00000000000E+00 -0.80503091249E+03  0.80503091249E+03  0.25500000920E-02 0.  1.
    10030    2    1    2    0    0  0.00000000000E+00  0.00000000000E+00 -0.19618889003E+03  0.14138729350E+04  0.14001951991E+04 0.  0.
        3    1    3    3  502    0 -0.64619867206E+03 -0.16353277735E+03  0.11805484874E+03  0.67694360958E+03  0.10100000352E+00 0. -1.
       -3    1    3    3    0  502  0.64619867206E+03  0.16353277735E+03 -0.31424373877E+03  0.73692932537E+03  0.10100000352E+00 0.  1.
</event>
<event>
 5   0  0.1780171E-04  0.1399469E+04  0.7818609E-02  0.8954203E-01
        2   -1    0    0  501    0  0.00000000000E+00  0.00000000000E+00  0.35871039782E+03  0.35871039783E+03  0.25500000920E-02 0.  1.
       -2   -1    0    0    0  501  0.00000000000E+00  0.00000000000E+00 -0.13649689470E+04  0.13649689470E+04  0.25500000920E-02 0. -1.
    10030    2    1    2    0    0  0.00000000000E+00  0.00000000000E+00 -0.10062585492E+04  0.17236793448E+04  0.13994692623E+04 0.  0.
        5    1    3    3  502    0  0.64610400735E+03 -0.26759101628E+03 -0.53204390542E+03  0.87871960693E+03  0.46999998093E+01 0. -1.
       -5    1    3    3    0  502 -0.64610400735E+03  0.26759101628E+03 -0.47421464376E+03  0.84495973790E+03  0.46999998093E+01 0.  1.
</event>
<event>
 5   0  0.1766237E-04  0.1387552E+04  0.7818609E-02  0.8962879E-01
        2   -1    0    0  501    0  0.00000000000E+00  0.00000000000E+00  0.18703241176E+04  0.18703241176E+04  0.25500000920E-02 0.  1.
       -2   -1    0    0    0  501  0.00000000000E+00  0.00000000000E+00 -0.25734848140E+03  0.25734848141E+03  0.25500000920E-02 0. -1.
    10030    2    1    2    0    0  0.00000000000E+00  0.00000000000E+00  0.16129756362E+04  0.21276725990E+04  0.13875519038E+04 0.  0.
        3    1    3    3  502    0  0.42051070247E+01  0.58395422202E+03  0.13808580149E+04  0.14992628468E+04  0.10100000352E+00 0.  1.
       -3    1    3    3    0  502 -0.42051070247E+01 -0.58395422202E+03  0.23211762131E+03  0.62840975220E+03  0.10100000352E+00 0. -1.
</event>
<event>
 5   0  0.9900839E-05  0.1403119E+04  0.7818609E-02  0.8951564E-01
       -1   -1    0    0    0  501  0.00000000000E+00  0.00000000000E+00  0.27717645209E+03  0.27717645214E+03  0.50400001928E-02 0. -1.
        1   -1    0    0  501    0  0.00000000000E+00  0.00000000000E+00 -0.17757135006E+04  0.17757135006E+04  0.50400001928E-02 0.  1.
    10030    2    1    2    0    0  0.00000000000E+00  0.00000000000E+00 -0.14985370485E+04  0.20528899527E+04  0.14031193364E+04 0.  0.
        3    1    3    3  502    0 -0.54811377535E+03 -0.35641440733E+03 -0.11214977785E+04  0.12981591651E+04  0.10100000352E+00 0.  1.
       -3    1    3    3    0  502  0.54811377535E+03  0.35641440733E+03 -0.37703926997E+03  0.75473078762E+03  0.10100000352E+00 0. -1.
</event>
<event>
 5   0  0.9900839E-05  0.1398943E+04  0.7818609E-02  0.8954584E-01
       -1   -1    0    0    0  501  0.00000000000E+00  0.00000000000E+00  0.24843432273E+03  0.24843432278E+03  0.50400001928E-02 0. -1.
        1   -1    0    0  501    0  0.00000000000E+00  0.00000000000E+00 -0.19693765471E+04  0.19693765471E+04  0.50400001928E-02 0.  1.
    10030    2    1    2    0    0  0.00000000000E+00  0.00000000000E+00 -0.17209422244E+04  0.22178108699E+04  0.13989434996E+04 0.  0.
        3    1    3    3  502    0  0.31267941723E+03  0.39297849149E+03 -0.88584227738E+02  0.50994871148E+03  0.10100000352E+00 0.  1.
       -3    1    3    3    0  502 -0.31267941723E+03 -0.39297849149E+03 -0.16323579967E+04  0.17078621584E+04  0.10100000352E+00 0. -1.
</event>
<event>
 5   0  0.1833681E-04  0.1398341E+04  0.7818609E-02  0.8955020E-01
       -2   -1    0    0    0  501  0.00000000000E+00  0.00000000000E+00  0.19679862937E+03  0.19679862938E+03  0.25500000920E-02 0.  1.
        2   -1    0    0  501    0  0.00000000000E+00  0.00000000000E+00 -0.24839565969E+04  0.24839565969E+04  0.25500000920E-02 0. -1.
    10030    2    1    2    0    0  0.00000000000E+00  0.00000000000E+00 -0.22871579676E+04  0.26807552263E+04  0.13983408078E+04 0.  0.
        4    1    3    3  502    0  0.56333929459E+03  0.38862196865E+02 -0.35319487526E+03  0.66604028706E+03  0.12699999809E+01 0.  1.
       -4    1    3    3    0  502 -0.56333929459E+03 -0.38862196865E+02 -0.19339630923E+04  0.20147149393E+04  0.12699999809E+01 0. -1.
</event>
<event>
 5   0  0.6671375E-05  0.1405950E+04  0.7818609E-02  0.8949523E-01
        1   -1    0    0  501    0  0.00000000000E+00  0.00000000000E+00  0.64492436233E+03  0.64492436235E+03  0.50400001928E-02 0.  1.
       -1   -1    0    0    0  501  0.00000000000E+00  0.00000000000E+00 -0.76625099805E+03  0.76625099807E+03  0.50400001928E-02 0. -1.
    10030    2    1    2    0    0  0.00000000000E+00  0.00000000000E+00 -0.12132663572E+03  0.14111753604E+04  0.14059501219E+04 0.  0.
        5    1    3    3  502    0 -0.66921261474E+03 -0.21314206890E+03 -0.90383854920E+02  0.70814292095E+03  0.46999998093E+01 0.  1.
       -5    1    3    3    0  502  0.66921261474E+03  0.21314206890E+03 -0.30942780803E+02  0.70303243947E+03  0.46999998093E+01 0. -1.
</event>
<event>
 5   0  0.6671375E-05  0.1395115E+04  0.7818609E-02  0.8957362E-01
        1   -1    0    0  501    0  0.00000000000E+00  0.00000000000E+00  0.14307823824E+04  0.14307823825E+04  0.50400001928E-02 0. -1.
       -1   -1    0    0    0  501  0.00000000000E+00  0.00000000000E+00 -0.34008396710E+03  0.34008396714E+03  0.50400001928E-02 0.  1.
    10030    2    1    2    0    0  0.00000000000E+00  0.00000000000E+00  0.10906984153E+04  0.17708663496E+04  0.13951145454E+04 0.  0.
        5    1    3    3  502    0  0.19072629879E+03 -0.41807395450E+03  0.12114795742E+04  0.12957110794E+04  0.46999998093E+01 0. -1.
       -5    1    3    3    0  502 -0.19072629879E+03  0.41807395450E+03 -0.12078115887E+03  0.47515527022E+03  0.46999998093E+01 0.  1.
</event>
<event>
 5   0  0.9900839E-05  0.1380738E+04  0.7818609E-02  0.8967881E-01
       -1   -1    0    0    0  501  0.00000000000E+00  0.00000000000E+00  0.10100704951E+04  0.10100704951E+04  0.50400001928E-02 0. -1.
        1   -1    0    0  501    0  0.00000000000E+00  0.00000000000E+00 -0.47185725783E+03  0.47185725786E+03  0.50400001928E-02 0.  1.
    10030    2    1    2    0    0  0.00000000000E+00  0.00000000000E+00  0.53821323730E+03  0.14819277530E+04  0.13807376204E+04 0.  0.
        3    1    3    3  502    0 -0.85931602511E+02 -0.27697463617E+03 -0.40331424153E+03  0.49675102115E+03  0.10100000352E+00 0.  1.
       -3    1    3    3    0  502  0.85931602511E+02  0.27697463617E+03  0.94152747882E+03  0.98517673185E+03  0.10100000352E+00 0. -1.
</event>
<event>
 5   0  0.6671375E-05  0.1400045E+04  0.7818609E-02  0.8953786E-01
        1   -1    0    0  501    0  0.00000000000E+00  0.00000000000E+00  0.20176738037E+04  0.20176738037E+04  0.50400001928E-02 0.  1.
       -1   -1    0    0    0  501  0.00000000000E+00  0.00000000000E+00 -0.24286939606E+03  0.24286939611E+03  0.50400001928E-02 0. -1.
    10030    2    1    2    0    0  0.00000000000E+00  0.00000000000E+00  0.17748044076E+04  0.22605431998E+04  0.14000445968E+04 0.  0.
        5    1    3    3  502    0  0.63244099368E+03 -0.19039247389E+03  0.12618352469E+04  0.14242475856E+04  0.46999998093E+01 0. -1.
       -5    1    3    3    0  502 -0.63244099368E+03  0.19039247389E+03  0.51296916072E+03  0.83629561427E+03  0.46999998093E+01 0.  1.
</event>
<event>
 5   0  0.9900839E-05  0.1400074E+04  0.7818609E-02  0.8953765E-01
        1   -1    0    0  501    0  0.00000000000E+00  0.00000000000E+00  0.35933966855E+03  0.35933966859E+03  0.50400001928E-02 0. -1.
       -1   -1    0    0    0  501  0.00000000000E+00  0.00000000000E+00 -0.13637555397E+04  0.13637555397E+04  0.50400001928E-02 0.  1.
    10030    2    1    2    0    0  0.00000000000E+00  0.00000000000E+00 -0.10044158711E+04  0.17230952083E+04  0.14000735176E+04 0.  0.
        3    1    3    3  502    0  0.54821461183E+03  0.12413864749E+03  0.11315242749E+02  0.56220788802E+03  0.10100000352E+00 0. -1.
       -3    1    3    3    0  502 -0.54821461183E+03 -0.12413864749E+03 -0.10157311139E+04  0.11608873203E+04  0.10100000352E+00 0.  1.
</event>
<event>
 5   0  0.1712327E-04  0.1397424E+04  0.7818609E-02  0.8955685E-01
        2   -1    0    0  501    0  0.00000000000E+00  0.00000000000E+00  0.12431095697E+04  0.12431095697E+04  0.25500000920E-02 0.  1.
       -2   -1    0    0    0  501  0.00000000000E+00  0.00000000000E+00 -0.39272380270E+03  0.39272380270E+03  0.25500000920E-02 0. -1.
    10030    2    1    2    0    0  0.00000000000E+00  0.00000000000E+00  0.85038576704E+03  0.16358333724E+04  0.13974243699E+04 0.  0.
        1    1    3    3  502    0  0.66349778398E+03  0.27657068585E+01  0.68155762896E+03  0.95118755254E+03  0.50400001928E-02 0.  1.
       -1    1    3    3    0  502 -0.66349778398E+03 -0.27657068585E+01  0.16882813809E+03  0.68464581991E+03  0.50400001928E-02 0. -1.
</event>
<event>
 5   0  0.9978422E-05  0.1401361E+04  0.7818609E-02  0.8952834E-01
       -1   -1    0    0    0  501  0.00000000000E+00  0.00000000000E+00  0.32496493383E+03  0.32496493387E+03  0.50400001928E-02 0.  1.
        1   -1    0    0  501    0  0.00000000000E+00  0.00000000000E+00 -0.15107882220E+04  0.15107882220E+04  0.50400001928E-02 0. -1.
    10030    2    1    2    0    0  0.00000000000E+00  0.00000000000E+00 -0.11858232881E+04  0.18357531558E+04  0.14013610450E+04 0.  0.
        2    1    3    3  502    0  0.49827862267E+03  0.26790244245E+03 -0.51365915843E+02  0.56805964634E+03  0.25500000920E-02 0.  1.
       -2    1    3    3    0  502 -0.49827862267E+03 -0.26790244245E+03 -0.11344573723E+04  0.12676935095E+04  0.25500000920E-02 0. -1.
</event>
<event>
 5   0  0.9900839E-05  0.1398408E+04  0.7818609E-02  0.8954972E-01
       -1   -1    0    0    0  501  0.00000000000E+00  0.00000000000E+00  0.32945328115E+03  0.32945328119E+03  0.50400001928E-02 0. -1.
        1   -1    0    0  501    0  0.00000000000E+00  0.00000000000E+00 -0.14839314017E+04  0.14839314017E+04  0.50400001928E-02 0.  1.
    10030    2    1    2    0    0  0.00000000000E+00  0.00000000000E+00 -0.11544781205E+04  0.18133846829E+04  0.13984077650E+04 0.  0.
        3    1    3    3  502    0 -0.66527490360E+03 -0.10246496650E+03 -0.33189523081E+03  0.75049598344E+03  0.10100000352E+00 0. -1.
       -3    1    3    3    0  502  0.66527490360E+03  0.10246496650E+03 -0.82258288971E+03  0.10628886994E+04  0.10100000352E+00 0.  1.
</event>
<event>
 5   0  0.9978422E-05  0.1397369E+04  0.7818609E-02  0.8955725E-01
        1   -1    0    0  501    0  0.00000000000E+00  0.00000000000E+00  0.15592796014E+04  0.15592796014E+04  0.50400001928E-02 0. -1.
       -1   -1    0    0    0  501  0.00000000000E+00  0.00000000000E+00 -0.31306778222E+03  0.31306778226E+03  0.50400001928E-02 0.  1.
    10030    2    1    2    0    0  0.00000000000E+00  0.00000000000E+00  0.12462118192E+04  0.18723473836E+04  0.13973692521E+04 0.  0.
        2    1    3    3  502    0 -0.60523080459E+03 -0.11935728852E+03  0.18356329103E+03  0.64361943023E+03  0.25500000920E-02 0.  1.
       -2    1    3    3    0  502  0.60523080459E+03  0.11935728852E+03  0.10626485281E+04  0.12287279534E+04  0.25500000920E-02 0. -1.
</event>
<event>
 5   0  0.9900839E-05  0.1399319E+04  0.7818609E-02  0.8954312E-01
       -1   -1    0    0    0  501  0.00000000000E+00  0.00000000000E+00  0.73215570759E+03  0.73215570761E+03  0.50400001928E-02 0.  1.
        1   -1    0    0  501    0  0.00000000000E+00  0.00000000000E+00 -0.66860554131E+03  0.66860554133E+03  0.50400001928E-02 0. -1.
    10030    2    1    2    0    0  0.00000000000E+00  0.00000000000E+00  0.63550166282E+02  0.14007612489E+04  0.13993189246E+04 0.  0.
        3    1    3    3  502    0  0.16206393250E+03  0.63137674180E+03 -0.22269560186E+03  0.68883572032E+03  0.10100000352E+00 0. -1.
       -3    1    3    3    0  502 -0.16206393250E+03 -0.63137674180E+03  0.28624576815E+03  0.71192552861E+03  0.10100000352E+00 0.  1.
</event>
<event>
 5   0  0.1780171E-04  0.1399623E+04  0.7818609E-02  0.8954092E-01
       -2   -1    0    0    0  501  0.00000000000E+00  0.00000000000E+00  0.45819303460E+03  0.45819303461E+03  0.25500000920E-02 0. -1.
        2   -1    0    0  501    0  0.00000000000E+00  0.00000000000E+00 -0.10688418363E+04  0.10688418363E+04  0.25500000920E-02 0.  1.
    10030    2    1    2    0    0  0.00000000000E+00  0.00000000000E+00 -0.61064880172E+03  0.15270348709E+04  0.13996226413E+04 0.  0.
        5    1    3    3  502    0 -0.40006946511E+03  0.22926788871E+03 -0.87964171738E+03  0.99318225048E+03  0.46999998093E+01 0.  1.
       -5    1    3    3    0  502  0.40006946511E+03 -0.22926788871E+03  0.26899291566E+03  0.53385262046E+03  0.46999998093E+01 0. -1.
</event>
<event>
 5   0  0.1712327E-04  0.1399194E+04  0.7818609E-02  0.8954402E-01
       -2   -1    0    0    0  501  0.00000000000E+00  0.00000000000E+00  0.26128974710E+03  0.26128974711E+03  0.25500000920E-02 0.  1.
        2   -1    0    0  501    0  0.00000000000E+00  0.00000000000E+00 -0.18731541120E+04  0.18731541120E+04  0.25500000920E-02 0. -1.
    10030    2    1    2    0    0  0.00000000000E+00  0.00000000000E+00 -0.16118643649E+04  0.21344438591E+04  0.13991940026E+04 0.  0.
        1    1    3    3  502    0 -0.31649663185E+03 -0.41257732399E+03 -0.91971551704E+02  0.52806148562E+03  0.50400001928E-02 0.  1.
       -1    1    3    3    0  502  0.31649663185E+03  0.41257732399E+03 -0.15198928132E+04  0.16063823735E+04  0.50400001928E-02 0. -1.
</event>
<event>
 5   0  0.9260916E-05  0.1402762E+04  0.7818609E-02  0.8951822E-01
       -1   -1    0    0    0  501  0.00000000000E+00  0.00000000000E+00  0.48460773670E+03  0.48460773673E+03  0.50400001928E-02 0. -1.
        1   -1    0    0  501    0  0.00000000000E+00  0.00000000000E+00 -0.10151200812E+04  0.10151200812E+04  0.50400001928E-02 0.  1.
    10030    2    1    2    0    0  0.00000000000E+00  0.00000000000E+00 -0.53051234447E+03  0.14997278179E+04  0.14027616263E+04 0.  0.
        1    1    3    3  502    0  0.61343943273E+03 -0.31653135933E+03 -0.39808182868E+03  0.79684953499E+03  0.50400001928E-02 0.  1.
       -1    1    3    3    0  502 -0.61343943273E+03  0.31653135933E+03 -0.13243051579E+03  0.70287828292E+03  0.50400001928E-02 0. -1.
</event>
<event>
 5   0  0.1794185E-04  0.1375248E+04  0.7818609E-02  0.8971933E-01
        2   -1    0    0  501    0  0.00000000000E+00  0.00000000000E+00  0.17570256569E+04  0.17570256569E+04  0.25500000920E-02 0. -1.
       -2   -1    0    0    0  501  0.00000000000E+00  0.00000000000E+00 -0.26910627470E+03  0.26910627472E+03  0.25500000920E-02 0.  1.
    10030    2    1    2    0    0  0.00000000000E+00  0.00000000000E+00  0.14879193822E+04  0.20261319316E+04  0.13752478018E+04 0.  0.
        2    1    3    3  502    0 -0.37780558192E+02 -0.50321253641E+03  0.55797751915E+02  0.50770426087E+03  0.25500000920E-02 0.  1.
       -2    1    3    3    0  502  0.37780558192E+02  0.50321253641E+03  0.14321216302E+04  0.15184276707E+04  0.25500000920E-02 0. -1.
</event>
<event>
 5   0  0.1780171E-04  0.1400733E+04  0.7818609E-02  0.8953288E-01
        2   -1    0    0  501    0  0.00000000000E+00  0.00000000000E+00  0.67545968698E+03  0.67545968699E+03  0.25500000920E-02 0.  1.
       -2   -1    0    0    0  501  0.00000000000E+00  0.00000000000E+00 -0.72619171666E+03  0.72619171667E+03  0.25500000920E-02 0. -1.
    10030    2    1    2    0    0  0.00000000000E+00  0.00000000000E+00 -0.50732029679E+02  0.14016514037E+04  0.14007329933E+04 0.  0.
        5    1    3    3  502    0  0.16564336007E+02  0.32323202481E+03 -0.64685118382E+03  0.72332002813E+03  0.46999998093E+01 0. -1.
       -5    1    3    3    0  502 -0.16564336007E+02 -0.32323202481E+03  0.59611915414E+03  0.67833137552E+03  0.46999998093E+01 0.  1.
</event>
<event>
 5   0  0.9978422E-05  0.1399019E+04  0.7818609E-02  0.8954529E-01
       -1   -1    0    0    0  501  0.00000000000E+00  0.00000000000E+00  0.43274699842E+03  0.43274699845E+03  0.50400001928E-02 0. -1.
        1   -1    0    0  501    0  0.00000000000E+00  0.00000000000E+00 -0.11307145604E+04  0.11307145604E+04  0.50400001928E-02 0.  1.
    10030    2    1    2    0    0  0.00000000000E+00  0.00000000000E+00 -0.69796756197E+03  0.15634615589E+04  0.13990187020E+04 0.  0.
        2    1    3    3  502    0  0.58591328919E+02 -0.77445036345E+02  0.42517708491E+03  0.43612639339E+03  0.25500000920E-02 0. -1.
       -2    1    3    3    0  502 -0.58591328919E+02  0.77445036345E+02 -0.11231446469E+04  0.11273351655E+04  0.25500000920E-02 0.  1.
</event>
<event>
 5   0  0.1794185E-04  0.1399649E+04  0.7818609E-02  0.8954073E-01
        2   -1    0    0  501    0  0.00000000000E+00  0.00000000000E+00  0.16481908805E+04  0.16481908805E+04  0.25500000920E-02 0. -1.
       -2   -1    0    0    0  501  0.00000000000E+00  0.00000000000E+00 -0.29714663445E+03  0.29714663446E+03  0.25500000920E-02 0.  1.
    10030    2    1    2    0    0  0.00000000000E+00  0.00000000000E+00  0.13510442461E+04  0.19453375150E+04  0.13996490604E+04 0.  0.
        2    1    3    3  502    0 -0.52314461031E+03  0.43874035373E+03  0.88895279839E+03  0.11208971670E+04  0.25500000920E-02 0.  1.
       -2    1    3    3    0  502  0.52314461031E+03 -0.43874035373E+03  0.46209144766E+03  0.82444034793E+03  0.25500000920E-02 0. -1.
</event>
<event>
 5   0  0.1766237E-04  0.1428084E+04  0.7818609E-02  0.8933737E-01
        2   -1    0    0  501    0  0.00000000000E+00  0.00000000000E+00  0.91510851223E+03  0.91510851224E+03  0.25500000920E-02 0.  1.
       -2   -1    0    0    0  501  0.00000000000E+00  0.00000000000E+00 -0.55715320379E+03  0.55715320379E+03  0.25500000920E-02 0. -1.
    10030    2    1    2    0    0  0.00000000000E+00  0.00000000000E+00  0.35795530845E+03  0.14722617160E+04  0.14280835261E+04 0.  0.
        3    1    3    3  502    0  0.67538620103E+03 -0.14828497740E+03  0.36259031075E+03  0.78077314164E+03  0.10100000352E+00 0.  1.
       -3    1    3    3    0  502 -0.67538620103E+03  0.14828497740E+03 -0.46350023069E+01  0.69148857439E+03  0.10100000352E+00 0. -1.
</event>
<event>
 5   0  0.6671375E-05  0.1401057E+04  0.7818609E-02  0.8953054E-01
        1   -1    0    0  501    0  0.00000000000E+00  0.00000000000E+00  0.88409060626E+03  0.88409060628E+03  0.50400001928E-02 0. -1.
       -1   -1    0    0    0  501  0.00000000000E+00  0.00000000000E+00 -0.55507873041E+03  0.55507873043E+03  0.50400001928E-02 0.  1.
    10030    2    1    2    0    0  0.00000000000E+00  0.00000000000E+00  0.32901187586E+03  0.14391693367E+04  0.14010565889E+04 0.  0.
        5    1    3    3  502    0 -0.11849428215E+03  0.71293716742E+02 -0.54090210587E+03  0.55831968180E+03  0.46999998093E+01 0.  1.
       -5    1    3    3    0  502  0.11849428215E+03 -0.71293716742E+02  0.86991398173E+03  0.88084965491E+03  0.46999998093E+01 0. -1.
</event>
<event>
 5   0  0.6671375E-05  0.1395872E+04  0.7818609E-02  0.8956812E-01
        1   -1    0    0  501    0  0.00000000000E+00  0.00000000000E+00  0.14328058752E+04  0.14328058752E+04  0.50400001928E-02 0.  1.
       -1   -1    0    0    0  501  0.00000000000E+00  0.00000000000E+00 -0.33997233968E+03  0.33997233972E+03  0.50400001928E-02 0. -1.
    10030    2    1    2    0    0  0.00000000000E+00  0.00000000000E+00  0.10928335356E+04  0.17727782150E+04  0.13958715783E+04 0.  0.
        5    1    3    3  502    0 -0.58790256308E+03 -0.24799451468E+03  0.90554504775E+03  0.11077746280E+04  0.46999998093E+01 0.  1.
       -5    1    3    3    0  502  0.58790256308E+03  0.24799451468E+03  0.18728848781E+03  0.66500358695E+03  0.46999998093E+01 0. -1.
</event>
<event>
 5   0  0.1712327E-04  0.1415401E+04  0.7818609E-02  0.8942745E-01
       -2   -1    0    0    0  501  0.00000000000E+00  0.00000000000E+00  0.65163950595E+03  0.65163950596E+03  0.25500000920E-02 0. -1.
        2   -1    0    0  501    0  0.00000000000E+00  0.00000000000E+00 -0.76858469610E+03  0.76858469610E+03  0.25500000920E-02 0.  1.
    10030    2    1    2    0    0  0.00000000000E+00  0.00000000000E+00 -0.11694519014E+03  0.14202242021E+04  0.14154012175E+04 0.  0.
        1    1    3    3  502    0 -0.66095815641E+03 -0.18598191723E+03 -0.23047781318E+03  0.72427548658E+03  0.50400001928E-02 0. -1.
       -1    1    3    3    0  502  0.66095815641E+03  0.18598191723E+03  0.11353262303E+03  0.69594871548E+03  0.50400001928E-02 0.  1.
</event>
<event>
 5   0  0.9828111E-05  0.1397968E+04  0.7818609E-02  0.8955291E-01
       -1   -1    0    0    0  501  0.00000000000E+00  0.00000000000E+00  0.44173636644E+03  0.44173636647E+03  0.50400001928E-02 0.  1.
        1   -1    0    0  501    0  0.00000000000E+00  0.00000000000E+00 -0.11060416714E+04  0.11060416714E+04  0.50400001928E-02 0. -1.
    10030    2    1    2    0    0  0.00000000000E+00  0.00000000000E+00 -0.66430530498E+03  0.15477780379E+04  0.13979682816E+04 0.  0.
        4    1    3    3  502    0 -0.24372278834E+02 -0.55130445576E+03 -0.80713259194E+03  0.97775009322E+03  0.12699999809E+01 0. -1.
       -4    1    3    3    0  502  0.24372278834E+02  0.55130445576E+03  0.14282728697E+03  0.57002794468E+03  0.12699999809E+01 0.  1.
</event>
<event>
 5   0  0.9978422E-05  0.1401029E+04  0.7818609E-02  0.8953074E-01
       -1   -1    0    0    0  501  0.00000000000E+00  0.00000000000E+00  0.61721640117E+03  0.61721640119E+03  0.50400001928E-02 0. -1.
        1   -1    0    0  501    0  0.00000000000E+00  0.00000000000E+00 -0.79505392882E+03  0.79505392884E+03  0.50400001928E-02 0.  1.
    10030    2    1    2    0    0  0.00000000000E+00  0.00000000000E+00 -0.17783752765E+03  0.14122703300E+04  0.14010286574E+04 0.  0.
        2    1    3    3  502    0  0.83609997603E+02 -0.69518177437E+03 -0.67488034505E+02  0.70343654009E+03  0.25500000920E-02 0.  1.
       -2    1    3    3    0  502 -0.83609997603E+02  0.69518177437E+03 -0.11034949314E+03  0.70883378994E+03  0.25500000920E-02 0. -1.
</event>
<event>
 5   0  0.1833681E-04  0.1401178E+04  0.7818609E-02  0.8952966E-01
        2   -1    0    0  501    0  0.00000000000E+00  0.00000000000E+00  0.12796563087E+04  0.12796563087E+04  0.25500000920E-02 0. -1.
       -2   -1    0    0    0  501  0.00000000000E+00  0.00000000000E+00 -0.38356001300E+03  0.38356001301E+03  0.25500000920E-02 0.  1.
    10030    2    1    2    0    0  0.00000000000E+00  0.00000000000E+00  0.89609629566E+03  0.16632163217E+04  0.14011780621E+04 0.  0.
        4    1    3    3  502    0 -0.19434683670E+03 -0.55310983609E+03  0.90334485067E+03  0.10769097993E+04  0.12699999809E+01 0. -1.
       -4    1    3    3    0  502  0.19434683670E+03  0.55310983609E+03 -0.72485550073E+01  0.58630652237E+03  0.12699999809E+01 0.  1.
</event>
<event>
 5   0  0.1794185E-04  0.1404472E+04  0.7818609E-02  0.8950588E-01
       -2   -1    0    0    0  501  0.00000000000E+00  0.00000000000E+00  0.43978166892E+03  0.43978166893E+03  0.25500000920E-02 0. -1.
        2   -1    0    0  501    0  0.00000000000E+00  0.00000000000E+00 -0.11213194148E+04  0.11213194148E+04  0.25500000920E-02 0.  1.
    10030    2    1    2    0    0  0.00000000000E+00  0.00000000000E+00 -0.68153774591E+03  0.15611010838E+04  0.14044724613E+04 0.  0.
        2    1    3    3  502    0  0.64501355999E+02  0.45383940153E+03  0.25054072087E+03  0.52239954070E+03  0.25500000920E-02 0. -1.
       -2    1    3    3    0  502 -0.64501355999E+02 -0.45383940153E+03 -0.93207846678E+03  0.10387015431E+04  0.25500000920E-02 0.  1.
</event>
<event>
 5   0  0.1766237E-04  0.1397357E+04  0.7818609E-02  0.8955734E-01
       -2   -1    0    0    0  501  0.00000000000E+00  0.00000000000E+00  0.30024872476E+03  0.30024872477E+03  0.25500000920E-02 0.  1.
        2   -1    0    0  501    0  0.00000000000E+00  0.00000000000E+00 -0.16258250577E+04  0.16258250577E+04  0.25500000920E-02 0. -1.
    10030    2    1    2    0    0  0.00000000000E+00  0.00000000000E+00 -0.13255763329E+04  0.19260737824E+04  0.13973573634E+04 0.  0.
        3    1    3    3  502    0  0.25122477935E+03  0.10602841926E+02  0.23571967134E+03  0.34465937340E+03  0.10100000352E+00 0.  1.
       -3    1    3    3    0  502 -0.25122477935E+03 -0.10602841926E+02 -0.15612960043E+04  0.15814144090E+04  0.10100000352E+00 0. -1.
</event>
<event>
 5   0  0.6671375E-05  0.1400150E+04  0.7818609E-02  0.8953710E-01
       -4   -1    0    0    0  501  0.00000000000E+00  0.00000000000E+00  0.90829462513E+03  0.90829551300E+03  0.12699999809E+01 0. -1.
        4   -1    0    0  501    0  0.00000000000E+00  0.00000000000E+00 -0.53958597301E+03  0.53958746758E+03  0.12699999809E+01 0.  1.
    10030    2    1    2    0    0  0.00000000000E+00  0.00000000000E+00  0.36870865212E+03  0.14478829806E+04  0.14001496546E+04 0.  0.
        3    1    3    3  502    0  0.93267636052E+02  0.28325989980E+03  0.83932685354E+03  0.89073261983E+03  0.10100000352E+00 0. -1.
       -3    1    3    3    0  502 -0.93267636052E+02 -0.28325989980E+03 -0.47061820141E+03  0.55715036074E+03  0.10100000352E+00 0.  1.
</event>
<event>
 5   0  0.1833681E-04  0.1399605E+04  0.7818609E-02  0.8954105E-01
       -2   -1    0    0    0  501  0.00000000000E+00  0.00000000000E+00  0.42753268736E+03  0.42753268737E+03  0.25500000920E-02 0. -1.
        2   -1    0    0  501    0  0.00000000000E+00  0.00000000000E+00 -0.11454645333E+04  0.11454645334E+04  0.25500000920E-02 0.  1.
    10030    2    1    2    0    0  0.00000000000E+00  0.00000000000E+00 -0.71793184599E+03  0.15729972207E+04  0.13996049875E+04 0.  0.
        4    1    3    3  502    0  0.20180990443E+03 -0.62829573835E+03 -0.97220623521E+02  0.66703540753E+03  0.12699999809E+01 0. -1.
       -4    1    3    3    0  502 -0.20180990443E+03  0.62829573835E+03 -0.62071122247E+03  0.90596181319E+03  0.12699999809E+01 0.  1.
</event>
<event>
 5   0  0.1766237E-04  0.1396068E+04  0.7818609E-02  0.8956670E-01
       -2   -1    0    0    0  501  0.00000000000E+00  0.00000000000E+00  0.22452030787E+03  0.22452030788E+03  0.25500000920E-02 0. -1.
        2   -1    0    0  501    0  0.00000000000E+00  0.00000000000E+00 -0.21701886476E+04  0.21701886476E+04  0.25500000920E-02 0.  1.
    10030    2    1    2    0    0  0.00000000000E+00  0.00000000000E+00 -0.19456683397E+04  0.23947089555E+04  0.13960679400E+04 0.  0.
        3    1    3    3  502    0  0.47523208330E+03  0.54895067499E+02 -0.18447730875E+04  0.19057929468E+04  0.10100000352E+00 0.  1.
       -3    1    3    3    0  502 -0.47523208330E+03 -0.54895067499E+02 -0.10089525222E+03  0.48891600869E+03  0.10100000352E+00 0. -1.
</event>
<event>
 5   0  0.9900839E-05  0.1399678E+04  0.7818609E-02  0.8954051E-01
       -1   -1    0    0    0  501  0.00000000000E+00  0.00000000000E+00  0.56933047003E+03  0.56933047005E+03  0.50400001928E-02 0. -1.
        1   -1    0    0  501    0  0.00000000000E+00  0.00000000000E+00 -0.86026480058E+03  0.86026480059E+03  0.50400001928E-02 0.  1.
    10030    2    1    2    0    0  0.00000000000E+00  0.00000000000E+00 -0.29093433055E+03  0.14295952706E+04  0.13996784821E+04 0.  0.
        3    1    3    3  502    0 -0.49700939900E+03 -0.40362439914E+02 -0.64701016588E+03  0.81686573818E+03  0.10100000352E+00 0.  1.
       -3    1    3    3    0  502  0.49700939900E+03  0.40362439914E+02  0.35607583533E+03  0.61272953247E+03  0.10100000352E+00 0. -1.
</event>
<event>
 5   0  0.1766237E-04  0.1392762E+04  0.7818609E-02  0.8959074E-01
       -2   -1    0    0    0  501  0.00000000000E+00  0.00000000000E+00  0.32203845550E+03  0.32203845551E+03  0.25500000920E-02 0.  1.
        2   -1    0    0  501    0  0.00000000000E+00  0.00000000000E+00 -0.15058656604E+04  0.15058656604E+04  0.25500000920E-02 0. -1.
    10030    2    1    2    0    0  0.00000000000E+00  0.00000000000E+00 -0.11838272049E+04  0.18279041160E+04  0.13927622216E+04 0.  0.
        3    1    3    3  502    0  0.49922721261E+03 -0.48495050876E+03 -0.56136367555E+03  0.89416664676E+03  0.10100000352E+00 0.  1.
       -3    1    3    3    0  502 -0.49922721261E+03  0.48495050876E+03 -0.62246352939E+03  0.93373746919E+03  0.10100000352E+00 0. -1.
</event>
<event>
 5   0  0.9978422E-05  0.1400086E+04  0.7818609E-02  0.8953756E-01
       -1   -1    0    0    0  501  0.00000000000E+00  0.00000000000E+00  0.33369432617E+03  0.33369432621E+03  0.50400001928E-02 0. -1.
        1   -1    0    0  501    0  0.00000000000E+00  0.00000000000E+00 -0.14685902437E+04  0.14685902437E+04  0.50400001928E-02 0.  1.
    10030    2    1    2    0    0  0.00000000000E+00  0.00000000000E+00 -0.11348959175E+04  0.18022845699E+04  0.14000860428E+04 0.  0.
        2    1    3    3  502    0  0.11909633396E+01 -0.31609898630E+03 -0.13714904751E+04  0.14074466636E+04  0.25500000920E-02 0.  1.
       -2    1    3    3    0  502 -0.11909633396E+01  0.31609898630E+03  0.23659455763E+03  0.39483790628E+03  0.25500000920E-02 0. -1.
</event>
<event>
 5   0  0.9260916E-05  0.1398409E+04  0.7818609E-02  0.8954971E-01
        1   -1    0    0  501    0  0.00000000000E+00  0.00000000000E+00  0.54180647138E+03  0.54180647140E+03  0.50400001928E-02 0.  1.
       -1   -1    0    0    0  501  0.00000000000E+00  0.00000000000E+00 -0.90232782044E+03  0.90232782045E+03  0.50400001928E-02 0. -1.
    10030    2    1    2    0    0  0.00000000000E+00  0.00000000000E+00 -0.36052134906E+03  0.14441342919E+04  0.13984091711E+04 0.  0.
        1    1    3    3  502    0  0.76187586296E+02 -0.41983372905E+03  0.39176650881E+03  0.57926324396E+03  0.50400001928E-02 0.  1.
       -1    1    3    3    0  502 -0.76187586296E+02  0.41983372905E+03 -0.75228785787E+03  0.86487104789E+03  0.50400001928E-02 0. -1.
</event>
<event>
 5   0  0.1833681E-04  0.1427853E+04  0.7818609E-02  0.8933900E-01
       -2   -1    0    0    0  501  0.00000000000E+00  0.00000000000E+00  0.64158840035E+03  0.64158840036E+03  0.25500000920E-02 0. -1.
        2   -1    0    0  501    0  0.00000000000E+00  0.00000000000E+00 -0.79442115056E+03  0.79442115056E+03  0.25500000920E-02 0.  1.
    10030    2    1    2    0    0  0.00000000000E+00  0.00000000000E+00 -0.15283275021E+03  0.14360095509E+04  0.14278534872E+04 0.  0.
        4    1    3    3  502    0  0.52649987289E+03 -0.46826384827E+03 -0.19203668329E+03  0.73031010426E+03  0.12699999809E+01 0.  1.
       -4    1    3    3    0  502 -0.52649987289E+03  0.46826384827E+03  0.39203933085E+02  0.70569944666E+03  0.12699999809E+01 0. -1.
</event>
<event>
 5   0  0.1833681E-04  0.1408541E+04  0.7818609E-02  0.8947659E-01
        2   -1    0    0  501    0  0.00000000000E+00  0.00000000000E+00  0.12938099225E+04  0.12938099225E+04  0.25500000920E-02 0.  1.
       -2   -1    0    0    0  501  0.00000000000E+00  0.00000000000E+00 -0.38336153817E+03  0.38336153818E+03  0.25500000920E-02 0. -1.
    10030    2    1    2    0    0  0.00000000000E+00  0.00000000000E+00  0.91044838432E+03  0.16771714607E+04  0.14085410352E+04 0.  0.
        4    1    3    3  502    0  0.43492277261E+03 -0.48925627026E+03  0.76450281522E+03  0.10064768669E+04  0.12699999809E+01 0.  1.
       -4    1    3    3    0  502 -0.43492277261E+03  0.48925627026E+03  0.14594556909E+03  0.67069459381E+03  0.12699999809E+01 0. -1.
</event>
<event>
 5   0  0.1833681E-04  0.1399826E+04  0.7818609E-02  0.8953944E-01
        2   -1    0    0  501    0  0.00000000000E+00  0.00000000000E+00  0.12493973024E+04  0.12493973024E+04  0.25500000920E-02 0. -1.
       -2   -1    0    0    0  501  0.00000000000E+00  0.00000000000E+00 -0.39209182470E+03  0.39209182470E+03  0.25500000920E-02 0.  1.
    10030    2    1    2    0    0  0.00000000000E+00  0.00000000000E+00  0.85730547774E+03  0.16414891271E+04  0.13998263722E+04 0.  0.
        4    1    3    3  502    0 -0.21539149087E+03  0.66064401225E+03  0.33031289505E+03  0.76938431671E+03  0.12699999809E+01 0. -1.
       -4    1    3    3    0  502  0.21539149087E+03 -0.66064401225E+03  0.52699258269E+03  0.87210481043E+03  0.12699999809E+01 0.  1.
</event>
<event>
 5   0  0.6671375E-05  0.1400129E+04  0.7818609E-02  0.8953725E-01
        1   -1    0    0  501    0  0.00000000000E+00  0.00000000000E+00  0.85115059844E+03  0.85115059846E+03  0.50400001928E-02 0. -1.
       -1   -1    0    0    0  501  0.00000000000E+00  0.00000000000E+00 -0.57579725021E+03  0.57579725023E+03  0.50400001928E-02 0.  1.
    10030    2    1    2    0    0  0.00000000000E+00  0.00000000000E+00  0.27535334823E+03  0.14269478487E+04  0.14001288142E+04 0.  0.
        5    1    3    3  502    0 -0.62375792291E+03 -0.31160409992E+03  0.74054783253E+02  0.70119702110E+03  0.46999998093E+01 0.  1.
       -5    1    3    3    0  502  0.62375792291E+03  0.31160409992E+03  0.20129856498E+03  0.72575082759E+03  0.46999998093E+01 0. -1.
</event>
<event>
 5   0  0.9260916E-05  0.1404981E+04  0.7818609E-02  0.8950221E-01
        1   -1    0    0  501    0  0.00000000000E+00  0.00000000000E+00  0.51752209588E+03  0.51752209590E+03  0.50400001928E-02 0.  1.
       -1   -1    0    0    0  501  0.00000000000E+00  0.00000000000E+00 -0.95356813552E+03  0.95356813553E+03  0.50400001928E-02 0. -1.
    10030    2    1    2    0    0  0.00000000000E+00  0.00000000000E+00 -0.43604603964E+03  0.14710902314E+04  0.14049805409E+04 0.  0.
        1    1    3    3  502    0  0.25133550045E+03  0.23392513749E+03 -0.85972443126E+03  0.92575191141E+03  0.50400001928E-02 0. -1.
       -1    1    3    3    0  502 -0.25133550045E+03 -0.23392513749E+03  0.42367839163E+03  0.54533832003E+03  0.50400001928E-02 0.  1.
</event>
<event>
 5   0  0.6671375E-05  0.1398579E+04  0.7818609E-02  0.8954848E-01
       -1   -1    0    0    0  501  0.00000000000E+00  0.00000000000E+00  0.35856427161E+03  0.35856427165E+03  0.50400001928E-02 0.  1.
        1   -1    0    0  501    0  0.00000000000E+00  0.00000000000E+00 -0.13637882205E+04  0.13637882205E+04  0.50400001928E-02 0. -1.
    10030    2    1    2    0    0  0.00000000000E+00  0.00000000000E+00 -0.10052239489E+04  0.17223524922E+04  0.13985788930E+04 0.  0.
        5    1    3    3  502    0  0.22736175873E+03  0.53759798802E+03 -0.97682602192E+03  0.11379438181E+04  0.46999998093E+01 0.  1.
       -5    1    3    3    0  502 -0.22736175873E+03 -0.53759798802E+03 -0.28397926970E+02  0.58440867405E+03  0.46999998093E+01 0. -1.
</event>
<event>
 5   0  0.1766237E-04  0.1398270E+04  0.7818609E-02  0.8955072E-01
       -2   -1    0    0    0  501  0.00000000000E+00  0.00000000000E+00  0.91996902412E+03  0.91996902412E+03  0.25500000920E-02 0.  1.
        2   -1    0    0  501    0  0.00000000000E+00  0.00000000000E+00 -0.53131099637E+03  0.53131099638E+03  0.25500000920E-02 0. -1.
    10030    2    1    2    0    0  0.00000000000E+00  0.00000000000E+00  0.38865802774E+03  0.14512800205E+04  0.13982698722E+04 0.  0.
        3    1    3    3  502    0 -0.59101680822E+03 -0.37347684671E+03  0.19229883648E+03  0.72509632142E+03  0.10100000352E+00 0. -1.
       -3    1    3    3    0  502  0.59101680822E+03  0.37347684671E+03  0.19635919126E+03  0.72618369908E+03  0.10100000352E+00 0.  1.
</event>
<event>
 5   0  0.6671375E-05  0.1401117E+04  0.7818609E-02  0.8953011E-01
        3   -1    0    0  501    0  0.00000000000E+00  0.00000000000E+00  0.49705728955E+03  0.49705729981E+03  0.10100000352E+00 0.  1.
       -3   -1    0    0    0  501  0.00000000000E+00  0.00000000000E+00 -0.98737522709E+03  0.98737523225E+03  0.10100000352E+00 0. -1.
    10030    2    1    2    0    0  0.00000000000E+00  0.00000000000E+00 -0.49031793754E+03  0.14844325321E+04  0.14011167911E+04 0.  0.
        2    1    3    3  502    0  0.82435510843E+00  0.30785476703E+03 -0.91186972710E+03  0.96243526346E+03  0.25500000920E-02 0. -1.
       -2    1    3    3    0  502 -0.82435510843E+00 -0.30785476703E+03  0.42155178956E+03  0.52199726861E+03  0.25500000920E-02 0.  1.
</event>
<event>
 5   0  0.1712327E-04  0.1399664E+04  0.7818609E-02  0.8954062E-01
       -2   -1    0    0    0  501  0.00000000000E+00  0.00000000000E+00  0.66179549858E+03  0.66179549859E+03  0.25500000920E-02 0. -1.
        2   -1    0    0  501    0  0.00000000000E+00  0.00000000000E+00 -0.74005476828E+03  0.74005476828E+03  0.25500000920E-02 0.  1.
    10030    2    1    2    0    0  0.00000000000E+00  0.00000000000E+00 -0.78259269699E+02  0.14018502669E+04  0.13996641231E+04 0.  0.
        1    1    3    3  502    0 -0.46560579782E+03 -0.35873028490E+02 -0.56118197920E+03  0.73006906997E+03  0.50400001928E-02 0.  1.
       -1    1    3    3    0  502  0.46560579782E+03  0.35873028490E+02  0.48292270950E+03  0.67178119690E+03  0.50400001928E-02 0. -1.
</event>
<event>
 5   0  0.6671375E-05  0.1395866E+04  0.7818609E-02  0.8956816E-01
        4   -1    0    0  501    0  0.00000000000E+00  0.00000000000E+00  0.11826944228E+04  0.11826951047E+04  0.12699999809E+01 0. -1.
       -4   -1    0    0    0  501  0.00000000000E+00  0.00000000000E+00 -0.41186334105E+03  0.41186529910E+03  0.12699999809E+01 0.  1.
    10030    2    1    2    0    0  0.00000000000E+00  0.00000000000E+00  0.77083108178E+03  0.15945604038E+04  0.13958661557E+04 0.  0.
        5    1    3    3  502    0  0.33378299994E+02  0.58372018688E+03 -0.49943911755E+02  0.58682182288E+03  0.46999998093E+01 0.  1.
       -5    1    3    3    0  502 -0.33378299994E+02 -0.58372018688E+03  0.82077499354E+03  0.10077385809E+04  0.46999998093E+01 0. -1.
</event>
<event>
 5   0  0.9260916E-05  0.1398709E+04  0.7818609E-02  0.8954754E-01
       -1   -1    0    0    0  501  0.00000000000E+00  0.00000000000E+00  0.42095799285E+03  0.42095799288E+03  0.50400001928E-02 0.  1.
        1   -1    0    0  501    0  0.00000000000E+00  0.00000000000E+00 -0.11618653444E+04  0.11618653444E+04  0.50400001928E-02 0. -1.
    10030    2    1    2    0    0  0.00000000000E+00  0.00000000000E+00 -0.74090735158E+03  0.15828233373E+04  0.13987086950E+04 0.  0.
        1    1    3    3  502    0 -0.45562768262E+03  0.52479338529E+03 -0.28212967456E+03  0.75006788740E+03  0.50400001928E-02 0.  1.
       -1    1    3    3    0  502  0.45562768262E+03 -0.52479338529E+03 -0.45877767702E+03  0.83275544992E+03  0.50400001928E-02 0. -1.
</event>
<event>
 5   0  0.9978422E-05  0.1400062E+04  0.7818609E-02  0.8953774E-01
        1   -1    0    0  501    0  0.00000000000E+00  0.00000000000E+00  0.75035318623E+03  0.75035318624E+03  0.50400001928E-02 0. -1.
       -1   -1    0    0    0  501  0.00000000000E+00  0.00000000000E+00 -0.65308369276E+03  0.65308369278E+03  0.50400001928E-02 0.  1.
    10030    2    1    2    0    0  0.00000000000E+00  0.00000000000E+00  0.97269493467E+02  0.14034368790E+04  0.14000620411E+04 0.  0.
        2    1    3    3  502    0 -0.66204839394E+03 -0.12282943500E+03 -0.14326412623E+03  0.68841830008E+03  0.25500000920E-02 0.  1.
       -2    1    3    3    0  502  0.66204839394E+03  0.12282943500E+03  0.24053361970E+03  0.71501857894E+03  0.25500000920E-02 0. -1.
</event>
<event>
 5   0  0.1766237E-04  0.1395334E+04  0.7818609E-02  0.8957203E-01
        2   -1    0    0  501    0  0.00000000000E+00  0.00000000000E+00  0.68171361329E+03  0.68171361330E+03  0.25500000920E-02 0. -1.
       -2   -1    0    0    0  501  0.00000000000E+00  0.00000000000E+00 -0.71399416484E+03  0.71399416484E+03  0.25500000920E-02 0.  1.
    10030    2    1    2    0    0  0.00000000000E+00  0.00000000000E+00 -0.32280551543E+02  0.13957077781E+04  0.13953344287E+04 0.  0.
        3    1    3    3  502    0 -0.20477441811E+03  0.38351184574E+03 -0.56192867779E+03  0.71047712648E+03  0.10100000352E+00 0.  1.
       -3    1    3    3    0  502  0.20477441811E+03 -0.38351184574E+03  0.52964812624E+03  0.68523065166E+03  0.10100000352E+00 0. -1.
</event>
<event>
 5   0  0.9978422E-05  0.1401118E+04  0.7818609E-02  0.8953010E-01
        1   -1    0    0  501    0  0.00000000000E+00  0.00000000000E+00  0.90753331337E+03  0.90753331338E+03  0.50400001928E-02 0.  1.
       -1   -1    0    0    0  501  0.00000000000E+00  0.00000000000E+00 -0.54078761768E+03  0.54078761770E+03  0.50400001928E-02 0. -1.
    10030    2    1    2    0    0  0.00000000000E+00  0.00000000000E+00  0.36674569569E+03  0.14483209311E+04  0.14011178088E+04 0.  0.
        2    1    3    3  502    0  0.22308486011E+03 -0.79734014829E+02 -0.49812454348E+03  0.55159081642E+03  0.25500000920E-02 0. -1.
       -2    1    3    3    0  502 -0.22308486011E+03  0.79734014829E+02  0.86487023917E+03  0.89673011466E+03  0.25500000920E-02 0.  1.
</event>
<event>
 5   0  0.1833681E-04  0.1402895E+04  0.7818609E-02  0.8951726E-01
       -2   -1    0    0    0  501  0.00000000000E+00  0.00000000000E+00  0.24039595768E+03  0.24039595770E+03  0.25500000920E-02 0. -1.
        2   -1    0    0  501    0  0.00000000000E+00  0.00000000000E+00 -0.20467425423E+04  0.20467425423E+04  0.25500000920E-02 0.  1.
    10030    2    1    2    0    0  0.00000000000E+00  0.00000000000E+00 -0.18063465846E+04  0.22871385000E+04  0.14028950547E+04 0.  0.
        4    1    3    3  502    0 -0.18076679134E+03 -0.65247398984E+03 -0.60420968919E+03  0.90745242392E+03  0.12699999809E+01 0.  1.
       -4    1    3    3    0  502  0.18076679134E+03  0.65247398984E+03 -0.12021368954E+04  0.13796860761E+04  0.12699999809E+01 0. -1.
</event>
<event>
 5   0  0.9900839E-05  0.1396726E+04  0.7818609E-02  0.8956192E-01
        1   -1    0    0  501    0  0.00000000000E+00  0.00000000000E+00  0.91777954142E+03  0.91777954143E+03  0.50400001928E-02 0.  1.
       -1   -1    0    0    0  501  0.00000000000E+00  0.00000000000E+00 -0.53140319256E+03  0.53140319259E+03  0.50400001928E-02 0. -1.
    10030    2    1    2    0    0  0.00000000000E+00  0.00000000000E+00  0.38637634885E+03  0.14491827340E+04  0.13967261412E+04 0.  0.
        3    1    3    3  502    0  0.17614752918E+03 -0.48040482853E+03 -0.29994525688E+03  0.59311374848E+03  0.10100000352E+00 0. -1.
       -3    1    3    3    0  502 -0.17614752918E+03  0.48040482853E+03  0.68632160573E+03  0.85606898554E+03  0.10100000352E+00 0.  1.
</event>
<event>
 5   0  0.9260916E-05  0.1398062E+04  0.7818609E-02  0.8955222E-01
       -1   -1    0    0    0  501  0.00000000000E+00  0.00000000000E+00  0.77152081669E+03  0.77152081670E+03  0.50400001928E-02 0. -1.
        1   -1    0    0  501    0  0.00000000000E+00  0.00000000000E+00 -0.63335227982E+03  0.63335227984E+03  0.50400001928E-02 0.  1.
    10030    2    1    2    0    0  0.00000000000E+00  0.00000000000E+00  0.13816853687E+03  0.14048730965E+04  0.13980621849E+04 0.  0.
        1    1    3    3  502    0  0.54937091890E+02  0.66196948762E+03  0.28791288701E+03  0.72395822886E+03  0.50400001928E-02 0. -1.
       -1    1    3    3    0  502 -0.54937091890E+02 -0.66196948762E+03 -0.14974435015E+03  0.68091486768E+03  0.50400001928E-02 0.  1.
</event>
<event>
 5   0  0.1833681E-04  0.1390453E+04  0.7818609E-02  0.8960758E-01
        2   -1    0    0  501    0  0.00000000000E+00  0.00000000000E+00  0.11421133252E+04  0.11421133252E+04  0.25500000920E-02 0. -1.
       -2   -1    0    0    0  501  0.00000000000E+00  0.00000000000E+00 -0.42319795372E+03  0.42319795373E+03  0.25500000920E-02 0.  1.
    10030    2    1    2    0    0  0.00000000000E+00  0.00000000000E+00  0.71891537150E+03  0.15653112789E+04  0.13904531954E+04 0.  0.
        4    1    3    3  502    0 -0.35710755541E+03 -0.37706991246E+02 -0.31071319100E+03  0.47485989858E+03  0.12699999809E+01 0.  1.
       -4    1    3    3    0  502  0.35710755541E+03  0.37706991246E+02  0.10296285625E+04  0.10904513804E+04  0.12699999809E+01 0. -1.
</event>
<event>
 5   0  0.1780171E-04  0.1402367E+04  0.7818609E-02  0.8952107E-01
        2   -1    0    0  501    0  0.00000000000E+00  0.00000000000E+00  0.14537694741E+04  0.14537694741E+04  0.25500000920E-02 0. -1.
       -2   -1    0    0    0  501  0.00000000000E+00  0.00000000000E+00 -0.33819570654E+03  0.33819570655E+03  0.25500000920E-02 0.  1.
    10030    2    1    2    0    0  0.00000000000E+00  0.00000000000E+00  0.11155737676E+04  0.17919651807E+04  0.14023674190E+04 0.  0.
        5    1    3    3  502    0  0.63222215469E+02  0.66218359542E+03  0.84108250431E+03  0.10723460410E+04  0.46999998093E+01 0.  1.
       -5    1    3    3    0  502 -0.63222215469E+02 -0.66218359542E+03  0.27449126325E+03  0.71961913967E+03  0.46999998093E+01 0. -1.
</event>
<event>
 5   0  0.9978422E-05  0.1397335E+04  0.7818609E-02  0.8955750E-01
        1   -1    0    0  501    0  0.00000000000E+00  0.00000000000E+00  0.11992043602E+04  0.11992043602E+04  0.50400001928E-02 0.  1.
       -1   -1    0    0    0  501  0.00000000000E+00  0.00000000000E+00 -0.40705036972E+03  0.40705036976E+03  0.50400001928E-02 0. -1.
    10030    2    1    2    0    0  0.00000000000E+00  0.00000000000E+00  0.79215399047E+03  0.16062547300E+04  0.13973354332E+04 0.  0.
        2    1    3    3  502    0 -0.31580941424E+03 -0.23866205384E+03 -0.26570833448E+03  0.47675578768E+03  0.25500000920E-02 0. -1.
       -2    1    3    3    0  502  0.31580941424E+03  0.23866205384E+03  0.10578623250E+04  0.11294989423E+04  0.25500000920E-02 0.  1.
</event>
<event>
 5   0  0.9978422E-05  0.1399111E+04  0.7818609E-02  0.8954462E-01
        1   -1    0    0  501    0  0.00000000000E+00  0.00000000000E+00  0.33305216960E+03  0.33305216964E+03  0.50400001928E-02 0.  1.
       -1   -1    0    0    0  501  0.00000000000E+00  0.00000000000E+00 -0.14693728708E+04  0.14693728708E+04  0.50400001928E-02 0. -1.
    10030    2    1    2    0    0  0.00000000000E+00  0.00000000000E+00 -0.11363207012E+04  0.18024250404E+04  0.13991108928E+04 0.  0.
        2    1    3    3  502    0 -0.30663999042E+03 -0.56629457352E+03 -0.92016600029E+03  0.11231309344E+04  0.25500000920E-02 0. -1.
       -2    1    3    3    0  502  0.30663999042E+03  0.56629457352E+03 -0.21615470087E+03  0.67929410600E+03  0.25500000920E-02 0.  1.
</event>
<event>
 5   0  0.9260916E-05  0.1399918E+04  0.7818609E-02  0.8953878E-01
       -1   -1    0    0    0  501  0.00000000000E+00  0.00000000000E+00  0.31177986489E+03  0.31177986493E+03  0.50400001928E-02 0.  1.
        1   -1    0    0  501    0  0.00000000000E+00  0.00000000000E+00 -0.15714386499E+04  0.15714386499E+04  0.50400001928E-02 0. -1.
    10030    2    1    2    0    0  0.00000000000E+00  0.00000000000E+00 -0.12596587850E+04  0.18832185148E+04  0.13999184690E+04 0.  0.
        1    1    3    3  502    0  0.97803154814E+02  0.57913433970E+03 -0.11761314286E+03  0.59899490141E+03  0.50400001928E-02 0.  1.
       -1    1    3    3    0  502 -0.97803154814E+02 -0.57913433970E+03 -0.11420456421E+04  0.12842236134E+04  0.50400001928E-02 0. -1.
</event>
<event>
 5   0  0.6671375E-05  0.1400466E+04  0.7818609E-02  0.8953481E-01
        1   -1    0    0  501    0  0.00000000000E+00  0.00000000000E+00  0.18970887330E+04  0.18970887330E+04  0.50400001928E-02 0. -1.
       -1   -1    0    0    0  501  0.00000000000E+00  0.00000000000E+00 -0.25846258719E+03  0.25846258724E+03  0.50400001928E-02 0.  1.
    10030    2    1    2    0    0  0.00000000000E+00  0.00000000000E+00  0.16386261458E+04  0.21555513202E+04  0.14004662968E+04 0.  0.
        5    1    3    3  502    0 -0.55884321252E+03  0.41920623846E+03  0.89256133642E+03  0.11334581756E+04  0.46999998093E+01 0. -1.
       -5    1    3    3    0  502  0.55884321252E+03 -0.41920623846E+03  0.74606480935E+03  0.10220931446E+04  0.46999998093E+01 0.  1.
</event>
<event>
 5   0  0.9900839E-05  0.1400030E+04  0.7818609E-02  0.8953797E-01
        1   -1    0    0  501    0  0.00000000000E+00  0.00000000000E+00  0.11683536720E+04  0.11683536721E+04  0.50400001928E-02 0.  1.
       -1   -1    0    0    0  501  0.00000000000E+00  0.00000000000E+00 -0.41941172363E+03  0.41941172367E+03  0.50400001928E-02 0. -1.
    10030    2    1    2    0    0  0.00000000000E+00  0.00000000000E+00  0.74894194841E+03  0.15877653957E+04  0.14000303246E+04 0.  0.
        3    1    3    3  502    0 -0.10514754718E+03  0.47260523876E+03 -0.19890221874E+03  0.52342508652E+03  0.10100000352E+00 0.  1.
       -3    1    3    3    0  502  0.10514754718E+03 -0.47260523876E+03  0.94784416715E+03  0.10643403092E+04  0.10100000352E+00 0. -1.
</event>
<event>
 5   0  0.1712327E-04  0.1401317E+04  0.7818609E-02  0.8952866E-01
        2   -1    0    0  501    0  0.00000000000E+00  0.00000000000E+00  0.17830697957E+04  0.17830697957E+04  0.25500000920E-02 0.  1.
       -2   -1    0    0    0  501  0.00000000000E+00  0.00000000000E+00 -0.27532422147E+03  0.27532422148E+03  0.25500000920E-02 0. -1.
    10030    2    1    2    0    0  0.00000000000E+00  0.00000000000E+00  0.15077455743E+04  0.20583940172E+04  0.14013169568E+04 0.  0.
        1    1    3    3  502    0  0.74633754363E+02  0.44421795439E+03 -0.34452309697E+02  0.45175961524E+03  0.50400001928E-02 0. -1.
       -1    1    3    3    0  502 -0.74633754363E+02 -0.44421795439E+03  0.15421978840E+04  0.16066344020E+04  0.50400001928E-02 0.  1.
</event>
<event>
 5   0  0.6671375E-05  0.1401659E+04  0.7818609E-02  0.8952619E-01
        1   -1    0    0  501    0  0.00000000000E+00  0.00000000000E+00  0.12605767687E+04  0.12605767687E+04  0.50400001928E-02 0.  1.
       -1   -1    0    0    0  501  0.00000000000E+00  0.00000000000E+00 -0.38963270915E+03  0.38963270918E+03  0.50400001928E-02 0. -1.
    10030    2    1    2    0    0  0.00000000000E+00  0.00000000000E+00  0.87094405957E+03  0.16502094779E+04  0.14016589336E+04 0.  0.
        5    1    3    3  502    0  0.52948446983E+03 -0.22790210249E+03  0.90470205930E+03  0.10727539691E+04  0.46999998093E+01 0.  1.
       -5    1    3    3    0  502 -0.52948446983E+03  0.22790210249E+03 -0.33757999729E+02  0.57745550881E+03  0.46999998093E+01 0. -1.
</event>
<event>
 5   0  0.9260916E-05  0.1399475E+04  0.7818609E-02  0.8954198E-01
       -1   -1    0    0    0  501  0.00000000000E+00  0.00000000000E+00  0.25421364635E+03  0.25421364640E+03  0.50400001928E-02 0.  1.
        1   -1    0    0  501    0  0.00000000000E+00  0.00000000000E+00 -0.19260680432E+04  0.19260680432E+04  0.50400001928E-02 0. -1.
    10030    2    1    2    0    0  0.00000000000E+00  0.00000000000E+00 -0.16718543969E+04  0.21802816896E+04  0.13994753023E+04 0.  0.
        1    1    3    3  502    0 -0.87803834738E+01  0.92886737986E+02 -0.19163339330E+04  0.19186038632E+04  0.50400001928E-02 0. -1.
       -1    1    3    3    0  502  0.87803834738E+01 -0.92886737986E+02  0.24447953612E+03  0.26167782641E+03  0.50400001928E-02 0.  1.
</event>
<event>
 5   0  0.9260916E-05  0.1398505E+04  0.7818609E-02  0.8954902E-01
       -1   -1    0    0    0  501  0.00000000000E+00  0.00000000000E+00  0.57503948914E+03  0.57503948916E+03  0.50400001928E-02 0.  1.
        1   -1    0    0  501    0  0.00000000000E+00  0.00000000000E+00 -0.85029623113E+03  0.85029623114E+03  0.50400001928E-02 0. -1.
    10030    2    1    2    0    0  0.00000000000E+00  0.00000000000E+00 -0.27525674199E+03  0.14253357203E+04  0.13985047878E+04 0.  0.
        1    1    3    3  502    0 -0.79797961725E+02  0.24478049668E+03  0.52497441524E+03  0.58470791249E+03  0.50400001928E-02 0.  1.
       -1    1    3    3    0  502  0.79797961725E+02 -0.24478049668E+03 -0.80023115722E+03  0.84062780781E+03  0.50400001928E-02 0. -1.
</event>
<event>
 5   0  0.9828111E-05  0.1401137E+04  0.7818609E-02  0.8952996E-01
        1   -1    0    0  501    0  0.00000000000E+00  0.00000000000E+00  0.96582465176E+03  0.96582465177E+03  0.50400001928E-02 0.  1.
       -1   -1    0    0    0  501  0.00000000000E+00  0.00000000000E+00 -0.50816288229E+03  0.50816288231E+03  0.50400001928E-02 0. -1.
    10030    2    1    2    0    0  0.00000000000E+00  0.00000000000E+00  0.45766176947E+03  0.14739875341E+04  0.14011370224E+04 0.  0.
        4    1    3    3  502    0 -0.11746466977E+03  0.17045471949E+03  0.93291416177E+03  0.95560619827E+03  0.12699999809E+01 0.  1.
       -4    1    3    3    0  502  0.11746466977E+03 -0.17045471949E+03 -0.47525239230E+03  0.51838133582E+03  0.12699999809E+01 0. -1.
</event>
<event>
 5   0  0.9900839E-05  0.1398748E+04  0.7818609E-02  0.8954725E-01
        1   -1    0    0  501    0  0.00000000000E+00  0.00000000000E+00  0.68179155017E+03  0.68179155019E+03  0.50400001928E-02 0. -1.
       -1   -1    0    0    0  501  0.00000000000E+00  0.00000000000E+00 -0.71740999009E+03  0.71740999010E+03  0.50400001928E-02 0.  1.
    10030    2    1    2    0    0  0.00000000000E+00  0.00000000000E+00 -0.35618439918E+02  0.13992015403E+04  0.13987481107E+04 0.  0.
        3    1    3    3  502    0  0.50732863236E+02 -0.63105220120E+03  0.27947957490E+03  0.69203290892E+03  0.10100000352E+00 0. -1.
       -3    1    3    3    0  502 -0.50732863236E+02  0.63105220120E+03 -0.31509801482E+03  0.70716863137E+03  0.10100000352E+00 0.  1.
</event>
<event>
 5   0  0.1712327E-04  0.1399928E+04  0.7818609E-02  0.8953871E-01
        2   -1    0    0  501    0  0.00000000000E+00  0.00000000000E+00  0.46324007273E+03  0.46324007273E+03  0.25500000920E-02 0. -1.
       -2   -1    0    0    0  501  0.00000000000E+00  0.00000000000E+00 -0.10576583805E+04  0.10576583805E+04  0.25500000920E-02 0.  1.
    10030    2    1    2    0    0  0.00000000000E+00  0.00000000000E+00 -0.59441830773E+03  0.15208984532E+04  0.13999282054E+04 0.  0.
        1    1    3    3  502    0 -0.28681275700E+03  0.29138135563E+03  0.32002676269E+03  0.51921265474E+03  0.50400001928E-02 0. -1.
       -1    1    3    3    0  502  0.28681275700E+03 -0.29138135563E+03 -0.91444507042E+03  0.10016857985E+04  0.50400001928E-02 0.  1.
</event>
<event>
 5   0  0.1766237E-04  0.1403595E+04  0.7818609E-02  0.8951221E-01
        2   -1    0    0  501    0  0.00000000000E+00  0.00000000000E+00  0.11069315889E+04  0.11069315889E+04  0.25500000920E-02 0.  1.
       -2   -1    0    0    0  501  0.00000000000E+00  0.00000000000E+00 -0.44494117514E+03  0.44494117514E+03  0.25500000920E-02 0. -1.
    10030    2    1    2    0    0  0.00000000000E+00  0.00000000000E+00  0.66199041373E+03  0.15518727640E+04  0.14035945881E+04 0.  0.
        3    1    3    3  502    0 -0.44877258824E+02 -0.47590534477E+02 -0.44156329002E+03  0.44638209712E+03  0.10100000352E+00 0. -1.
       -3    1    3    3    0  502  0.44877258824E+02  0.47590534477E+02  0.11035537037E+04  0.11054906669E+04  0.10100000352E+00 0.  1.
</event>
<event>
 5   0  0.9900839E-05  0.1399364E+04  0.7818609E-02  0.8954279E-01
        1   -1    0    0  501    0  0.00000000000E+00  0.00000000000E+00  0.90100801093E+03  0.90100801094E+03  0.50400001928E-02 0.  1.
       -1   -1    0    0    0  501  0.00000000000E+00  0.00000000000E+00 -0.54334159730E+03  0.54334159733E+03  0.50400001928E-02 0. -1.
    10030    2    1    2    0    0  0.00000000000E+00  0.00000000000E+00  0.35766641362E+03  0.14443496083E+04  0.13993643298E+04 0.  0.
        3    1    3    3  502    0  0.54153997008E+03  0.41615722562E+03  0.33571528387E+03  0.76102374316E+03  0.10100000352E+00 0.  1.
       -3    1    3    3    0  502 -0.54153997008E+03 -0.41615722562E+03  0.21951129756E+02  0.68332586511E+03  0.10100000352E+00 0. -1.
</event>
<event>
 5   0  0.6671375E-05  0.1398725E+04  0.7818609E-02  0.8954742E-01
       -4   -1    0    0    0  501  0.00000000000E+00  0.00000000000E+00  0.72897844703E+03  0.72897955331E+03  0.12699999809E+01 0.  1.
        4   -1    0    0  501    0  0.00000000000E+00  0.00000000000E+00 -0.67094716397E+03  0.67094836592E+03  0.12699999809E+01 0. -1.
    10030    2    1    2    0    0  0.00000000000E+00  0.00000000000E+00  0.58031283069E+02  0.13999279192E+04  0.13987246152E+04 0.  0.
        2    1    3    3  502    0 -0.12585071518E+03 -0.62132139487E+03 -0.26658393124E+03  0.68771045553E+03  0.25500000920E-02 0. -1.
       -2    1    3    3    0  502  0.12585071518E+03  0.62132139487E+03  0.32461521431E+03  0.71221746370E+03  0.25500000920E-02 0.  1.
</event>
<event>
 5   0  0.9828111E-05  0.1399876E+04  0.7818609E-02  0.8953909E-01
       -1   -1    0    0    0  501  0.00000000000E+00  0.00000000000E+00  0.28607849144E+03  0.28607849149E+03  0.50400001928E-02 0. -1.
        1   -1    0    0  501    0  0.00000000000E+00  0.00000000000E+00 -0.17125124137E+04  0.17125124137E+04  0.50400001928E-02 0.  1.
    10030    2    1    2    0    0  0.00000000000E+00  0.00000000000E+00 -0.14264339222E+04  0.19985909052E+04  0.13998756630E+04 0.  0.
        4    1    3    3  502    0 -0.14299319324E+03  0.92216088926E+02  0.25610108213E+03  0.30747396238E+03  0.12699999809E+01 0. -1.
       -4    1    3    3    0  502  0.14299319324E+03 -0.92216088926E+02 -0.16825350044E+04  0.16911169428E+04  0.12699999809E+01 0.  1.
</event>
<event>
 5   0  0.9978422E-05  0.1395543E+04  0.7818609E-02  0.8957051E-01
        1   -1    0    0  501    0  0.00000000000E+00  0.00000000000E+00  0.13782809944E+04  0.13782809944E+04  0.50400001928E-02 0. -1.
       -1   -1    0    0    0  501  0.00000000000E+00  0.00000000000E+00 -0.35325539449E+03  0.35325539453E+03  0.50400001928E-02 0.  1.
    10030    2    1    2    0    0  0.00000000000E+00  0.00000000000E+00  0.10250255999E+04  0.17315363889E+04  0.13955431866E+04 0.  0.
        2    1    3    3  502    0 -0.31537401898E+03  0.51737392630E+03  0.94187484023E+03  0.11199396261E+04  0.25500000920E-02 0. -1.
       -2    1    3    3    0  502  0.31537401898E+03 -0.51737392630E+03  0.83150759682E+02  0.61159676283E+03  0.25500000920E-02 0.  1.
</event>
<event>
 5   0  0.9260916E-05  0.1401211E+04  0.7818609E-02  0.8952943E-01
       -1   -1    0    0    0  501  0.00000000000E+00  0.00000000000E+00  0.43296917503E+03  0.43296917506E+03  0.50400001928E-02 0. -1.
        1   -1    0    0  501    0  0.00000000000E+00  0.00000000000E+00 -0.11336785838E+04  0.11336785838E+04  0.50400001928E-02 0.  1.
    10030    2    1    2    0    0  0.00000000000E+00  0.00000000000E+00 -0.70070940877E+03  0.15666477589E+04  0.14012107353E+04 0.  0.
        1    1    3    3  502    0 -0.30371185941E+03  0.25341986150E+03 -0.99688895099E+03  0.10724971330E+04  0.50400001928E-02 0.  1.
       -1    1    3    3    0  502  0.30371185941E+03 -0.25341986150E+03  0.29617954222E+03  0.49415062582E+03  0.50400001928E-02 0. -1.
</event>
<event>
 5   0  0.6671375E-05  0.1397523E+04  0.7818609E-02  0.8955614E-01
        1   -1    0    0  501    0  0.00000000000E+00  0.00000000000E+00  0.82370990976E+03  0.82370990978E+03  0.50400001928E-02 0. -1.
       -1   -1    0    0    0  501  0.00000000000E+00  0.00000000000E+00 -0.59276636770E+03  0.59276636772E+03  0.50400001928E-02 0.  1.
    10030    2    1    2    0    0  0.00000000000E+00  0.00000000000E+00  0.23094354207E+03  0.14164762775E+04  0.13975228532E+04 0.  0.
        5    1    3    3  502    0 -0.24151574858E+03 -0.85754615918E+02  0.77433530018E+03  0.81565982987E+03  0.46999998093E+01 0. -1.
       -5    1    3    3    0  502  0.24151574858E+03  0.85754615918E+02 -0.54339175811E+03  0.60081644763E+03  0.46999998093E+01 0.  1.
</event>
<event>
 5   0  0.1780171E-04  0.1395935E+04  0.7818609E-02  0.8956766E-01
        2   -1    0    0  501    0  0.00000000000E+00  0.00000000000E+00  0.23485066536E+04  0.23485066536E+04  0.25500000920E-02 0.  1.
       -2   -1    0    0    0  501  0.00000000000E+00  0.00000000000E+00 -0.20743337627E+03  0.20743337629E+03  0.25500000920E-02 0. -1.
    10030    2    1    2    0    0  0.00000000000E+00  0.00000000000E+00  0.21410732773E+04  0.25559400299E+04  0.13959350477E+04 0.  0.
        5    1    3    3  502    0  0.65486117143E+03 -0.93693212367E+02  0.66310584386E+03  0.93667124545E+03  0.46999998093E+01 0. -1.
       -5    1    3    3    0  502 -0.65486117143E+03  0.93693212367E+02  0.14779674335E+04  0.16192687844E+04  0.46999998093E+01 0.  1.
</event>
<event>
 5   0  0.1833681E-04  0.1404570E+04  0.7818609E-02  0.8950517E-01
        2   -1    0    0  501    0  0.00000000000E+00  0.00000000000E+00  0.25415339121E+04  0.25415339121E+04  0.25500000920E-02 0.  1.
       -2   -1    0    0    0  501  0.00000000000E+00  0.00000000000E+00 -0.19405761597E+03  0.19405761599E+03  0.25500000920E-02 0. -1.
    10030    2    1    2    0    0  0.00000000000E+00  0.00000000000E+00  0.23474762962E+04  0.27355915281E+04  0.14045697020E+04 0.  0.
        4    1    3    3  502    0  0.48292525125E+03  0.73874535223E+02  0.21563361299E+04  0.22109865135E+04  0.12699999809E+01 0.  1.
       -4    1    3    3    0  502 -0.48292525125E+03 -0.73874535223E+02  0.19114016630E+03  0.52460501458E+03  0.12699999809E+01 0. -1.
</event>
<event>
 5   0  0.6671375E-05  0.1388583E+04  0.7818609E-02  0.8962124E-01
       -1   -1    0    0    0  501  0.00000000000E+00  0.00000000000E+00  0.11121978094E+04  0.11121978094E+04  0.50400001928E-02 0.  1.
        1   -1    0    0  501    0  0.00000000000E+00  0.00000000000E+00 -0.43341303034E+03  0.43341303037E+03  0.50400001928E-02 0. -1.
    10030    2    1    2    0    0  0.00000000000E+00  0.00000000000E+00  0.67878477901E+03  0.15456108397E+04  0.13885834839E+04 0.  0.
        5    1    3    3  502    0  0.35576803793E+03  0.47725003443E+03  0.73712421739E+03  0.94747701504E+03  0.46999998093E+01 0.  1.
       -5    1    3    3    0  502 -0.35576803793E+03 -0.47725003443E+03 -0.58339438378E+02  0.59813382470E+03  0.46999998093E+01 0. -1.
</event>
<event>
 5   0  0.6671375E-05  0.1388023E+04  0.7818609E-02  0.8962534E-01
       -1   -1    0    0    0  501  0.00000000000E+00  0.00000000000E+00  0.11152709212E+04  0.11152709213E+04  0.50400001928E-02 0. -1.
        1   -1    0    0  501    0  0.00000000000E+00  0.00000000000E+00 -0.43186982738E+03  0.43186982741E+03  0.50400001928E-02 0.  1.
    10030    2    1    2    0    0  0.00000000000E+00  0.00000000000E+00  0.68340109387E+03  0.15471407487E+04  0.13880228532E+04 0.  0.
        5    1    3    3  502    0  0.80169283486E+02 -0.29294462691E+03 -0.35384156754E+03  0.46633637363E+03  0.46999998093E+01 0.  1.
       -5    1    3    3    0  502 -0.80169283486E+02  0.29294462691E+03  0.10372426614E+04  0.10808043750E+04  0.46999998093E+01 0. -1.
</event>
<event>
 5   0  0.1712327E-04  0.1410592E+04  0.7818609E-02  0.8946187E-01
        2   -1    0    0  501    0  0.00000000000E+00  0.00000000000E+00  0.12579145535E+04  0.12579145535E+04  0.25500000920E-02 0. -1.
       -2   -1    0    0    0  501  0.00000000000E+00  0.00000000000E+00 -0.39544984087E+03  0.39544984088E+03  0.25500000920E-02 0.  1.
    10030    2    1    2    0    0  0.00000000000E+00  0.00000000000E+00  0.86246471267E+03  0.16533643944E+04  0.14105915214E+04 0.  0.
        1    1    3    3  502    0  0.98011627076E+02 -0.22490835585E+03 -0.34382393336E+03  0.42238009512E+03  0.50400001928E-02 0.  1.
       -1    1    3    3    0  502 -0.98011627076E+02  0.22490835585E+03  0.12062886460E+04  0.12309842993E+04  0.50400001928E-02 0. -1.
</event>
<event>
 5   0  0.1833681E-04  0.1400758E+04  0.7818609E-02  0.8953270E-01
        2   -1    0    0  501    0  0.00000000000E+00  0.00000000000E+00  0.15912917494E+04  0.15912917495E+04  0.25500000920E-02 0. -1.
       -2   -1    0    0    0  501  0.00000000000E+00  0.00000000000E+00 -0.30825934372E+03  0.30825934373E+03  0.25500000920E-02 0.  1.
    10030    2    1    2    0    0  0.00000000000E+00  0.00000000000E+00  0.12830324057E+04  0.18995510932E+04  0.14007577240E+04 0.  0.
        4    1    3    3  502    0  0.25515456971E+03  0.34931480434E+03 -0.10544627058E+03  0.44524736479E+03  0.12699999809E+01 0.  1.
       -4    1    3    3    0  502 -0.25515456971E+03 -0.34931480434E+03  0.13884786763E+04  0.14543037284E+04  0.12699999809E+01 0. -1.
</event>
<event>
 5   0  0.1833681E-04  0.1400133E+04  0.7818609E-02  0.8953722E-01
       -2   -1    0    0    0  501  0.00000000000E+00  0.00000000000E+00  0.35032624866E+03  0.35032624867E+03  0.25500000920E-02 0. -1.
        2   -1    0    0  501    0  0.00000000000E+00  0.00000000000E+00 -0.13989621782E+04  0.13989621782E+04  0.25500000920E-02 0.  1.
    10030    2    1    2    0    0  0.00000000000E+00  0.00000000000E+00 -0.10486359295E+04  0.17492884268E+04  0.14001330964E+04 0.  0.
        4    1    3    3  502    0 -0.66203675720E+03 -0.14018747628E+03 -0.30031280558E+03  0.74036112168E+03  0.12699999809E+01 0. -1.
       -4    1    3    3    0  502  0.66203675720E+03  0.14018747628E+03 -0.74832312392E+03  0.10089273052E+04  0.12699999809E+01 0.  1.
</event>
<event>
 5   0  0.9828111E-05  0.1406516E+04  0.7818609E-02  0.8949115E-01
       -1   -1    0    0    0  501  0.00000000000E+00  0.00000000000E+00  0.16098433941E+04  0.16098433941E+04  0.50400001928E-02 0.  1.
        1   -1    0    0  501    0  0.00000000000E+00  0.00000000000E+00 -0.30721731866E+03  0.30721731870E+03  0.50400001928E-02 0. -1.
    10030    2    1    2    0    0  0.00000000000E+00  0.00000000000E+00  0.13026260755E+04  0.19170607128E+04  0.14065159381E+04 0.  0.
        4    1    3    3  502    0  0.37515181268E+03  0.48655626353E+03  0.18491249636E+03  0.64161524635E+03  0.12699999809E+01 0. -1.
       -4    1    3    3    0  502 -0.37515181268E+03 -0.48655626353E+03  0.11177135791E+04  0.12754454665E+04  0.12699999809E+01 0.  1.
</event>
<event>
 5   0  0.9900839E-05  0.1397852E+04  0.7818609E-02  0.8955375E-01
        1   -1    0    0  501    0  0.00000000000E+00  0.00000000000E+00  0.12565722767E+04  0.12565722767E+04  0.50400001928E-02 0.  1.
       -1   -1    0    0    0  501  0.00000000000E+00  0.00000000000E+00 -0.38875424440E+03  0.38875424444E+03  0.50400001928E-02 0. -1.
    10030    2    1    2    0    0  0.00000000000E+00  0.00000000000E+00  0.86781803233E+03  0.16453265212E+04  0.13978523613E+04 0.  0.
        3    1    3    3  502    0  0.22570941642E+03 -0.45005479384E+03  0.10045043012E+04  0.11236204694E+04  0.10100000352E+00 0.  1.
       -3    1    3    3    0  502 -0.22570941642E+03  0.45005479384E+03 -0.13668626883E+03  0.52170605173E+03  0.10100000352E+00 0. -1.
</event>
<event>
 5   0  0.9900839E-05  0.1394511E+04  0.7818609E-02  0.8957801E-01
        1   -1    0    0  501    0  0.00000000000E+00  0.00000000000E+00  0.11063195556E+04  0.11063195556E+04  0.50400001928E-02 0.  1.
       -1   -1    0    0    0  501  0.00000000000E+00  0.00000000000E+00 -0.43944395558E+03  0.43944395561E+03  0.50400001928E-02 0. -1.
    10030    2    1    2    0    0  0.00000000000E+00  0.00000000000E+00  0.66687559998E+03  0.15457635112E+04  0.13945113003E+04 0.  0.
        3    1    3    3  502    0 -0.13501503076E+03 -0.17010962770E+03 -0.40099628149E+03  0.45603110852E+03  0.10100000352E+00 0. -1.
       -3    1    3    3    0  502  0.13501503076E+03  0.17010962770E+03  0.10678718815E+04  0.10897324027E+04  0.10100000352E+00 0.  1.
</event>
<event>
 5   0  0.1712327E-04  0.1392314E+04  0.7818609E-02  0.8959401E-01
        2   -1    0    0  501    0  0.00000000000E+00  0.00000000000E+00  0.23922867834E+04  0.23922867834E+04  0.25500000920E-02 0. -1.
       -2   -1    0    0    0  501  0.00000000000E+00  0.00000000000E+00 -0.20258224275E+03  0.20258224277E+03  0.25500000920E-02 0.  1.
    10030    2    1    2    0    0  0.00000000000E+00  0.00000000000E+00  0.21897045407E+04  0.25948690262E+04  0.13923143638E+04 0.  0.
        1    1    3    3  502    0 -0.24120961098E+03  0.64689417789E+03  0.12613459543E+04  0.14379317683E+04  0.50400001928E-02 0. -1.
       -1    1    3    3    0  502  0.24120961098E+03 -0.64689417789E+03  0.92835858642E+03  0.11569372579E+04  0.50400001928E-02 0.  1.
</event>
<event>
 5   0  0.9828111E-05  0.1399120E+04  0.7818609E-02  0.8954456E-01
        1   -1    0    0  501    0  0.00000000000E+00  0.00000000000E+00  0.73111823476E+03  0.73111823478E+03  0.50400001928E-02 0. -1.
       -1   -1    0    0    0  501  0.00000000000E+00  0.00000000000E+00 -0.66936375215E+03  0.66936375216E+03  0.50400001928E-02 0.  1.
    10030    2    1    2    0    0  0.00000000000E+00  0.00000000000E+00  0.61754482618E+02  0.14004819869E+04  0.13991197874E+04 0.  0.
        4    1    3    3  502    0  0.47847301155E+03 -0.35043976146E+03  0.40223438100E+03  0.71661604738E+03  0.12699999809E+01 0. -1.
       -4    1    3    3    0  502 -0.47847301155E+03  0.35043976146E+03 -0.34047989838E+03  0.68386593957E+03  0.12699999809E+01 0.  1.
</event>
<event>
 5   0  0.6671375E-05  0.1399246E+04  0.7818609E-02  0.8954364E-01
        3   -1    0    0  501    0  0.00000000000E+00  0.00000000000E+00  0.69494600871E+03  0.69494601605E+03  0.10100000352E+00 0.  1.
       -3   -1    0    0    0  501  0.00000000000E+00  0.00000000000E+00 -0.70433154359E+03  0.70433155083E+03  0.10100000352E+00 0. -1.
    10030    2    1    2    0    0  0.00000000000E+00  0.00000000000E+00 -0.93855348837E+01  0.13992775669E+04  0.13992460902E+04 0.  0.
        1    1    3    3  502    0 -0.25427253525E+03 -0.58660667765E+03 -0.28879507303E+03  0.70154437541E+03  0.50400001928E-02 0. -1.
       -1    1    3    3    0  502  0.25427253525E+03  0.58660667765E+03  0.27940953814E+03  0.69773319147E+03  0.50400001928E-02 0.  1.
</event>
<event>
 5   0  0.1766237E-04  0.1399465E+04  0.7818609E-02  0.8954206E-01
       -2   -1    0    0    0  501  0.00000000000E+00  0.00000000000E+00  0.23146649796E+03  0.23146649797E+03  0.25500000920E-02 0.  1.
        2   -1    0    0  501    0  0.00000000000E+00  0.00000000000E+00 -0.21153183418E+04  0.21153183418E+04  0.25500000920E-02 0. -1.
    10030    2    1    2    0    0  0.00000000000E+00  0.00000000000E+00 -0.18838518438E+04  0.23467848397E+04  0.13994646529E+04 0.  0.
        3    1    3    3  502    0 -0.47720909398E+03 -0.50611637485E+03 -0.81484472842E+03  0.10713795993E+04  0.10100000352E+00 0.  1.
       -3    1    3    3    0  502  0.47720909398E+03  0.50611637485E+03 -0.10690071154E+04  0.12754052404E+04  0.10100000352E+00 0. -1.
</event>
<event>
 5   0  0.6671375E-05  0.1400488E+04  0.7818609E-02  0.8953465E-01
        1   -1    0    0  501    0  0.00000000000E+00  0.00000000000E+00  0.76515910309E+03  0.76515910311E+03  0.50400001928E-02 0.  1.
       -1   -1    0    0    0  501  0.00000000000E+00  0.00000000000E+00 -0.64083654486E+03  0.64083654488E+03  0.50400001928E-02 0. -1.
    10030    2    1    2    0    0  0.00000000000E+00  0.00000000000E+00  0.12432255823E+03  0.14059956480E+04  0.14004883661E+04 0.  0.
        5    1    3    3  502    0  0.36952492348E+03  0.35079274155E+03  0.54437877117E+03  0.74563701162E+03  0.46999998093E+01 0.  1.
       -5    1    3    3    0  502 -0.36952492348E+03 -0.35079274155E+03 -0.42005621294E+03  0.66035863637E+03  0.46999998093E+01 0. -1.
</event>
<event>
 5   0  0.1766237E-04  0.1399832E+04  0.7818609E-02  0.8953940E-01
        2   -1    0    0  501    0  0.00000000000E+00  0.00000000000E+00  0.11392921051E+04  0.11392921051E+04  0.25500000920E-02 0. -1.
       -2   -1    0    0    0  501  0.00000000000E+00  0.00000000000E+00 -0.42998870434E+03  0.42998870435E+03  0.25500000920E-02 0.  1.
    10030    2    1    2    0    0  0.00000000000E+00  0.00000000000E+00  0.70930340072E+03  0.15692808094E+04  0.13998324702E+04 0.  0.
        3    1    3    3  502    0 -0.41213323709E+03  0.53778815359E+03  0.55143595358E+03  0.87358544193E+03  0.10100000352E+00 0. -1.
       -3    1    3    3    0  502  0.41213323709E+03 -0.53778815359E+03  0.15786744715E+03  0.69569536748E+03  0.10100000352E+00 0.  1.
</event>
<event>
 5   0  0.1712327E-04  0.1396737E+04  0.7818609E-02  0.8956184E-01
        2   -1    0    0  501    0  0.00000000000E+00  0.00000000000E+00  0.20019498331E+04  0.20019498331E+04  0.25500000920E-02 0.  1.
       -2   -1    0    0    0  501  0.00000000000E+00  0.00000000000E+00 -0.24362190950E+03  0.24362190951E+03  0.25500000920E-02 0. -1.
    10030    2    1    2    0    0  0.00000000000E+00  0.00000000000E+00  0.17583279236E+04  0.22455717427E+04  0.13967373999E+04 0.  0.
        1    1    3    3  502    0  0.44531579477E+02 -0.30565865349E+03 -0.12782814986E+03  0.33429075660E+03  0.50400001928E-02 0. -1.
       -1    1    3    3    0  502 -0.44531579477E+02  0.30565865349E+03  0.18861560735E+04  0.19112809861E+04  0.50400001928E-02 0.  1.
</event>
<event>
 5   0  0.6671375E-05  0.1404928E+04  0.7818609E-02  0.8950259E-01
        1   -1    0    0  501    0  0.00000000000E+00  0.00000000000E+00  0.11488744526E+04  0.11488744526E+04  0.50400001928E-02 0. -1.
       -1   -1    0    0    0  501  0.00000000000E+00  0.00000000000E+00 -0.42951246240E+03  0.42951246243E+03  0.50400001928E-02 0.  1.
    10030    2    1    2    0    0  0.00000000000E+00  0.00000000000E+00  0.71936199021E+03  0.15783869151E+04  0.14049283187E+04 0.  0.
        5    1    3    3  502    0  0.28061718538E+03 -0.40447742072E+03  0.92263173699E+03  0.10457625929E+04  0.46999998093E+01 0. -1.
       -5    1    3    3    0  502 -0.28061718538E+03  0.40447742072E+03 -0.20326974678E+03  0.53262432216E+03  0.46999998093E+01 0.  1.
</event>
<event>
 5   0  0.9978422E-05  0.1402874E+04  0.7818609E-02  0.8951741E-01
       -1   -1    0    0    0  501  0.00000000000E+00  0.00000000000E+00  0.54199596445E+03  0.54199596448E+03  0.50400001928E-02 0.  1.
        1   -1    0    0  501    0  0.00000000000E+00  0.00000000000E+00 -0.90778167853E+03  0.90778167854E+03  0.50400001928E-02 0. -1.
    10030    2    1    2    0    0  0.00000000000E+00  0.00000000000E+00 -0.36578571407E+03  0.14497776430E+04  0.14028742016E+04 0.  0.
        2    1    3    3  502    0 -0.50504832226E+03  0.46663245625E+02  0.31782981300E+03  0.59855413819E+03  0.25500000920E-02 0.  1.
       -2    1    3    3    0  502  0.50504832226E+03 -0.46663245625E+02 -0.68361552707E+03  0.85122350482E+03  0.25500000920E-02 0. -1.
</event>
<event>
 5   0  0.1794185E-04  0.1404995E+04  0.7818609E-02  0.8950211E-01
       -2   -1    0    0    0  501  0.00000000000E+00  0.00000000000E+00  0.59959414899E+03  0.59959414899E+03  0.25500000920E-02 0.  1.
        2   -1    0    0  501    0  0.00000000000E+00  0.00000000000E+00 -0.82306165579E+03  0.82306165580E+03  0.25500000920E-02 0. -1.
    10030    2    1    2    0    0  0.00000000000E+00  0.00000000000E+00 -0.22346750681E+03  0.14226558048E+04  0.14049953069E+04 0.  0.
        2    1    3    3  502    0  0.14711273609E+03  0.44373550593E+03  0.41922331623E+03  0.62792638519E+03  0.25500000920E-02 0.  1.
       -2    1    3    3    0  502 -0.14711273609E+03 -0.44373550593E+03 -0.64269082304E+03  0.79472941960E+03  0.25500000920E-02 0. -1.
</event>
<event>
 5   0  0.1794185E-04  0.1401679E+04  0.7818609E-02  0.8952604E-01
       -2   -1    0    0    0  501  0.00000000000E+00  0.00000000000E+00  0.11866309984E+04  0.11866309984E+04  0.25500000920E-02 0.  1.
        2   -1    0    0  501    0  0.00000000000E+00  0.00000000000E+00 -0.41392480114E+03  0.41392480114E+03  0.25500000920E-02 0. -1.
    10030    2    1    2    0    0  0.00000000000E+00  0.00000000000E+00  0.77270619731E+03  0.16005557996E+04  0.14016789933E+04 0.  0.
        2    1    3    3  502    0  0.13857725990E+03  0.61991001718E+03  0.48224256283E+02  0.63703819765E+03  0.25500000920E-02 0. -1.
       -2    1    3    3    0  502 -0.13857725990E+03 -0.61991001718E+03  0.72448194103E+03  0.96351760194E+03  0.25500000920E-02 0.  1.
</event>
<event>
 5   0  0.9900839E-05  0.1395632E+04  0.7818609E-02  0.8956986E-01
       -1   -1    0    0    0  501  0.00000000000E+00  0.00000000000E+00  0.95581722059E+03  0.95581722060E+03  0.50400001928E-02 0.  1.
        1   -1    0    0  501    0  0.00000000000E+00  0.00000000000E+00 -0.50945667021E+03  0.50945667023E+03  0.50400001928E-02 0. -1.
    10030    2    1    2    0    0  0.00000000000E+00  0.00000000000E+00  0.44636055038E+03  0.14652738908E+04  0.13956324137E+04 0.  0.
        3    1    3    3  502    0  0.25649562286E+03 -0.21017631199E+03 -0.42144726406E+03  0.53626662515E+03  0.10100000352E+00 0. -1.
       -3    1    3    3    0  502 -0.25649562286E+03  0.21017631199E+03  0.86780781445E+03  0.92900726568E+03  0.10100000352E+00 0.  1.
</event>
<event>
 5   0  0.9978422E-05  0.1399007E+04  0.7818609E-02  0.8954538E-01
       -1   -1    0    0    0  501  0.00000000000E+00  0.00000000000E+00  0.34757653274E+03  0.34757653277E+03  0.50400001928E-02 0.  1.
        1   -1    0    0  501    0  0.00000000000E+00  0.00000000000E+00 -0.14077615264E+04  0.14077615264E+04  0.50400001928E-02 0. -1.
    10030    2    1    2    0    0  0.00000000000E+00  0.00000000000E+00 -0.10601849937E+04  0.17553380592E+04  0.13990066051E+04 0.  0.
        2    1    3    3  502    0  0.39692903996E+03 -0.57481707803E+03 -0.48420509434E+03  0.84995406308E+03  0.25500000920E-02 0. -1.
       -2    1    3    3    0  502 -0.39692903996E+03  0.57481707803E+03 -0.57597989932E+03  0.90538399609E+03  0.25500000920E-02 0.  1.
</event>
<event>
 5   0  0.1712327E-04  0.1399121E+04  0.7818609E-02  0.8954455E-01
        2   -1    0    0  501    0  0.00000000000E+00  0.00000000000E+00  0.70277769247E+03  0.70277769247E+03  0.25500000920E-02 0. -1.
       -2   -1    0    0    0  501  0.00000000000E+00  0.00000000000E+00 -0.69635845992E+03  0.69635845993E+03  0.25500000920E-02 0.  1.
    10030    2    1    2    0    0  0.00000000000E+00  0.00000000000E+00  0.64192325474E+01  0.13991361524E+04  0.13991214266E+04 0.  0.
        1    1    3    3  502    0 -0.26255830219E+03  0.57300278298E+03  0.30671921956E+03  0.70096057737E+03  0.50400001928E-02 0. -1.
       -1    1    3    3    0  502  0.26255830219E+03 -0.57300278298E+03 -0.30029998701E+03  0.69817557503E+03  0.50400001928E-02 0.  1.
</event>
<event>
 5   0  0.9828111E-05  0.1409758E+04  0.7818609E-02  0.8946785E-01
        1   -1    0    0  501    0  0.00000000000E+00  0.00000000000E+00  0.15944733426E+04  0.15944733426E+04  0.50400001928E-02 0. -1.
       -1   -1    0    0    0  501  0.00000000000E+00  0.00000000000E+00 -0.31161048966E+03  0.31161048970E+03  0.50400001928E-02 0.  1.
    10030    2    1    2    0    0  0.00000000000E+00  0.00000000000E+00  0.12828628529E+04  0.19060838323E+04  0.14097583042E+04 0.  0.
        4    1    3    3  502    0  0.62182743645E+03  0.31586636079E+03  0.50346727877E+03  0.86018709145E+03  0.12699999809E+01 0. -1.
       -4    1    3    3    0  502 -0.62182743645E+03 -0.31586636079E+03  0.77939557415E+03  0.10458967408E+04  0.12699999809E+01 0.  1.
</event>
<event>
 5   0  0.1712327E-04  0.1398805E+04  0.7818609E-02  0.8954684E-01
       -2   -1    0    0    0  501  0.00000000000E+00  0.00000000000E+00  0.19341288980E+03  0.19341288982E+03  0.25500000920E-02 0.  1.
        2   -1    0    0  501    0  0.00000000000E+00  0.00000000000E+00 -0.25291172116E+04  0.25291172116E+04  0.25500000920E-02 0. -1.
    10030    2    1    2    0    0  0.00000000000E+00  0.00000000000E+00 -0.23357043218E+04  0.27225301014E+04  0.13988050165E+04 0.  0.
        1    1    3    3  502    0  0.30734558265E+03  0.62044635930E+03 -0.97567897266E+03  0.11963964433E+04  0.50400001928E-02 0.  1.
       -1    1    3    3    0  502 -0.30734558265E+03 -0.62044635930E+03 -0.13600253491E+04  0.15261336580E+04  0.50400001928E-02 0. -1.
</event>
<event>
 5   0  0.9260916E-05  0.1400292E+04  0.7818609E-02  0.8953607E-01
        1   -1    0    0  501    0  0.00000000000E+00  0.00000000000E+00  0.93438035151E+03  0.93438035152E+03  0.50400001928E-02 0.  1.
       -1   -1    0    0    0  501  0.00000000000E+00  0.00000000000E+00 -0.52463026045E+03  0.52463026048E+03  0.50400001928E-02 0. -1.
    10030    2    1    2    0    0  0.00000000000E+00  0.00000000000E+00  0.40975009106E+03  0.14590106120E+04  0.14002916942E+04 0.  0.
        1    1    3    3  502    0  0.13196571150E+03  0.67889842241E+03  0.91279506720E+02  0.69760301414E+03  0.50400001928E-02 0. -1.
       -1    1    3    3    0  502 -0.13196571150E+03 -0.67889842241E+03  0.31847058434E+03  0.76140759786E+03  0.50400001928E-02 0.  1.
</event>
<event>
 5   0  0.1833681E-04  0.1400210E+04  0.7818609E-02  0.8953667E-01
       -2   -1    0    0    0  501  0.00000000000E+00  0.00000000000E+00  0.56140461468E+03  0.56140461468E+03  0.25500000920E-02 0. -1.
        2   -1    0    0  501    0  0.00000000000E+00  0.00000000000E+00 -0.87307208495E+03  0.87307208495E+03  0.25500000920E-02 0.  1.
    10030    2    1    2    0    0  0.00000000000E+00  0.00000000000E+00 -0.31166747027E+03  0.14344766996E+04  0.14002095521E+04 0.  0.
        4    1    3    3  502    0  0.52196103954E+03  0.30991250689E+03  0.20149440699E+03  0.63960198379E+03  0.12699999809E+01 0. -1.
       -4    1    3    3    0  502 -0.52196103954E+03 -0.30991250689E+03 -0.51316187726E+03  0.79487471585E+03  0.12699999809E+01 0.  1.
</event>
<event>
 5   0  0.6671375E-05  0.1399097E+04  0.7818609E-02  0.8954472E-01
        1   -1    0    0  501    0  0.00000000000E+00  0.00000000000E+00  0.15930274118E+04  0.15930274118E+04  0.50400001928E-02 0.  1.
       -1   -1    0    0    0  501  0.00000000000E+00  0.00000000000E+00 -0.30719387792E+03  0.30719387796E+03  0.50400001928E-02 0. -1.
    10030    2    1    2    0    0  0.00000000000E+00  0.00000000000E+00  0.12858335339E+04  0.19002212898E+04  0.13990972351E+04 0.  0.
        5    1    3    3  502    0 -0.65706607242E+03 -0.16958591324E+03  0.87361087993E+03  0.11062157407E+04  0.46999998093E+01 0.  1.
       -5    1    3    3    0  502  0.65706607242E+03  0.16958591324E+03  0.41222265396E+03  0.79400554906E+03  0.46999998093E+01 0. -1.
</event>
<event>
 5   0  0.1766237E-04  0.1374010E+04  0.7818609E-02  0.8972849E-01
       -2   -1    0    0    0  501  0.00000000000E+00  0.00000000000E+00  0.21258032076E+03  0.21258032078E+03  0.25500000920E-02 0. -1.
        2   -1    0    0  501    0  0.00000000000E+00  0.00000000000E+00 -0.22202247813E+04  0.22202247813E+04  0.25500000920E-02 0.  1.
    10030    2    1    2    0    0  0.00000000000E+00  0.00000000000E+00 -0.20076444605E+04  0.24328051020E+04  0.13740103292E+04 0.  0.
        3    1    3    3  502    0 -0.44313301380E+03 -0.18076786749E+03 -0.18765119469E+04  0.19365797136E+04  0.10100000352E+00 0.  1.
       -3    1    3    3    0  502  0.44313301380E+03  0.18076786749E+03 -0.13113251356E+03  0.49622538846E+03  0.10100000352E+00 0. -1.
</event>
<event>
 5   0  0.1794185E-04  0.1407057E+04  0.7818609E-02  0.8948726E-01
       -2   -1    0    0    0  501  0.00000000000E+00  0.00000000000E+00  0.32345295080E+03  0.32345295081E+03  0.25500000920E-02 0.  1.
        2   -1    0    0  501    0  0.00000000000E+00  0.00000000000E+00 -0.15302146856E+04  0.15302146856E+04  0.25500000920E-02 0. -1.
    10030    2    1    2    0    0  0.00000000000E+00  0.00000000000E+00 -0.12067617348E+04  0.18536676364E+04  0.14070571494E+04 0.  0.
        2    1    3    3  502    0  0.45132870501E+03  0.43440847512E+02 -0.13120527349E+04  0.13881884189E+04  0.25500000920E-02 0. -1.
       -2    1    3    3    0  502 -0.45132870501E+03 -0.43440847512E+02  0.10529100012E+03  0.46547921749E+03  0.25500000920E-02 0.  1.
</event>
<event>
 5   0  0.1712327E-04  0.1399340E+04  0.7818609E-02  0.8954296E-01
        2   -1    0    0  501    0  0.00000000000E+00  0.00000000000E+00  0.23104956280E+04  0.23104956280E+04  0.25500000920E-02 0.  1.
       -2   -1    0    0    0  501  0.00000000000E+00  0.00000000000E+00 -0.21187591756E+03  0.21187591758E+03  0.25500000920E-02 0. -1.
    10030    2    1    2    0    0  0.00000000000E+00  0.00000000000E+00  0.20986197104E+04  0.25223715456E+04  0.13993403892E+04 0.  0.
        1    1    3    3  502    0  0.21493431584E+03 -0.45482226216E+02 -0.14809044032E+03  0.26494560115E+03  0.50400001928E-02 0. -1.
       -1    1    3    3    0  502 -0.21493431584E+03  0.45482226216E+02  0.22467101508E+04  0.22574259444E+04  0.50400001928E-02 0.  1.
</event>
<event>
 5   0  0.9978422E-05  0.1389557E+04  0.7818609E-02  0.8961413E-01
        1   -1    0    0  501    0  0.00000000000E+00  0.00000000000E+00  0.97512379080E+03  0.97512379081E+03  0.50400001928E-02 0.  1.
       -1   -1    0    0    0  501  0.00000000000E+00  0.00000000000E+00 -0.49503162233E+03  0.49503162235E+03  0.50400001928E-02 0. -1.
    10030    2    1    2    0    0  0.00000000000E+00  0.00000000000E+00  0.48009216847E+03  0.14701554132E+04  0.13895569253E+04 0.  0.
        2    1    3    3  502    0  0.14909299094E+03  0.37846782361E+02 -0.47678981162E+03  0.50098864593E+03  0.25500000920E-02 0. -1.
       -2    1    3    3    0  502 -0.14909299094E+03 -0.37846782361E+02  0.95688198009E+03  0.96916676723E+03  0.25500000920E-02 0.  1.
</event>
<event>
 5   0  0.1794185E-04  0.1402982E+04  0.7818609E-02  0.8951663E-01
        2   -1    0    0  501    0  0.00000000000E+00  0.00000000000E+00  0.11720816801E+04  0.11720816801E+04  0.25500000920E-02 0.  1.
       -2   -1    0    0    0  501  0.00000000000E+00  0.00000000000E+00 -0.41984271803E+03  0.41984271803E+03  0.25500000920E-02 0. -1.
    10030    2    1    2    0    0  0.00000000000E+00  0.00000000000E+00  0.75223896204E+03  0.15919243981E+04  0.14029824779E+04 0.  0.
        2    1    3    3  502    0 -0.24632276781E+03 -0.56871075263E+03  0.32574575394E+01  0.61977208483E+03  0.25500000920E-02 0. -1.
       -2    1    3    3    0  502  0.24632276781E+03  0.56871075263E+03  0.74898150450E+03  0.97215231327E+03  0.25500000920E-02 0.  1.
</event>
<event>
 5   0  0.9900839E-05  0.1400747E+04  0.7818609E-02  0.8953278E-01
        1   -1    0    0  501    0  0.00000000000E+00  0.00000000000E+00  0.75018998269E+03  0.75018998270E+03  0.50400001928E-02 0.  1.
       -1   -1    0    0    0  501  0.00000000000E+00  0.00000000000E+00 -0.65386537890E+03  0.65386537892E+03  0.50400001928E-02 0. -1.
    10030    2    1    2    0    0  0.00000000000E+00  0.00000000000E+00  0.96324603786E+02  0.14040553616E+04  0.14007473110E+04 0.  0.
        3    1    3    3  502    0 -0.61768755172E+03  0.78829161356E+02 -0.27317441898E+03  0.67998251567E+03  0.10100000352E+00 0. -1.
       -3    1    3    3    0  502  0.61768755172E+03 -0.78829161356E+02  0.36949902276E+03  0.72407284596E+03  0.10100000352E+00 0.  1.
</event>
<event>
 5   0  0.9828111E-05  0.1396797E+04  0.7818609E-02  0.8956140E-01
       -1   -1    0    0    0  501  0.00000000000E+00  0.00000000000E+00  0.99613902566E+03  0.99613902567E+03  0.50400001928E-02 0. -1.
        1   -1    0    0  501    0  0.00000000000E+00  0.00000000000E+00 -0.48965099537E+03  0.48965099540E+03  0.50400001928E-02 0.  1.
    10030    2    1    2    0    0  0.00000000000E+00  0.00000000000E+00  0.50648803029E+03  0.14857900211E+04  0.13967970010E+04 0.  0.
        4    1    3    3  502    0  0.15141800936E+03  0.50327935096E+03 -0.23599576528E+03  0.57611902658E+03  0.12699999809E+01 0.  1.
       -4    1    3    3    0  502 -0.15141800936E+03 -0.50327935096E+03  0.74248379556E+03  0.90967099450E+03  0.12699999809E+01 0. -1.
</event>
<event>
 5   0  0.9978422E-05  0.1400796E+04  0.7818609E-02  0.8953242E-01
        1   -1    0    0  501    0  0.00000000000E+00  0.00000000000E+00  0.72398246232E+03  0.72398246234E+03  0.50400001928E-02 0. -1.
       -1   -1    0    0    0  501  0.00000000000E+00  0.00000000000E+00 -0.67758209184E+03  0.67758209185E+03  0.50400001928E-02 0.  1.
    10030    2    1    2    0    0  0.00000000000E+00  0.00000000000E+00  0.46400370488E+02  0.14015645542E+04  0.14007962754E+04 0.  0.
        2    1    3    3  502    0 -0.43150026916E+02  0.36354815148E+03  0.62062763472E+03  0.72056078456E+03  0.25500000920E-02 0. -1.
       -2    1    3    3    0  502  0.43150026916E+02 -0.36354815148E+03 -0.57422726423E+03  0.68100376964E+03  0.25500000920E-02 0.  1.
</event>
<event>
 5   0  0.6671375E-05  0.1399576E+04  0.7818609E-02  0.8954125E-01
        1   -1    0    0  501    0  0.00000000000E+00  0.00000000000E+00  0.71528282357E+03  0.71528282359E+03  0.50400001928E-02 0. -1.
       -1   -1    0    0    0  501  0.00000000000E+00  0.00000000000E+00 -0.68462899813E+03  0.68462899815E+03  0.50400001928E-02 0.  1.
    10030    2    1    2    0    0  0.00000000000E+00  0.00000000000E+00  0.30653825438E+02  0.13999118217E+04  0.13995761686E+04 0.  0.
        5    1    3    3  502    0 -0.21938059969E+03 -0.28171695770E+03 -0.58663880542E+03  0.68677468634E+03  0.46999998093E+01 0.  1.
       -5    1    3    3    0  502  0.21938059969E+03  0.28171695770E+03  0.61729263086E+03  0.71313713540E+03  0.46999998093E+01 0. -1.
</event>
<event>
 5   0  0.1766237E-04  0.1401135E+04  0.7818609E-02  0.8952997E-01
        2   -1    0    0  501    0  0.00000000000E+00  0.00000000000E+00  0.49247741156E+03  0.49247741156E+03  0.25500000920E-02 0.  1.
       -2   -1    0    0    0  501  0.00000000000E+00  0.00000000000E+00 -0.99658360460E+03  0.99658360460E+03  0.25500000920E-02 0. -1.
    10030    2    1    2    0    0  0.00000000000E+00  0.00000000000E+00 -0.50410619304E+03  0.14890610162E+04  0.14011351312E+04 0.  0.
        3    1    3    3  502    0  0.62834049923E+03 -0.23033601864E+03 -0.31859329415E+02  0.66998618756E+03  0.10100000352E+00 0.  1.
       -3    1    3    3    0  502 -0.62834049923E+03  0.23033601864E+03 -0.47224686363E+03  0.81907482861E+03  0.10100000352E+00 0. -1.
</event>
<event>
 5   0  0.1833681E-04  0.1390613E+04  0.7818609E-02  0.8960641E-01
       -2   -1    0    0    0  501  0.00000000000E+00  0.00000000000E+00  0.27740722152E+03  0.27740722154E+03  0.25500000920E-02 0.  1.
        2   -1    0    0  501    0  0.00000000000E+00  0.00000000000E+00 -0.17427494953E+04  0.17427494953E+04  0.25500000920E-02 0. -1.
    10030    2    1    2    0    0  0.00000000000E+00  0.00000000000E+00 -0.14653422738E+04  0.20201567169E+04  0.13906132393E+04 0.  0.
        4    1    3    3  502    0 -0.55473872797E+03  0.23469618436E+03 -0.22811376589E+03  0.64409227472E+03  0.12699999809E+01 0.  1.
       -4    1    3    3    0  502  0.55473872797E+03 -0.23469618436E+03 -0.12372285079E+04  0.13760644421E+04  0.12699999809E+01 0. -1.
</event>
<event>
 5   0  0.1780171E-04  0.1399968E+04  0.7818609E-02  0.8953842E-01
        2   -1    0    0  501    0  0.00000000000E+00  0.00000000000E+00  0.69774151115E+03  0.69774151116E+03  0.25500000920E-02 0.  1.
       -2   -1    0    0    0  501  0.00000000000E+00  0.00000000000E+00 -0.70223363492E+03  0.70223363493E+03  0.25500000920E-02 0. -1.
    10030    2    1    2    0    0  0.00000000000E+00  0.00000000000E+00 -0.44921237701E+01  0.13999751461E+04  0.13999679391E+04 0.  0.
        5    1    3    3  502    0  0.42690205293E+03 -0.36895250367E+02  0.55124467831E+03  0.69821157800E+03  0.46999998093E+01 0.  1.
       -5    1    3    3    0  502 -0.42690205293E+03  0.36895250367E+02 -0.55573680208E+03  0.70176356808E+03  0.46999998093E+01 0. -1.
</event>
<event>
 5   0  0.9978422E-05  0.1400389E+04  0.7818609E-02  0.8953537E-01
        1   -1    0    0  501    0  0.00000000000E+00  0.00000000000E+00  0.11691019929E+04  0.11691019929E+04  0.50400001928E-02 0.  1.
       -1   -1    0    0    0  501  0.00000000000E+00  0.00000000000E+00 -0.41935788329E+03  0.41935788332E+03  0.50400001928E-02 0. -1.
    10030    2    1    2    0    0  0.00000000000E+00  0.00000000000E+00  0.74974410959E+03  0.15884598762E+04  0.14003887133E+04 0.  0.
        2    1    3    3  502    0 -0.33675806733E+03  0.61226390458E+03  0.32415666932E+03  0.77029256197E+03  0.25500000920E-02 0.  1.
       -2    1    3    3    0  502  0.33675806733E+03 -0.61226390458E+03  0.42558744026E+03  0.81816731423E+03  0.25500000920E-02 0. -1.
</event>
<event>
 5   0  0.6671375E-05  0.1400117E+04  0.7818609E-02  0.8953734E-01
        4   -1    0    0  501    0  0.00000000000E+00  0.00000000000E+00  0.11530570037E+04  0.11530577031E+04  0.12699999809E+01 0.  1.
       -4   -1    0    0    0  501  0.00000000000E+00  0.00000000000E+00 -0.42502645902E+03  0.42502835643E+03  0.12699999809E+01 0. -1.
    10030    2    1    2    0    0  0.00000000000E+00  0.00000000000E+00  0.72803054472E+03  0.15780860596E+04  0.14001168299E+04 0.  0.
        3    1    3    3  502    0  0.40429939689E+03  0.38170935406E+03  0.84343045799E+03  0.10102153142E+04  0.10100000352E+00 0.  1.
       -3    1    3    3    0  502 -0.40429939689E+03 -0.38170935406E+03 -0.11539991328E+03  0.56787074541E+03  0.10100000352E+00 0. -1.
</event>
<event>
 5   0  0.6671375E-05  0.1401160E+04  0.7818609E-02  0.8952979E-01
       -1   -1    0    0    0  501  0.00000000000E+00  0.00000000000E+00  0.48981008630E+03  0.48981008633E+03  0.50400001928E-02 0.  1.
        1   -1    0    0  501    0  0.00000000000E+00  0.00000000000E+00 -0.10020469145E+04  0.10020469145E+04  0.50400001928E-02 0. -1.
    10030    2    1    2    0    0  0.00000000000E+00  0.00000000000E+00 -0.51223682819E+03  0.14918570008E+04  0.14011604986E+04 0.  0.
        5    1    3    3  502    0 -0.37157940692E+03  0.19784061676E+03 -0.85234646207E+03  0.95064648881E+03  0.46999998093E+01 0. -1.
       -5    1    3    3    0  502  0.37157940692E+03 -0.19784061676E+03  0.34010963387E+03  0.54121051203E+03  0.46999998093E+01 0.  1.
</event>
<event>
 5   0  0.6671375E-05  0.1401437E+04  0.7818609E-02  0.8952779E-01
        1   -1    0    0  501    0  0.00000000000E+00  0.00000000000E+00  0.12323432086E+04  0.12323432086E+04  0.50400001928E-02 0. -1.
       -1   -1    0    0    0  501  0.00000000000E+00  0.00000000000E+00 -0.39843310077E+03  0.39843310080E+03  0.50400001928E-02 0.  1.
    10030    2    1    2    0    0  0.00000000000E+00  0.00000000000E+00  0.83391010787E+03  0.16307763094E+04  0.14014368710E+04 0.  0.
        5    1    3    3  502    0  0.55915138743E+03 -0.11665581160E+03  0.88923675406E+03  0.10568930633E+04  0.46999998093E+01 0. -1.
       -5    1    3    3    0  502 -0.55915138743E+03  0.11665581160E+03 -0.55326646194E+02  0.57388324616E+03  0.46999998093E+01 0.  1.
</event>
<event>
 5   0  0.9828111E-05  0.1399778E+04  0.7818609E-02  0.8953980E-01
        1   -1    0    0  501    0  0.00000000000E+00  0.00000000000E+00  0.91127648343E+03  0.91127648344E+03  0.50400001928E-02 0. -1.
       -1   -1    0    0    0  501  0.00000000000E+00  0.00000000000E+00 -0.53753641617E+03  0.53753641620E+03  0.50400001928E-02 0.  1.
    10030    2    1    2    0    0  0.00000000000E+00  0.00000000000E+00  0.37374006725E+03  0.14488128996E+04  0.13997775467E+04 0.  0.
        4    1    3    3  502    0  0.26913656502E+03  0.13644238640E+03 -0.46675145015E+03  0.55579631571E+03  0.12699999809E+01 0.  1.
       -4    1    3    3    0  502 -0.26913656502E+03 -0.13644238640E+03  0.84049151740E+03  0.89301658393E+03  0.12699999809E+01 0. -1.
</event>
<event>
 5   0  0.9260916E-05  0.1400581E+04  0.7818609E-02  0.8953398E-01
        1   -1    0    0  501    0  0.00000000000E+00  0.00000000000E+00  0.45322082238E+03  0.45322082241E+03  0.50400001928E-02 0.  1.
       -1   -1    0    0    0  501  0.00000000000E+00  0.00000000000E+00 -0.10820480375E+04  0.10820480375E+04  0.50400001928E-02 0. -1.
    10030    2    1    2    0    0  0.00000000000E+00  0.00000000000E+00 -0.62882721512E+03  0.15352688599E+04  0.14005808816E+04 0.  0.
        1    1    3    3  502    0 -0.68527681502E+03  0.11634050062E+03 -0.22096731441E+03  0.72935997927E+03  0.50400001928E-02 0.  1.
       -1    1    3    3    0  502  0.68527681502E+03 -0.11634050062E+03 -0.40785990071E+03  0.80590888066E+03  0.50400001928E-02 0. -1.
</event>
<event>
 5   0  0.1833681E-04  0.1399485E+04  0.7818609E-02  0.8954192E-01
       -2   -1    0    0    0  501  0.00000000000E+00  0.00000000000E+00  0.45973273953E+03  0.45973273954E+03  0.25500000920E-02 0.  1.
        2   -1    0    0  501    0  0.00000000000E+00  0.00000000000E+00 -0.10650521541E+04  0.10650521541E+04  0.25500000920E-02 0. -1.
    10030    2    1    2    0    0  0.00000000000E+00  0.00000000000E+00 -0.60531941461E+03  0.15247848937E+04  0.13994846831E+04 0.  0.
        4    1    3    3  502    0  0.30624582896E+03  0.44287958038E+03  0.18423958369E+03  0.56909987487E+03  0.12699999809E+01 0.  1.
       -4    1    3    3    0  502 -0.30624582896E+03 -0.44287958038E+03 -0.78955899830E+03  0.95568501881E+03  0.12699999809E+01 0. -1.
</event>
<event>
 5   0  0.1780171E-04  0.1401409E+04  0.7818609E-02  0.8952799E-01
       -2   -1    0    0    0  501  0.00000000000E+00  0.00000000000E+00  0.31670131646E+03  0.31670131647E+03  0.25500000920E-02 0.  1.
        2   -1    0    0  501    0  0.00000000000E+00  0.00000000000E+00 -0.15503159231E+04  0.15503159231E+04  0.25500000920E-02 0. -1.
    10030    2    1    2    0    0  0.00000000000E+00  0.00000000000E+00 -0.12336146067E+04  0.18670172396E+04  0.14014094245E+04 0.  0.
        5    1    3    3  502    0  0.24519274660E+03  0.29018685326E+03 -0.14011770285E+04  0.14517737592E+04  0.46999998093E+01 0. -1.
       -5    1    3    3    0  502 -0.24519274660E+03 -0.29018685326E+03  0.16756242183E+03  0.41524348038E+03  0.46999998093E+01 0.  1.
</event>
<event>
 5   0  0.6671375E-05  0.1399842E+04  0.7818609E-02  0.8953933E-01
       -1   -1    0    0    0  501  0.00000000000E+00  0.00000000000E+00  0.48067084537E+03  0.48067084540E+03  0.50400001928E-02 0. -1.
        1   -1    0    0  501    0  0.00000000000E+00  0.00000000000E+00 -0.10191780756E+04  0.10191780756E+04  0.50400001928E-02 0.  1.
    10030    2    1    2    0    0  0.00000000000E+00  0.00000000000E+00 -0.53850723022E+03  0.14998489210E+04  0.13998416871E+04 0.  0.
        5    1    3    3  502    0 -0.64457996104E+03 -0.25607545326E+03 -0.36981591166E+03  0.78603044626E+03  0.46999998093E+01 0. -1.
       -5    1    3    3    0  502  0.64457996104E+03  0.25607545326E+03 -0.16869131857E+03  0.71381847475E+03  0.46999998093E+01 0.  1.
</event>
<event>
 5   0  0.1712327E-04  0.1400693E+04  0.7818609E-02  0.8953317E-01
        2   -1    0    0  501    0  0.00000000000E+00  0.00000000000E+00  0.15852873216E+04  0.15852873216E+04  0.25500000920E-02 0. -1.
       -2   -1    0    0    0  501  0.00000000000E+00  0.00000000000E+00 -0.30939816153E+03  0.30939816154E+03  0.25500000920E-02 0.  1.
    10030    2    1    2    0    0  0.00000000000E+00  0.00000000000E+00  0.12758891600E+04  0.18946854831E+04  0.14006926612E+04 0.  0.
        1    1    3    3  502    0  0.54106422782E+03  0.19322982973E+03  0.11796859628E+04  0.13121536634E+04  0.50400001928E-02 0. -1.
       -1    1    3    3    0  502 -0.54106422782E+03 -0.19322982973E+03  0.96203197272E+02  0.58253181966E+03  0.50400001928E-02 0.  1.
</event>
<event>
 5   0  0.1794185E-04  0.1403248E+04  0.7818609E-02  0.8951471E-01
        2   -1    0    0  501    0  0.00000000000E+00  0.00000000000E+00  0.14180174784E+04  0.14180174784E+04  0.25500000920E-02 0.  1.
       -2   -1    0    0    0  501  0.00000000000E+00  0.00000000000E+00 -0.34715808080E+03  0.34715808080E+03  0.25500000920E-02 0. -1.
    10030    2    1    2    0    0  0.00000000000E+00  0.00000000000E+00  0.10708593976E+04  0.17651755592E+04  0.14032479843E+04 0.  0.
        2    1    3    3  502    0 -0.20688686868E+03 -0.25115772567E+03  0.13173609654E+04  0.13569533127E+04  0.25500000920E-02 0.  1.
       -2    1    3    3    0  502  0.20688686868E+03  0.25115772567E+03 -0.24650156783E+03  0.40822224651E+03  0.25500000920E-02 0. -1.
</event>
<event>
 5   0  0.1794185E-04  0.1397102E+04  0.7818609E-02  0.8955919E-01
       -2   -1    0    0    0  501  0.00000000000E+00  0.00000000000E+00  0.35429764258E+03  0.35429764259E+03  0.25500000920E-02 0.  1.
        2   -1    0    0  501    0  0.00000000000E+00  0.00000000000E+00 -0.13772989579E+04  0.13772989579E+04  0.25500000920E-02 0. -1.
    10030    2    1    2    0    0  0.00000000000E+00  0.00000000000E+00 -0.10230013153E+04  0.17315966005E+04  0.13971023927E+04 0.  0.
        2    1    3    3  502    0 -0.52808158048E+03  0.12573426831E+03  0.33413698709E+02  0.54387106665E+03  0.25500000920E-02 0.  1.
       -2    1    3    3    0  502  0.52808158048E+03 -0.12573426831E+03 -0.10564150140E+04  0.11877255339E+04  0.25500000920E-02 0. -1.
</event>
<event>
 5   0  0.9828111E-05  0.1387386E+04  0.7818609E-02  0.8963000E-01
       -1   -1    0    0    0  501  0.00000000000E+00  0.00000000000E+00  0.59826160706E+03  0.59826160708E+03  0.50400001928E-02 0. -1.
        1   -1    0    0  501    0  0.00000000000E+00  0.00000000000E+00 -0.80434731885E+03  0.80434731887E+03  0.50400001928E-02 0.  1.
    10030    2    1    2    0    0  0.00000000000E+00  0.00000000000E+00 -0.20608571179E+03  0.14026089260E+04  0.13873862038E+04 0.  0.
        4    1    3    3  502    0 -0.48821779548E+03  0.20035081840E+03  0.35213209777E+03  0.63442548297E+03  0.12699999809E+01 0. -1.
       -4    1    3    3    0  502  0.48821779548E+03 -0.20035081840E+03 -0.55821780956E+03  0.76818344298E+03  0.12699999809E+01 0.  1.
</event>
<event>
 5   0  0.9260916E-05  0.1397480E+04  0.7818609E-02  0.8955644E-01
        1   -1    0    0  501    0  0.00000000000E+00  0.00000000000E+00  0.16059515471E+04  0.16059515471E+04  0.50400001928E-02 0.  1.
       -1   -1    0    0    0  501  0.00000000000E+00  0.00000000000E+00 -0.30401782601E+03  0.30401782605E+03  0.50400001928E-02 0. -1.
    10030    2    1    2    0    0  0.00000000000E+00  0.00000000000E+00  0.13019337211E+04  0.19099693732E+04  0.13974804443E+04 0.  0.
        1    1    3    3  502    0 -0.31825776635E+03 -0.38209907719E+03  0.13218460158E+04  0.14122905509E+04  0.50400001928E-02 0.  1.
       -1    1    3    3    0  502  0.31825776635E+03  0.38209907719E+03 -0.19912294693E+02  0.49767882228E+03  0.50400001928E-02 0. -1.
</event>
<event>
 5   0  0.1780171E-04  0.1392926E+04  0.7818609E-02  0.8958955E-01
       -2   -1    0    0    0  501  0.00000000000E+00  0.00000000000E+00  0.68553684722E+03  0.68553684723E+03  0.25500000920E-02 0.  1.
        2   -1    0    0  501    0  0.00000000000E+00  0.00000000000E+00 -0.70756338213E+03  0.70756338214E+03  0.25500000920E-02 0. -1.
    10030    2    1    2    0    0  0.00000000000E+00  0.00000000000E+00 -0.22026534912E+02  0.13931002294E+04  0.13929260859E+04 0.  0.
        5    1    3    3  502    0 -0.25077236785E+02 -0.24825258725E+02  0.68462636203E+03  0.68555124306E+03  0.46999998093E+01 0.  1.
       -5    1    3    3    0  502  0.25077236785E+02  0.24825258725E+02 -0.70665289694E+03  0.70754898631E+03  0.46999998093E+01 0. -1.
</event>
<event>
 5   0  0.6671375E-05  0.1358452E+04  0.7818609E-02  0.8984454E-01
        1   -1    0    0  501    0  0.00000000000E+00  0.00000000000E+00  0.60938410042E+03  0.60938410044E+03  0.50400001928E-02 0. -1.
       -1   -1    0    0    0  501  0.00000000000E+00  0.00000000000E+00 -0.75707279372E+03  0.75707279374E+03  0.50400001928E-02 0.  1.
    10030    2    1    2    0    0  0.00000000000E+00  0.00000000000E+00 -0.14768869331E+03  0.13664568942E+04  0.13584522419E+04 0.  0.
        5    1    3    3  502    0 -0.27295137888E+03 -0.57690229504E+03 -0.30760847864E+03  0.70849402213E+03  0.46999998093E+01 0.  1.
       -5    1    3    3    0  502  0.27295137888E+03  0.57690229504E+03  0.15991978534E+03  0.65796287205E+03  0.46999998093E+01 0. -1.
</event>
<event>
 5   0  0.1794185E-04  0.1429551E+04  0.7818609E-02  0.8932701E-01
        2   -1    0    0  501    0  0.00000000000E+00  0.00000000000E+00  0.40149618922E+03  0.40149618923E+03  0.25500000920E-02 0.  1.
       -2   -1    0    0    0  501  0.00000000000E+00  0.00000000000E+00 -0.12725011167E+04  0.12725011167E+04  0.25500000920E-02 0. -1.
    10030    2    1    2    0    0  0.00000000000E+00  0.00000000000E+00 -0.87100492746E+03  0.16739973059E+04  0.14295514669E+04 0.  0.
        2    1    3    3  502    0 -0.31644304030E+03 -0.43242865762E+03 -0.98943820884E+03  0.11252194056E+04  0.25500000920E-02 0. -1.
       -2    1    3    3    0  502  0.31644304030E+03  0.43242865762E+03  0.11843328138E+03  0.54877790028E+03  0.25500000920E-02 0.  1.
</event>
<event>
 5   0  0.1833681E-04  0.1400510E+04  0.7818609E-02  0.8953449E-01
       -2   -1    0    0    0  501  0.00000000000E+00  0.00000000000E+00  0.24289518178E+03  0.24289518180E+03  0.25500000920E-02 0. -1.
        2   -1    0    0  501    0  0.00000000000E+00  0.00000000000E+00 -0.20188017683E+04  0.20188017683E+04  0.25500000920E-02 0.  1.
    10030    2    1    2    0    0  0.00000000000E+00  0.00000000000E+00 -0.17759065865E+04  0.22616969501E+04  0.14005102249E+04 0.  0.
        4    1    3    3  502    0 -0.68117442672E+03  0.11580798489E+03 -0.70421152602E+03  0.98657264064E+03  0.12699999809E+01 0. -1.
       -4    1    3    3    0  502  0.68117442672E+03 -0.11580798489E+03 -0.10716950605E+04  0.12751243095E+04  0.12699999809E+01 0.  1.
</event>
<event>
 5   0  0.9828111E-05  0.1402244E+04  0.7818609E-02  0.8952196E-01
        1   -1    0    0  501    0  0.00000000000E+00  0.00000000000E+00  0.38159177069E+03  0.38159177072E+03  0.50400001928E-02 0. -1.
       -1   -1    0    0    0  501  0.00000000000E+00  0.00000000000E+00 -0.12882147346E+04  0.12882147346E+04  0.50400001928E-02 0.  1.
    10030    2    1    2    0    0  0.00000000000E+00  0.00000000000E+00 -0.90662296389E+03  0.16698065053E+04  0.14022441180E+04 0.  0.
        4    1    3    3  502    0  0.66701540130E+03 -0.19728640679E+03 -0.55806932323E+03  0.89178161805E+03  0.12699999809E+01 0. -1.
       -4    1    3    3    0  502 -0.66701540130E+03  0.19728640679E+03 -0.34855364066E+03  0.77802488725E+03  0.12699999809E+01 0.  1.
</event>
<event>
 5   0  0.1780171E-04  0.1400651E+04  0.7818609E-02  0.8953348E-01
       -2   -1    0    0    0  501  0.00000000000E+00  0.00000000000E+00  0.77430859079E+03  0.77430859080E+03  0.25500000920E-02 0.  1.
        2   -1    0    0  501    0  0.00000000000E+00  0.00000000000E+00 -0.63341116674E+03  0.63341116674E+03  0.25500000920E-02 0. -1.
    10030    2    1    2    0    0  0.00000000000E+00  0.00000000000E+00  0.14089742405E+03  0.14077197575E+04  0.14006508600E+04 0.  0.
        5    1    3    3  502    0 -0.31789477576E+02 -0.33046244093E+03  0.69017858995E+03  0.76588809351E+03  0.46999998093E+01 0.  1.
       -5    1    3    3    0  502  0.31789477576E+02  0.33046244093E+03 -0.54928116590E+03  0.64183166403E+03  0.46999998093E+01 0. -1.
</event>
<event>
 5   0  0.1766237E-04  0.1402594E+04  0.7818609E-02  0.8951943E-01
       -2   -1    0    0    0  501  0.00000000000E+00  0.00000000000E+00  0.76545759550E+03  0.76545759551E+03  0.25500000920E-02 0.  1.
        2   -1    0    0  501    0  0.00000000000E+00  0.00000000000E+00 -0.64251423861E+03  0.64251423862E+03  0.25500000920E-02 0. -1.
    10030    2    1    2    0    0  0.00000000000E+00  0.00000000000E+00  0.12294335689E+03  0.14079718341E+04  0.14025938887E+04 0.  0.
        3    1    3    3  502    0  0.47091212364E+03 -0.34363062594E+03 -0.32986556826E+03  0.66981455538E+03  0.10100000352E+00 0. -1.
       -3    1    3    3    0  502 -0.47091212364E+03  0.34363062594E+03  0.45280892515E+03  0.73815727875E+03  0.10100000352E+00 0.  1.
</event>
<event>
 5   0  0.1833681E-04  0.1398603E+04  0.7818609E-02  0.8954830E-01
        2   -1    0    0  501    0  0.00000000000E+00  0.00000000000E+00  0.77403879645E+03  0.77403879645E+03  0.25500000920E-02 0.  1.
       -2   -1    0    0    0  501  0.00000000000E+00  0.00000000000E+00 -0.63178067516E+03  0.63178067517E+03  0.25500000920E-02 0. -1.
    10030    2    1    2    0    0  0.00000000000E+00  0.00000000000E+00  0.14225812129E+03  0.14058194716E+04  0.13986032367E+04 0.  0.
        4    1    3    3  502    0 -0.25988100137E+03 -0.17417768694E+03  0.69977193043E+03  0.76652356064E+03  0.12699999809E+01 0.  1.
       -4    1    3    3    0  502  0.25988100137E+03  0.17417768694E+03 -0.55751380914E+03  0.63929591097E+03  0.12699999809E+01 0. -1.
</event>
<event>
 5   0  0.9978422E-05  0.1399064E+04  0.7818609E-02  0.8954496E-01
        1   -1    0    0  501    0  0.00000000000E+00  0.00000000000E+00  0.29718456420E+03  0.29718456424E+03  0.50400001928E-02 0. -1.
       -1   -1    0    0    0  501  0.00000000000E+00  0.00000000000E+00 -0.16466036124E+04  0.16466036124E+04  0.50400001928E-02 0.  1.
    10030    2    1    2    0    0  0.00000000000E+00  0.00000000000E+00 -0.13494190482E+04  0.19437881767E+04  0.13990642259E+04 0.  0.
        2    1    3    3  502    0  0.15502407796E+03  0.54979253430E+03 -0.12357052361E+04  0.13613492300E+04  0.25500000920E-02 0.  1.
       -2    1    3    3    0  502 -0.15502407796E+03 -0.54979253430E+03 -0.11371381212E+03  0.58243894666E+03  0.25500000920E-02 0. -1.
</event>
<event>
 5   0  0.1780171E-04  0.1399377E+04  0.7818609E-02  0.8954269E-01
       -2   -1    0    0    0  501  0.00000000000E+00  0.00000000000E+00  0.18082103927E+03  0.18082103929E+03  0.25500000920E-02 0. -1.
        2   -1    0    0  501    0  0.00000000000E+00  0.00000000000E+00 -0.27074519324E+04  0.27074519324E+04  0.25500000920E-02 0.  1.
    10030    2    1    2    0    0  0.00000000000E+00  0.00000000000E+00 -0.25266308931E+04  0.28882729717E+04  0.13993773933E+04 0.  0.
        5    1    3    3  502    0 -0.24124632912E+03  0.20967735918E+03 -0.25479238078E+04  0.25678984027E+04  0.46999998093E+01 0.  1.
       -5    1    3    3    0  502  0.24124632912E+03 -0.20967735918E+03  0.21292914641E+02  0.32037456902E+03  0.46999998093E+01 0. -1.
</event>
<event>
 5   0  0.6671375E-05  0.1394808E+04  0.7818609E-02  0.8957586E-01
        1   -1    0    0  501    0  0.00000000000E+00  0.00000000000E+00  0.96264710119E+03  0.96264710121E+03  0.50400001928E-02 0.  1.
       -1   -1    0    0    0  501  0.00000000000E+00  0.00000000000E+00 -0.50524449260E+03  0.50524449263E+03  0.50400001928E-02 0. -1.
    10030    2    1    2    0    0  0.00000000000E+00  0.00000000000E+00  0.45740260859E+03  0.14678915938E+04  0.13948077233E+04 0.  0.
        5    1    3    3  502    0 -0.49376213877E+03  0.93524075666E+02  0.73756795140E+03  0.89251127463E+03  0.46999998093E+01 0.  1.
       -5    1    3    3    0  502  0.49376213877E+03 -0.93524075666E+02 -0.28016534281E+03  0.57538031920E+03  0.46999998093E+01 0. -1.
</event>
<event>
 5   0  0.1833681E-04  0.1400956E+04  0.7818609E-02  0.8953127E-01
       -2   -1    0    0    0  501  0.00000000000E+00  0.00000000000E+00  0.74545583140E+03  0.74545583140E+03  0.25500000920E-02 0. -1.
        2   -1    0    0  501    0  0.00000000000E+00  0.00000000000E+00 -0.65821426665E+03  0.65821426665E+03  0.25500000920E-02 0.  1.
    10030    2    1    2    0    0  0.00000000000E+00  0.00000000000E+00  0.87241564750E+02  0.14036700981E+04  0.14009563354E+04 0.  0.
        4    1    3    3  502    0 -0.64095082215E+03  0.13429634278E+03 -0.20548621829E+03  0.68635243345E+03  0.12699999809E+01 0.  1.
       -4    1    3    3    0  502  0.64095082215E+03 -0.13429634278E+03  0.29272778304E+03  0.71731766461E+03  0.12699999809E+01 0. -1.
</event>
<event>
 5   0  0.9260916E-05  0.1400539E+04  0.7818609E-02  0.8953428E-01
        1   -1    0    0  501    0  0.00000000000E+00  0.00000000000E+00  0.77740866580E+03  0.77740866582E+03  0.50400001928E-02 0.  1.
       -1   -1    0    0    0  501  0.00000000000E+00  0.00000000000E+00 -0.63078491634E+03  0.63078491636E+03  0.50400001928E-02 0. -1.
    10030    2    1    2    0    0  0.00000000000E+00  0.00000000000E+00  0.14662374946E+03  0.14081935822E+04  0.14005394107E+04 0.  0.
        1    1    3    3  502    0 -0.69297941525E+02 -0.69621419602E+03  0.43804447914E+02  0.70102442263E+03  0.50400001928E-02 0. -1.
       -1    1    3    3    0  502  0.69297941525E+02  0.69621419602E+03  0.10281930154E+03  0.70716915956E+03  0.50400001928E-02 0.  1.
</event>
<event>
 5   0  0.1780171E-04  0.1393484E+04  0.7818609E-02  0.8958548E-01
       -2   -1    0    0    0  501  0.00000000000E+00  0.00000000000E+00  0.88235593209E+03  0.88235593209E+03  0.25500000920E-02 0. -1.
        2   -1    0    0  501    0  0.00000000000E+00  0.00000000000E+00 -0.55017440423E+03  0.55017440424E+03  0.25500000920E-02 0.  1.
    10030    2    1    2    0    0  0.00000000000E+00  0.00000000000E+00  0.33218152786E+03  0.14325303363E+04  0.13934843369E+04 0.  0.
        5    1    3    3  502    0 -0.37491354214E+03  0.44960913952E+03 -0.22227653883E+03  0.62620882470E+03  0.46999998093E+01 0.  1.
       -5    1    3    3    0  502  0.37491354214E+03 -0.44960913952E+03  0.55445806669E+03  0.80632151164E+03  0.46999998093E+01 0. -1.
</event>
<event>
 5   0  0.6671375E-05  0.1400908E+04  0.7818609E-02  0.8953162E-01
        1   -1    0    0  501    0  0.00000000000E+00  0.00000000000E+00  0.22000450421E+04  0.22000450421E+04  0.50400001928E-02 0.  1.
       -1   -1    0    0    0  501  0.00000000000E+00  0.00000000000E+00 -0.22301159059E+03  0.22301159065E+03  0.50400001928E-02 0. -1.
    10030    2    1    2    0    0  0.00000000000E+00  0.00000000000E+00  0.19770334515E+04  0.24230566328E+04  0.14009076262E+04 0.  0.
        5    1    3    3  502    0 -0.16864026385E+03  0.67064994027E+03  0.79589291665E+03  0.10543616579E+04  0.46999998093E+01 0. -1.
       -5    1    3    3    0  502  0.16864026385E+03 -0.67064994027E+03  0.11811405349E+04  0.13686949748E+04  0.46999998093E+01 0.  1.
</event>
<event>
 5   0  0.6671375E-05  0.1398847E+04  0.7818609E-02  0.8954653E-01
       -1   -1    0    0    0  501  0.00000000000E+00  0.00000000000E+00  0.29929530628E+03  0.29929530633E+03  0.50400001928E-02 0. -1.
        1   -1    0    0  501    0  0.00000000000E+00  0.00000000000E+00 -0.16344843508E+04  0.16344843508E+04  0.50400001928E-02 0.  1.
    10030    2    1    2    0    0  0.00000000000E+00  0.00000000000E+00 -0.13351890445E+04  0.19337796571E+04  0.13988473747E+04 0.  0.
        5    1    3    3  502    0  0.16334320722E+03 -0.26942546574E+03  0.19560949068E+03  0.37088576109E+03  0.46999998093E+01 0. -1.
       -5    1    3    3    0  502 -0.16334320722E+03  0.26942546574E+03 -0.15307985352E+04  0.15628938960E+04  0.46999998093E+01 0.  1.
</event>
<event>
 5   0  0.1780171E-04  0.1401097E+04  0.7818609E-02  0.8953025E-01
        2   -1    0    0  501    0  0.00000000000E+00  0.00000000000E+00  0.44322853456E+03  0.44322853457E+03  0.25500000920E-02 0. -1.
       -2   -1    0    0    0  501  0.00000000000E+00  0.00000000000E+00 -0.11072583124E+04  0.11072583124E+04  0.25500000920E-02 0.  1.
    10030    2    1    2    0    0  0.00000000000E+00  0.00000000000E+00 -0.66402977785E+03  0.15504868470E+04  0.14010973973E+04 0.  0.
        5    1    3    3  502    0  0.61868921978E+03 -0.11885606100E+03 -0.67101616935E+03  0.92042810879E+03  0.46999998093E+01 0.  1.
       -5    1    3    3    0  502 -0.61868921978E+03  0.11885606100E+03  0.69863915010E+01  0.63005873820E+03  0.46999998093E+01 0. -1.
</event>
<event>
 5   0  0.9828111E-05  0.1400684E+04  0.7818609E-02  0.8953324E-01
       -1   -1    0    0    0  501  0.00000000000E+00  0.00000000000E+00  0.56043895085E+03  0.56043895087E+03  0.50400001928E-02 0. -1.
        1   -1    0    0  501    0  0.00000000000E+00  0.00000000000E+00 -0.87516935134E+03  0.87516935135E+03  0.50400001928E-02 0.  1.
    10030    2    1    2    0    0  0.00000000000E+00  0.00000000000E+00 -0.31473040049E+03  0.14356083022E+04  0.14006841087E+04 0.  0.
        4    1    3    3  502    0  0.58982815264E+02  0.31594748405E+02  0.55715411713E+03  0.56115908952E+03  0.12699999809E+01 0. -1.
       -4    1    3    3    0  502 -0.58982815264E+02 -0.31594748405E+02 -0.87188451762E+03  0.87444921270E+03  0.12699999809E+01 0.  1.
</event>
<event>
 5   0  0.9828111E-05  0.1400151E+04  0.7818609E-02  0.8953709E-01
        1   -1    0    0  501    0  0.00000000000E+00  0.00000000000E+00  0.10688855421E+04  0.10688855421E+04  0.50400001928E-02 0.  1.
       -1   -1    0    0    0  501  0.00000000000E+00  0.00000000000E+00 -0.45852046120E+03  0.45852046123E+03  0.50400001928E-02 0. -1.
    10030    2    1    2    0    0  0.00000000000E+00  0.00000000000E+00  0.61036508085E+03  0.15274060033E+04  0.14001512658E+04 0.  0.
        4    1    3    3  502    0  0.23185372971E+03  0.57709750190E+03  0.65580809896E+03  0.90381610643E+03  0.12699999809E+01 0.  1.
       -4    1    3    3    0  502 -0.23185372971E+03 -0.57709750190E+03 -0.45443018105E+02  0.62358989687E+03  0.12699999809E+01 0. -1.
</event>
<event>
 5   0  0.6671375E-05  0.1396638E+04  0.7818609E-02  0.8956256E-01
        1   -1    0    0  501    0  0.00000000000E+00  0.00000000000E+00  0.52302149081E+03  0.52302149083E+03  0.50400001928E-02 0. -1.
       -1   -1    0    0    0  501  0.00000000000E+00  0.00000000000E+00 -0.93237013051E+03  0.93237013053E+03  0.50400001928E-02 0.  1.
    10030    2    1    2    0    0  0.00000000000E+00  0.00000000000E+00 -0.40934863970E+03  0.14553916214E+04  0.13966382720E+04 0.  0.
        5    1    3    3  502    0 -0.39445530268E+03  0.42499848105E+02 -0.80350185626E+03  0.89612417996E+03  0.46999998093E+01 0.  1.
       -5    1    3    3    0  502  0.39445530268E+03 -0.42499848105E+02  0.39415321655E+03  0.55926744140E+03  0.46999998093E+01 0. -1.
</event>
<event>
 5   0  0.9828111E-05  0.1400266E+04  0.7818609E-02  0.8953626E-01
        1   -1    0    0  501    0  0.00000000000E+00  0.00000000000E+00  0.70262421942E+03  0.70262421944E+03  0.50400001928E-02 0. -1.
       -1   -1    0    0    0  501  0.00000000000E+00  0.00000000000E+00 -0.69765094169E+03  0.69765094170E+03  0.50400001928E-02 0.  1.
    10030    2    1    2    0    0  0.00000000000E+00  0.00000000000E+00  0.49732777394E+01  0.14002751611E+04  0.14002663295E+04 0.  0.
        4    1    3    3  502    0 -0.87694779335E+02 -0.51465697794E+03  0.46899001652E+03  0.70179443412E+03  0.12699999809E+01 0. -1.
       -4    1    3    3    0  502  0.87694779335E+02  0.51465697794E+03 -0.46401673878E+03  0.69848072703E+03  0.12699999809E+01 0.  1.
</event>
<event>
 5   0  0.9828111E-05  0.1398312E+04  0.7818609E-02  0.8955042E-01
        1   -1    0    0  501    0  0.00000000000E+00  0.00000000000E+00  0.12262185395E+04  0.12262185396E+04  0.50400001928E-02 0. -1.
       -1   -1    0    0    0  501  0.00000000000E+00  0.00000000000E+00 -0.39863928096E+03  0.39863928099E+03  0.50400001928E-02 0.  1.
    10030    2    1    2    0    0  0.00000000000E+00  0.00000000000E+00  0.82757925858E+03  0.16248578205E+04  0.13983116633E+04 0.  0.
        4    1    3    3  502    0 -0.24375139867E+03 -0.59228249904E+03  0.73957651693E+03  0.97836002592E+03  0.12699999809E+01 0. -1.
       -4    1    3    3    0  502  0.24375139867E+03  0.59228249904E+03  0.88002741651E+02  0.64649779463E+03  0.12699999809E+01 0.  1.
</event>
<event>
 5   0  0.9828111E-05  0.1399892E+04  0.7818609E-02  0.8953897E-01
       -1   -1    0    0    0  501  0.00000000000E+00  0.00000000000E+00  0.87333181053E+03  0.87333181054E+03  0.50400001928E-02 0.  1.
        1   -1    0    0  501    0  0.00000000000E+00  0.00000000000E+00 -0.56098272766E+03  0.56098272769E+03  0.50400001928E-02 0. -1.
    10030    2    1    2    0    0  0.00000000000E+00  0.00000000000E+00  0.31234908287E+03  0.14343145382E+04  0.13998915119E+04 0.  0.
        4    1    3    3  502    0 -0.83744772604E+02 -0.10035472329E+03  0.86071557756E+03  0.87058438751E+03  0.12699999809E+01 0.  1.
       -4    1    3    3    0  502  0.83744772604E+02  0.10035472329E+03 -0.54836649469E+03  0.56373015072E+03  0.12699999809E+01 0. -1.
</event>
<event>
 5   0  0.9260916E-05  0.1399470E+04  0.7818609E-02  0.8954202E-01
       -1   -1    0    0    0  501  0.00000000000E+00  0.00000000000E+00  0.25532496609E+03  0.25532496614E+03  0.50400001928E-02 0.  1.
        1   -1    0    0  501    0  0.00000000000E+00  0.00000000000E+00 -0.19176714490E+04  0.19176714490E+04  0.50400001928E-02 0. -1.
    10030    2    1    2    0    0  0.00000000000E+00  0.00000000000E+00 -0.16623464829E+04  0.21729964151E+04  0.13994704681E+04 0.  0.
        1    1    3    3  502    0 -0.17035005280E+03 -0.60793055767E+03 -0.12996512393E+04  0.14448847869E+04  0.50400001928E-02 0. -1.
       -1    1    3    3    0  502  0.17035005280E+03  0.60793055767E+03 -0.36269524353E+03  0.72811162822E+03  0.50400001928E-02 0.  1.
</event>
<event>
 5   0  0.1794185E-04  0.1399848E+04  0.7818609E-02  0.8953929E-01
        2   -1    0    0  501    0  0.00000000000E+00  0.00000000000E+00  0.13295068291E+04  0.13295068291E+04  0.25500000920E-02 0. -1.
       -2   -1    0    0    0  501  0.00000000000E+00  0.00000000000E+00 -0.36847768352E+03  0.36847768353E+03  0.25500000920E-02 0.  1.
    10030    2    1    2    0    0  0.00000000000E+00  0.00000000000E+00  0.96102914558E+03  0.16979845126E+04  0.13998479869E+04 0.  0.
        2    1    3    3  502    0 -0.11739514401E+03 -0.82583069500E+02 -0.35043454154E+03  0.37868978217E+03  0.25500000920E-02 0.  1.
       -2    1    3    3    0  502  0.11739514401E+03  0.82583069500E+02  0.13114636871E+04  0.13192947305E+04  0.25500000920E-02 0. -1.
</event>
<event>
 5   0  0.9260916E-05  0.1400637E+04  0.7818609E-02  0.8953358E-01
        1   -1    0    0  501    0  0.00000000000E+00  0.00000000000E+00  0.88889473440E+03  0.88889473441E+03  0.50400001928E-02 0.  1.
       -1   -1    0    0    0  501  0.00000000000E+00  0.00000000000E+00 -0.55174821237E+03  0.55174821239E+03  0.50400001928E-02 0. -1.
    10030    2    1    2    0    0  0.00000000000E+00  0.00000000000E+00  0.33714652203E+03  0.14406429468E+04  0.14006371132E+04 0.  0.
        1    1    3    3  502    0  0.25264521928E+02 -0.37418738542E+03  0.77689789896E+03  0.86268467062E+03  0.50400001928E-02 0.  1.
       -1    1    3    3    0  502 -0.25264521928E+02  0.37418738542E+03 -0.43975137693E+03  0.57795827619E+03  0.50400001928E-02 0. -1.
</event>
<event>
 5   0  0.9828111E-05  0.1399440E+04  0.7818609E-02  0.8954224E-01
        1   -1    0    0  501    0  0.00000000000E+00  0.00000000000E+00  0.92945674815E+03  0.92945674816E+03  0.50400001928E-02 0. -1.
       -1   -1    0    0    0  501  0.00000000000E+00  0.00000000000E+00 -0.52676772224E+03  0.52676772226E+03  0.50400001928E-02 0.  1.
    10030    2    1    2    0    0  0.00000000000E+00  0.00000000000E+00  0.40268902591E+03  0.14562244704E+04  0.13994396224E+04 0.  0.
        4    1    3    3  502    0 -0.54044091955E+03 -0.10222773013E+03 -0.24873270730E+03  0.60365260616E+03  0.12699999809E+01 0.  1.
       -4    1    3    3    0  502  0.54044091955E+03  0.10222773013E+03  0.65142173321E+03  0.85257186427E+03  0.12699999809E+01 0. -1.
</event>
<event>
 5   0  0.1780171E-04  0.1402228E+04  0.7818609E-02  0.8952208E-01
       -2   -1    0    0    0  501  0.00000000000E+00  0.00000000000E+00  0.98761516577E+03  0.98761516577E+03  0.25500000920E-02 0. -1.
        2   -1    0    0  501    0  0.00000000000E+00  0.00000000000E+00 -0.49772493398E+03  0.49772493399E+03  0.25500000920E-02 0.  1.
    10030    2    1    2    0    0  0.00000000000E+00  0.00000000000E+00  0.48989023179E+03  0.14853400998E+04  0.14022277892E+04 0.  0.
        5    1    3    3  502    0  0.17052070068E+03 -0.67363200838E+03  0.34364064851E+03  0.77522150214E+03  0.46999998093E+01 0. -1.
       -5    1    3    3    0  502 -0.17052070068E+03  0.67363200838E+03  0.14624958328E+03  0.71011859762E+03  0.46999998093E+01 0.  1.
</event>
<event>
 5   0  0.6671375E-05  0.1400118E+04  0.7818609E-02  0.8953733E-01
        4   -1    0    0  501    0  0.00000000000E+00  0.00000000000E+00  0.64242433036E+03  0.64242558568E+03  0.12699999809E+01 0. -1.
       -4   -1    0    0    0  501  0.00000000000E+00  0.00000000000E+00 -0.76286151172E+03  0.76286256886E+03  0.12699999809E+01 0.  1.
    10030    2    1    2    0    0  0.00000000000E+00  0.00000000000E+00 -0.12043718136E+03  0.14052881545E+04  0.14001177389E+04 0.  0.
        4    1    3    3  502    0  0.52456232328E+02  0.26530296453E+03  0.58787753526E+03  0.64710040076E+03  0.12699999809E+01 0. -1.
       -4    1    3    3    0  502 -0.52456232328E+02 -0.26530296453E+03 -0.70831471662E+03  0.75818775378E+03  0.12699999809E+01 0.  1.
</event>
<event>
 5   0  0.9900839E-05  0.1400965E+04  0.7818609E-02  0.8953120E-01
        1   -1    0    0  501    0  0.00000000000E+00  0.00000000000E+00  0.14151914803E+04  0.14151914803E+04  0.50400001928E-02 0. -1.
       -1   -1    0    0    0  501  0.00000000000E+00  0.00000000000E+00 -0.34672057668E+03  0.34672057672E+03  0.50400001928E-02 0.  1.
    10030    2    1    2    0    0  0.00000000000E+00  0.00000000000E+00  0.10684709036E+04  0.17619120571E+04  0.14009653903E+04 0.  0.
        3    1    3    3  502    0  0.56499356337E+02  0.23151294507E+03  0.13626437239E+04  0.13833251062E+04  0.10100000352E+00 0. -1.
       -3    1    3    3    0  502 -0.56499356337E+02 -0.23151294507E+03 -0.29417282023E+03  0.37858695087E+03  0.10100000352E+00 0.  1.
</event>
<event>
 5   0  0.9828111E-05  0.1398577E+04  0.7818609E-02  0.8954849E-01
        1   -1    0    0  501    0  0.00000000000E+00  0.00000000000E+00  0.93996034650E+03  0.93996034651E+03  0.50400001928E-02 0.  1.
       -1   -1    0    0    0  501  0.00000000000E+00  0.00000000000E+00 -0.52023913867E+03  0.52023913869E+03  0.50400001928E-02 0. -1.
    10030    2    1    2    0    0  0.00000000000E+00  0.00000000000E+00  0.41972120783E+03  0.14601994852E+04  0.13985766494E+04 0.  0.
        4    1    3    3  502    0  0.23762167304E+03  0.57999735506E+03  0.53358951998E+03  0.82315270765E+03  0.12699999809E+01 0.  1.
       -4    1    3    3    0  502 -0.23762167304E+03 -0.57999735506E+03 -0.11386831215E+03  0.63704677755E+03  0.12699999809E+01 0. -1.
</event>
<event>
 5   0  0.9828111E-05  0.1401229E+04  0.7818609E-02  0.8952929E-01
       -1   -1    0    0    0  501  0.00000000000E+00  0.00000000000E+00  0.34134568935E+03  0.34134568938E+03  0.50400001928E-02 0.  1.
        1   -1    0    0  501    0  0.00000000000E+00  0.00000000000E+00 -0.14380163405E+04  0.14380163405E+04  0.50400001928E-02 0. -1.
    10030    2    1    2    0    0  0.00000000000E+00  0.00000000000E+00 -0.10966706512E+04  0.17793620299E+04  0.14012290021E+04 0.  0.
        4    1    3    3  502    0  0.21728453887E+03 -0.21101258456E+03 -0.13505803774E+04  0.13841271078E+04  0.12699999809E+01 0. -1.
       -4    1    3    3    0  502 -0.21728453887E+03  0.21101258456E+03  0.25390972627E+03  0.39523492213E+03  0.12699999809E+01 0.  1.
</event>
<event>
 5   0  0.1833681E-04  0.1399162E+04  0.7818609E-02  0.8954426E-01
       -2   -1    0    0    0  501  0.00000000000E+00  0.00000000000E+00  0.47864084511E+03  0.47864084512E+03  0.25500000920E-02 0.  1.
        2   -1    0    0  501    0  0.00000000000E+00  0.00000000000E+00 -0.10225063180E+04  0.10225063180E+04  0.25500000920E-02 0. -1.
    10030    2    1    2    0    0  0.00000000000E+00  0.00000000000E+00 -0.54386547291E+03  0.15011471631E+04  0.13991615892E+04 0.  0.
        4    1    3    3  502    0  0.13118724738E+03  0.24684871975E+02  0.46484877657E+03  0.48363771023E+03  0.12699999809E+01 0.  1.
       -4    1    3    3    0  502 -0.13118724738E+03 -0.24684871975E+02 -0.10087142495E+04  0.10175094529E+04  0.12699999809E+01 0. -1.
</event>
<event>
 5   0  0.6671375E-05  0.1399092E+04  0.7818609E-02  0.8954476E-01
        1   -1    0    0  501    0  0.00000000000E+00  0.00000000000E+00  0.11906124229E+04  0.11906124229E+04  0.50400001928E-02 0.  1.
       -1   -1    0    0    0  501  0.00000000000E+00  0.00000000000E+00 -0.41101921645E+03  0.41101921648E+03  0.50400001928E-02 0. -1.
    10030    2    1    2    0    0  0.00000000000E+00  0.00000000000E+00  0.77959320648E+03  0.16016316394E+04  0.13990919701E+04 0.  0.
        5    1    3    3  502    0 -0.68674994014E+03  0.13292935331E+03  0.38196504192E+03  0.79700381210E+03  0.46999998093E+01 0.  1.
       -5    1    3    3    0  502  0.68674994014E+03 -0.13292935331E+03  0.39762816457E+03  0.80462782733E+03  0.46999998093E+01 0. -1.
</event>
<event>
 5   0  0.9900839E-05  0.1405322E+04  0.7818609E-02  0.8949975E-01
       -1   -1    0    0    0  501  0.00000000000E+00  0.00000000000E+00  0.56715643658E+03  0.56715643660E+03  0.50400001928E-02 0. -1.
        1   -1    0    0  501    0  0.00000000000E+00  0.00000000000E+00 -0.87054004816E+03  0.87054004817E+03  0.50400001928E-02 0.  1.
    10030    2    1    2    0    0  0.00000000000E+00  0.00000000000E+00 -0.30338361158E+03  0.14376964848E+04  0.14053218729E+04 0.  0.
        3    1    3    3  502    0 -0.30037843326E+03 -0.17085068202E+03 -0.77759929743E+03  0.85092763282E+03  0.10100000352E+00 0.  1.
       -3    1    3    3    0  502  0.30037843326E+03  0.17085068202E+03  0.47421568585E+03  0.58676885196E+03  0.10100000352E+00 0. -1.
</event>
<event>
 5   0  0.1794185E-04  0.1399798E+04  0.7818609E-02  0.8953965E-01
        2   -1    0    0  501    0  0.00000000000E+00  0.00000000000E+00  0.19710253742E+04  0.19710253742E+04  0.25500000920E-02 0.  1.
       -2   -1    0    0    0  501  0.00000000000E+00  0.00000000000E+00 -0.24852988466E+03  0.24852988467E+03  0.25500000920E-02 0. -1.
    10030    2    1    2    0    0  0.00000000000E+00  0.00000000000E+00  0.17224954895E+04  0.22195552588E+04  0.13997981410E+04 0.  0.
        2    1    3    3  502    0  0.65753947578E+03 -0.15932259045E+03  0.57708503791E+03  0.88925192776E+03  0.25500000920E-02 0. -1.
       -2    1    3    3    0  502 -0.65753947578E+03  0.15932259045E+03  0.11454104516E+04  0.13303033311E+04  0.25500000920E-02 0.  1.
</event>
<event>
 5   0  0.1780171E-04  0.1400097E+04  0.7818609E-02  0.8953748E-01
       -2   -1    0    0    0  501  0.00000000000E+00  0.00000000000E+00  0.29898713463E+03  0.29898713464E+03  0.25500000920E-02 0. -1.
        2   -1    0    0  501    0  0.00000000000E+00  0.00000000000E+00 -0.16390936114E+04  0.16390936114E+04  0.25500000920E-02 0.  1.
    10030    2    1    2    0    0  0.00000000000E+00  0.00000000000E+00 -0.13401064768E+04  0.19380807461E+04  0.14000969999E+04 0.  0.
        5    1    3    3  502    0  0.15085550604E+02  0.59874327126E+03 -0.11716872865E+04  0.13159005532E+04  0.46999998093E+01 0.  1.
       -5    1    3    3    0  502 -0.15085550604E+02 -0.59874327126E+03 -0.16841919033E+03  0.62218019285E+03  0.46999998093E+01 0. -1.
</event>
<event>
 5   0  0.1766237E-04  0.1401163E+04  0.7818609E-02  0.8952977E-01
        2   -1    0    0  501    0  0.00000000000E+00  0.00000000000E+00  0.64904766755E+03  0.64904766756E+03  0.25500000920E-02 0.  1.
       -2   -1    0    0    0  501  0.00000000000E+00  0.00000000000E+00 -0.75620711031E+03  0.75620711032E+03  0.25500000920E-02 0. -1.
    10030    2    1    2    0    0  0.00000000000E+00  0.00000000000E+00 -0.10715944276E+03  0.14052547779E+04  0.14011630328E+04 0.  0.
        3    1    3    3  502    0  0.14558818839E+03 -0.66774214276E+03  0.10094474570E+03  0.69084393440E+03  0.10100000352E+00 0.  1.
       -3    1    3    3    0  502 -0.14558818839E+03  0.66774214276E+03 -0.20810418846E+03  0.71441084347E+03  0.10100000352E+00 0. -1.
</event>
<event>
 5   0  0.9978422E-05  0.1399025E+04  0.7818609E-02  0.8954525E-01
       -1   -1    0    0    0  501  0.00000000000E+00  0.00000000000E+00  0.26900455082E+04  0.26900455082E+04  0.50400001928E-02 0. -1.
        1   -1    0    0  501    0  0.00000000000E+00  0.00000000000E+00 -0.18189945619E+03  0.18189945626E+03  0.50400001928E-02 0.  1.
    10030    2    1    2    0    0  0.00000000000E+00  0.00000000000E+00  0.25081460520E+04  0.28719449644E+04  0.13990251108E+04 0.  0.
        2    1    3    3  502    0 -0.45344393221E+03 -0.49005910730E+03  0.16824608696E+04  0.18100949992E+04  0.25500000920E-02 0. -1.
       -2    1    3    3    0  502  0.45344393221E+03  0.49005910730E+03  0.82568518232E+03  0.10618499652E+04  0.25500000920E-02 0.  1.
</event>
<event>
 5   0  0.1766237E-04  0.1409894E+04  0.7818609E-02  0.8946687E-01
       -2   -1    0    0    0  501  0.00000000000E+00  0.00000000000E+00  0.28291754022E+03  0.28291754023E+03  0.25500000920E-02 0.  1.
        2   -1    0    0  501    0  0.00000000000E+00  0.00000000000E+00 -0.17565208011E+04  0.17565208011E+04  0.25500000920E-02 0. -1.
    10030    2    1    2    0    0  0.00000000000E+00  0.00000000000E+00 -0.14736032609E+04  0.20394383413E+04  0.14098943853E+04 0.  0.
        3    1    3    3  502    0 -0.19006406534E+03 -0.58514309899E+03 -0.23899380556E+03  0.66002639684E+03  0.10100000352E+00 0.  1.
       -3    1    3    3    0  502  0.19006406534E+03  0.58514309899E+03 -0.12346094553E+04  0.13794119445E+04  0.10100000352E+00 0. -1.
</event>
<event>
 5   0  0.6671375E-05  0.1398485E+04  0.7818609E-02  0.8954916E-01
        1   -1    0    0  501    0  0.00000000000E+00  0.00000000000E+00  0.44031582148E+03  0.44031582151E+03  0.50400001928E-02 0. -1.
       -1   -1    0    0    0  501  0.00000000000E+00  0.00000000000E+00 -0.11104296660E+04  0.11104296660E+04  0.50400001928E-02 0.  1.
    10030    2    1    2    0    0  0.00000000000E+00  0.00000000000E+00 -0.67011384447E+03  0.15507454875E+04  0.13984845378E+04 0.  0.
        5    1    3    3  502    0  0.67683588133E+03  0.14903363783E+03 -0.23222506794E+03  0.73093666459E+03  0.46999998093E+01 0. -1.
       -5    1    3    3    0  502 -0.67683588133E+03 -0.14903363783E+03 -0.43788877653E+03  0.81980882288E+03  0.46999998093E+01 0.  1.
</event>
<event>
 5   0  0.9900839E-05  0.1398926E+04  0.7818609E-02  0.8954597E-01
        1   -1    0    0  501    0  0.00000000000E+00  0.00000000000E+00  0.19286410189E+04  0.19286410189E+04  0.50400001928E-02 0. -1.
       -1   -1    0    0    0  501  0.00000000000E+00  0.00000000000E+00 -0.25367509530E+03  0.25367509535E+03  0.50400001928E-02 0.  1.
    10030    2    1    2    0    0  0.00000000000E+00  0.00000000000E+00  0.16749659236E+04  0.21823161142E+04  0.13989255796E+04 0.  0.
        3    1    3    3  502    0  0.12659649933E+03  0.13622977518E+03  0.18893669276E+04  0.18984974644E+04  0.10100000352E+00 0. -1.
       -3    1    3    3    0  502 -0.12659649933E+03 -0.13622977518E+03 -0.21440100396E+03  0.28381864983E+03  0.10100000352E+00 0.  1.
</event>
<event>
 5   0  0.6671375E-05  0.1401961E+04  0.7818609E-02  0.8952401E-01
        1   -1    0    0  501    0  0.00000000000E+00  0.00000000000E+00  0.11113891455E+04  0.11113891455E+04  0.50400001928E-02 0.  1.
       -1   -1    0    0    0  501  0.00000000000E+00  0.00000000000E+00 -0.44212539210E+03  0.44212539213E+03  0.50400001928E-02 0. -1.
    10030    2    1    2    0    0  0.00000000000E+00  0.00000000000E+00  0.66926375337E+03  0.15535145376E+04  0.14019605725E+04 0.  0.
        5    1    3    3  502    0  0.38681892081E+03  0.46182097841E+02 -0.31110667823E+03  0.49856907133E+03  0.46999998093E+01 0. -1.
       -5    1    3    3    0  502 -0.38681892081E+03 -0.46182097841E+02  0.98037043160E+03  0.10549454663E+04  0.46999998093E+01 0.  1.
</event>
<event>
 5   0  0.9828111E-05  0.1399360E+04  0.7818609E-02  0.8954282E-01
       -1   -1    0    0    0  501  0.00000000000E+00  0.00000000000E+00  0.11017073899E+04  0.11017073899E+04  0.50400001928E-02 0. -1.
        1   -1    0    0  501    0  0.00000000000E+00  0.00000000000E+00 -0.44435794797E+03  0.44435794799E+03  0.50400001928E-02 0.  1.
    10030    2    1    2    0    0  0.00000000000E+00  0.00000000000E+00  0.65734944195E+03  0.15460653379E+04  0.13993604755E+04 0.  0.
        4    1    3    3  502    0 -0.36087026406E+03 -0.44891029784E+03 -0.11021549001E+03  0.58642720786E+03  0.12699999809E+01 0.  1.
       -4    1    3    3    0  502  0.36087026406E+03  0.44891029784E+03  0.76756493195E+03  0.95963813005E+03  0.12699999809E+01 0. -1.
</event>
<event>
 5   0  0.1833681E-04  0.1398526E+04  0.7818609E-02  0.8954886E-01
       -2   -1    0    0    0  501  0.00000000000E+00  0.00000000000E+00  0.26515948814E+03  0.26515948815E+03  0.25500000920E-02 0.  1.
        2   -1    0    0  501    0  0.00000000000E+00  0.00000000000E+00 -0.18440557631E+04  0.18440557631E+04  0.25500000920E-02 0. -1.
    10030    2    1    2    0    0  0.00000000000E+00  0.00000000000E+00 -0.15788962750E+04  0.21092152513E+04  0.13985261989E+04 0.  0.
        4    1    3    3  502    0 -0.51600100786E+03 -0.20575945109E+03 -0.14299735943E+04  0.15340860749E+04  0.12699999809E+01 0. -1.
       -4    1    3    3    0  502  0.51600100786E+03  0.20575945109E+03 -0.14892268069E+03  0.57512917640E+03  0.12699999809E+01 0.  1.
</event>
<event>
 5   0  0.9828111E-05  0.1399011E+04  0.7818609E-02  0.8954535E-01
       -1   -1    0    0    0  501  0.00000000000E+00  0.00000000000E+00  0.51260968529E+03  0.51260968531E+03  0.50400001928E-02 0.  1.
        1   -1    0    0  501    0  0.00000000000E+00  0.00000000000E+00 -0.95454275492E+03  0.95454275493E+03  0.50400001928E-02 0. -1.
    10030    2    1    2    0    0  0.00000000000E+00  0.00000000000E+00 -0.44193306963E+03  0.14671524402E+04  0.13990108809E+04 0.  0.
        4    1    3    3  502    0 -0.14807458601E+03  0.50520749071E+03 -0.70399321295E+03  0.87907266393E+03  0.12699999809E+01 0. -1.
       -4    1    3    3    0  502  0.14807458601E+03 -0.50520749071E+03  0.26206014332E+03  0.58807977631E+03  0.12699999809E+01 0.  1.
</event>
<event>
 5   0  0.1780171E-04  0.1401252E+04  0.7818609E-02  0.8952913E-01
        2   -1    0    0  501    0  0.00000000000E+00  0.00000000000E+00  0.16690887538E+04  0.16690887538E+04  0.25500000920E-02 0.  1.
       -2   -1    0    0    0  501  0.00000000000E+00  0.00000000000E+00 -0.29409876251E+03  0.29409876252E+03  0.25500000920E-02 0. -1.
    10030    2    1    2    0    0  0.00000000000E+00  0.00000000000E+00  0.13749899913E+04  0.19631875163E+04  0.14012522072E+04 0.  0.
        5    1    3    3  502    0 -0.20660209267E+03 -0.22227857837E+03 -0.19721862607E+03  0.36195230012E+03  0.46999998093E+01 0. -1.
       -5    1    3    3    0  502  0.20660209267E+03  0.22227857837E+03  0.15722086173E+04  0.16012352162E+04  0.46999998093E+01 0.  1.
</event>
<event>
 5   0  0.9900839E-05  0.1405431E+04  0.7818609E-02  0.8949897E-01
        1   -1    0    0  501    0  0.00000000000E+00  0.00000000000E+00  0.26856844506E+03  0.26856844511E+03  0.50400001928E-02 0. -1.
       -1   -1    0    0    0  501  0.00000000000E+00  0.00000000000E+00 -0.18386718579E+04  0.18386718579E+04  0.50400001928E-02 0.  1.
    10030    2    1    2    0    0  0.00000000000E+00  0.00000000000E+00 -0.15701034128E+04  0.21072403030E+04  0.14054312390E+04 0.  0.
        3    1    3    3  502    0  0.33275378090E+03  0.59525434355E+03 -0.53079532220E+03  0.86417388094E+03  0.10100000352E+00 0.  1.
       -3    1    3    3    0  502 -0.33275378090E+03 -0.59525434355E+03 -0.10393080906E+04  0.12430664221E+04  0.10100000352E+00 0. -1.
</event>
<event>
 5   0  0.1794185E-04  0.1400220E+04  0.7818609E-02  0.8953659E-01
       -2   -1    0    0    0  501  0.00000000000E+00  0.00000000000E+00  0.10232557741E+04  0.10232557741E+04  0.25500000920E-02 0. -1.
        2   -1    0    0  501    0  0.00000000000E+00  0.00000000000E+00 -0.47901448212E+03  0.47901448213E+03  0.25500000920E-02 0.  1.
    10030    2    1    2    0    0  0.00000000000E+00  0.00000000000E+00  0.54424129200E+03  0.15022702563E+04  0.14002204608E+04 0.  0.
        2    1    3    3  502    0 -0.50616574388E+03  0.39072410324E+03  0.57800518141E+03  0.86195073808E+03  0.25500000920E-02 0. -1.
       -2    1    3    3    0  502  0.50616574388E+03 -0.39072410324E+03 -0.33763889413E+02  0.64031951818E+03  0.25500000920E-02 0.  1.
</event>
<event>
 5   0  0.1833681E-04  0.1399772E+04  0.7818609E-02  0.8953983E-01
        2   -1    0    0  501    0  0.00000000000E+00  0.00000000000E+00  0.35886881527E+03  0.35886881528E+03  0.25500000920E-02 0.  1.
       -2   -1    0    0    0  501  0.00000000000E+00  0.00000000000E+00 -0.13649574417E+04  0.13649574417E+04  0.25500000920E-02 0. -1.
    10030    2    1    2    0    0  0.00000000000E+00  0.00000000000E+00 -0.10060886264E+04  0.17238262569E+04  0.13997723529E+04 0.  0.
        4    1    3    3  502    0  0.22383835708E+03 -0.20648877364E+03 -0.12790856111E+04  0.13148394720E+04  0.12699999809E+01 0. -1.
       -4    1    3    3    0  502 -0.22383835708E+03  0.20648877364E+03  0.27299698467E+03  0.40898678497E+03  0.12699999809E+01 0.  1.
</event>
<event>
 5   0  0.1794185E-04  0.1398300E+04  0.7818609E-02  0.8955050E-01
       -2   -1    0    0    0  501  0.00000000000E+00  0.00000000000E+00  0.60371319828E+03  0.60371319829E+03  0.25500000920E-02 0. -1.
        2   -1    0    0  501    0  0.00000000000E+00  0.00000000000E+00 -0.80967412779E+03  0.80967412780E+03  0.25500000920E-02 0.  1.
    10030    2    1    2    0    0  0.00000000000E+00  0.00000000000E+00 -0.20596092951E+03  0.14133873261E+04  0.13983003358E+04 0.  0.
        2    1    3    3  502    0  0.39064602595E+03 -0.56675518659E+02  0.48030247943E+03  0.62169679408E+03  0.25500000920E-02 0. -1.
       -2    1    3    3    0  502 -0.39064602595E+03  0.56675518659E+02 -0.68626340894E+03  0.79169053201E+03  0.25500000920E-02 0.  1.
</event>
<event>
 5   0  0.9828111E-05  0.1401483E+04  0.7818609E-02  0.8952746E-01
       -1   -1    0    0    0  501  0.00000000000E+00  0.00000000000E+00  0.93655181560E+03  0.93655181562E+03  0.50400001928E-02 0.  1.
        1   -1    0    0  501    0  0.00000000000E+00  0.00000000000E+00 -0.52430494391E+03  0.52430494394E+03  0.50400001928E-02 0. -1.
    10030    2    1    2    0    0  0.00000000000E+00  0.00000000000E+00  0.41224687169E+03  0.14608567596E+04  0.14014831389E+04 0.  0.
        4    1    3    3  502    0 -0.38939647095E+03  0.10502671993E+03 -0.39119519878E+03  0.56186788477E+03  0.12699999809E+01 0. -1.
       -4    1    3    3    0  502  0.38939647095E+03 -0.10502671993E+03  0.80344207047E+03  0.89898887479E+03  0.12699999809E+01 0.  1.
</event>
<event>
 5   0  0.1780171E-04  0.1400628E+04  0.7818609E-02  0.8953364E-01
       -2   -1    0    0    0  501  0.00000000000E+00  0.00000000000E+00  0.70296460371E+03  0.70296460372E+03  0.25500000920E-02 0.  1.
        2   -1    0    0  501    0  0.00000000000E+00  0.00000000000E+00 -0.69767367422E+03  0.69767367422E+03  0.25500000920E-02 0. -1.
    10030    2    1    2    0    0  0.00000000000E+00  0.00000000000E+00  0.52909294937E+01  0.14006382779E+04  0.14006282846E+04 0.  0.
        5    1    3    3  502    0  0.99318379360E+02  0.70267112742E+02 -0.68700878723E+03  0.69771396097E+03  0.46999998093E+01 0. -1.
       -5    1    3    3    0  502 -0.99318379360E+02 -0.70267112742E+02  0.69229971672E+03  0.70292431697E+03  0.46999998093E+01 0.  1.
</event>
<event>
 5   0  0.9978422E-05  0.1399028E+04  0.7818609E-02  0.8954522E-01
       -1   -1    0    0    0  501  0.00000000000E+00  0.00000000000E+00  0.98588985672E+03  0.98588985674E+03  0.50400001928E-02 0.  1.
        1   -1    0    0  501    0  0.00000000000E+00  0.00000000000E+00 -0.49632322738E+03  0.49632322741E+03  0.50400001928E-02 0. -1.
    10030    2    1    2    0    0  0.00000000000E+00  0.00000000000E+00  0.48956662934E+03  0.14822130841E+04  0.13990282850E+04 0.  0.
        2    1    3    3  502    0  0.42406976684E+03  0.20419736489E+03  0.79303496860E+03  0.92219097394E+03  0.25500000920E-02 0.  1.
       -2    1    3    3    0  502 -0.42406976684E+03 -0.20419736489E+03 -0.30346833927E+03  0.56002211021E+03  0.25500000920E-02 0. -1.
</event>
<event>
 5   0  0.9260916E-05  0.1399051E+04  0.7818609E-02  0.8954506E-01
       -1   -1    0    0    0  501  0.00000000000E+00  0.00000000000E+00  0.57613834957E+03  0.57613834959E+03  0.50400001928E-02 0.  1.
        1   -1    0    0  501    0  0.00000000000E+00  0.00000000000E+00 -0.84933727166E+03  0.84933727167E+03  0.50400001928E-02 0. -1.
    10030    2    1    2    0    0  0.00000000000E+00  0.00000000000E+00 -0.27319892209E+03  0.14254756213E+04  0.13990507838E+04 0.  0.
        1    1    3    3  502    0 -0.35929264806E+03  0.33108714073E+03 -0.64668060089E+03  0.81049719389E+03  0.50400001928E-02 0. -1.
       -1    1    3    3    0  502  0.35929264806E+03 -0.33108714073E+03  0.37348167881E+03  0.61497842737E+03  0.50400001928E-02 0.  1.
</event>
<event>
 5   0  0.6671375E-05  0.1399037E+04  0.7818609E-02  0.8954516E-01
        1   -1    0    0  501    0  0.00000000000E+00  0.00000000000E+00  0.56362055942E+03  0.56362055944E+03  0.50400001928E-02 0.  1.
       -1   -1    0    0    0  501  0.00000000000E+00  0.00000000000E+00 -0.86818348967E+03  0.86818348968E+03  0.50400001928E-02 0. -1.
    10030    2    1    2    0    0  0.00000000000E+00  0.00000000000E+00 -0.30456293025E+03  0.14318040491E+04  0.13990369032E+04 0.  0.
        5    1    3    3  502    0 -0.53091319911E+03  0.36973697045E+02  0.31229776932E+03  0.61708011310E+03  0.46999998093E+01 0.  1.
       -5    1    3    3    0  502  0.53091319911E+03 -0.36973697045E+02 -0.61686069957E+03  0.81472393603E+03  0.46999998093E+01 0. -1.
</event>
<event>
 5   0  0.9828111E-05  0.1395552E+04  0.7818609E-02  0.8957045E-01
       -1   -1    0    0    0  501  0.00000000000E+00  0.00000000000E+00  0.30605201846E+03  0.30605201850E+03  0.50400001928E-02 0. -1.
        1   -1    0    0  501    0  0.00000000000E+00  0.00000000000E+00 -0.15908776883E+04  0.15908776883E+04  0.50400001928E-02 0.  1.
    10030    2    1    2    0    0  0.00000000000E+00  0.00000000000E+00 -0.12848256699E+04  0.18969297068E+04  0.13955519735E+04 0.  0.
        4    1    3    3  502    0 -0.56801178552E+03 -0.40512623352E+03 -0.62721203158E+03  0.93816906740E+03  0.12699999809E+01 0.  1.
       -4    1    3    3    0  502  0.56801178552E+03  0.40512623352E+03 -0.65761363829E+03  0.95876063944E+03  0.12699999809E+01 0. -1.
</event>
<event>
 5   0  0.1712327E-04  0.1401051E+04  0.7818609E-02  0.8953058E-01
       -2   -1    0    0    0  501  0.00000000000E+00  0.00000000000E+00  0.23607901239E+03  0.23607901241E+03  0.25500000920E-02 0. -1.
        2   -1    0    0  501    0  0.00000000000E+00  0.00000000000E+00 -0.20786945257E+04  0.20786945257E+04  0.25500000920E-02 0.  1.
    10030    2    1    2    0    0  0.00000000000E+00  0.00000000000E+00 -0.18426155133E+04  0.23147735381E+04  0.14010512492E+04 0.  0.
        1    1    3    3  502    0 -0.66017456340E+03 -0.16483637567E+03 -0.11964555003E+04  0.13764110030E+04  0.50400001928E-02 0.  1.
       -1    1    3    3    0  502  0.66017456340E+03  0.16483637567E+03 -0.64616001301E+03  0.93836253513E+03  0.50400001928E-02 0. -1.
</event>
<event>
 5   0  0.9260916E-05  0.1394499E+04  0.7818609E-02  0.8957810E-01
        1   -1    0    0  501    0  0.00000000000E+00  0.00000000000E+00  0.18932015751E+04  0.18932015751E+04  0.50400001928E-02 0.  1.
       -1   -1    0    0    0  501  0.00000000000E+00  0.00000000000E+00 -0.25679099547E+03  0.25679099552E+03  0.50400001928E-02 0. -1.
    10030    2    1    2    0    0  0.00000000000E+00  0.00000000000E+00  0.16364105797E+04  0.21499925707E+04  0.13944993613E+04 0.  0.
        1    1    3    3  502    0  0.54586168993E+03  0.36100180497E+03  0.44731561726E+03  0.79270331726E+03  0.50400001928E-02 0. -1.
       -1    1    3    3    0  502 -0.54586168993E+03 -0.36100180497E+03  0.11890949624E+04  0.13572892534E+04  0.50400001928E-02 0.  1.
</event>
<event>
 5   0  0.1766237E-04  0.1400647E+04  0.7818609E-02  0.8953350E-01
       -2   -1    0    0    0  501  0.00000000000E+00  0.00000000000E+00  0.51486155383E+03  0.51486155383E+03  0.25500000920E-02 0.  1.
        2   -1    0    0  501    0  0.00000000000E+00  0.00000000000E+00 -0.95259213517E+03  0.95259213517E+03  0.25500000920E-02 0. -1.
    10030    2    1    2    0    0  0.00000000000E+00  0.00000000000E+00 -0.43773058134E+03  0.14674536890E+04  0.14006470889E+04 0.  0.
        3    1    3    3  502    0  0.51493869923E+03 -0.43888701620E+03 -0.40823308722E+03  0.79021385755E+03  0.10100000352E+00 0. -1.
       -3    1    3    3    0  502 -0.51493869923E+03  0.43888701620E+03 -0.29497494115E+02  0.67723983146E+03  0.10100000352E+00 0.  1.
</event>
<event>
 5   0  0.1712327E-04  0.1392697E+04  0.7818609E-02  0.8959122E-01
        2   -1    0    0  501    0  0.00000000000E+00  0.00000000000E+00  0.15458947904E+04  0.15458947905E+04  0.25500000920E-02 0.  1.
       -2   -1    0    0    0  501  0.00000000000E+00  0.00000000000E+00 -0.31367017653E+03  0.31367017654E+03  0.25500000920E-02 0. -1.
    10030    2    1    2    0    0  0.00000000000E+00  0.00000000000E+00  0.12322246139E+04  0.18595649670E+04  0.13926967966E+04 0.  0.
        1    1    3    3  502    0  0.13914231844E+03  0.16875222571E+03 -0.26661568044E+03  0.34485043069E+03  0.50400001928E-02 0. -1.
       -1    1    3    3    0  502 -0.13914231844E+03 -0.16875222571E+03  0.14988402944E+04  0.15147145363E+04  0.50400001928E-02 0.  1.
</event>
<event>
 5   0  0.1712327E-04  0.1395346E+04  0.7818609E-02  0.8957194E-01
       -2   -1    0    0    0  501  0.00000000000E+00  0.00000000000E+00  0.33123670239E+03  0.33123670240E+03  0.25500000920E-02 0. -1.
        2   -1    0    0  501    0  0.00000000000E+00  0.00000000000E+00 -0.14694850620E+04  0.14694850620E+04  0.25500000920E-02 0.  1.
    10030    2    1    2    0    0  0.00000000000E+00  0.00000000000E+00 -0.11382483596E+04  0.18007217644E+04  0.13953456721E+04 0.  0.
        1    1    3    3  502    0  0.67869090975E+02 -0.39861709669E+03  0.16459708071E+03  0.43657073000E+03  0.50400001928E-02 0. -1.
       -1    1    3    3    0  502 -0.67869090975E+02  0.39861709669E+03 -0.13028454403E+04  0.13641510344E+04  0.50400001928E-02 0.  1.
</event>
<event>
 5   0  0.1780171E-04  0.1399350E+04  0.7818609E-02  0.8954289E-01
        2   -1    0    0  501    0  0.00000000000E+00  0.00000000000E+00  0.25560292755E+04  0.25560292755E+04  0.25500000920E-02 0.  1.
       -2   -1    0    0    0  501  0.00000000000E+00  0.00000000000E+00 -0.19152567253E+03  0.19152567255E+03  0.25500000920E-02 0. -1.
    10030    2    1    2    0    0  0.00000000000E+00  0.00000000000E+00  0.23645036030E+04  0.27475549481E+04  0.13993501721E+04 0.  0.
        5    1    3    3  502    0 -0.64415403297E+03 -0.45400634193E+02  0.65347628800E+03  0.91872138582E+03  0.46999998093E+01 0. -1.
       -5    1    3    3    0  502  0.64415403297E+03  0.45400634193E+02  0.17110273150E+04  0.18288335623E+04  0.46999998093E+01 0.  1.
</event>
<event>
 5   0  0.6671375E-05  0.1401367E+04  0.7818609E-02  0.8952829E-01
       -1   -1    0    0    0  501  0.00000000000E+00  0.00000000000E+00  0.52628348572E+03  0.52628348574E+03  0.50400001928E-02 0. -1.
        1   -1    0    0  501    0  0.00000000000E+00  0.00000000000E+00 -0.93287663907E+03  0.93287663908E+03  0.50400001928E-02 0.  1.
    10030    2    1    2    0    0  0.00000000000E+00  0.00000000000E+00 -0.40659315335E+03  0.14591601248E+04  0.14013672886E+04 0.  0.
        5    1    3    3  502    0 -0.68024305203E+03 -0.92606210925E+02 -0.57415280360E+02  0.68893042069E+03  0.46999998093E+01 0. -1.
       -5    1    3    3    0  502  0.68024305203E+03  0.92606210925E+02 -0.34917787299E+03  0.77022970413E+03  0.46999998093E+01 0.  1.
</event>
<event>
 5   0  0.1766237E-04  0.1399951E+04  0.7818609E-02  0.8953854E-01
       -2   -1    0    0    0  501  0.00000000000E+00  0.00000000000E+00  0.36920378168E+03  0.36920378169E+03  0.25500000920E-02 0. -1.
        2   -1    0    0  501    0  0.00000000000E+00  0.00000000000E+00 -0.13270869966E+04  0.13270869966E+04  0.25500000920E-02 0.  1.
    10030    2    1    2    0    0  0.00000000000E+00  0.00000000000E+00 -0.95788321488E+03  0.16962907783E+04  0.13999507674E+04 0.  0.
        3    1    3    3  502    0 -0.35336593709E+03 -0.54101013581E+03 -0.80498472798E+03  0.10322595967E+04  0.10100000352E+00 0.  1.
       -3    1    3    3    0  502  0.35336593709E+03  0.54101013581E+03 -0.15289848690E+03  0.66403118153E+03  0.10100000352E+00 0. -1.
</event>
<event>
 5   0  0.9978422E-05  0.1391361E+04  0.7818609E-02  0.8960095E-01
        1   -1    0    0  501    0  0.00000000000E+00  0.00000000000E+00  0.43818554053E+03  0.43818554056E+03  0.50400001928E-02 0.  1.
       -1   -1    0    0    0  501  0.00000000000E+00  0.00000000000E+00 -0.11044900770E+04  0.11044900770E+04  0.50400001928E-02 0. -1.
    10030    2    1    2    0    0  0.00000000000E+00  0.00000000000E+00 -0.66630453646E+03  0.15426756176E+04  0.13913613211E+04 0.  0.
        2    1    3    3  502    0 -0.56627398463E+01  0.68281887603E+03 -0.18565107787E+03  0.70762985155E+03  0.25500000920E-02 0. -1.
       -2    1    3    3    0  502  0.56627398463E+01 -0.68281887603E+03 -0.48065345859E+03  0.83504576602E+03  0.25500000920E-02 0.  1.
</event>
<event>
 5   0  0.9260916E-05  0.1399118E+04  0.7818609E-02  0.8954457E-01
        1   -1    0    0  501    0  0.00000000000E+00  0.00000000000E+00  0.11739451243E+04  0.11739451243E+04  0.50400001928E-02 0. -1.
       -1   -1    0    0    0  501  0.00000000000E+00  0.00000000000E+00 -0.41687010017E+03  0.41687010020E+03  0.50400001928E-02 0.  1.
    10030    2    1    2    0    0  0.00000000000E+00  0.00000000000E+00  0.75707502414E+03  0.15908152245E+04  0.13991177529E+04 0.  0.
        1    1    3    3  502    0  0.88730007369E+02 -0.50440277598E+02  0.11654338709E+04  0.11698945864E+04  0.50400001928E-02 0. -1.
       -1    1    3    3    0  502 -0.88730007369E+02  0.50440277598E+02 -0.40835884678E+03  0.42092063810E+03  0.50400001928E-02 0.  1.
</event>
<event>
 5   0  0.9900839E-05  0.1394168E+04  0.7818609E-02  0.8958051E-01
       -1   -1    0    0    0  501  0.00000000000E+00  0.00000000000E+00  0.26693668840E+03  0.26693668845E+03  0.50400001928E-02 0. -1.
        1   -1    0    0  501    0  0.00000000000E+00  0.00000000000E+00 -0.18203801253E+04  0.18203801253E+04  0.50400001928E-02 0.  1.
    10030    2    1    2    0    0  0.00000000000E+00  0.00000000000E+00 -0.15534434369E+04  0.20873168138E+04  0.13941681998E+04 0.  0.
        3    1    3    3  502    0  0.44902584102E+03 -0.50735713174E+03 -0.10222348890E+04  0.12263766320E+04  0.10100000352E+00 0.  1.
       -3    1    3    3    0  502 -0.44902584102E+03  0.50735713174E+03 -0.53120854795E+03  0.86094018181E+03  0.10100000352E+00 0. -1.
</event>
<event>
 5   0  0.9900839E-05  0.1398050E+04  0.7818609E-02  0.8955231E-01
        1   -1    0    0  501    0  0.00000000000E+00  0.00000000000E+00  0.14285627111E+04  0.14285627111E+04  0.50400001928E-02 0.  1.
       -1   -1    0    0    0  501  0.00000000000E+00  0.00000000000E+00 -0.34204722239E+03  0.34204722243E+03  0.50400001928E-02 0. -1.
    10030    2    1    2    0    0  0.00000000000E+00  0.00000000000E+00  0.10865154887E+04  0.17706099335E+04  0.13980499381E+04 0.  0.
        3    1    3    3  502    0  0.49688145351E+03 -0.40431669017E+03  0.18892975558E+03  0.66787545810E+03  0.10100000352E+00 0. -1.
       -3    1    3    3    0  502 -0.49688145351E+03  0.40431669017E+03  0.89758573312E+03  0.11027344754E+04  0.10100000352E+00 0.  1.
</event>
<event>
 5   0  0.1794185E-04  0.1400899E+04  0.7818609E-02  0.8953168E-01
       -2   -1    0    0    0  501  0.00000000000E+00  0.00000000000E+00  0.34225455926E+03  0.34225455927E+03  0.25500000920E-02 0. -1.
        2   -1    0    0  501    0  0.00000000000E+00  0.00000000000E+00 -0.14335221931E+04  0.14335221931E+04  0.25500000920E-02 0.  1.
    10030    2    1    2    0    0  0.00000000000E+00  0.00000000000E+00 -0.10912676338E+04  0.17757767523E+04  0.14008990062E+04 0.  0.
        2    1    3    3  502    0  0.49798981198E+03 -0.47842859393E+03 -0.39703946278E+03  0.79657272570E+03  0.25500000920E-02 0. -1.
       -2    1    3    3    0  502 -0.49798981198E+03  0.47842859393E+03 -0.69422817102E+03  0.97920402663E+03  0.25500000920E-02 0.  1.
</event>
<event>
 5   0  0.6671375E-05  0.1400972E+04  0.7818609E-02  0.8953115E-01
        1   -1    0    0  501    0  0.00000000000E+00  0.00000000000E+00  0.95815670000E+03  0.95815670001E+03  0.50400001928E-02 0. -1.
       -1   -1    0    0    0  501  0.00000000000E+00  0.00000000000E+00 -0.51210887071E+03  0.51210887074E+03  0.50400001928E-02 0.  1.
    10030    2    1    2    0    0  0.00000000000E+00  0.00000000000E+00  0.44604782929E+03  0.14702655707E+04  0.14009718707E+04 0.  0.
        5    1    3    3  502    0  0.10478863408E+03 -0.27992424768E+01 -0.50381410005E+03  0.51462533070E+03  0.46999998093E+01 0.  1.
       -5    1    3    3    0  502 -0.10478863408E+03  0.27992424768E+01  0.94986192934E+03  0.95564024005E+03  0.46999998093E+01 0. -1.
</event>
<event>
 5   0  0.1780171E-04  0.1402648E+04  0.7818609E-02  0.8951904E-01
        2   -1    0    0  501    0  0.00000000000E+00  0.00000000000E+00  0.22639846198E+04  0.22639846198E+04  0.25500000920E-02 0.  1.
       -2   -1    0    0    0  501  0.00000000000E+00  0.00000000000E+00 -0.21725203952E+03  0.21725203954E+03  0.25500000920E-02 0. -1.
    10030    2    1    2    0    0  0.00000000000E+00  0.00000000000E+00  0.20467325802E+04  0.24812366593E+04  0.14026478904E+04 0.  0.
        5    1    3    3  502    0  0.55994054405E+03  0.36448478862E+03  0.14004948255E+04  0.15517056487E+04  0.46999998093E+01 0.  1.
       -5    1    3    3    0  502 -0.55994054405E+03 -0.36448478862E+03  0.64623775478E+03  0.92953101062E+03  0.46999998093E+01 0. -1.
</event>
<event>
 5   0  0.9978422E-05  0.1401163E+04  0.7818609E-02  0.8952977E-01
       -1   -1    0    0    0  501  0.00000000000E+00  0.00000000000E+00  0.68323361869E+03  0.68323361871E+03  0.50400001928E-02 0. -1.
        1   -1    0    0  501    0  0.00000000000E+00  0.00000000000E+00 -0.71836944916E+03  0.71836944918E+03  0.50400001928E-02 0.  1.
    10030    2    1    2    0    0  0.00000000000E+00  0.00000000000E+00 -0.35135830467E+02  0.14016030679E+04  0.14011626006E+04 0.  0.
        2    1    3    3  502    0 -0.65578905476E+03 -0.70941072767E+02  0.21856187366E+03  0.69488215747E+03  0.25500000920E-02 0. -1.
       -2    1    3    3    0  502  0.65578905476E+03  0.70941072767E+02 -0.25369770412E+03  0.70672091042E+03  0.25500000920E-02 0.  1.
</event>
<event>
 5   0  0.6671375E-05  0.1400659E+04  0.7818609E-02  0.8953342E-01
        4   -1    0    0  501    0  0.00000000000E+00  0.00000000000E+00  0.44923913601E+03  0.44924093115E+03  0.12699999809E+01 0. -1.
       -4   -1    0    0    0  501  0.00000000000E+00  0.00000000000E+00 -0.10917557501E+04  0.10917564888E+04  0.12699999809E+01 0.  1.
    10030    2    1    2    0    0  0.00000000000E+00  0.00000000000E+00 -0.64251661411E+03  0.15409974199E+04  0.14006589338E+04 0.  0.
        1    1    3    3  502    0  0.12030753219E+03 -0.59066024791E+03  0.70985270557E+02  0.60695332557E+03  0.50400001928E-02 0. -1.
       -1    1    3    3    0  502 -0.12030753219E+03  0.59066024791E+03 -0.71350188467E+03  0.93404409436E+03  0.50400001928E-02 0.  1.
</event>
<event>
 5   0  0.9260916E-05  0.1403128E+04  0.7818609E-02  0.8951557E-01
        1   -1    0    0  501    0  0.00000000000E+00  0.00000000000E+00  0.28071716014E+03  0.28071716018E+03  0.50400001928E-02 0.  1.
       -1   -1    0    0    0  501  0.00000000000E+00  0.00000000000E+00 -0.17533387377E+04  0.17533387377E+04  0.50400001928E-02 0. -1.
    10030    2    1    2    0    0  0.00000000000E+00  0.00000000000E+00 -0.14726215776E+04  0.20340558979E+04  0.14031283210E+04 0.  0.
        1    1    3    3  502    0  0.15144016755E+03 -0.36957313449E+02  0.25529360830E+03  0.29912337560E+03  0.50400001928E-02 0.  1.
       -1    1    3    3    0  502 -0.15144016755E+03  0.36957313449E+02 -0.17279151859E+04  0.17349325223E+04  0.50400001928E-02 0. -1.
</event>
<event>
 5   0  0.9978422E-05  0.1399545E+04  0.7818609E-02  0.8954148E-01
        1   -1    0    0  501    0  0.00000000000E+00  0.00000000000E+00  0.13642084374E+04  0.13642084374E+04  0.50400001928E-02 0.  1.
       -1   -1    0    0    0  501  0.00000000000E+00  0.00000000000E+00 -0.35894925435E+03  0.35894925439E+03  0.50400001928E-02 0. -1.
    10030    2    1    2    0    0  0.00000000000E+00  0.00000000000E+00  0.10052591830E+04  0.17231576918E+04  0.13995450710E+04 0.  0.
        2    1    3    3  502    0  0.55847851929E+03  0.97361990735E+02  0.10077388591E+04  0.11562505013E+04  0.25500000920E-02 0.  1.
       -2    1    3    3    0  502 -0.55847851929E+03 -0.97361990735E+02 -0.24796760778E+01  0.56690719042E+03  0.25500000920E-02 0. -1.
</event>
<event>
 5   0  0.1712327E-04  0.1400858E+04  0.7818609E-02  0.8953198E-01
       -2   -1    0    0    0  501  0.00000000000E+00  0.00000000000E+00  0.75499191562E+03  0.75499191563E+03  0.25500000920E-02 0.  1.
        2   -1    0    0  501    0  0.00000000000E+00  0.00000000000E+00 -0.64980897609E+03  0.64980897609E+03  0.25500000920E-02 0. -1.
    10030    2    1    2    0    0  0.00000000000E+00  0.00000000000E+00  0.10518293954E+03  0.14048008917E+04  0.14008576282E+04 0.  0.
        1    1    3    3  502    0  0.71050932954E+02 -0.49607163290E+03  0.54332078281E+03  0.73914326968E+03  0.50400001928E-02 0.  1.
       -1    1    3    3    0  502 -0.71050932954E+02  0.49607163290E+03 -0.43813784328E+03  0.66565762204E+03  0.50400001928E-02 0. -1.
</event>
<event>
 5   0  0.1712327E-04  0.1400479E+04  0.7818609E-02  0.8953472E-01
       -2   -1    0    0    0  501  0.00000000000E+00  0.00000000000E+00  0.46520365185E+03  0.46520365185E+03  0.25500000920E-02 0.  1.
        2   -1    0    0  501    0  0.00000000000E+00  0.00000000000E+00 -0.10540230053E+04  0.10540230053E+04  0.25500000920E-02 0. -1.
    10030    2    1    2    0    0  0.00000000000E+00  0.00000000000E+00 -0.58881935343E+03  0.15192266571E+04  0.14004789912E+04 0.  0.
        1    1    3    3  502    0 -0.66885393563E+03  0.53891291061E+02 -0.51154536907E+03  0.84377042085E+03  0.50400001928E-02 0. -1.
       -1    1    3    3    0  502  0.66885393563E+03 -0.53891291061E+02 -0.77273984366E+02  0.67545623629E+03  0.50400001928E-02 0.  1.
</event>
<event>
 5   0  0.6671375E-05  0.1403169E+04  0.7818609E-02  0.8951528E-01
        1   -1    0    0  501    0  0.00000000000E+00  0.00000000000E+00  0.52550944905E+03  0.52550944908E+03  0.50400001928E-02 0. -1.
       -1   -1    0    0    0  501  0.00000000000E+00  0.00000000000E+00 -0.93665519031E+03  0.93665519032E+03  0.50400001928E-02 0.  1.
    10030    2    1    2    0    0  0.00000000000E+00  0.00000000000E+00 -0.41114574126E+03  0.14621646394E+04  0.14031694880E+04 0.  0.
        5    1    3    3  502    0 -0.41570974856E+03  0.22574433900E+03 -0.74545230618E+03  0.88289089497E+03  0.46999998093E+01 0.  1.
       -5    1    3    3    0  502  0.41570974856E+03 -0.22574433900E+03  0.33430656492E+03  0.57927374443E+03  0.46999998093E+01 0. -1.
</event>
<event>
 5   0  0.9828111E-05  0.1395928E+04  0.7818609E-02  0.8956771E-01
        1   -1    0    0  501    0  0.00000000000E+00  0.00000000000E+00  0.18436919227E+04  0.18436919227E+04  0.50400001928E-02 0. -1.
       -1   -1    0    0    0  501  0.00000000000E+00  0.00000000000E+00 -0.26422724918E+03  0.26422724923E+03  0.50400001928E-02 0.  1.
    10030    2    1    2    0    0  0.00000000000E+00  0.00000000000E+00  0.15794646735E+04  0.21079191719E+04  0.13959278565E+04 0.  0.
        4    1    3    3  502    0 -0.10591429599E+03  0.65297964100E+03  0.11258726660E+04  0.13058296683E+04  0.12699999809E+01 0. -1.
       -4    1    3    3    0  502  0.10591429599E+03 -0.65297964100E+03  0.45359200753E+03  0.80208950364E+03  0.12699999809E+01 0.  1.
</event>
<event>
 5   0  0.1780171E-04  0.1408945E+04  0.7818609E-02  0.8947369E-01
       -2   -1    0    0    0  501  0.00000000000E+00  0.00000000000E+00  0.45175471404E+03  0.45175471405E+03  0.25500000920E-02 0.  1.
        2   -1    0    0  501    0  0.00000000000E+00  0.00000000000E+00 -0.10985633323E+04  0.10985633323E+04  0.25500000920E-02 0. -1.
    10030    2    1    2    0    0  0.00000000000E+00  0.00000000000E+00 -0.64680861824E+03  0.15503180463E+04  0.14089445185E+04 0.  0.
        5    1    3    3  502    0  0.16591675331E+03 -0.24324924342E+03  0.38077935920E+03  0.48136636135E+03  0.46999998093E+01 0.  1.
       -5    1    3    3    0  502 -0.16591675331E+03  0.24324924342E+03 -0.10275879774E+04  0.10689516850E+04  0.46999998093E+01 0. -1.
</event>
<event>
 5   0  0.6671375E-05  0.1400399E+04  0.7818609E-02  0.8953529E-01
        1   -1    0    0  501    0  0.00000000000E+00  0.00000000000E+00  0.83329690107E+03  0.83329690109E+03  0.50400001928E-02 0. -1.
       -1   -1    0    0    0  501  0.00000000000E+00  0.00000000000E+00 -0.58836134493E+03  0.58836134495E+03  0.50400001928E-02 0.  1.
    10030    2    1    2    0    0  0.00000000000E+00  0.00000000000E+00  0.24493555615E+03  0.14216582460E+04  0.14003994937E+04 0.  0.
        5    1    3    3  502    0 -0.15682394584E+03  0.10755976193E+03  0.80656291080E+03  0.82869093844E+03  0.46999998093E+01 0. -1.
       -5    1    3    3    0  502  0.15682394584E+03 -0.10755976193E+03 -0.56162735466E+03  0.59296730759E+03  0.46999998093E+01 0.  1.
</event>
<event>
 5   0  0.9978422E-05  0.1401014E+04  0.7818609E-02  0.8953085E-01
       -1   -1    0    0    0  501  0.00000000000E+00  0.00000000000E+00  0.45695930397E+03  0.45695930400E+03  0.50400001928E-02 0. -1.
        1   -1    0    0  501    0  0.00000000000E+00  0.00000000000E+00 -0.10738596638E+04  0.10738596638E+04  0.50400001928E-02 0.  1.
    10030    2    1    2    0    0  0.00000000000E+00  0.00000000000E+00 -0.61690035983E+03  0.15308189678E+04  0.14010141535E+04 0.  0.
        2    1    3    3  502    0 -0.35749131220E+03  0.55745823935E+03 -0.58927348013E+02  0.66485499116E+03  0.25500000920E-02 0.  1.
       -2    1    3    3    0  502  0.35749131220E+03 -0.55745823935E+03 -0.55797301181E+03  0.86596397664E+03  0.25500000920E-02 0. -1.
</event>
<event>
 5   0  0.1780171E-04  0.1399783E+04  0.7818609E-02  0.8953976E-01
       -2   -1    0    0    0  501  0.00000000000E+00  0.00000000000E+00  0.58035132979E+03  0.58035132980E+03  0.25500000920E-02 0.  1.
        2   -1    0    0  501    0  0.00000000000E+00  0.00000000000E+00 -0.84405456924E+03  0.84405456925E+03  0.25500000920E-02 0. -1.
    10030    2    1    2    0    0  0.00000000000E+00  0.00000000000E+00 -0.26370323945E+03  0.14244058990E+04  0.13997831142E+04 0.  0.
        5    1    3    3  502    0 -0.20521990735E+03 -0.34160947696E+03  0.45360685969E+03  0.60381579830E+03  0.46999998093E+01 0.  1.
       -5    1    3    3    0  502  0.20521990735E+03  0.34160947696E+03 -0.71731009914E+03  0.82059010075E+03  0.46999998093E+01 0. -1.
</event>
<event>
 5   0  0.1712327E-04  0.1399706E+04  0.7818609E-02  0.8954032E-01
        2   -1    0    0  501    0  0.00000000000E+00  0.00000000000E+00  0.72620652704E+03  0.72620652704E+03  0.25500000920E-02 0. -1.
       -2   -1    0    0    0  501  0.00000000000E+00  0.00000000000E+00 -0.67445547092E+03  0.67445547092E+03  0.25500000920E-02 0.  1.
    10030    2    1    2    0    0  0.00000000000E+00  0.00000000000E+00  0.51751056122E+02  0.14006619980E+04  0.13997056336E+04 0.  0.
        1    1    3    3  502    0  0.97951992581E+01 -0.26239894266E+03 -0.62329325149E+03  0.67634579057E+03  0.50400001928E-02 0.  1.
       -1    1    3    3    0  502 -0.97951992581E+01  0.26239894266E+03  0.67504430761E+03  0.72431620740E+03  0.50400001928E-02 0. -1.
</event>
<event>
 5   0  0.9978422E-05  0.1400178E+04  0.7818609E-02  0.8953689E-01
       -1   -1    0    0    0  501  0.00000000000E+00  0.00000000000E+00  0.39199013880E+03  0.39199013883E+03  0.50400001928E-02 0.  1.
        1   -1    0    0  501    0  0.00000000000E+00  0.00000000000E+00 -0.12503499562E+04  0.12503499562E+04  0.50400001928E-02 0. -1.
    10030    2    1    2    0    0  0.00000000000E+00  0.00000000000E+00 -0.85835981738E+03  0.16423400950E+04  0.14001783499E+04 0.  0.
        2    1    3    3  502    0  0.30253082405E+02  0.67294095512E+01  0.39118509034E+03  0.39241089289E+03  0.25500000920E-02 0.  1.
       -2    1    3    3    0  502 -0.30253082405E+02 -0.67294095512E+01 -0.12495449077E+04  0.12499292021E+04  0.25500000920E-02 0. -1.
</event>
<event>
 5   0  0.6671375E-05  0.1402546E+04  0.7818609E-02  0.8951978E-01
       -1   -1    0    0    0  501  0.00000000000E+00  0.00000000000E+00  0.53784925380E+03  0.53784925382E+03  0.50400001928E-02 0.  1.
        1   -1    0    0  501    0  0.00000000000E+00  0.00000000000E+00 -0.91435276024E+03  0.91435276025E+03  0.50400001928E-02 0. -1.
    10030    2    1    2    0    0  0.00000000000E+00  0.00000000000E+00 -0.37650350644E+03  0.14522020141E+04  0.14025461844E+04 0.  0.
        5    1    3    3  502    0  0.32542391730E+03 -0.55572067407E+03 -0.47563125354E+03  0.80060812691E+03  0.46999998093E+01 0. -1.
       -5    1    3    3    0  502 -0.32542391730E+03  0.55572067407E+03  0.99127747098E+02  0.65159388716E+03  0.46999998093E+01 0.  1.
</event>
<event>
 5   0  0.9900839E-05  0.1398970E+04  0.7818609E-02  0.8954565E-01
       -1   -1    0    0    0  501  0.00000000000E+00  0.00000000000E+00  0.10141897688E+04  0.10141897688E+04  0.50400001928E-02 0.  1.
        1   -1    0    0  501    0  0.00000000000E+00  0.00000000000E+00 -0.48243348100E+03  0.48243348103E+03  0.50400001928E-02 0. -1.
    10030    2    1    2    0    0  0.00000000000E+00  0.00000000000E+00  0.53175628777E+03  0.14966232498E+04  0.13989697646E+04 0.  0.
        3    1    3    3  502    0  0.34521820954E+03  0.49480170040E+03 -0.11277009489E+03  0.61377637574E+03  0.10100000352E+00 0. -1.
       -3    1    3    3    0  502 -0.34521820954E+03 -0.49480170040E+03  0.64452638266E+03  0.88284687408E+03  0.10100000352E+00 0.  1.
</event>
<event>
 5   0  0.9900839E-05  0.1395635E+04  0.7818609E-02  0.8956984E-01
        1   -1    0    0  501    0  0.00000000000E+00  0.00000000000E+00  0.11607095457E+04  0.11607095457E+04  0.50400001928E-02 0. -1.
       -1   -1    0    0    0  501  0.00000000000E+00  0.00000000000E+00 -0.41952739619E+03  0.41952739622E+03  0.50400001928E-02 0.  1.
    10030    2    1    2    0    0  0.00000000000E+00  0.00000000000E+00  0.74118214946E+03  0.15802369419E+04  0.13956352725E+04 0.  0.
        3    1    3    3  502    0  0.67795767578E+02  0.54236929908E+03 -0.12059615604E+03  0.55973579994E+03  0.10100000352E+00 0.  1.
       -3    1    3    3    0  502 -0.67795767578E+02 -0.54236929908E+03  0.86177830550E+03  0.10205011419E+04  0.10100000352E+00 0. -1.
</event>
<event>
 5   0  0.6671375E-05  0.1398476E+04  0.7818609E-02  0.8954923E-01
       -1   -1    0    0    0  501  0.00000000000E+00  0.00000000000E+00  0.66407607731E+03  0.66407607733E+03  0.50400001928E-02 0.  1.
        1   -1    0    0  501    0  0.00000000000E+00  0.00000000000E+00 -0.73626155523E+03  0.73626155525E+03  0.50400001928E-02 0. -1.
    10030    2    1    2    0    0  0.00000000000E+00  0.00000000000E+00 -0.72185477921E+02  0.14003376326E+04  0.13984758639E+04 0.  0.
        5    1    3    3  502    0  0.28913466183E+02 -0.37138172009E+03 -0.62861628029E+03  0.73071258946E+03  0.46999998093E+01 0. -1.
       -5    1    3    3    0  502 -0.28913466183E+02  0.37138172009E+03  0.55643080237E+03  0.66962504312E+03  0.46999998093E+01 0.  1.
</event>
<event>
 5   0  0.9828111E-05  0.1401900E+04  0.7818609E-02  0.8952444E-01
        1   -1    0    0  501    0  0.00000000000E+00  0.00000000000E+00  0.10719724515E+04  0.10719724515E+04  0.50400001928E-02 0.  1.
       -1   -1    0    0    0  501  0.00000000000E+00  0.00000000000E+00 -0.45834307311E+03  0.45834307314E+03  0.50400001928E-02 0. -1.
    10030    2    1    2    0    0  0.00000000000E+00  0.00000000000E+00  0.61362937837E+03  0.15303155246E+04  0.14019003499E+04 0.  0.
        4    1    3    3  502    0  0.65176268062E+03  0.24668720139E+03  0.22454268769E+03  0.73216814918E+03  0.12699999809E+01 0.  1.
       -4    1    3    3    0  502 -0.65176268062E+03 -0.24668720139E+03  0.38908669069E+03  0.79814737545E+03  0.12699999809E+01 0. -1.
</event>
<event>
 5   0  0.6671375E-05  0.1401540E+04  0.7818609E-02  0.8952705E-01
        1   -1    0    0  501    0  0.00000000000E+00  0.00000000000E+00  0.74155048247E+03  0.74155048249E+03  0.50400001928E-02 0. -1.
       -1   -1    0    0    0  501  0.00000000000E+00  0.00000000000E+00 -0.66223215214E+03  0.66223215216E+03  0.50400001928E-02 0.  1.
    10030    2    1    2    0    0  0.00000000000E+00  0.00000000000E+00  0.79318330334E+02  0.14037826346E+04  0.14015399701E+04 0.  0.
        5    1    3    3  502    0  0.32779548640E+03 -0.11886420769E+03  0.64847874620E+03  0.73629162365E+03  0.46999998093E+01 0. -1.
       -5    1    3    3    0  502 -0.32779548640E+03  0.11886420769E+03 -0.56916041587E+03  0.66749101100E+03  0.46999998093E+01 0.  1.
</event>
<event>
 5   0  0.1833681E-04  0.1399773E+04  0.7818609E-02  0.8953983E-01
        2   -1    0    0  501    0  0.00000000000E+00  0.00000000000E+00  0.21495481450E+04  0.21495481450E+04  0.25500000920E-02 0. -1.
       -2   -1    0    0    0  501  0.00000000000E+00  0.00000000000E+00 -0.22788104837E+03  0.22788104838E+03  0.25500000920E-02 0.  1.
    10030    2    1    2    0    0  0.00000000000E+00  0.00000000000E+00  0.19216670966E+04  0.23774291934E+04  0.13997732457E+04 0.  0.
        4    1    3    3  502    0 -0.17290072121E+03 -0.49013068679E+03  0.16470782510E+03  0.54520916177E+03  0.12699999809E+01 0.  1.
       -4    1    3    3    0  502  0.17290072121E+03  0.49013068679E+03  0.17569592715E+04  0.18322200316E+04  0.12699999809E+01 0. -1.
</event>
<event>
 5   0  0.6671375E-05  0.1399666E+04  0.7818609E-02  0.8954061E-01
       -1   -1    0    0    0  501  0.00000000000E+00  0.00000000000E+00  0.36781896487E+03  0.36781896490E+03  0.50400001928E-02 0.  1.
        1   -1    0    0  501    0  0.00000000000E+00  0.00000000000E+00 -0.13315409070E+04  0.13315409070E+04  0.50400001928E-02 0. -1.
    10030    2    1    2    0    0  0.00000000000E+00  0.00000000000E+00 -0.96372194210E+03  0.16993598719E+04  0.13996656717E+04 0.  0.
        5    1    3    3  502    0 -0.45163728487E+03  0.51601073627E+03 -0.65140595106E+03  0.94583038654E+03  0.46999998093E+01 0. -1.
       -5    1    3    3    0  502  0.45163728487E+03 -0.51601073627E+03 -0.31231599104E+03  0.75352948535E+03  0.46999998093E+01 0.  1.
</event>
<event>
 5   0  0.1766237E-04  0.1396076E+04  0.7818609E-02  0.8956664E-01
       -2   -1    0    0    0  501  0.00000000000E+00  0.00000000000E+00  0.43488150865E+03  0.43488150866E+03  0.25500000920E-02 0. -1.
        2   -1    0    0  501    0  0.00000000000E+00  0.00000000000E+00 -0.11204364653E+04  0.11204364653E+04  0.25500000920E-02 0.  1.
    10030    2    1    2    0    0  0.00000000000E+00  0.00000000000E+00 -0.68555495667E+03  0.15553179740E+04  0.13960760730E+04 0.  0.
        3    1    3    3  502    0  0.63631111284E+03  0.27414130610E+03 -0.43738638183E+03  0.81936081506E+03  0.10100000352E+00 0.  1.
       -3    1    3    3    0  502 -0.63631111284E+03 -0.27414130610E+03 -0.24816857484E+03  0.73595715893E+03  0.10100000352E+00 0. -1.
</event>
<event>
 5   0  0.1766237E-04  0.1398459E+04  0.7818609E-02  0.8954935E-01
        2   -1    0    0  501    0  0.00000000000E+00  0.00000000000E+00  0.10214807418E+04  0.10214807418E+04  0.25500000920E-02 0. -1.
       -2   -1    0    0    0  501  0.00000000000E+00  0.00000000000E+00 -0.47864026733E+03  0.47864026734E+03  0.25500000920E-02 0.  1.
    10030    2    1    2    0    0  0.00000000000E+00  0.00000000000E+00  0.54284047450E+03  0.15001210092E+04  0.13984588880E+04 0.  0.
        3    1    3    3  502    0 -0.37095387927E+03 -0.45818506197E+03  0.67476167484E+03  0.89601543491E+03  0.10100000352E+00 0. -1.
       -3    1    3    3    0  502  0.37095387927E+03  0.45818506197E+03 -0.13192120034E+03  0.60410557427E+03  0.10100000352E+00 0.  1.
</event>
<event>
 5   0  0.6671375E-05  0.1401732E+04  0.7818609E-02  0.8952566E-01
       -4   -1    0    0    0  501  0.00000000000E+00  0.00000000000E+00  0.39683337535E+03  0.39683540756E+03  0.12699999809E+01 0.  1.
        4   -1    0    0  501    0  0.00000000000E+00  0.00000000000E+00 -0.12378270766E+04  0.12378277281E+04  0.12699999809E+01 0. -1.
    10030    2    1    2    0    0  0.00000000000E+00  0.00000000000E+00 -0.84099370120E+03  0.16346631356E+04  0.14017322003E+04 0.  0.
        3    1    3    3  502    0 -0.41029867803E+03  0.13505580879E+03  0.22315092592E+03  0.48619072659E+03  0.10100000352E+00 0.  1.
       -3    1    3    3    0  502  0.41029867803E+03 -0.13505580879E+03 -0.10641446271E+04  0.11484724090E+04  0.10100000352E+00 0. -1.
</event>
<event>
 5   0  0.1780171E-04  0.1398848E+04  0.7818609E-02  0.8954653E-01
       -2   -1    0    0    0  501  0.00000000000E+00  0.00000000000E+00  0.18873526386E+03  0.18873526388E+03  0.25500000920E-02 0. -1.
        2   -1    0    0  501    0  0.00000000000E+00  0.00000000000E+00 -0.25919571952E+04  0.25919571952E+04  0.25500000920E-02 0.  1.
    10030    2    1    2    0    0  0.00000000000E+00  0.00000000000E+00 -0.24032219314E+04  0.27806924591E+04  0.13988477046E+04 0.  0.
        5    1    3    3  502    0  0.55283372421E+03 -0.30557070640E+03 -0.17985375338E+04  0.19062418351E+04  0.46999998093E+01 0. -1.
       -5    1    3    3    0  502 -0.55283372421E+03  0.30557070640E+03 -0.60468439754E+03  0.87445062402E+03  0.46999998093E+01 0.  1.
</event>
<event>
 5   0  0.6671375E-05  0.1400207E+04  0.7818609E-02  0.8953668E-01
        1   -1    0    0  501    0  0.00000000000E+00  0.00000000000E+00  0.43311458584E+03  0.43311458587E+03  0.50400001928E-02 0.  1.
       -1   -1    0    0    0  501  0.00000000000E+00  0.00000000000E+00 -0.11316755253E+04  0.11316755253E+04  0.50400001928E-02 0. -1.
    10030    2    1    2    0    0  0.00000000000E+00  0.00000000000E+00 -0.69856093946E+03  0.15647901112E+04  0.14002073796E+04 0.  0.
        5    1    3    3  502    0 -0.18202207614E+03 -0.25378459900E+03  0.35093268426E+03  0.46980261576E+03  0.46999998093E+01 0.  1.
       -5    1    3    3    0  502  0.18202207614E+03  0.25378459900E+03 -0.10494936237E+04  0.10949874954E+04  0.46999998093E+01 0. -1.
</event>
<event>
 5   0  0.9978422E-05  0.1400754E+04  0.7818609E-02  0.8953273E-01
       -1   -1    0    0    0  501  0.00000000000E+00  0.00000000000E+00  0.42473173502E+03  0.42473173505E+03  0.50400001928E-02 0.  1.
        1   -1    0    0  501    0  0.00000000000E+00  0.00000000000E+00 -0.11549125783E+04  0.11549125783E+04  0.50400001928E-02 0. -1.
    10030    2    1    2    0    0  0.00000000000E+00  0.00000000000E+00 -0.73018084325E+03  0.15796443133E+04  0.14007541157E+04 0.  0.
        2    1    3    3  502    0  0.43325199017E+03 -0.24124988006E+03  0.19266358660E+03  0.53200380565E+03  0.25500000920E-02 0.  1.
       -2    1    3    3    0  502 -0.43325199017E+03  0.24124988006E+03 -0.92284442985E+03  0.10476405077E+04  0.25500000920E-02 0. -1.
</event>
<event>
 5   0  0.1780171E-04  0.1397809E+04  0.7818609E-02  0.8955406E-01
        2   -1    0    0  501    0  0.00000000000E+00  0.00000000000E+00  0.18568247498E+04  0.18568247498E+04  0.25500000920E-02 0.  1.
       -2   -1    0    0    0  501  0.00000000000E+00  0.00000000000E+00 -0.26306602127E+03  0.26306602128E+03  0.25500000920E-02 0. -1.
    10030    2    1    2    0    0  0.00000000000E+00  0.00000000000E+00  0.15937587285E+04  0.21198907711E+04  0.13978089986E+04 0.  0.
        5    1    3    3  502    0  0.39884173480E+03 -0.45542044815E+03  0.26724090357E+03  0.66175698300E+03  0.46999998093E+01 0. -1.
       -5    1    3    3    0  502 -0.39884173480E+03  0.45542044815E+03  0.13265178250E+04  0.14581337881E+04  0.46999998093E+01 0.  1.
</event>
<event>
 5   0  0.1712327E-04  0.1398227E+04  0.7818609E-02  0.8955103E-01
       -2   -1    0    0    0  501  0.00000000000E+00  0.00000000000E+00  0.62271627425E+03  0.62271627425E+03  0.25500000920E-02 0.  1.
        2   -1    0    0  501    0  0.00000000000E+00  0.00000000000E+00 -0.78488302040E+03  0.78488302040E+03  0.25500000920E-02 0. -1.
    10030    2    1    2    0    0  0.00000000000E+00  0.00000000000E+00 -0.16216674615E+03  0.14075992947E+04  0.13982266343E+04 0.  0.
        1    1    3    3  502    0 -0.43822853120E+03  0.14810221020E+03 -0.60879268351E+03  0.76459599904E+03  0.50400001928E-02 0. -1.
       -1    1    3    3    0  502  0.43822853120E+03 -0.14810221020E+03  0.44662593736E+03  0.64300329561E+03  0.50400001928E-02 0.  1.
</event>
<event>
 5   0  0.9978422E-05  0.1401811E+04  0.7818609E-02  0.8952508E-01
       -1   -1    0    0    0  501  0.00000000000E+00  0.00000000000E+00  0.88451639646E+03  0.88451639648E+03  0.50400001928E-02 0.  1.
        1   -1    0    0  501    0  0.00000000000E+00  0.00000000000E+00 -0.55540956483E+03  0.55540956485E+03  0.50400001928E-02 0. -1.
    10030    2    1    2    0    0  0.00000000000E+00  0.00000000000E+00  0.32910683163E+03  0.14399259613E+04  0.14018114950E+04 0.  0.
        2    1    3    3  502    0  0.18249588514E+03  0.11148849497E+03 -0.52107874796E+03  0.56325615327E+03  0.25500000920E-02 0. -1.
       -2    1    3    3    0  502 -0.18249588514E+03 -0.11148849497E+03  0.85018557960E+03  0.87666980806E+03  0.25500000920E-02 0.  1.
</event>
<event>
 5   0  0.1712327E-04  0.1402818E+04  0.7818609E-02  0.8951781E-01
        2   -1    0    0  501    0  0.00000000000E+00  0.00000000000E+00  0.54638363336E+03  0.54638363336E+03  0.25500000920E-02 0. -1.
       -2   -1    0    0    0  501  0.00000000000E+00  0.00000000000E+00 -0.90041988804E+03  0.90041988804E+03  0.25500000920E-02 0.  1.
    10030    2    1    2    0    0  0.00000000000E+00  0.00000000000E+00 -0.35403625468E+03  0.14468035214E+04  0.14028181493E+04 0.  0.
        1    1    3    3  502    0  0.37459050799E+03 -0.48309353155E+03 -0.53171621526E+03  0.81019722445E+03  0.50400001928E-02 0. -1.
       -1    1    3    3    0  502 -0.37459050799E+03  0.48309353155E+03  0.17767996058E+03  0.63660629696E+03  0.50400001928E-02 0.  1.
</event>
<event>
 5   0  0.9828111E-05  0.1399085E+04  0.7818609E-02  0.8954481E-01
       -1   -1    0    0    0  501  0.00000000000E+00  0.00000000000E+00  0.74163858209E+03  0.74163858211E+03  0.50400001928E-02 0. -1.
        1   -1    0    0  501    0  0.00000000000E+00  0.00000000000E+00 -0.65983541375E+03  0.65983541377E+03  0.50400001928E-02 0.  1.
    10030    2    1    2    0    0  0.00000000000E+00  0.00000000000E+00  0.81803168339E+02  0.14014739959E+04  0.13990845588E+04 0.  0.
        4    1    3    3  502    0  0.13485655353E+02 -0.36165803576E+03 -0.55876878964E+03  0.66573460997E+03  0.12699999809E+01 0.  1.
       -4    1    3    3    0  502 -0.13485655353E+02  0.36165803576E+03  0.64057195798E+03  0.73573938591E+03  0.12699999809E+01 0. -1.
</event>
<event>
 5   0  0.6671375E-05  0.1363449E+04  0.7818609E-02  0.8980709E-01
       -1   -1    0    0    0  501  0.00000000000E+00  0.00000000000E+00  0.32957673515E+03  0.32957673519E+03  0.50400001928E-02 0.  1.
        1   -1    0    0  501    0  0.00000000000E+00  0.00000000000E+00 -0.14101377797E+04  0.14101377797E+04  0.50400001928E-02 0. -1.
    10030    2    1    2    0    0  0.00000000000E+00  0.00000000000E+00 -0.10805610446E+04  0.17397145149E+04  0.13634494572E+04 0.  0.
        5    1    3    3  502    0  0.50970832281E+03 -0.40532259690E+03 -0.28306177735E+03  0.71009509342E+03  0.46999998093E+01 0.  1.
       -5    1    3    3    0  502 -0.50970832281E+03  0.40532259690E+03 -0.79749926722E+03  0.10296194215E+04  0.46999998093E+01 0. -1.
</event>
<event>
 5   0  0.1766237E-04  0.1398273E+04  0.7818609E-02  0.8955069E-01
        2   -1    0    0  501    0  0.00000000000E+00  0.00000000000E+00  0.10715259759E+04  0.10715259759E+04  0.25500000920E-02 0. -1.
       -2   -1    0    0    0  501  0.00000000000E+00  0.00000000000E+00 -0.45616441642E+03  0.45616441643E+03  0.25500000920E-02 0.  1.
    10030    2    1    2    0    0  0.00000000000E+00  0.00000000000E+00  0.61536155950E+03  0.15276903924E+04  0.13982732515E+04 0.  0.
        3    1    3    3  502    0  0.10222519889E+02 -0.38938300044E+03 -0.32663031989E+03  0.50834141777E+03  0.10100000352E+00 0.  1.
       -3    1    3    3    0  502 -0.10222519889E+02  0.38938300044E+03  0.94199187939E+03  0.10193489746E+04  0.10100000352E+00 0. -1.
</event>
<event>
 5   0  0.9828111E-05  0.1398265E+04  0.7818609E-02  0.8955075E-01
       -1   -1    0    0    0  501  0.00000000000E+00  0.00000000000E+00  0.42091955270E+03  0.42091955273E+03  0.50400001928E-02 0.  1.
        1   -1    0    0  501    0  0.00000000000E+00  0.00000000000E+00 -0.11612350277E+04  0.11612350278E+04  0.50400001928E-02 0. -1.
    10030    2    1    2    0    0  0.00000000000E+00  0.00000000000E+00 -0.74031547505E+03  0.15821545805E+04  0.13982653947E+04 0.  0.
        4    1    3    3  502    0 -0.43642124178E+03 -0.51735521480E+03 -0.56830166491E+03  0.88379200822E+03  0.12699999809E+01 0. -1.
       -4    1    3    3    0  502  0.43642124178E+03  0.51735521480E+03 -0.17201381014E+03  0.69836257226E+03  0.12699999809E+01 0.  1.
</event>
<event>
 5   0  0.1766237E-04  0.1403559E+04  0.7818609E-02  0.8951246E-01
       -2   -1    0    0    0  501  0.00000000000E+00  0.00000000000E+00  0.65658860069E+03  0.65658860069E+03  0.25500000920E-02 0. -1.
        2   -1    0    0  501    0  0.00000000000E+00  0.00000000000E+00 -0.75008096621E+03  0.75008096622E+03  0.25500000920E-02 0.  1.
    10030    2    1    2    0    0  0.00000000000E+00  0.00000000000E+00 -0.93492365525E+02  0.14066695669E+04  0.14035592072E+04 0.  0.
        3    1    3    3  502    0 -0.10625146508E+03 -0.42043939849E+03 -0.59972604386E+03  0.74008783230E+03  0.10100000352E+00 0.  1.
       -3    1    3    3    0  502  0.10625146508E+03  0.42043939849E+03  0.50623367833E+03  0.66658173461E+03  0.10100000352E+00 0. -1.
</event>
<event>
 5   0  0.1833681E-04  0.1400808E+04  0.7818609E-02  0.8953234E-01
       -2   -1    0    0    0  501  0.00000000000E+00  0.00000000000E+00  0.46307460226E+03  0.46307460227E+03  0.25500000920E-02 0.  1.
        2   -1    0    0  501    0  0.00000000000E+00  0.00000000000E+00 -0.10593658888E+04  0.10593658888E+04  0.25500000920E-02 0. -1.
    10030    2    1    2    0    0  0.00000000000E+00  0.00000000000E+00 -0.59629128657E+03  0.15224404911E+04  0.14008075352E+04 0.  0.
        4    1    3    3  502    0 -0.42855815100E+03 -0.26445983991E+03  0.23091064195E+03  0.55400580609E+03  0.12699999809E+01 0.  1.
       -4    1    3    3    0  502  0.42855815100E+03  0.26445983991E+03 -0.82720192852E+03  0.96843468503E+03  0.12699999809E+01 0. -1.
</event>
<event>
 5   0  0.1794185E-04  0.1407913E+04  0.7818609E-02  0.8948111E-01
       -2   -1    0    0    0  501  0.00000000000E+00  0.00000000000E+00  0.69110363770E+03  0.69110363770E+03  0.25500000920E-02 0.  1.
        2   -1    0    0  501    0  0.00000000000E+00  0.00000000000E+00 -0.71704828989E+03  0.71704828990E+03  0.25500000920E-02 0. -1.
    10030    2    1    2    0    0  0.00000000000E+00  0.00000000000E+00 -0.25944652198E+02  0.14081519276E+04  0.14079128972E+04 0.  0.
        2    1    3    3  502    0  0.50603099495E+03  0.32243317372E+02  0.47542162823E+03  0.69507749493E+03  0.25500000920E-02 0.  1.
       -2    1    3    3    0  502 -0.50603099495E+03 -0.32243317372E+02 -0.50136628043E+03  0.71307443267E+03  0.25500000920E-02 0. -1.
</event>
<event>
 5   0  0.1794185E-04  0.1400152E+04  0.7818609E-02  0.8953709E-01
       -2   -1    0    0    0  501  0.00000000000E+00  0.00000000000E+00  0.94255208602E+03  0.94255208603E+03  0.25500000920E-02 0. -1.
        2   -1    0    0  501    0  0.00000000000E+00  0.00000000000E+00 -0.51997785371E+03  0.51997785372E+03  0.25500000920E-02 0.  1.
    10030    2    1    2    0    0  0.00000000000E+00  0.00000000000E+00  0.42257423231E+03  0.14625299397E+04  0.14001517214E+04 0.  0.
        2    1    3    3  502    0  0.55993432414E+02 -0.49647984373E+03  0.72352062386E+03  0.87926650844E+03  0.25500000920E-02 0. -1.
       -2    1    3    3    0  502 -0.55993432414E+02  0.49647984373E+03 -0.30094639155E+03  0.58326343130E+03  0.25500000920E-02 0.  1.
</event>
<event>
 5   0  0.9828111E-05  0.1387445E+04  0.7818609E-02  0.8962957E-01
        1   -1    0    0  501    0  0.00000000000E+00  0.00000000000E+00  0.23224109694E+04  0.23224109694E+04  0.50400001928E-02 0.  1.
       -1   -1    0    0    0  501  0.00000000000E+00  0.00000000000E+00 -0.20722048703E+03  0.20722048709E+03  0.50400001928E-02 0. -1.
    10030    2    1    2    0    0  0.00000000000E+00  0.00000000000E+00  0.21151904824E+04  0.25296314565E+04  0.13874453247E+04 0.  0.
        4    1    3    3  502    0 -0.27720941322E+03 -0.12797308941E+03  0.21933185621E+04  0.22144683557E+04  0.12699999809E+01 0.  1.
       -4    1    3    3    0  502  0.27720941322E+03  0.12797308941E+03 -0.78128079732E+02  0.31516310084E+03  0.12699999809E+01 0. -1.
</event>
<event>
 5   0  0.1794185E-04  0.1400671E+04  0.7818609E-02  0.8953333E-01
       -2   -1    0    0    0  501  0.00000000000E+00  0.00000000000E+00  0.32555074710E+03  0.32555074711E+03  0.25500000920E-02 0.  1.
        2   -1    0    0  501    0  0.00000000000E+00  0.00000000000E+00 -0.15065852544E+04  0.15065852544E+04  0.25500000920E-02 0. -1.
    10030    2    1    2    0    0  0.00000000000E+00  0.00000000000E+00 -0.11810345073E+04  0.18321360015E+04  0.14006712036E+04 0.  0.
        2    1    3    3  502    0  0.31398632497E+03  0.35718243035E+03 -0.12629870205E+04  0.13495565622E+04  0.25500000920E-02 0. -1.
       -2    1    3    3    0  502 -0.31398632497E+03 -0.35718243035E+03  0.81952513124E+02  0.48257943930E+03  0.25500000920E-02 0.  1.
</event>
<event>
 5   0  0.1780171E-04  0.1399964E+04  0.7818609E-02  0.8953845E-01
        2   -1    0    0  501    0  0.00000000000E+00  0.00000000000E+00  0.12312446970E+04  0.12312446970E+04  0.25500000920E-02 0.  1.
       -2   -1    0    0    0  501  0.00000000000E+00  0.00000000000E+00 -0.39795087329E+03  0.39795087330E+03  0.25500000920E-02 0. -1.
    10030    2    1    2    0    0  0.00000000000E+00  0.00000000000E+00  0.83329382373E+03  0.16291955703E+04  0.13999641459E+04 0.  0.
        5    1    3    3  502    0  0.30382082483E+03  0.56973203654E+03  0.10211134406E+03  0.65372050881E+03  0.46999998093E+01 0. -1.
       -5    1    3    3    0  502 -0.30382082483E+03 -0.56973203654E+03  0.73118247967E+03  0.97547506151E+03  0.46999998093E+01 0.  1.
</event>
<event>
 5   0  0.1780171E-04  0.1398551E+04  0.7818609E-02  0.8954868E-01
        2   -1    0    0  501    0  0.00000000000E+00  0.00000000000E+00  0.11508318965E+04  0.11508318965E+04  0.25500000920E-02 0.  1.
       -2   -1    0    0    0  501  0.00000000000E+00  0.00000000000E+00 -0.42489813172E+03  0.42489813173E+03  0.25500000920E-02 0. -1.
    10030    2    1    2    0    0  0.00000000000E+00  0.00000000000E+00  0.72593376475E+03  0.15757300282E+04  0.13985511399E+04 0.  0.
        5    1    3    3  502    0  0.37467710506E+03 -0.11650799715E+03 -0.28915762457E+03  0.48743334755E+03  0.46999998093E+01 0. -1.
       -5    1    3    3    0  502 -0.37467710506E+03  0.11650799715E+03  0.10150913893E+04  0.10882966807E+04  0.46999998093E+01 0.  1.
</event>
<event>
 5   0  0.1766237E-04  0.1401131E+04  0.7818609E-02  0.8953000E-01
        2   -1    0    0  501    0  0.00000000000E+00  0.00000000000E+00  0.15241609818E+04  0.15241609818E+04  0.25500000920E-02 0.  1.
       -2   -1    0    0    0  501  0.00000000000E+00  0.00000000000E+00 -0.32200799457E+03  0.32200799458E+03  0.25500000920E-02 0. -1.
    10030    2    1    2    0    0  0.00000000000E+00  0.00000000000E+00  0.12021529872E+04  0.18461689764E+04  0.14011310020E+04 0.  0.
        3    1    3    3  502    0 -0.73905879372E+01  0.70006440266E+03  0.56755530229E+03  0.90125680026E+03  0.10100000352E+00 0.  1.
       -3    1    3    3    0  502  0.73905879372E+01 -0.70006440266E+03  0.63459768494E+03  0.94491217613E+03  0.10100000352E+00 0. -1.
</event>
<event>
 5   0  0.6671375E-05  0.1399909E+04  0.7818609E-02  0.8953884E-01
       -1   -1    0    0    0  501  0.00000000000E+00  0.00000000000E+00  0.55138040284E+03  0.55138040286E+03  0.50400001928E-02 0. -1.
        1   -1    0    0  501    0  0.00000000000E+00  0.00000000000E+00 -0.88856355141E+03  0.88856355143E+03  0.50400001928E-02 0.  1.
    10030    2    1    2    0    0  0.00000000000E+00  0.00000000000E+00 -0.33718314857E+03  0.14399439543E+04  0.13999093241E+04 0.  0.
        5    1    3    3  502    0  0.48951239816E+01 -0.60655831056E+02 -0.88582121222E+03  0.88792139410E+03  0.46999998093E+01 0.  1.
       -5    1    3    3    0  502 -0.48951239816E+01  0.60655831056E+02  0.54863806365E+03  0.55202256019E+03  0.46999998093E+01 0. -1.
</event>
<event>
 5   0  0.6671375E-05  0.1400351E+04  0.7818609E-02  0.8953565E-01
       -3   -1    0    0    0  501  0.00000000000E+00  0.00000000000E+00  0.90528375586E+03  0.90528376149E+03  0.10100000352E+00 0. -1.
        3   -1    0    0  501    0  0.00000000000E+00  0.00000000000E+00 -0.54153798906E+03  0.54153799848E+03  0.10100000352E+00 0.  1.
    10030    2    1    2    0    0  0.00000000000E+00  0.00000000000E+00  0.36374576680E+03  0.14468217600E+04  0.14003507497E+04 0.  0.
        5    1    3    3  502    0 -0.49075391229E+03  0.49934342837E+03  0.18842393693E+03  0.72505788175E+03  0.46999998093E+01 0.  1.
       -5    1    3    3    0  502  0.49075391229E+03 -0.49934342837E+03  0.17532182987E+03  0.72176387823E+03  0.46999998093E+01 0. -1.
</event>
<event>
 5   0  0.9260916E-05  0.1394301E+04  0.7818609E-02  0.8957954E-01
       -1   -1    0    0    0  501  0.00000000000E+00  0.00000000000E+00  0.49234293209E+03  0.49234293212E+03  0.50400001928E-02 0. -1.
        1   -1    0    0  501    0  0.00000000000E+00  0.00000000000E+00 -0.98715564625E+03  0.98715564626E+03  0.50400001928E-02 0.  1.
    10030    2    1    2    0    0  0.00000000000E+00  0.00000000000E+00 -0.49481271416E+03  0.14794985784E+04  0.13943014098E+04 0.  0.
        1    1    3    3  502    0 -0.14423274240E+03 -0.12168262710E+02  0.47622286006E+03  0.49773422935E+03  0.50400001928E-02 0. -1.
       -1    1    3    3    0  502  0.14423274240E+03  0.12168262710E+02 -0.97103557422E+03  0.98176434903E+03  0.50400001928E-02 0.  1.
</event>
<event>
 5   0  0.1766237E-04  0.1400443E+04  0.7818609E-02  0.8953498E-01
        2   -1    0    0  501    0  0.00000000000E+00  0.00000000000E+00  0.18539356326E+04  0.18539356326E+04  0.25500000920E-02 0. -1.
       -2   -1    0    0    0  501  0.00000000000E+00  0.00000000000E+00 -0.26446982914E+03  0.26446982916E+03  0.25500000920E-02 0.  1.
    10030    2    1    2    0    0  0.00000000000E+00  0.00000000000E+00  0.15894658034E+04  0.21184054617E+04  0.14004428443E+04 0.  0.
        3    1    3    3  502    0  0.46369810083E+03  0.46210003541E+03  0.41881837480E+03  0.77714941467E+03  0.10100000352E+00 0.  1.
       -3    1    3    3    0  502 -0.46369810083E+03 -0.46210003541E+03  0.11706474286E+04  0.13412560471E+04  0.10100000352E+00 0. -1.
</event>
<event>
 5   0  0.9978422E-05  0.1400296E+04  0.7818609E-02  0.8953604E-01
       -1   -1    0    0    0  501  0.00000000000E+00  0.00000000000E+00  0.65139696878E+03  0.65139696880E+03  0.50400001928E-02 0. -1.
        1   -1    0    0  501    0  0.00000000000E+00  0.00000000000E+00 -0.75254778759E+03  0.75254778761E+03  0.50400001928E-02 0.  1.
    10030    2    1    2    0    0  0.00000000000E+00  0.00000000000E+00 -0.10115081881E+03  0.14039447564E+04  0.14002961797E+04 0.  0.
        2    1    3    3  502    0  0.29565462286E+03 -0.60408365275E+03 -0.24570685374E+03  0.71603112609E+03  0.25500000920E-02 0.  1.
       -2    1    3    3    0  502 -0.29565462286E+03  0.60408365275E+03  0.14455603493E+03  0.68791363032E+03  0.25500000920E-02 0. -1.
</event>
<event>
 5   0  0.1833681E-04  0.1402043E+04  0.7818609E-02  0.8952341E-01
        2   -1    0    0  501    0  0.00000000000E+00  0.00000000000E+00  0.10596082110E+04  0.10596082110E+04  0.25500000920E-02 0. -1.
       -2   -1    0    0    0  501  0.00000000000E+00  0.00000000000E+00 -0.46378593910E+03  0.46378593910E+03  0.25500000920E-02 0.  1.
    10030    2    1    2    0    0  0.00000000000E+00  0.00000000000E+00  0.59582227192E+03  0.15233941501E+04  0.14020433506E+04 0.  0.
        4    1    3    3  502    0 -0.18214509621E+02  0.26497465325E+03  0.10028205476E+04  0.10373977052E+04  0.12699999809E+01 0. -1.
       -4    1    3    3    0  502  0.18214509621E+02 -0.26497465325E+03 -0.40699827563E+03  0.48599644494E+03  0.12699999809E+01 0.  1.
</event>
<event>
 5   0  0.6671375E-05  0.1401953E+04  0.7818609E-02  0.8952406E-01
       -1   -1    0    0    0  501  0.00000000000E+00  0.00000000000E+00  0.77893680996E+03  0.77893680998E+03  0.50400001928E-02 0. -1.
        1   -1    0    0  501    0  0.00000000000E+00  0.00000000000E+00 -0.63081912555E+03  0.63081912557E+03  0.50400001928E-02 0.  1.
    10030    2    1    2    0    0  0.00000000000E+00  0.00000000000E+00  0.14811768441E+03  0.14097559355E+04  0.14019532622E+04 0.  0.
        5    1    3    3  502    0  0.47901476876E+03  0.78422655046E+02  0.58258169985E+03  0.75830652675E+03  0.46999998093E+01 0. -1.
       -5    1    3    3    0  502 -0.47901476876E+03 -0.78422655046E+02 -0.43446401544E+03  0.65144940880E+03  0.46999998093E+01 0.  1.
</event>
<event>
 5   0  0.9828111E-05  0.1401045E+04  0.7818609E-02  0.8953063E-01
        1   -1    0    0  501    0  0.00000000000E+00  0.00000000000E+00  0.11950659676E+04  0.11950659676E+04  0.50400001928E-02 0. -1.
       -1   -1    0    0    0  501  0.00000000000E+00  0.00000000000E+00 -0.41063140460E+03  0.41063140463E+03  0.50400001928E-02 0.  1.
    10030    2    1    2    0    0  0.00000000000E+00  0.00000000000E+00  0.78443456303E+03  0.16056973723E+04  0.14010447772E+04 0.  0.
        4    1    3    3  502    0 -0.54216184867E+03 -0.77410937487E+01 -0.11611495242E+03  0.55451211868E+03  0.12699999809E+01 0.  1.
       -4    1    3    3    0  502  0.54216184867E+03  0.77410937487E+01  0.90054951546E+03  0.10511852536E+04  0.12699999809E+01 0. -1.
</event>
<event>
 5   0  0.1833681E-04  0.1401859E+04  0.7818609E-02  0.8952474E-01
       -2   -1    0    0    0  501  0.00000000000E+00  0.00000000000E+00  0.27218172895E+03  0.27218172896E+03  0.25500000920E-02 0.  1.
        2   -1    0    0  501    0  0.00000000000E+00  0.00000000000E+00 -0.18050510121E+04  0.18050510121E+04  0.25500000920E-02 0. -1.
    10030    2    1    2    0    0  0.00000000000E+00  0.00000000000E+00 -0.15328692831E+04  0.20772327410E+04  0.14018586310E+04 0.  0.
        4    1    3    3  502    0  0.24906753281E+03  0.38435960877E+03 -0.15526578538E+04  0.16188004721E+04  0.12699999809E+01 0. -1.
       -4    1    3    3    0  502 -0.24906753281E+03 -0.38435960877E+03  0.19788570644E+02  0.45843226892E+03  0.12699999809E+01 0.  1.
</event>
<event>
 5   0  0.1712327E-04  0.1399160E+04  0.7818609E-02  0.8954427E-01
        2   -1    0    0  501    0  0.00000000000E+00  0.00000000000E+00  0.55412579496E+03  0.55412579497E+03  0.25500000920E-02 0.  1.
       -2   -1    0    0    0  501  0.00000000000E+00  0.00000000000E+00 -0.88321507043E+03  0.88321507043E+03  0.25500000920E-02 0. -1.
    10030    2    1    2    0    0  0.00000000000E+00  0.00000000000E+00 -0.32908927546E+03  0.14373408654E+04  0.13991601095E+04 0.  0.
        1    1    3    3  502    0  0.13551027474E+03 -0.40151858688E+03 -0.73635961146E+03  0.84959148277E+03  0.50400001928E-02 0. -1.
       -1    1    3    3    0  502 -0.13551027474E+03  0.40151858688E+03  0.40727033600E+03  0.58774938263E+03  0.50400001928E-02 0.  1.
</event>
<event>
 5   0  0.1794185E-04  0.1399659E+04  0.7818609E-02  0.8954066E-01
       -2   -1    0    0    0  501  0.00000000000E+00  0.00000000000E+00  0.27648747108E+03  0.27648747110E+03  0.25500000920E-02 0. -1.
        2   -1    0    0  501    0  0.00000000000E+00  0.00000000000E+00 -0.17713686603E+04  0.17713686603E+04  0.25500000920E-02 0.  1.
    10030    2    1    2    0    0  0.00000000000E+00  0.00000000000E+00 -0.14948811892E+04  0.20478561314E+04  0.13996588745E+04 0.  0.
        2    1    3    3  502    0 -0.47022046547E+03 -0.27418281308E+03 -0.13910060784E+04  0.14937139657E+04  0.25500000920E-02 0.  1.
       -2    1    3    3    0  502  0.47022046547E+03  0.27418281308E+03 -0.10387511078E+03  0.55414216568E+03  0.25500000920E-02 0. -1.
</event>
<event>
 5   0  0.9900839E-05  0.1399691E+04  0.7818609E-02  0.8954043E-01
        1   -1    0    0  501    0  0.00000000000E+00  0.00000000000E+00  0.10671759094E+04  0.10671759094E+04  0.50400001928E-02 0.  1.
       -1   -1    0    0    0  501  0.00000000000E+00  0.00000000000E+00 -0.45895288632E+03  0.45895288635E+03  0.50400001928E-02 0. -1.
    10030    2    1    2    0    0  0.00000000000E+00  0.00000000000E+00  0.60822302306E+03  0.15261287957E+04  0.13996906285E+04 0.  0.
        3    1    3    3  502    0  0.28245261368E+03  0.46874560201E+03 -0.17150558295E+03  0.57351206924E+03  0.10100000352E+00 0. -1.
       -3    1    3    3    0  502 -0.28245261368E+03 -0.46874560201E+03  0.77972860601E+03  0.95261672651E+03  0.10100000352E+00 0.  1.
</event>
<event>
 5   0  0.6671375E-05  0.1403312E+04  0.7818609E-02  0.8951425E-01
       -1   -1    0    0    0  501  0.00000000000E+00  0.00000000000E+00  0.42127077503E+03  0.42127077506E+03  0.50400001928E-02 0. -1.
        1   -1    0    0  501    0  0.00000000000E+00  0.00000000000E+00 -0.11686567067E+04  0.11686567067E+04  0.50400001928E-02 0.  1.
    10030    2    1    2    0    0  0.00000000000E+00  0.00000000000E+00 -0.74738593169E+03  0.15899274818E+04  0.14033116783E+04 0.  0.
        5    1    3    3  502    0  0.19828400495E+01  0.16343068504E+03  0.39938413538E+03  0.43155914781E+03  0.46999998093E+01 0. -1.
       -5    1    3    3    0  502 -0.19828400495E+01 -0.16343068504E+03 -0.11467700671E+04  0.11583683340E+04  0.46999998093E+01 0.  1.
</event>
<event>
 5   0  0.9260916E-05  0.1398991E+04  0.7818609E-02  0.8954549E-01
       -1   -1    0    0    0  501  0.00000000000E+00  0.00000000000E+00  0.11891037878E+04  0.11891037879E+04  0.50400001928E-02 0. -1.
        1   -1    0    0  501    0  0.00000000000E+00  0.00000000000E+00 -0.41148154591E+03  0.41148154594E+03  0.50400001928E-02 0.  1.
    10030    2    1    2    0    0  0.00000000000E+00  0.00000000000E+00  0.77762224194E+03  0.16005853338E+04  0.13989914437E+04 0.  0.
        1    1    3    3  502    0 -0.16833232066E+03  0.12844311951E+03 -0.37393592754E+03  0.42972256522E+03  0.50400001928E-02 0.  1.
       -1    1    3    3    0  502  0.16833232066E+03 -0.12844311951E+03  0.11515581695E+04  0.11708627686E+04  0.50400001928E-02 0. -1.
</event>
<event>
 5   0  0.9978422E-05  0.1399435E+04  0.7818609E-02  0.8954228E-01
       -1   -1    0    0    0  501  0.00000000000E+00  0.00000000000E+00  0.40577539532E+03  0.40577539535E+03  0.50400001928E-02 0.  1.
        1   -1    0    0  501    0  0.00000000000E+00  0.00000000000E+00 -0.12065901578E+04  0.12065901578E+04  0.50400001928E-02 0. -1.
    10030    2    1    2    0    0  0.00000000000E+00  0.00000000000E+00 -0.80081476249E+03  0.16123655532E+04  0.13994350264E+04 0.  0.
        2    1    3    3  502    0  0.18868258274E+03  0.38529251881E+03 -0.10372823186E+04  0.11224999112E+04  0.25500000920E-02 0. -1.
       -2    1    3    3    0  502 -0.18868258274E+03 -0.38529251881E+03  0.23646755613E+03  0.48986564198E+03  0.25500000920E-02 0.  1.
</event>
<event>
 5   0  0.1794185E-04  0.1398457E+04  0.7818609E-02  0.8954937E-01
        2   -1    0    0  501    0  0.00000000000E+00  0.00000000000E+00  0.93189563878E+03  0.93189563878E+03  0.25500000920E-02 0.  1.
       -2   -1    0    0    0  501  0.00000000000E+00  0.00000000000E+00 -0.52465118809E+03  0.52465118809E+03  0.25500000920E-02 0. -1.
    10030    2    1    2    0    0  0.00000000000E+00  0.00000000000E+00  0.40724445069E+03  0.14565468269E+04  0.13984565121E+04 0.  0.
        2    1    3    3  502    0  0.14063872287E+02 -0.50863814136E+03 -0.29589270043E+03  0.58861111230E+03  0.25500000920E-02 0. -1.
       -2    1    3    3    0  502 -0.14063872287E+02  0.50863814136E+03  0.70313715112E+03  0.86793571458E+03  0.25500000920E-02 0.  1.
</event>
<event>
 5   0  0.1780171E-04  0.1400772E+04  0.7818609E-02  0.8953260E-01
       -2   -1    0    0    0  501  0.00000000000E+00  0.00000000000E+00  0.38147449073E+03  0.38147449074E+03  0.25500000920E-02 0. -1.
        2   -1    0    0  501    0  0.00000000000E+00  0.00000000000E+00 -0.12859071944E+04  0.12859071944E+04  0.25500000920E-02 0.  1.
    10030    2    1    2    0    0  0.00000000000E+00  0.00000000000E+00 -0.90443270369E+03  0.16673816852E+04  0.14007723471E+04 0.  0.
        5    1    3    3  502    0 -0.14691282504E+03 -0.45222658237E+03  0.15988016473E+03  0.50167321738E+03  0.46999998093E+01 0. -1.
       -5    1    3    3    0  502  0.14691282504E+03  0.45222658237E+03 -0.10643128684E+04  0.11657084678E+04  0.46999998093E+01 0.  1.
</event>
<event>
 5   0  0.9260916E-05  0.1401040E+04  0.7818609E-02  0.8953066E-01
        1   -1    0    0  501    0  0.00000000000E+00  0.00000000000E+00  0.98880803777E+03  0.98880803778E+03  0.50400001928E-02 0. -1.
       -1   -1    0    0    0  501  0.00000000000E+00  0.00000000000E+00 -0.49628279094E+03  0.49628279096E+03  0.50400001928E-02 0.  1.
    10030    2    1    2    0    0  0.00000000000E+00  0.00000000000E+00  0.49252524683E+03  0.14850908287E+04  0.14010402032E+04 0.  0.
        1    1    3    3  502    0  0.58478659300E+03  0.22155910457E+03 -0.88373575458E+02  0.63156447418E+03  0.50400001928E-02 0.  1.
       -1    1    3    3    0  502 -0.58478659300E+03 -0.22155910457E+03  0.58089882229E+03  0.85352635457E+03  0.50400001928E-02 0. -1.
</event>
<event>
 5   0  0.1712327E-04  0.1398898E+04  0.7818609E-02  0.8954616E-01
        2   -1    0    0  501    0  0.00000000000E+00  0.00000000000E+00  0.59967903507E+03  0.59967903508E+03  0.25500000920E-02 0.  1.
       -2   -1    0    0    0  501  0.00000000000E+00  0.00000000000E+00 -0.81581843702E+03  0.81581843702E+03  0.25500000920E-02 0. -1.
    10030    2    1    2    0    0  0.00000000000E+00  0.00000000000E+00 -0.21613940195E+03  0.14154974721E+04  0.13988984425E+04 0.  0.
        1    1    3    3  502    0 -0.58547913922E+03 -0.35232651635E+03 -0.25920538544E+03  0.73082640104E+03  0.50400001928E-02 0. -1.
       -1    1    3    3    0  502  0.58547913922E+03  0.35232651635E+03  0.43065983497E+02  0.68467107106E+03  0.50400001928E-02 0.  1.
</event>
<event>
 5   0  0.9260916E-05  0.1396396E+04  0.7818609E-02  0.8956431E-01
       -1   -1    0    0    0  501  0.00000000000E+00  0.00000000000E+00  0.23619028017E+03  0.23619028022E+03  0.50400001928E-02 0.  1.
        1   -1    0    0  501    0  0.00000000000E+00  0.00000000000E+00 -0.20639313428E+04  0.20639313428E+04  0.50400001928E-02 0. -1.
    10030    2    1    2    0    0  0.00000000000E+00  0.00000000000E+00 -0.18277410626E+04  0.23001216230E+04  0.13963961074E+04 0.  0.
        1    1    3    3  502    0  0.19949446764E+03  0.18623034237E+03 -0.19724356656E+04  0.19912263151E+04  0.50400001928E-02 0. -1.
       -1    1    3    3    0  502 -0.19949446764E+03 -0.18623034237E+03  0.14469460304E+03  0.30889530785E+03  0.50400001928E-02 0.  1.
</event>
<event>
 5   0  0.1780171E-04  0.1398761E+04  0.7818609E-02  0.8954716E-01
        2   -1    0    0  501    0  0.00000000000E+00  0.00000000000E+00  0.16911518473E+04  0.16911518473E+04  0.25500000920E-02 0. -1.
       -2   -1    0    0    0  501  0.00000000000E+00  0.00000000000E+00 -0.28923086847E+03  0.28923086848E+03  0.25500000920E-02 0.  1.
    10030    2    1    2    0    0  0.00000000000E+00  0.00000000000E+00  0.14019209788E+04  0.19803827158E+04  0.13987613342E+04 0.  0.
        5    1    3    3  502    0  0.11062560782E+03  0.55913854750E+03  0.12718579547E+03  0.58401391847E+03  0.46999998093E+01 0. -1.
       -5    1    3    3    0  502 -0.11062560782E+03 -0.55913854750E+03  0.12747351833E+04  0.13963687973E+04  0.46999998093E+01 0.  1.
</event>
<event>
 5   0  0.1712327E-04  0.1398870E+04  0.7818609E-02  0.8954637E-01
        2   -1    0    0  501    0  0.00000000000E+00  0.00000000000E+00  0.71952555548E+03  0.71952555549E+03  0.25500000920E-02 0.  1.
       -2   -1    0    0    0  501  0.00000000000E+00  0.00000000000E+00 -0.67990508030E+03  0.67990508031E+03  0.25500000920E-02 0. -1.
    10030    2    1    2    0    0  0.00000000000E+00  0.00000000000E+00  0.39620475178E+02  0.13994306358E+04  0.13988696588E+04 0.  0.
        1    1    3    3  502    0  0.44463646134E+03 -0.45499888276E+03  0.31058727848E+03  0.70794775489E+03  0.50400001928E-02 0. -1.
       -1    1    3    3    0  502 -0.44463646134E+03  0.45499888276E+03 -0.27096680330E+03  0.69148288091E+03  0.50400001928E-02 0.  1.
</event>
<event>
 5   0  0.1780171E-04  0.1400603E+04  0.7818609E-02  0.8953382E-01
       -2   -1    0    0    0  501  0.00000000000E+00  0.00000000000E+00  0.33145808332E+03  0.33145808333E+03  0.25500000920E-02 0.  1.
        2   -1    0    0  501    0  0.00000000000E+00  0.00000000000E+00 -0.14795898499E+04  0.14795898499E+04  0.25500000920E-02 0. -1.
    10030    2    1    2    0    0  0.00000000000E+00  0.00000000000E+00 -0.11481317666E+04  0.18110479332E+04  0.14006027499E+04 0.  0.
        5    1    3    3  502    0  0.81926693904E+02  0.39666770294E+03  0.16460657339E+03  0.43723524987E+03  0.46999998093E+01 0.  1.
       -5    1    3    3    0  502 -0.81926693904E+02 -0.39666770294E+03 -0.13127383400E+04  0.13738126834E+04  0.46999998093E+01 0. -1.
</event>
<event>
 5   0  0.1780171E-04  0.1400633E+04  0.7818609E-02  0.8953360E-01
       -2   -1    0    0    0  501  0.00000000000E+00  0.00000000000E+00  0.33016791214E+03  0.33016791215E+03  0.25500000920E-02 0. -1.
        2   -1    0    0  501    0  0.00000000000E+00  0.00000000000E+00 -0.14854365202E+04  0.14854365202E+04  0.25500000920E-02 0.  1.
    10030    2    1    2    0    0  0.00000000000E+00  0.00000000000E+00 -0.11552686081E+04  0.18156044324E+04  0.14006333917E+04 0.  0.
        5    1    3    3  502    0  0.65208593285E+03  0.15050310827E+03 -0.31023046232E+03  0.73765322420E+03  0.46999998093E+01 0. -1.
       -5    1    3    3    0  502 -0.65208593285E+03 -0.15050310827E+03 -0.84503814576E+03  0.10779512082E+04  0.46999998093E+01 0.  1.
</event>
<event>
 5   0  0.6671375E-05  0.1400934E+04  0.7818609E-02  0.8953143E-01
       -4   -1    0    0    0  501  0.00000000000E+00  0.00000000000E+00  0.69373987282E+03  0.69374103528E+03  0.12699999809E+01 0.  1.
        4   -1    0    0  501    0  0.00000000000E+00  0.00000000000E+00 -0.70725710359E+03  0.70725824384E+03  0.12699999809E+01 0. -1.
    10030    2    1    2    0    0  0.00000000000E+00  0.00000000000E+00 -0.13517230773E+02  0.14009992791E+04  0.14009340686E+04 0.  0.
        1    1    3    3  502    0  0.19302780517E+03 -0.46670617656E+02  0.66499892517E+03  0.69401833594E+03  0.50400001928E-02 0.  1.
       -1    1    3    3    0  502 -0.19302780517E+03  0.46670617656E+02 -0.67851615594E+03  0.70698094318E+03  0.50400001928E-02 0. -1.
</event>
<event>
 5   0  0.1712327E-04  0.1384737E+04  0.7818609E-02  0.8964941E-01
       -2   -1    0    0    0  501  0.00000000000E+00  0.00000000000E+00  0.26160850305E+03  0.26160850306E+03  0.25500000920E-02 0. -1.
        2   -1    0    0  501    0  0.00000000000E+00  0.00000000000E+00 -0.18324110991E+04  0.18324110991E+04  0.25500000920E-02 0.  1.
    10030    2    1    2    0    0  0.00000000000E+00  0.00000000000E+00 -0.15708025960E+04  0.20940196021E+04  0.13847372669E+04 0.  0.
        1    1    3    3  502    0 -0.31858339836E+03 -0.43624715291E+03 -0.13047564701E+03  0.55572552094E+03  0.50400001928E-02 0. -1.
       -1    1    3    3    0  502  0.31858339836E+03  0.43624715291E+03 -0.14403269490E+04  0.15382940812E+04  0.50400001928E-02 0.  1.
</event>
<event>
 5   0  0.9978422E-05  0.1400347E+04  0.7818609E-02  0.8953567E-01
        1   -1    0    0  501    0  0.00000000000E+00  0.00000000000E+00  0.60646573425E+03  0.60646573428E+03  0.50400001928E-02 0. -1.
       -1   -1    0    0    0  501  0.00000000000E+00  0.00000000000E+00 -0.80836092975E+03  0.80836092977E+03  0.50400001928E-02 0.  1.
    10030    2    1    2    0    0  0.00000000000E+00  0.00000000000E+00 -0.20189519550E+03  0.14148266640E+04  0.14003473924E+04 0.  0.
        2    1    3    3  502    0  0.39587148446E+03 -0.54019667617E+03 -0.30730569000E+03  0.73686054873E+03  0.25500000920E-02 0.  1.
       -2    1    3    3    0  502 -0.39587148446E+03  0.54019667617E+03  0.10541049450E+03  0.67796611531E+03  0.25500000920E-02 0. -1.
</event>
<event>
 5   0  0.1833681E-04  0.1399794E+04  0.7818609E-02  0.8953968E-01
       -2   -1    0    0    0  501  0.00000000000E+00  0.00000000000E+00  0.33328776514E+03  0.33328776515E+03  0.25500000920E-02 0.  1.
        2   -1    0    0  501    0  0.00000000000E+00  0.00000000000E+00 -0.14697685543E+04  0.14697685543E+04  0.25500000920E-02 0. -1.
    10030    2    1    2    0    0  0.00000000000E+00  0.00000000000E+00 -0.11364807892E+04  0.18030563195E+04  0.13997940945E+04 0.  0.
        4    1    3    3  502    0 -0.18240332784E+03 -0.50522515370E+03  0.97229313484E+01  0.53723326240E+03  0.12699999809E+01 0.  1.
       -4    1    3    3    0  502  0.18240332784E+03  0.50522515370E+03 -0.11462037205E+04  0.12658230571E+04  0.12699999809E+01 0. -1.
</event>
<event>
 5   0  0.9900839E-05  0.1401862E+04  0.7818609E-02  0.8952472E-01
       -1   -1    0    0    0  501  0.00000000000E+00  0.00000000000E+00  0.25367678293E+03  0.25367678298E+03  0.50400001928E-02 0.  1.
        1   -1    0    0  501    0  0.00000000000E+00  0.00000000000E+00 -0.19367343288E+04  0.19367343288E+04  0.50400001928E-02 0. -1.
    10030    2    1    2    0    0  0.00000000000E+00  0.00000000000E+00 -0.16830575458E+04  0.21904111118E+04  0.14018623812E+04 0.  0.
        3    1    3    3  502    0 -0.59144739952E+03 -0.37505592156E+03 -0.88647758101E+03  0.11297431047E+04  0.10100000352E+00 0. -1.
       -3    1    3    3    0  502  0.59144739952E+03  0.37505592156E+03 -0.79657996484E+03  0.10606680071E+04  0.10100000352E+00 0.  1.
</event>
<event>
 5   0  0.1766237E-04  0.1401201E+04  0.7818609E-02  0.8952949E-01
       -2   -1    0    0    0  501  0.00000000000E+00  0.00000000000E+00  0.30539640345E+03  0.30539640346E+03  0.25500000920E-02 0.  1.
        2   -1    0    0  501    0  0.00000000000E+00  0.00000000000E+00 -0.16072268152E+04  0.16072268152E+04  0.25500000920E-02 0. -1.
    10030    2    1    2    0    0  0.00000000000E+00  0.00000000000E+00 -0.13018304117E+04  0.19126232187E+04  0.14012013259E+04 0.  0.
        3    1    3    3  502    0  0.34798465498E+03  0.59632524127E+03 -0.48857819518E+03  0.84581663290E+03  0.10100000352E+00 0.  1.
       -3    1    3    3    0  502 -0.34798465498E+03 -0.59632524127E+03 -0.81325221656E+03  0.10668065858E+04  0.10100000352E+00 0. -1.
</event>
<event>
 5   0  0.9828111E-05  0.1399165E+04  0.7818609E-02  0.8954423E-01
        1   -1    0    0  501    0  0.00000000000E+00  0.00000000000E+00  0.99649351089E+03  0.99649351090E+03  0.50400001928E-02 0.  1.
       -1   -1    0    0    0  501  0.00000000000E+00  0.00000000000E+00 -0.49113769365E+03  0.49113769368E+03  0.50400001928E-02 0. -1.
    10030    2    1    2    0    0  0.00000000000E+00  0.00000000000E+00  0.50535581724E+03  0.14876312046E+04  0.13991647862E+04 0.  0.
        4    1    3    3  502    0 -0.54762495137E+03 -0.19846909637E+03  0.66464390761E+03  0.88376252829E+03  0.12699999809E+01 0.  1.
       -4    1    3    3    0  502  0.54762495137E+03  0.19846909637E+03 -0.15928809038E+03  0.60386867630E+03  0.12699999809E+01 0. -1.
</event>
<event>
 5   0  0.1712327E-04  0.1398942E+04  0.7818609E-02  0.8954585E-01
       -2   -1    0    0    0  501  0.00000000000E+00  0.00000000000E+00  0.31944160576E+03  0.31944160577E+03  0.25500000920E-02 0.  1.
        2   -1    0    0  501    0  0.00000000000E+00  0.00000000000E+00 -0.15316088155E+04  0.15316088155E+04  0.25500000920E-02 0. -1.
    10030    2    1    2    0    0  0.00000000000E+00  0.00000000000E+00 -0.12121672097E+04  0.18510504213E+04  0.13989418564E+04 0.  0.
        1    1    3    3  502    0 -0.18442896602E+03  0.67448697057E+03 -0.58267932470E+03  0.91019883127E+03  0.50400001928E-02 0.  1.
       -1    1    3    3    0  502  0.18442896602E+03 -0.67448697057E+03 -0.62948788502E+03  0.94085159000E+03  0.50400001928E-02 0. -1.
</event>
<event>
 5   0  0.6671375E-05  0.1400185E+04  0.7818609E-02  0.8953685E-01
       -1   -1    0    0    0  501  0.00000000000E+00  0.00000000000E+00  0.22072471270E+03  0.22072471276E+03  0.50400001928E-02 0. -1.
        1   -1    0    0  501    0  0.00000000000E+00  0.00000000000E+00 -0.22205453951E+04  0.22205453951E+04  0.50400001928E-02 0.  1.
    10030    2    1    2    0    0  0.00000000000E+00  0.00000000000E+00 -0.19998206824E+04  0.24412701078E+04  0.14001846227E+04 0.  0.
        5    1    3    3  502    0  0.45835188563E+03  0.23507344477E+03 -0.18265023081E+04  0.18977562402E+04  0.46999998093E+01 0.  1.
       -5    1    3    3    0  502 -0.45835188563E+03 -0.23507344477E+03 -0.17331837424E+03  0.54351386766E+03  0.46999998093E+01 0. -1.
</event>
<event>
 5   0  0.9828111E-05  0.1400191E+04  0.7818609E-02  0.8953681E-01
       -1   -1    0    0    0  501  0.00000000000E+00  0.00000000000E+00  0.10688835709E+04  0.10688835709E+04  0.50400001928E-02 0.  1.
        1   -1    0    0  501    0  0.00000000000E+00  0.00000000000E+00 -0.45854713772E+03  0.45854713775E+03  0.50400001928E-02 0. -1.
    10030    2    1    2    0    0  0.00000000000E+00  0.00000000000E+00  0.61033643322E+03  0.15274307087E+04  0.14001907042E+04 0.  0.
        4    1    3    3  502    0 -0.40098375247E+03 -0.22279356528E+03 -0.27176554462E+03  0.53318202015E+03  0.12699999809E+01 0. -1.
       -4    1    3    3    0  502  0.40098375247E+03  0.22279356528E+03  0.88210197783E+03  0.99424868854E+03  0.12699999809E+01 0.  1.
</event>
<event>
 5   0  0.1766237E-04  0.1400279E+04  0.7818609E-02  0.8953616E-01
        2   -1    0    0  501    0  0.00000000000E+00  0.00000000000E+00  0.11830888792E+04  0.11830888792E+04  0.25500000920E-02 0. -1.
       -2   -1    0    0    0  501  0.00000000000E+00  0.00000000000E+00 -0.41433533486E+03  0.41433533487E+03  0.25500000920E-02 0.  1.
    10030    2    1    2    0    0  0.00000000000E+00  0.00000000000E+00  0.76875354436E+03  0.15974242141E+04  0.14002792964E+04 0.  0.
        3    1    3    3  502    0 -0.96144545893E+02  0.62950150857E+03  0.52409722637E+02  0.63895438978E+03  0.10100000352E+00 0.  1.
       -3    1    3    3    0  502  0.96144545893E+02 -0.62950150857E+03  0.71634382172E+03  0.95846982431E+03  0.10100000352E+00 0. -1.
</event>
<event>
 5   0  0.6671375E-05  0.1398252E+04  0.7818609E-02  0.8955085E-01
       -1   -1    0    0    0  501  0.00000000000E+00  0.00000000000E+00  0.74157000036E+03  0.74157000038E+03  0.50400001928E-02 0. -1.
        1   -1    0    0  501    0  0.00000000000E+00  0.00000000000E+00 -0.65911157516E+03  0.65911157518E+03  0.50400001928E-02 0.  1.
    10030    2    1    2    0    0  0.00000000000E+00  0.00000000000E+00  0.82458425199E+02  0.14006815756E+04  0.13982522963E+04 0.  0.
        5    1    3    3  502    0 -0.67473337523E+03  0.18271701305E+03  0.51476675002E+02  0.70094405809E+03  0.46999998093E+01 0.  1.
       -5    1    3    3    0  502  0.67473337523E+03 -0.18271701305E+03  0.30981750197E+02  0.69973751747E+03  0.46999998093E+01 0. -1.
</event>
<event>
 5   0  0.9900839E-05  0.1402369E+04  0.7818609E-02  0.8952105E-01
       -1   -1    0    0    0  501  0.00000000000E+00  0.00000000000E+00  0.23003885497E+03  0.23003885503E+03  0.50400001928E-02 0. -1.
        1   -1    0    0  501    0  0.00000000000E+00  0.00000000000E+00 -0.21372905797E+04  0.21372905797E+04  0.50400001928E-02 0.  1.
    10030    2    1    2    0    0  0.00000000000E+00  0.00000000000E+00 -0.19072517247E+04  0.23673294347E+04  0.14023692492E+04 0.  0.
        3    1    3    3  502    0  0.66022163266E+03  0.18503267233E+03 -0.70592924100E+03  0.98410659867E+03  0.10100000352E+00 0. -1.
       -3    1    3    3    0  502 -0.66022163266E+03 -0.18503267233E+03 -0.12013224837E+04  0.13832228360E+04  0.10100000352E+00 0.  1.
</event>
<event>
 5   0  0.9978422E-05  0.1401016E+04  0.7818609E-02  0.8953084E-01
       -1   -1    0    0    0  501  0.00000000000E+00  0.00000000000E+00  0.70738439593E+03  0.70738439595E+03  0.50400001928E-02 0.  1.
        1   -1    0    0  501    0  0.00000000000E+00  0.00000000000E+00 -0.69369824594E+03  0.69369824596E+03  0.50400001928E-02 0. -1.
    10030    2    1    2    0    0  0.00000000000E+00  0.00000000000E+00  0.13686149988E+02  0.14010826419E+04  0.14010157953E+04 0.  0.
        2    1    3    3  502    0  0.35841093078E+03  0.53350680249E+03  0.28546615109E+03  0.70326298568E+03  0.25500000920E-02 0.  1.
       -2    1    3    3    0  502 -0.35841093078E+03 -0.53350680249E+03 -0.27178000110E+03  0.69781965623E+03  0.25500000920E-02 0. -1.
</event>
<event>
 5   0  0.1794185E-04  0.1395466E+04  0.7818609E-02  0.8957107E-01
       -2   -1    0    0    0  501  0.00000000000E+00  0.00000000000E+00  0.26539377266E+03  0.26539377267E+03  0.25500000920E-02 0.  1.
        2   -1    0    0  501    0  0.00000000000E+00  0.00000000000E+00 -0.18343729757E+04  0.18343729757E+04  0.25500000920E-02 0. -1.
    10030    2    1    2    0    0  0.00000000000E+00  0.00000000000E+00 -0.15689792030E+04  0.20997667484E+04  0.13954657495E+04 0.  0.
        2    1    3    3  502    0 -0.35866631386E+03  0.23713875426E+03 -0.16113322663E+04  0.16677134004E+04  0.25500000920E-02 0. -1.
       -2    1    3    3    0  502  0.35866631386E+03 -0.23713875426E+03  0.42353063316E+02  0.43205334792E+03  0.25500000920E-02 0.  1.
</event>
<event>
 5   0  0.9978422E-05  0.1398779E+04  0.7818609E-02  0.8954703E-01
        1   -1    0    0  501    0  0.00000000000E+00  0.00000000000E+00  0.14315569077E+04  0.14315569077E+04  0.50400001928E-02 0. -1.
       -1   -1    0    0    0  501  0.00000000000E+00  0.00000000000E+00 -0.34168786499E+03  0.34168786503E+03  0.50400001928E-02 0.  1.
    10030    2    1    2    0    0  0.00000000000E+00  0.00000000000E+00  0.10898690427E+04  0.17732447727E+04  0.13987789295E+04 0.  0.
        2    1    3    3  502    0 -0.68441269964E+03 -0.11555801750E+03  0.65377474563E+03  0.95351760177E+03  0.25500000920E-02 0. -1.
       -2    1    3    3    0  502  0.68441269964E+03  0.11555801750E+03  0.43609429703E+03  0.81972717092E+03  0.25500000920E-02 0.  1.
</event>
<event>
 5   0  0.9978422E-05  0.1398338E+04  0.7818609E-02  0.8955022E-01
        1   -1    0    0  501    0  0.00000000000E+00  0.00000000000E+00  0.59367526511E+03  0.59367526513E+03  0.50400001928E-02 0. -1.
       -1   -1    0    0    0  501  0.00000000000E+00  0.00000000000E+00 -0.82340909626E+03  0.82340909628E+03  0.50400001928E-02 0.  1.
    10030    2    1    2    0    0  0.00000000000E+00  0.00000000000E+00 -0.22973383115E+03  0.14170843614E+04  0.13983384620E+04 0.  0.
        2    1    3    3  502    0  0.60937292789E+03 -0.33389275238E+03 -0.19348185764E+03  0.72128701956E+03  0.25500000920E-02 0.  1.
       -2    1    3    3    0  502 -0.60937292789E+03  0.33389275238E+03 -0.36251973515E+02  0.69579734185E+03  0.25500000920E-02 0. -1.
</event>
<event>
 5   0  0.9900839E-05  0.1399145E+04  0.7818609E-02  0.8954438E-01
        1   -1    0    0  501    0  0.00000000000E+00  0.00000000000E+00  0.12345398292E+04  0.12345398292E+04  0.50400001928E-02 0.  1.
       -1   -1    0    0    0  501  0.00000000000E+00  0.00000000000E+00 -0.39642418164E+03  0.39642418167E+03  0.50400001928E-02 0. -1.
    10030    2    1    2    0    0  0.00000000000E+00  0.00000000000E+00  0.83811564756E+03  0.16309640109E+04  0.13991446552E+04 0.  0.
        3    1    3    3  502    0  0.82803446884E+02 -0.14049505418E+03 -0.37395703662E+03  0.40796954115E+03  0.10100000352E+00 0. -1.
       -3    1    3    3    0  502 -0.82803446884E+02  0.14049505418E+03  0.12120726842E+04  0.12229944697E+04  0.10100000352E+00 0.  1.
</event>
<event>
 5   0  0.1712327E-04  0.1398764E+04  0.7818609E-02  0.8954714E-01
        2   -1    0    0  501    0  0.00000000000E+00  0.00000000000E+00  0.11762064347E+04  0.11762064347E+04  0.25500000920E-02 0. -1.
       -2   -1    0    0    0  501  0.00000000000E+00  0.00000000000E+00 -0.41585844857E+03  0.41585844858E+03  0.25500000920E-02 0.  1.
    10030    2    1    2    0    0  0.00000000000E+00  0.00000000000E+00  0.76034798613E+03  0.15920648833E+04  0.13987642877E+04 0.  0.
        1    1    3    3  502    0 -0.19222316719E+03 -0.82932185299E+02 -0.37935861271E+03  0.43329026117E+03  0.50400001928E-02 0.  1.
       -1    1    3    3    0  502  0.19222316719E+03  0.82932185299E+02  0.11397065988E+04  0.11587746221E+04  0.50400001928E-02 0. -1.
</event>
<event>
 5   0  0.6671375E-05  0.1400550E+04  0.7818609E-02  0.8953421E-01
        3   -1    0    0  501    0  0.00000000000E+00  0.00000000000E+00  0.29906202073E+03  0.29906203779E+03  0.10100000352E+00 0.  1.
       -3   -1    0    0    0  501  0.00000000000E+00  0.00000000000E+00 -0.16397432091E+04  0.16397432122E+04  0.10100000352E+00 0. -1.
    10030    2    1    2    0    0  0.00000000000E+00  0.00000000000E+00 -0.13406811884E+04  0.19388052500E+04  0.14005498023E+04 0.  0.
        2    1    3    3  502    0  0.24205249751E+03  0.28951394748E+03  0.14626250721E+03  0.40472269317E+03  0.25500000920E-02 0.  1.
       -2    1    3    3    0  502 -0.24205249751E+03 -0.28951394748E+03 -0.14869436956E+04  0.15340825569E+04  0.25500000920E-02 0. -1.
</event>
<event>
 5   0  0.1833681E-04  0.1398693E+04  0.7818609E-02  0.8954765E-01
        2   -1    0    0  501    0  0.00000000000E+00  0.00000000000E+00  0.58871524407E+03  0.58871524407E+03  0.25500000920E-02 0.  1.
       -2   -1    0    0    0  501  0.00000000000E+00  0.00000000000E+00 -0.83076720965E+03  0.83076720965E+03  0.25500000920E-02 0. -1.
    10030    2    1    2    0    0  0.00000000000E+00  0.00000000000E+00 -0.24205196558E+03  0.14194824537E+04  0.13986927048E+04 0.  0.
        4    1    3    3  502    0 -0.76938614270E+02 -0.69476231759E+03 -0.99036450868E+02  0.70599154372E+03  0.12699999809E+01 0.  1.
       -4    1    3    3    0  502  0.76938614270E+02  0.69476231759E+03 -0.14301551471E+03  0.71349091000E+03  0.12699999809E+01 0. -1.
</event>
<event>
 5   0  0.9260916E-05  0.1401644E+04  0.7818609E-02  0.8952629E-01
       -1   -1    0    0    0  501  0.00000000000E+00  0.00000000000E+00  0.44114901902E+03  0.44114901905E+03  0.50400001928E-02 0.  1.
        1   -1    0    0  501    0  0.00000000000E+00  0.00000000000E+00 -0.11133461486E+04  0.11133461486E+04  0.50400001928E-02 0. -1.
    10030    2    1    2    0    0  0.00000000000E+00  0.00000000000E+00 -0.67219712953E+03  0.15544951676E+04  0.14016441222E+04 0.  0.
        1    1    3    3  502    0 -0.18996699622E+03  0.65360260274E+03 -0.52123951390E+03  0.85730651044E+03  0.50400001928E-02 0.  1.
       -1    1    3    3    0  502  0.18996699622E+03 -0.65360260274E+03 -0.15095761563E+03  0.69718865718E+03  0.50400001928E-02 0. -1.
</event>
<event>
 5   0  0.1712327E-04  0.1405578E+04  0.7818609E-02  0.8949791E-01
       -2   -1    0    0    0  501  0.00000000000E+00  0.00000000000E+00  0.10966820582E+04  0.10966820582E+04  0.25500000920E-02 0. -1.
        2   -1    0    0  501    0  0.00000000000E+00  0.00000000000E+00 -0.45036983211E+03  0.45036983212E+03  0.25500000920E-02 0.  1.
    10030    2    1    2    0    0  0.00000000000E+00  0.00000000000E+00  0.64631222611E+03  0.15470518903E+04  0.14055781934E+04 0.  0.
        1    1    3    3  502    0 -0.14106882131E+03 -0.93260321063E+02 -0.42764207627E+03  0.45986481194E+03  0.50400001928E-02 0.  1.
       -1    1    3    3    0  502  0.14106882131E+03  0.93260321063E+02  0.10739543024E+04  0.10871870784E+04  0.50400001928E-02 0. -1.
</event>
<event>
 5   0  0.6671375E-05  0.1397310E+04  0.7818609E-02  0.8955768E-01
        3   -1    0    0  501    0  0.00000000000E+00  0.00000000000E+00  0.84694161739E+03  0.84694162342E+03  0.10100000352E+00 0. -1.
       -3   -1    0    0    0  501  0.00000000000E+00  0.00000000000E+00 -0.57633093731E+03  0.57633094616E+03  0.10100000352E+00 0.  1.
    10030    2    1    2    0    0  0.00000000000E+00  0.00000000000E+00  0.27061068008E+03  0.14232725696E+04  0.13973097964E+04 0.  0.
        1    1    3    3  502    0 -0.18428596303E+03 -0.52986140101E+03  0.55946097363E+03  0.79228214766E+03  0.50400001928E-02 0. -1.
       -1    1    3    3    0  502  0.18428596303E+03  0.52986140101E+03 -0.28885029355E+03  0.63099042192E+03  0.50400001928E-02 0.  1.
</event>
<event>
 5   0  0.1833681E-04  0.1399970E+04  0.7818609E-02  0.8953840E-01
        2   -1    0    0  501    0  0.00000000000E+00  0.00000000000E+00  0.13718529645E+04  0.13718529645E+04  0.25500000920E-02 0.  1.
       -2   -1    0    0    0  501  0.00000000000E+00  0.00000000000E+00 -0.35716589611E+03  0.35716589612E+03  0.25500000920E-02 0. -1.
    10030    2    1    2    0    0  0.00000000000E+00  0.00000000000E+00  0.10146870684E+04  0.17290188606E+04  0.13999701331E+04 0.  0.
        4    1    3    3  502    0 -0.56277260020E+03  0.10437027440E+03  0.96802171940E+01  0.57245215802E+03  0.12699999809E+01 0. -1.
       -4    1    3    3    0  502  0.56277260020E+03 -0.10437027440E+03  0.10050068512E+04  0.11565667026E+04  0.12699999809E+01 0.  1.
</event>
<event>
 5   0  0.1780171E-04  0.1399878E+04  0.7818609E-02  0.8953907E-01
        2   -1    0    0  501    0  0.00000000000E+00  0.00000000000E+00  0.56578531941E+03  0.56578531942E+03  0.25500000920E-02 0.  1.
       -2   -1    0    0    0  501  0.00000000000E+00  0.00000000000E+00 -0.86590169367E+03  0.86590169367E+03  0.25500000920E-02 0. -1.
    10030    2    1    2    0    0  0.00000000000E+00  0.00000000000E+00 -0.30011637426E+03  0.14316870131E+04  0.13998778037E+04 0.  0.
        5    1    3    3  502    0 -0.20334322379E+03 -0.65413545738E+03 -0.30892733887E+01  0.68503525229E+03  0.46999998093E+01 0. -1.
       -5    1    3    3    0  502  0.20334322379E+03  0.65413545738E+03 -0.29702710087E+03  0.74665176081E+03  0.46999998093E+01 0.  1.
</event>
<event>
 5   0  0.1712327E-04  0.1399882E+04  0.7818609E-02  0.8953904E-01
       -2   -1    0    0    0  501  0.00000000000E+00  0.00000000000E+00  0.14863576559E+04  0.14863576559E+04  0.25500000920E-02 0.  1.
        2   -1    0    0  501    0  0.00000000000E+00  0.00000000000E+00 -0.32960933112E+03  0.32960933113E+03  0.25500000920E-02 0. -1.
    10030    2    1    2    0    0  0.00000000000E+00  0.00000000000E+00  0.11567483247E+04  0.18159669870E+04  0.13998819275E+04 0.  0.
        1    1    3    3  502    0 -0.24983292392E+03  0.22877935597E+03 -0.21618329648E+03  0.40186030072E+03  0.50400001928E-02 0. -1.
       -1    1    3    3    0  502  0.24983292392E+03 -0.22877935597E+03  0.13729316212E+04  0.14141066863E+04  0.50400001928E-02 0.  1.
</event>
<event>
 5   0  0.1780171E-04  0.1374062E+04  0.7818609E-02  0.8972811E-01
       -2   -1    0    0    0  501  0.00000000000E+00  0.00000000000E+00  0.11717989813E+04  0.11717989813E+04  0.25500000920E-02 0.  1.
        2   -1    0    0  501    0  0.00000000000E+00  0.00000000000E+00 -0.40280909315E+03  0.40280909316E+03  0.25500000920E-02 0. -1.
    10030    2    1    2    0    0  0.00000000000E+00  0.00000000000E+00  0.76898988815E+03  0.15746080745E+04  0.13740615489E+04 0.  0.
        5    1    3    3  502    0  0.38490941222E+03 -0.33767620712E+03  0.90939673322E+03  0.10436498382E+04  0.46999998093E+01 0.  1.
       -5    1    3    3    0  502 -0.38490941222E+03  0.33767620712E+03 -0.14040684507E+03  0.53095823622E+03  0.46999998093E+01 0. -1.
</event>
<event>
 5   0  0.1712327E-04  0.1401353E+04  0.7818609E-02  0.8952840E-01
        2   -1    0    0  501    0  0.00000000000E+00  0.00000000000E+00  0.57296106106E+03  0.57296106106E+03  0.25500000920E-02 0.  1.
       -2   -1    0    0    0  501  0.00000000000E+00  0.00000000000E+00 -0.85686044369E+03  0.85686044370E+03  0.25500000920E-02 0. -1.
    10030    2    1    2    0    0  0.00000000000E+00  0.00000000000E+00 -0.28389938263E+03  0.14298215048E+04  0.14013531589E+04 0.  0.
        1    1    3    3  502    0 -0.44308882541E+03  0.52437239351E+03 -0.28498879618E+03  0.74331199927E+03  0.50400001928E-02 0. -1.
       -1    1    3    3    0  502  0.44308882541E+03 -0.52437239351E+03  0.10894135445E+01  0.68650950549E+03  0.50400001928E-02 0.  1.
</event>
<event>
 5   0  0.9828111E-05  0.1392499E+04  0.7818609E-02  0.8959266E-01
       -1   -1    0    0    0  501  0.00000000000E+00  0.00000000000E+00  0.59833148632E+03  0.59833148634E+03  0.50400001928E-02 0. -1.
        1   -1    0    0  501    0  0.00000000000E+00  0.00000000000E+00 -0.81019244137E+03  0.81019244139E+03  0.50400001928E-02 0.  1.
    10030    2    1    2    0    0  0.00000000000E+00  0.00000000000E+00 -0.21186095506E+03  0.14085239277E+04  0.13924994042E+04 0.  0.
        4    1    3    3  502    0  0.77795863985E+02 -0.42183477443E+03 -0.66066225875E+03  0.78770108950E+03  0.12699999809E+01 0.  1.
       -4    1    3    3    0  502 -0.77795863985E+02  0.42183477443E+03  0.44880130369E+03  0.62082283823E+03  0.12699999809E+01 0. -1.
</event>
<event>
 5   0  0.9900839E-05  0.1401473E+04  0.7818609E-02  0.8952753E-01
       -1   -1    0    0    0  501  0.00000000000E+00  0.00000000000E+00  0.40611184300E+03  0.40611184303E+03  0.50400001928E-02 0. -1.
        1   -1    0    0  501    0  0.00000000000E+00  0.00000000000E+00 -0.12091036777E+04  0.12091036777E+04  0.50400001928E-02 0.  1.
    10030    2    1    2    0    0  0.00000000000E+00  0.00000000000E+00 -0.80299183472E+03  0.16152155208E+04  0.14014725441E+04 0.  0.
        3    1    3    3  502    0  0.25247451079E+03  0.50399234348E+03 -0.88125109285E+03  0.10461143148E+04  0.10100000352E+00 0.  1.
       -3    1    3    3    0  502 -0.25247451079E+03 -0.50399234348E+03  0.78259258125E+02  0.56910120591E+03  0.10100000352E+00 0. -1.
</event>
<event>
 5   0  0.1712327E-04  0.1399458E+04  0.7818609E-02  0.8954211E-01
        2   -1    0    0  501    0  0.00000000000E+00  0.00000000000E+00  0.47567427631E+03  0.47567427631E+03  0.25500000920E-02 0. -1.
       -2   -1    0    0    0  501  0.00000000000E+00  0.00000000000E+00 -0.10293185061E+04  0.10293185061E+04  0.25500000920E-02 0.  1.
    10030    2    1    2    0    0  0.00000000000E+00  0.00000000000E+00 -0.55364422980E+03  0.15049927824E+04  0.13994575170E+04 0.  0.
        1    1    3    3  502    0  0.46626313825E+03 -0.13167462040E+03 -0.81975140548E+03  0.95222470382E+03  0.50400001928E-02 0.  1.
       -1    1    3    3    0  502 -0.46626313825E+03  0.13167462040E+03  0.26610717568E+03  0.55276807861E+03  0.50400001928E-02 0. -1.
</event>
<event>
 5   0  0.9978422E-05  0.1399388E+04  0.7818609E-02  0.8954261E-01
        1   -1    0    0  501    0  0.00000000000E+00  0.00000000000E+00  0.78315519272E+03  0.78315519274E+03  0.50400001928E-02 0. -1.
       -1   -1    0    0    0  501  0.00000000000E+00  0.00000000000E+00 -0.62512771987E+03  0.62512771989E+03  0.50400001928E-02 0.  1.
    10030    2    1    2    0    0  0.00000000000E+00  0.00000000000E+00  0.15802747284E+03  0.14082829126E+04  0.13993884664E+04 0.  0.
        2    1    3    3  502    0  0.77149342681E+02  0.36941990866E+03  0.67195207906E+03  0.77067677177E+03  0.25500000920E-02 0. -1.
       -2    1    3    3    0  502 -0.77149342681E+02 -0.36941990866E+03 -0.51392460621E+03  0.63760614086E+03  0.25500000920E-02 0.  1.
</event>
<event>
 5   0  0.1794185E-04  0.1400423E+04  0.7818609E-02  0.8953513E-01
        2   -1    0    0  501    0  0.00000000000E+00  0.00000000000E+00  0.56948728264E+03  0.56948728265E+03  0.25500000920E-02 0.  1.
       -2   -1    0    0    0  501  0.00000000000E+00  0.00000000000E+00 -0.86094275320E+03  0.86094275320E+03  0.25500000920E-02 0. -1.
    10030    2    1    2    0    0  0.00000000000E+00  0.00000000000E+00 -0.29145547055E+03  0.14304300359E+04  0.14004227205E+04 0.  0.
        2    1    3    3  502    0 -0.44177446869E+03 -0.25534974031E+03  0.34405468589E+03  0.61542001751E+03  0.25500000920E-02 0.  1.
       -2    1    3    3    0  502  0.44177446869E+03  0.25534974031E+03 -0.63551015644E+03  0.81501001834E+03  0.25500000920E-02 0. -1.
</event>
<event>
 5   0  0.9828111E-05  0.1400323E+04  0.7818609E-02  0.8953585E-01
       -1   -1    0    0    0  501  0.00000000000E+00  0.00000000000E+00  0.90203097104E+03  0.90203097105E+03  0.50400001928E-02 0.  1.
        1   -1    0    0  501    0  0.00000000000E+00  0.00000000000E+00 -0.54346889653E+03  0.54346889655E+03  0.50400001928E-02 0. -1.
    10030    2    1    2    0    0  0.00000000000E+00  0.00000000000E+00  0.35856207451E+03  0.14454998676E+04  0.14003225007E+04 0.  0.
        4    1    3    3  502    0 -0.57299424173E+03 -0.16595685211E+03 -0.19909630748E+03  0.62889190675E+03  0.12699999809E+01 0. -1.
       -4    1    3    3    0  502  0.57299424173E+03  0.16595685211E+03  0.55765838200E+03  0.81660796085E+03  0.12699999809E+01 0.  1.
</event>
<event>
 5   0  0.1780171E-04  0.1398712E+04  0.7818609E-02  0.8954751E-01
       -2   -1    0    0    0  501  0.00000000000E+00  0.00000000000E+00  0.36276297830E+03  0.36276297831E+03  0.25500000920E-02 0. -1.
        2   -1    0    0  501    0  0.00000000000E+00  0.00000000000E+00 -0.13482603215E+04  0.13482603215E+04  0.25500000920E-02 0.  1.
    10030    2    1    2    0    0  0.00000000000E+00  0.00000000000E+00 -0.98549734317E+03  0.17110232998E+04  0.13987121645E+04 0.  0.
        5    1    3    3  502    0 -0.18419041831E+03 -0.26595341514E+03  0.26570713814E+03  0.41866418820E+03  0.46999998093E+01 0. -1.
       -5    1    3    3    0  502  0.18419041831E+03  0.26595341514E+03 -0.12512044813E+04  0.12923591116E+04  0.46999998093E+01 0.  1.
</event>
<event>
 5   0  0.9828111E-05  0.1413303E+04  0.7818609E-02  0.8944245E-01
       -1   -1    0    0    0  501  0.00000000000E+00  0.00000000000E+00  0.26264338968E+03  0.26264338973E+03  0.50400001928E-02 0. -1.
        1   -1    0    0  501    0  0.00000000000E+00  0.00000000000E+00 -0.19012706478E+04  0.19012706478E+04  0.50400001928E-02 0.  1.
    10030    2    1    2    0    0  0.00000000000E+00  0.00000000000E+00 -0.16386272581E+04  0.21639140375E+04  0.14133027527E+04 0.  0.
        4    1    3    3  502    0  0.20800761637E+03 -0.35435384443E+03 -0.16995598254E+04  0.17485248150E+04  0.12699999809E+01 0.  1.
       -4    1    3    3    0  502 -0.20800761637E+03  0.35435384443E+03  0.60932567324E+02  0.41538922253E+03  0.12699999809E+01 0. -1.
</event>
<event>
 5   0  0.1712327E-04  0.1400898E+04  0.7818609E-02  0.8953169E-01
        2   -1    0    0  501    0  0.00000000000E+00  0.00000000000E+00  0.65124553483E+03  0.65124553483E+03  0.25500000920E-02 0. -1.
       -2   -1    0    0    0  501  0.00000000000E+00  0.00000000000E+00 -0.75336988871E+03  0.75336988871E+03  0.25500000920E-02 0.  1.
    10030    2    1    2    0    0  0.00000000000E+00  0.00000000000E+00 -0.10212435388E+03  0.14046154235E+04  0.14008979636E+04 0.  0.
        1    1    3    3  502    0 -0.18316531002E+03  0.58169086127E+03  0.29440254431E+03  0.67719025908E+03  0.50400001928E-02 0. -1.
       -1    1    3    3    0  502  0.18316531002E+03 -0.58169086127E+03 -0.39652689819E+03  0.72742516446E+03  0.50400001928E-02 0.  1.
</event>
<event>
 5   0  0.9978422E-05  0.1400135E+04  0.7818609E-02  0.8953721E-01
        1   -1    0    0  501    0  0.00000000000E+00  0.00000000000E+00  0.73619667437E+03  0.73619667439E+03  0.50400001928E-02 0. -1.
       -1   -1    0    0    0  501  0.00000000000E+00  0.00000000000E+00 -0.66571157376E+03  0.66571157378E+03  0.50400001928E-02 0.  1.
    10030    2    1    2    0    0  0.00000000000E+00  0.00000000000E+00  0.70485100610E+02  0.14019082482E+04  0.14001352031E+04 0.  0.
        2    1    3    3  502    0 -0.12949474863E+03  0.67785838572E+03 -0.82523422448E+02  0.69503309006E+03  0.25500000920E-02 0. -1.
       -2    1    3    3    0  502  0.12949474863E+03 -0.67785838572E+03  0.15300852306E+03  0.70687515811E+03  0.25500000920E-02 0.  1.
</event>
<event>
 5   0  0.9978422E-05  0.1398423E+04  0.7818609E-02  0.8954961E-01
       -1   -1    0    0    0  501  0.00000000000E+00  0.00000000000E+00  0.45756509521E+03  0.45756509524E+03  0.50400001928E-02 0.  1.
        1   -1    0    0  501    0  0.00000000000E+00  0.00000000000E+00 -0.10684747516E+04  0.10684747516E+04  0.50400001928E-02 0. -1.
    10030    2    1    2    0    0  0.00000000000E+00  0.00000000000E+00 -0.61090965636E+03  0.15260398468E+04  0.13984230425E+04 0.  0.
        2    1    3    3  502    0  0.66893292885E+03  0.13714403943E+03 -0.46956851690E+03  0.82871849438E+03  0.25500000920E-02 0. -1.
       -2    1    3    3    0  502 -0.66893292885E+03 -0.13714403943E+03 -0.14134113946E+03  0.69732135244E+03  0.25500000920E-02 0.  1.
</event>
<event>
 5   0  0.9900839E-05  0.1396102E+04  0.7818609E-02  0.8956645E-01
        1   -1    0    0  501    0  0.00000000000E+00  0.00000000000E+00  0.16578543103E+04  0.16578543103E+04  0.50400001928E-02 0.  1.
       -1   -1    0    0    0  501  0.00000000000E+00  0.00000000000E+00 -0.29391902146E+03  0.29391902151E+03  0.50400001928E-02 0. -1.
    10030    2    1    2    0    0  0.00000000000E+00  0.00000000000E+00  0.13639352888E+04  0.19517733318E+04  0.13961015961E+04 0.  0.
        3    1    3    3  502    0 -0.42460326235E+03 -0.54769389386E+03  0.79908752788E+03  0.10577322058E+04  0.10100000352E+00 0.  1.
       -3    1    3    3    0  502  0.42460326235E+03  0.54769389386E+03  0.56484776097E+03  0.89404112603E+03  0.10100000352E+00 0. -1.
</event>
<event>
 5   0  0.6671375E-05  0.1403378E+04  0.7818609E-02  0.8951377E-01
       -1   -1    0    0    0  501  0.00000000000E+00  0.00000000000E+00  0.31404947198E+03  0.31404947202E+03  0.50400001928E-02 0. -1.
        1   -1    0    0  501    0  0.00000000000E+00  0.00000000000E+00 -0.15678024268E+04  0.15678024268E+04  0.50400001928E-02 0.  1.
    10030    2    1    2    0    0  0.00000000000E+00  0.00000000000E+00 -0.12537529548E+04  0.18818518988E+04  0.14033781021E+04 0.  0.
        5    1    3    3  502    0 -0.30140053150E+03 -0.26964126900E+03  0.14203173137E+03  0.42865346966E+03  0.46999998093E+01 0. -1.
       -5    1    3    3    0  502  0.30140053150E+03  0.26964126900E+03 -0.13957846861E+04  0.14531984291E+04  0.46999998093E+01 0.  1.
</event>
<event>
 5   0  0.9828111E-05  0.1399766E+04  0.7818609E-02  0.8953988E-01
        1   -1    0    0  501    0  0.00000000000E+00  0.00000000000E+00  0.71170159151E+03  0.71170159153E+03  0.50400001928E-02 0.  1.
       -1   -1    0    0    0  501  0.00000000000E+00  0.00000000000E+00 -0.68826026984E+03  0.68826026985E+03  0.50400001928E-02 0. -1.
    10030    2    1    2    0    0  0.00000000000E+00  0.00000000000E+00  0.23441321671E+02  0.13999618614E+04  0.13997655939E+04 0.  0.
        4    1    3    3  502    0  0.50969420433E+03  0.31380481326E+03 -0.35105967653E+03  0.69390644336E+03  0.12699999809E+01 0. -1.
       -4    1    3    3    0  502 -0.50969420433E+03 -0.31380481326E+03  0.37450099820E+03  0.70605541802E+03  0.12699999809E+01 0.  1.
</event>
<event>
 5   0  0.1833681E-04  0.1398547E+04  0.7818609E-02  0.8954871E-01
       -2   -1    0    0    0  501  0.00000000000E+00  0.00000000000E+00  0.92537911664E+03  0.92537911665E+03  0.25500000920E-02 0. -1.
        2   -1    0    0  501    0  0.00000000000E+00  0.00000000000E+00 -0.52841440126E+03  0.52841440127E+03  0.25500000920E-02 0.  1.
    10030    2    1    2    0    0  0.00000000000E+00  0.00000000000E+00  0.39696471538E+03  0.14537935179E+04  0.13985473204E+04 0.  0.
        4    1    3    3  502    0  0.57404911106E+03  0.29615803836E+03 -0.79941515629E+02  0.65087189555E+03  0.12699999809E+01 0.  1.
       -4    1    3    3    0  502 -0.57404911106E+03 -0.29615803836E+03  0.47690623101E+03  0.80292162237E+03  0.12699999809E+01 0. -1.
</event>
<event>
 5   0  0.1712327E-04  0.1402451E+04  0.7818609E-02  0.8952047E-01
        2   -1    0    0  501    0  0.00000000000E+00  0.00000000000E+00  0.64976879061E+03  0.64976879061E+03  0.25500000920E-02 0.  1.
       -2   -1    0    0    0  501  0.00000000000E+00  0.00000000000E+00 -0.75675673565E+03  0.75675673565E+03  0.25500000920E-02 0. -1.
    10030    2    1    2    0    0  0.00000000000E+00  0.00000000000E+00 -0.10698794504E+03  0.14065255263E+04  0.14024505822E+04 0.  0.
        1    1    3    3  502    0 -0.59535817674E+03  0.83417553025E+01  0.31798199393E+03  0.67500629033E+03  0.50400001928E-02 0.  1.
       -1    1    3    3    0  502  0.59535817674E+03 -0.83417553025E+01 -0.42496993897E+03  0.73151923594E+03  0.50400001928E-02 0. -1.
</event>
<event>
 5   0  0.1780171E-04  0.1400508E+04  0.7818609E-02  0.8953451E-01
        2   -1    0    0  501    0  0.00000000000E+00  0.00000000000E+00  0.14379145133E+04  0.14379145133E+04  0.25500000920E-02 0. -1.
       -2   -1    0    0    0  501  0.00000000000E+00  0.00000000000E+00 -0.34101878929E+03  0.34101878930E+03  0.25500000920E-02 0.  1.
    10030    2    1    2    0    0  0.00000000000E+00  0.00000000000E+00  0.10968957240E+04  0.17789333026E+04  0.14005082884E+04 0.  0.
        5    1    3    3  502    0 -0.69952939282E+03  0.28940394521E+02  0.53264114690E+03  0.87972018234E+03  0.46999998093E+01 0.  1.
       -5    1    3    3    0  502  0.69952939282E+03 -0.28940394521E+02  0.56425457710E+03  0.89921312025E+03  0.46999998093E+01 0. -1.
</event>
<event>
 5   0  0.1794185E-04  0.1399640E+04  0.7818609E-02  0.8954079E-01
       -2   -1    0    0    0  501  0.00000000000E+00  0.00000000000E+00  0.54319220381E+03  0.54319220381E+03  0.25500000920E-02 0. -1.
        2   -1    0    0  501    0  0.00000000000E+00  0.00000000000E+00 -0.90161087744E+03  0.90161087744E+03  0.25500000920E-02 0.  1.
    10030    2    1    2    0    0  0.00000000000E+00  0.00000000000E+00 -0.35841867363E+03  0.14448030813E+04  0.13996399530E+04 0.  0.
        2    1    3    3  502    0 -0.85622023488E+00  0.32072388145E+03 -0.82127938163E+03  0.88168268892E+03  0.25500000920E-02 0.  1.
       -2    1    3    3    0  502  0.85622023488E+00 -0.32072388145E+03  0.46286070800E+03  0.56312039233E+03  0.25500000920E-02 0. -1.
</event>
<event>
 5   0  0.9978422E-05  0.1401175E+04  0.7818609E-02  0.8952969E-01
       -1   -1    0    0    0  501  0.00000000000E+00  0.00000000000E+00  0.65102398066E+03  0.65102398068E+03  0.50400001928E-02 0. -1.
        1   -1    0    0  501    0  0.00000000000E+00  0.00000000000E+00 -0.75392421669E+03  0.75392421670E+03  0.50400001928E-02 0.  1.
    10030    2    1    2    0    0  0.00000000000E+00  0.00000000000E+00 -0.10290023603E+03  0.14049481974E+04  0.14011748566E+04 0.  0.
        2    1    3    3  502    0 -0.49202026300E+03 -0.23958951973E+03 -0.49004740791E+03  0.73459753551E+03  0.25500000920E-02 0.  1.
       -2    1    3    3    0  502  0.49202026300E+03  0.23958951973E+03  0.38714717188E+03  0.67035066187E+03  0.25500000920E-02 0. -1.
</event>
<event>
 5   0  0.9260916E-05  0.1399965E+04  0.7818609E-02  0.8953844E-01
       -1   -1    0    0    0  501  0.00000000000E+00  0.00000000000E+00  0.33065903046E+03  0.33065903050E+03  0.50400001928E-02 0.  1.
        1   -1    0    0  501    0  0.00000000000E+00  0.00000000000E+00 -0.14818154811E+04  0.14818154811E+04  0.50400001928E-02 0. -1.
    10030    2    1    2    0    0  0.00000000000E+00  0.00000000000E+00 -0.11511564506E+04  0.18124745116E+04  0.13999652429E+04 0.  0.
        1    1    3    3  502    0 -0.33402858546E+03 -0.19613550441E+03  0.17925380447E+03  0.42682099109E+03  0.50400001928E-02 0.  1.
       -1    1    3    3    0  502  0.33402858546E+03  0.19613550441E+03 -0.13304102551E+04  0.13856535205E+04  0.50400001928E-02 0. -1.
</event>
<event>
 5   0  0.1780171E-04  0.1367587E+04  0.7818609E-02  0.8977621E-01
       -2   -1    0    0    0  501  0.00000000000E+00  0.00000000000E+00  0.33028621629E+03  0.33028621630E+03  0.25500000920E-02 0.  1.
        2   -1    0    0  501    0  0.00000000000E+00  0.00000000000E+00 -0.14156618371E+04  0.14156618371E+04  0.25500000920E-02 0. -1.
    10030    2    1    2    0    0  0.00000000000E+00  0.00000000000E+00 -0.10853756208E+04  0.17459480534E+04  0.13675870601E+04 0.  0.
        5    1    3    3  502    0 -0.30515649771E+03 -0.31568839023E+03 -0.12118978647E+04  0.12889911451E+04  0.46999998093E+01 0. -1.
       -5    1    3    3    0  502  0.30515649771E+03  0.31568839023E+03  0.12652224386E+03  0.45695690827E+03  0.46999998093E+01 0.  1.
</event>
<event>
 5   0  0.1712327E-04  0.1401520E+04  0.7818609E-02  0.8952719E-01
       -2   -1    0    0    0  501  0.00000000000E+00  0.00000000000E+00  0.32202147408E+03  0.32202147409E+03  0.25500000920E-02 0.  1.
        2   -1    0    0  501    0  0.00000000000E+00  0.00000000000E+00 -0.15249442533E+04  0.15249442533E+04  0.25500000920E-02 0. -1.
    10030    2    1    2    0    0  0.00000000000E+00  0.00000000000E+00 -0.12029227792E+04  0.18469657274E+04  0.14015203121E+04 0.  0.
        1    1    3    3  502    0  0.25281223015E+03 -0.66715848970E+02 -0.14582534731E+04  0.14815087648E+04  0.50400001928E-02 0. -1.
       -1    1    3    3    0  502 -0.25281223015E+03  0.66715848970E+02  0.25533069393E+03  0.36545696259E+03  0.50400001928E-02 0.  1.
</event>
<event>
 5   0  0.6671375E-05  0.1399551E+04  0.7818609E-02  0.8954144E-01
        1   -1    0    0  501    0  0.00000000000E+00  0.00000000000E+00  0.71052918398E+03  0.71052918400E+03  0.50400001928E-02 0.  1.
       -1   -1    0    0    0  501  0.00000000000E+00  0.00000000000E+00 -0.68918451942E+03  0.68918451944E+03  0.50400001928E-02 0. -1.
    10030    2    1    2    0    0  0.00000000000E+00  0.00000000000E+00  0.21344664562E+02  0.13997137034E+04  0.13995509483E+04 0.  0.
        5    1    3    3  502    0  0.60745559107E+03 -0.30809095782E+03  0.17113191638E+03  0.70230374925E+03  0.46999998093E+01 0. -1.
       -5    1    3    3    0  502 -0.60745559107E+03  0.30809095782E+03 -0.14978725181E+03  0.69740995420E+03  0.46999998093E+01 0.  1.
</event>
<event>
 5   0  0.9900839E-05  0.1399536E+04  0.7818609E-02  0.8954154E-01
        1   -1    0    0  501    0  0.00000000000E+00  0.00000000000E+00  0.47777682059E+03  0.47777682062E+03  0.50400001928E-02 0. -1.
       -1   -1    0    0    0  501  0.00000000000E+00  0.00000000000E+00 -0.10249037872E+04  0.10249037873E+04  0.50400001928E-02 0.  1.
    10030    2    1    2    0    0  0.00000000000E+00  0.00000000000E+00 -0.54712696665E+03  0.15026806079E+04  0.13995360273E+04 0.  0.
        3    1    3    3  502    0  0.17151032495E+03  0.56391710731E+03  0.13140327166E+03  0.60389165045E+03  0.10100000352E+00 0. -1.
       -3    1    3    3    0  502 -0.17151032495E+03 -0.56391710731E+03 -0.67853023831E+03  0.89878895742E+03  0.10100000352E+00 0.  1.
</event>
<event>
 5   0  0.1780171E-04  0.1396394E+04  0.7818609E-02  0.8956433E-01
        2   -1    0    0  501    0  0.00000000000E+00  0.00000000000E+00  0.52003679144E+03  0.52003679145E+03  0.25500000920E-02 0.  1.
       -2   -1    0    0    0  501  0.00000000000E+00  0.00000000000E+00 -0.93739370116E+03  0.93739370116E+03  0.25500000920E-02 0. -1.
    10030    2    1    2    0    0  0.00000000000E+00  0.00000000000E+00 -0.41735690971E+03  0.14574304926E+04  0.13963942318E+04 0.  0.
        5    1    3    3  502    0 -0.68618822462E+03  0.19678657736E+02 -0.34158495748E+03  0.76677500112E+03  0.46999998093E+01 0.  1.
       -5    1    3    3    0  502  0.68618822462E+03 -0.19678657736E+02 -0.75771952236E+02  0.69065549148E+03  0.46999998093E+01 0. -1.
</event>
<event>
 5   0  0.9900839E-05  0.1398678E+04  0.7818609E-02  0.8954776E-01
       -1   -1    0    0    0  501  0.00000000000E+00  0.00000000000E+00  0.76078679925E+03  0.76078679926E+03  0.50400001928E-02 0. -1.
        1   -1    0    0  501    0  0.00000000000E+00  0.00000000000E+00 -0.64285394070E+03  0.64285394072E+03  0.50400001928E-02 0.  1.
    10030    2    1    2    0    0  0.00000000000E+00  0.00000000000E+00  0.11793285855E+03  0.14036407400E+04  0.13986776497E+04 0.  0.
        3    1    3    3  502    0 -0.49369698596E+03 -0.49045971308E+03  0.12840253553E+03  0.70765434037E+03  0.10100000352E+00 0. -1.
       -3    1    3    3    0  502  0.49369698596E+03  0.49045971308E+03 -0.10469676982E+02  0.69598639961E+03  0.10100000352E+00 0.  1.
</event>
<event>
 5   0  0.1780171E-04  0.1398575E+04  0.7818609E-02  0.8954851E-01
        2   -1    0    0  501    0  0.00000000000E+00  0.00000000000E+00  0.11144778063E+04  0.11144778063E+04  0.25500000920E-02 0.  1.
       -2   -1    0    0    0  501  0.00000000000E+00  0.00000000000E+00 -0.43877293208E+03  0.43877293209E+03  0.25500000920E-02 0. -1.
    10030    2    1    2    0    0  0.00000000000E+00  0.00000000000E+00  0.67570487420E+03  0.15532507384E+04  0.13985745526E+04 0.  0.
        5    1    3    3  502    0 -0.65614856830E+03 -0.20372209653E+03  0.48243035239E+03  0.83952056032E+03  0.46999998093E+01 0.  1.
       -5    1    3    3    0  502  0.65614856830E+03  0.20372209653E+03  0.19327452181E+03  0.71373017806E+03  0.46999998093E+01 0. -1.
</event>
<event>
 5   0  0.9978422E-05  0.1401326E+04  0.7818609E-02  0.8952859E-01
       -1   -1    0    0    0  501  0.00000000000E+00  0.00000000000E+00  0.47983886112E+03  0.47983886115E+03  0.50400001928E-02 0.  1.
        1   -1    0    0  501    0  0.00000000000E+00  0.00000000000E+00 -0.10231110504E+04  0.10231110504E+04  0.50400001928E-02 0. -1.
    10030    2    1    2    0    0  0.00000000000E+00  0.00000000000E+00 -0.54327218930E+03  0.15029499116E+04  0.14013257170E+04 0.  0.
        2    1    3    3  502    0 -0.17762343132E+03  0.53581280387E+03 -0.71680684768E+03  0.91239108995E+03  0.25500000920E-02 0. -1.
       -2    1    3    3    0  502  0.17762343132E+03 -0.53581280387E+03  0.17353465838E+03  0.59055882163E+03  0.25500000920E-02 0.  1.
</event>
<event>
 5   0  0.1712327E-04  0.1399828E+04  0.7818609E-02  0.8953943E-01
        2   -1    0    0  501    0  0.00000000000E+00  0.00000000000E+00  0.69290055762E+03  0.69290055762E+03  0.25500000920E-02 0.  1.
       -2   -1    0    0    0  501  0.00000000000E+00  0.00000000000E+00 -0.70699857683E+03  0.70699857683E+03  0.25500000920E-02 0. -1.
    10030    2    1    2    0    0  0.00000000000E+00  0.00000000000E+00 -0.14098019208E+02  0.13998991345E+04  0.13998281439E+04 0.  0.
        1    1    3    3  502    0  0.99755967901E+02 -0.81320093388E+01  0.68570707869E+03  0.69297300127E+03  0.50400001928E-02 0.  1.
       -1    1    3    3    0  502 -0.99755967901E+02  0.81320093388E+01 -0.69980509790E+03  0.70692613318E+03  0.50400001928E-02 0. -1.
</event>
<event>
 5   0  0.9978422E-05  0.1400313E+04  0.7818609E-02  0.8953592E-01
        1   -1    0    0  501    0  0.00000000000E+00  0.00000000000E+00  0.79782964525E+03  0.79782964526E+03  0.50400001928E-02 0. -1.
       -1   -1    0    0    0  501  0.00000000000E+00  0.00000000000E+00 -0.61444057930E+03  0.61444057932E+03  0.50400001928E-02 0.  1.
    10030    2    1    2    0    0  0.00000000000E+00  0.00000000000E+00  0.18338906595E+03  0.14122702246E+04  0.14003126928E+04 0.  0.
        2    1    3    3  502    0 -0.27212389870E+03 -0.59385172904E+02 -0.55616210136E+03  0.62200827808E+03  0.25500000920E-02 0.  1.
       -2    1    3    3    0  502  0.27212389870E+03  0.59385172904E+02  0.73955116731E+03  0.79026194650E+03  0.25500000920E-02 0. -1.
</event>
<event>
 5   0  0.6671375E-05  0.1410104E+04  0.7818609E-02  0.8946537E-01
        3   -1    0    0  501    0  0.00000000000E+00  0.00000000000E+00  0.46302586306E+03  0.46302587407E+03  0.10100000352E+00 0.  1.
       -3   -1    0    0    0  501  0.00000000000E+00  0.00000000000E+00 -0.10735862412E+04  0.10735862460E+04  0.10100000352E+00 0. -1.
    10030    2    1    2    0    0  0.00000000000E+00  0.00000000000E+00 -0.61056037818E+03  0.15366121201E+04  0.14101038374E+04 0.  0.
        1    1    3    3  502    0 -0.44354603741E+03 -0.21372587012E+03 -0.85522108187E+03  0.98682061884E+03  0.50400001928E-02 0. -1.
       -1    1    3    3    0  502  0.44354603741E+03  0.21372587012E+03  0.24466070369E+03  0.54979150122E+03  0.50400001928E-02 0.  1.
</event>
<event>
 5   0  0.1833681E-04  0.1402239E+04  0.7818609E-02  0.8952200E-01
       -2   -1    0    0    0  501  0.00000000000E+00  0.00000000000E+00  0.30601524311E+03  0.30601524312E+03  0.25500000920E-02 0. -1.
        2   -1    0    0  501    0  0.00000000000E+00  0.00000000000E+00 -0.16063521666E+04  0.16063521666E+04  0.25500000920E-02 0.  1.
    10030    2    1    2    0    0  0.00000000000E+00  0.00000000000E+00 -0.13003369235E+04  0.19123674097E+04  0.14022385657E+04 0.  0.
        4    1    3    3  502    0 -0.25368934885E+03 -0.27145405902E+03 -0.14610493454E+04  0.15075517883E+04  0.12699999809E+01 0.  1.
       -4    1    3    3    0  502  0.25368934885E+03  0.27145405902E+03  0.16071242190E+03  0.40481562140E+03  0.12699999809E+01 0. -1.
</event>
<event>
 5   0  0.9828111E-05  0.1397776E+04  0.7818609E-02  0.8955430E-01
        1   -1    0    0  501    0  0.00000000000E+00  0.00000000000E+00  0.42553451290E+03  0.42553451293E+03  0.50400001928E-02 0. -1.
       -1   -1    0    0    0  501  0.00000000000E+00  0.00000000000E+00 -0.11478369735E+04  0.11478369735E+04  0.50400001928E-02 0.  1.
    10030    2    1    2    0    0  0.00000000000E+00  0.00000000000E+00 -0.72230246062E+03  0.15733714865E+04  0.13977757294E+04 0.  0.
        4    1    3    3  502    0  0.13790750354E+03  0.48387740179E+03  0.18484868534E+03  0.53602842170E+03  0.12699999809E+01 0. -1.
       -4    1    3    3    0  502 -0.13790750354E+03 -0.48387740179E+03 -0.90715114596E+03  0.10373430648E+04  0.12699999809E+01 0.  1.
</event>
<event>
 5   0  0.6671375E-05  0.1404041E+04  0.7818609E-02  0.8950899E-01
        4   -1    0    0  501    0  0.00000000000E+00  0.00000000000E+00  0.14074706006E+04  0.14074711735E+04  0.12699999809E+01 0.  1.
       -4   -1    0    0    0  501  0.00000000000E+00  0.00000000000E+00 -0.35015321480E+03  0.35015551793E+03  0.12699999809E+01 0. -1.
    10030    2    1    2    0    0  0.00000000000E+00  0.00000000000E+00  0.10573173858E+04  0.17576266915E+04  0.14040411434E+04 0.  0.
        3    1    3    3  502    0 -0.51961227302E+03 -0.35893337509E+03  0.91246948187E+03  0.11096984489E+04  0.10100000352E+00 0.  1.
       -3    1    3    3    0  502  0.51961227302E+03  0.35893337509E+03  0.14484790390E+03  0.64792824254E+03  0.10100000352E+00 0. -1.
</event>
<event>
 5   0  0.6671375E-05  0.1399614E+04  0.7818609E-02  0.8954098E-01
        1   -1    0    0  501    0  0.00000000000E+00  0.00000000000E+00  0.10455432623E+04  0.10455432623E+04  0.50400001928E-02 0.  1.
       -1   -1    0    0    0  501  0.00000000000E+00  0.00000000000E+00 -0.46839775679E+03  0.46839775682E+03  0.50400001928E-02 0. -1.
    10030    2    1    2    0    0  0.00000000000E+00  0.00000000000E+00  0.57714550549E+03  0.15139410191E+04  0.13996144022E+04 0.  0.
        5    1    3    3  502    0  0.25660030669E+03 -0.48371117443E+02  0.99085548171E+03  0.10246951537E+04  0.46999998093E+01 0.  1.
       -5    1    3    3    0  502 -0.25660030669E+03  0.48371117443E+02 -0.41370997622E+03  0.48924586540E+03  0.46999998093E+01 0. -1.
</event>
<event>
 5   0  0.9978422E-05  0.1399861E+04  0.7818609E-02  0.8953919E-01
       -1   -1    0    0    0  501  0.00000000000E+00  0.00000000000E+00  0.35715839081E+03  0.35715839085E+03  0.50400001928E-02 0.  1.
        1   -1    0    0  501    0  0.00000000000E+00  0.00000000000E+00 -0.13716685390E+04  0.13716685390E+04  0.50400001928E-02 0. -1.
    10030    2    1    2    0    0  0.00000000000E+00  0.00000000000E+00 -0.10145101481E+04  0.17288269298E+04  0.13998613190E+04 0.  0.
        2    1    3    3  502    0 -0.29959207014E+02  0.39794369771E+03 -0.12174020882E+04  0.12811419066E+04  0.25500000920E-02 0. -1.
       -2    1    3    3    0  502  0.29959207014E+02 -0.39794369771E+03  0.20289194004E+03  0.44768502317E+03  0.25500000920E-02 0.  1.
</event>
<event>
 5   0  0.9900839E-05  0.1397994E+04  0.7818609E-02  0.8955272E-01
        1   -1    0    0  501    0  0.00000000000E+00  0.00000000000E+00  0.82516688063E+03  0.82516688064E+03  0.50400001928E-02 0. -1.
       -1   -1    0    0    0  501  0.00000000000E+00  0.00000000000E+00 -0.59211873755E+03  0.59211873757E+03  0.50400001928E-02 0.  1.
    10030    2    1    2    0    0  0.00000000000E+00  0.00000000000E+00  0.23304814308E+03  0.14172856182E+04  0.13979939508E+04 0.  0.
        3    1    3    3  502    0  0.16123819994E+03  0.42601942021E+03 -0.42098710548E+03  0.62025837898E+03  0.10100000352E+00 0.  1.
       -3    1    3    3    0  502 -0.16123819994E+03 -0.42601942021E+03  0.65403524856E+03  0.79702723923E+03  0.10100000352E+00 0. -1.
</event>
<event>
 5   0  0.6671375E-05  0.1395982E+04  0.7818609E-02  0.8956732E-01
        1   -1    0    0  501    0  0.00000000000E+00  0.00000000000E+00  0.13969004347E+04  0.13969004347E+04  0.50400001928E-02 0. -1.
       -1   -1    0    0    0  501  0.00000000000E+00  0.00000000000E+00 -0.34876610806E+03  0.34876610810E+03  0.50400001928E-02 0.  1.
    10030    2    1    2    0    0  0.00000000000E+00  0.00000000000E+00  0.10481343266E+04  0.17456665428E+04  0.13959821317E+04 0.  0.
        5    1    3    3  502    0  0.23713720837E+03 -0.33523886029E+03 -0.18171459703E+03  0.44906729319E+03  0.46999998093E+01 0.  1.
       -5    1    3    3    0  502 -0.23713720837E+03  0.33523886029E+03  0.12298489236E+04  0.12965992496E+04  0.46999998093E+01 0. -1.
</event>
<event>
 5   0  0.6671375E-05  0.1376346E+04  0.7818609E-02  0.8971121E-01
        1   -1    0    0  501    0  0.00000000000E+00  0.00000000000E+00  0.79597695116E+03  0.79597695118E+03  0.50400001928E-02 0.  1.
       -1   -1    0    0    0  501  0.00000000000E+00  0.00000000000E+00 -0.59496920576E+03  0.59496920578E+03  0.50400001928E-02 0. -1.
    10030    2    1    2    0    0  0.00000000000E+00  0.00000000000E+00  0.20100774540E+03  0.13909461570E+04  0.13763455590E+04 0.  0.
        5    1    3    3  502    0  0.31244411203E+03  0.16358017155E+03  0.69768688375E+03  0.78177290399E+03  0.46999998093E+01 0.  1.
       -5    1    3    3    0  502 -0.31244411203E+03 -0.16358017155E+03 -0.49667913835E+03  0.60917325297E+03  0.46999998093E+01 0. -1.
</event>
<event>
 5   0  0.6671375E-05  0.1402568E+04  0.7818609E-02  0.8951961E-01
       -1   -1    0    0    0  501  0.00000000000E+00  0.00000000000E+00  0.35648240437E+03  0.35648240440E+03  0.50400001928E-02 0. -1.
        1   -1    0    0  501    0  0.00000000000E+00  0.00000000000E+00 -0.13795900348E+04  0.13795900348E+04  0.50400001928E-02 0.  1.
    10030    2    1    2    0    0  0.00000000000E+00  0.00000000000E+00 -0.10231076305E+04  0.17360724392E+04  0.14025684621E+04 0.  0.
        5    1    3    3  502    0  0.40840418036E+03  0.28152047509E+03 -0.11251358359E+04  0.12296342918E+04  0.46999998093E+01 0.  1.
       -5    1    3    3    0  502 -0.40840418036E+03 -0.28152047509E+03  0.10202820544E+03  0.50643814740E+03  0.46999998093E+01 0. -1.
</event>
<event>
 5   0  0.1833681E-04  0.1405593E+04  0.7818609E-02  0.8949780E-01
       -2   -1    0    0    0  501  0.00000000000E+00  0.00000000000E+00  0.48406553866E+03  0.48406553867E+03  0.25500000920E-02 0.  1.
        2   -1    0    0  501    0  0.00000000000E+00  0.00000000000E+00 -0.10203633824E+04  0.10203633824E+04  0.25500000920E-02 0. -1.
    10030    2    1    2    0    0  0.00000000000E+00  0.00000000000E+00 -0.53629784370E+03  0.15044289210E+04  0.14055927580E+04 0.  0.
        4    1    3    3  502    0 -0.23075247111E+03  0.63836408049E+03 -0.46306917982E+03  0.82169950735E+03  0.12699999809E+01 0.  1.
       -4    1    3    3    0  502  0.23075247111E+03 -0.63836408049E+03 -0.73228663881E+02  0.68272941368E+03  0.12699999809E+01 0. -1.
</event>
<event>
 5   0  0.9828111E-05  0.1399619E+04  0.7818609E-02  0.8954095E-01
       -1   -1    0    0    0  501  0.00000000000E+00  0.00000000000E+00  0.31008670087E+03  0.31008670091E+03  0.50400001928E-02 0.  1.
        1   -1    0    0  501    0  0.00000000000E+00  0.00000000000E+00 -0.15793422854E+04  0.15793422854E+04  0.50400001928E-02 0. -1.
    10030    2    1    2    0    0  0.00000000000E+00  0.00000000000E+00 -0.12692555845E+04  0.18894289863E+04  0.13996185750E+04 0.  0.
        4    1    3    3  502    0  0.30159843107E+03  0.35631928874E+02 -0.14857453308E+04  0.15164669627E+04  0.12699999809E+01 0. -1.
       -4    1    3    3    0  502 -0.30159843107E+03 -0.35631928874E+02  0.21648974624E+03  0.37296202368E+03  0.12699999809E+01 0.  1.
</event>
<event>
 5   0  0.1766237E-04  0.1400865E+04  0.7818609E-02  0.8953192E-01
        2   -1    0    0  501    0  0.00000000000E+00  0.00000000000E+00  0.57132443536E+03  0.57132443536E+03  0.25500000920E-02 0.  1.
       -2   -1    0    0    0  501  0.00000000000E+00  0.00000000000E+00 -0.85871675080E+03  0.85871675080E+03  0.25500000920E-02 0. -1.
    10030    2    1    2    0    0  0.00000000000E+00  0.00000000000E+00 -0.28739231544E+03  0.14300411862E+04  0.14008652509E+04 0.  0.
        3    1    3    3  502    0 -0.57999794317E+03 -0.17837671397E+03 -0.50082516484E+03  0.78679204502E+03  0.10100000352E+00 0. -1.
       -3    1    3    3    0  502  0.57999794317E+03  0.17837671397E+03  0.21343284940E+03  0.64324914114E+03  0.10100000352E+00 0.  1.
</event>
<event>
 5   0  0.6671375E-05  0.1403732E+04  0.7818609E-02  0.8951121E-01
        3   -1    0    0  501    0  0.00000000000E+00  0.00000000000E+00  0.63103733264E+03  0.63103734072E+03  0.10100000352E+00 0. -1.
       -3   -1    0    0    0  501  0.00000000000E+00  0.00000000000E+00 -0.78064500173E+03  0.78064500827E+03  0.10100000352E+00 0.  1.
    10030    2    1    2    0    0  0.00000000000E+00  0.00000000000E+00 -0.14960766909E+03  0.14116823490E+04  0.14037323818E+04 0.  0.
        5    1    3    3  502    0 -0.12873801169E+03 -0.68614816844E+03 -0.21362105983E+01  0.69813998460E+03  0.46999998093E+01 0. -1.
       -5    1    3    3    0  502  0.12873801169E+03  0.68614816844E+03 -0.14747145850E+03  0.71354236439E+03  0.46999998093E+01 0.  1.
</event>
<event>
 5   0  0.1712327E-04  0.1399295E+04  0.7818609E-02  0.8954329E-01
       -2   -1    0    0    0  501  0.00000000000E+00  0.00000000000E+00  0.66719609854E+03  0.66719609854E+03  0.25500000920E-02 0. -1.
        2   -1    0    0  501    0  0.00000000000E+00  0.00000000000E+00 -0.73367714484E+03  0.73367714484E+03  0.25500000920E-02 0.  1.
    10030    2    1    2    0    0  0.00000000000E+00  0.00000000000E+00 -0.66481046301E+02  0.14008732434E+04  0.13992948633E+04 0.  0.
        1    1    3    3  502    0  0.25156967666E+03  0.59869984178E+03 -0.29387573999E+03  0.71280555086E+03  0.50400001928E-02 0. -1.
       -1    1    3    3    0  502 -0.25156967666E+03 -0.59869984178E+03  0.22739469369E+03  0.68806769253E+03  0.50400001928E-02 0.  1.
</event>
<event>
 5   0  0.9828111E-05  0.1396693E+04  0.7818609E-02  0.8956216E-01
       -1   -1    0    0    0  501  0.00000000000E+00  0.00000000000E+00  0.39648169045E+03  0.39648169048E+03  0.50400001928E-02 0.  1.
        1   -1    0    0  501    0  0.00000000000E+00  0.00000000000E+00 -0.12300384326E+04  0.12300384326E+04  0.50400001928E-02 0. -1.
    10030    2    1    2    0    0  0.00000000000E+00  0.00000000000E+00 -0.83355674218E+03  0.16265201231E+04  0.13966928325E+04 0.  0.
        4    1    3    3  502    0  0.22401700994E+03  0.42995798230E+03 -0.10021186414E+04  0.11132344190E+04  0.12699999809E+01 0. -1.
       -4    1    3    3    0  502 -0.22401700994E+03 -0.42995798230E+03  0.16856189922E+03  0.51328570412E+03  0.12699999809E+01 0.  1.
</event>
<event>
 5   0  0.1712327E-04  0.1396131E+04  0.7818609E-02  0.8956624E-01
        2   -1    0    0  501    0  0.00000000000E+00  0.00000000000E+00  0.16035847006E+04  0.16035847006E+04  0.25500000920E-02 0.  1.
       -2   -1    0    0    0  501  0.00000000000E+00  0.00000000000E+00 -0.30387875570E+03  0.30387875571E+03  0.25500000920E-02 0. -1.
    10030    2    1    2    0    0  0.00000000000E+00  0.00000000000E+00  0.12997059449E+04  0.19074634563E+04  0.13961308298E+04 0.  0.
        1    1    3    3  502    0  0.17469249990E+03 -0.42240109917E+03 -0.70971879349E+02  0.46257665936E+03  0.50400001928E-02 0. -1.
       -1    1    3    3    0  502 -0.17469249990E+03  0.42240109917E+03  0.13706778242E+04  0.14448867970E+04  0.50400001928E-02 0.  1.
</event>
<event>
 5   0  0.1766237E-04  0.1401060E+04  0.7818609E-02  0.8953052E-01
       -2   -1    0    0    0  501  0.00000000000E+00  0.00000000000E+00  0.86217082148E+03  0.86217082149E+03  0.25500000920E-02 0.  1.
        2   -1    0    0  501    0  0.00000000000E+00  0.00000000000E+00 -0.56919362378E+03  0.56919362379E+03  0.25500000920E-02 0. -1.
    10030    2    1    2    0    0  0.00000000000E+00  0.00000000000E+00  0.29297719770E+03  0.14313644453E+04  0.14010597906E+04 0.  0.
        3    1    3    3  502    0  0.48587005665E+02 -0.68658111254E+03  0.27964503447E+03  0.74293719568E+03  0.10100000352E+00 0.  1.
       -3    1    3    3    0  502 -0.48587005665E+02  0.68658111254E+03  0.13332163234E+02  0.68842724960E+03  0.10100000352E+00 0. -1.
</event>
<event>
 5   0  0.9978422E-05  0.1363509E+04  0.7818609E-02  0.8980665E-01
       -1   -1    0    0    0  501  0.00000000000E+00  0.00000000000E+00  0.60272117178E+03  0.60272117180E+03  0.50400001928E-02 0.  1.
        1   -1    0    0  501    0  0.00000000000E+00  0.00000000000E+00 -0.77115095856E+03  0.77115095857E+03  0.50400001928E-02 0. -1.
    10030    2    1    2    0    0  0.00000000000E+00  0.00000000000E+00 -0.16842978678E+03  0.13738721304E+04  0.13635087229E+04 0.  0.
        2    1    3    3  502    0 -0.20189354116E+03  0.57549676393E+03  0.22278345234E+03  0.64929961797E+03  0.25500000920E-02 0.  1.
       -2    1    3    3    0  502  0.20189354116E+03 -0.57549676393E+03 -0.39121323911E+03  0.72457251240E+03  0.25500000920E-02 0. -1.
</event>
<event>
 5   0  0.1766237E-04  0.1397325E+04  0.7818609E-02  0.8955757E-01
        2   -1    0    0  501    0  0.00000000000E+00  0.00000000000E+00  0.20034282470E+04  0.20034282470E+04  0.25500000920E-02 0. -1.
       -2   -1    0    0    0  501  0.00000000000E+00  0.00000000000E+00 -0.24364710014E+03  0.24364710016E+03  0.25500000920E-02 0.  1.
    10030    2    1    2    0    0  0.00000000000E+00  0.00000000000E+00  0.17597811468E+04  0.22470753471E+04  0.13973252774E+04 0.  0.
        3    1    3    3  502    0  0.27886411899E+03 -0.61924062442E+03  0.11436689790E+04  0.13301138641E+04  0.10100000352E+00 0. -1.
       -3    1    3    3    0  502 -0.27886411899E+03  0.61924062442E+03  0.61611216785E+03  0.91696148303E+03  0.10100000352E+00 0.  1.
</event>
<event>
 5   0  0.9828111E-05  0.1399741E+04  0.7818609E-02  0.8954006E-01
       -1   -1    0    0    0  501  0.00000000000E+00  0.00000000000E+00  0.72946005834E+03  0.72946005836E+03  0.50400001928E-02 0. -1.
        1   -1    0    0  501    0  0.00000000000E+00  0.00000000000E+00 -0.67148145563E+03  0.67148145565E+03  0.50400001928E-02 0.  1.
    10030    2    1    2    0    0  0.00000000000E+00  0.00000000000E+00  0.57978602711E+02  0.14009415140E+04  0.13997412644E+04 0.  0.
        4    1    3    3  502    0  0.13276134247E+03 -0.49283215139E+03  0.50826125778E+03  0.72030564524E+03  0.12699999809E+01 0. -1.
       -4    1    3    3    0  502 -0.13276134247E+03  0.49283215139E+03 -0.45028265507E+03  0.68063586877E+03  0.12699999809E+01 0.  1.
</event>
<event>
 5   0  0.9978422E-05  0.1428355E+04  0.7818609E-02  0.8933546E-01
       -1   -1    0    0    0  501  0.00000000000E+00  0.00000000000E+00  0.62826664033E+03  0.62826664035E+03  0.50400001928E-02 0.  1.
        1   -1    0    0  501    0  0.00000000000E+00  0.00000000000E+00 -0.81183555814E+03  0.81183555815E+03  0.50400001928E-02 0. -1.
    10030    2    1    2    0    0  0.00000000000E+00  0.00000000000E+00 -0.18356891781E+03  0.14401021985E+04  0.14283545759E+04 0.  0.
        2    1    3    3  502    0 -0.13088533616E+02 -0.30272315421E+03 -0.74381552867E+03  0.80316508795E+03  0.25500000920E-02 0. -1.
       -2    1    3    3    0  502  0.13088533616E+02  0.30272315421E+03  0.56024661086E+03  0.63693711055E+03  0.25500000920E-02 0.  1.
</event>
<event>
 5   0  0.9260916E-05  0.1399119E+04  0.7818609E-02  0.8954457E-01
        1   -1    0    0  501    0  0.00000000000E+00  0.00000000000E+00  0.58606491651E+03  0.58606491653E+03  0.50400001928E-02 0.  1.
       -1   -1    0    0    0  501  0.00000000000E+00  0.00000000000E+00 -0.83503254650E+03  0.83503254651E+03  0.50400001928E-02 0. -1.
    10030    2    1    2    0    0  0.00000000000E+00  0.00000000000E+00 -0.24896762999E+03  0.14210974630E+04  0.13991186936E+04 0.  0.
        1    1    3    3  502    0  0.61465747777E+03  0.98304541276E+02  0.19977352231E+03  0.65374081871E+03  0.50400001928E-02 0.  1.
       -1    1    3    3    0  502 -0.61465747777E+03 -0.98304541276E+02 -0.44874115230E+03  0.76735664433E+03  0.50400001928E-02 0. -1.
</event>
<event>
 5   0  0.1712327E-04  0.1397997E+04  0.7818609E-02  0.8955269E-01
        2   -1    0    0  501    0  0.00000000000E+00  0.00000000000E+00  0.69902070393E+03  0.69902070393E+03  0.25500000920E-02 0.  1.
       -2   -1    0    0    0  501  0.00000000000E+00  0.00000000000E+00 -0.69897657797E+03  0.69897657797E+03  0.25500000920E-02 0. -1.
    10030    2    1    2    0    0  0.00000000000E+00  0.00000000000E+00  0.44125962086E-01  0.13979972819E+04  0.13979972812E+04 0.  0.
        1    1    3    3  502    0  0.13372429036E+03 -0.62390987973E+03  0.28542244099E+03  0.69900764924E+03  0.50400001928E-02 0.  1.
       -1    1    3    3    0  502 -0.13372429036E+03  0.62390987973E+03 -0.28537831503E+03  0.69898963266E+03  0.50400001928E-02 0. -1.
</event>
<event>
 5   0  0.9260916E-05  0.1400394E+04  0.7818609E-02  0.8953533E-01
       -1   -1    0    0    0  501  0.00000000000E+00  0.00000000000E+00  0.11710022532E+04  0.11710022532E+04  0.50400001928E-02 0.  1.
        1   -1    0    0  501    0  0.00000000000E+00  0.00000000000E+00 -0.41868069531E+03  0.41868069534E+03  0.50400001928E-02 0. -1.
    10030    2    1    2    0    0  0.00000000000E+00  0.00000000000E+00  0.75232155785E+03  0.15896829485E+04  0.14003942839E+04 0.  0.
        1    1    3    3  502    0 -0.26663256499E+03  0.64195073040E+03  0.47169293332E+03  0.84005231286E+03  0.50400001928E-02 0.  1.
       -1    1    3    3    0  502  0.26663256499E+03 -0.64195073040E+03  0.28062862453E+03  0.74963063565E+03  0.50400001928E-02 0. -1.
</event>
<event>
 5   0  0.9828111E-05  0.1401108E+04  0.7818609E-02  0.8953017E-01
       -1   -1    0    0    0  501  0.00000000000E+00  0.00000000000E+00  0.10060344195E+04  0.10060344196E+04  0.50400001928E-02 0. -1.
        1   -1    0    0  501    0  0.00000000000E+00  0.00000000000E+00 -0.48783205558E+03  0.48783205560E+03  0.50400001928E-02 0.  1.
    10030    2    1    2    0    0  0.00000000000E+00  0.00000000000E+00  0.51820236396E+03  0.14938664752E+04  0.14011079029E+04 0.  0.
        4    1    3    3  502    0 -0.95745692446E+02 -0.34317723421E+03  0.90222301870E+03  0.97002362862E+03  0.12699999809E+01 0. -1.
       -4    1    3    3    0  502  0.95745692446E+02  0.34317723421E+03 -0.38402065474E+03  0.52384284654E+03  0.12699999809E+01 0.  1.
</event>
<event>
 5   0  0.1794185E-04  0.1399957E+04  0.7818609E-02  0.8953850E-01
       -2   -1    0    0    0  501  0.00000000000E+00  0.00000000000E+00  0.17078710050E+04  0.17078710050E+04  0.25500000920E-02 0.  1.
        2   -1    0    0  501    0  0.00000000000E+00  0.00000000000E+00 -0.28688917807E+03  0.28688917808E+03  0.25500000920E-02 0. -1.
    10030    2    1    2    0    0  0.00000000000E+00  0.00000000000E+00  0.14209818270E+04  0.19947601831E+04  0.13999567263E+04 0.  0.
        2    1    3    3  502    0 -0.39803323232E+03 -0.56172687016E+03  0.89073691130E+03  0.11257796302E+04  0.25500000920E-02 0.  1.
       -2    1    3    3    0  502  0.39803323232E+03  0.56172687016E+03  0.53024491567E+03  0.86898055288E+03  0.25500000920E-02 0. -1.
</event>
<event>
 5   0  0.1794185E-04  0.1407341E+04  0.7818609E-02  0.8948522E-01
       -2   -1    0    0    0  501  0.00000000000E+00  0.00000000000E+00  0.10414058450E+04  0.10414058450E+04  0.25500000920E-02 0. -1.
        2   -1    0    0  501    0  0.00000000000E+00  0.00000000000E+00 -0.47546528256E+03  0.47546528257E+03  0.25500000920E-02 0.  1.
    10030    2    1    2    0    0  0.00000000000E+00  0.00000000000E+00  0.56594056242E+03  0.15168711275E+04  0.14073412157E+04 0.  0.
        2    1    3    3  502    0 -0.36009254122E+03  0.53523080783E+03  0.58594081431E+03  0.87147305970E+03  0.25500000920E-02 0.  1.
       -2    1    3    3    0  502  0.36009254122E+03 -0.53523080783E+03 -0.20000251894E+02  0.64539806785E+03  0.25500000920E-02 0. -1.
</event>
<event>
 5   0  0.6671375E-05  0.1400241E+04  0.7818609E-02  0.8953644E-01
        4   -1    0    0  501    0  0.00000000000E+00  0.00000000000E+00  0.74276515427E+03  0.74276624001E+03  0.12699999809E+01 0. -1.
       -4   -1    0    0    0  501  0.00000000000E+00  0.00000000000E+00 -0.65992167707E+03  0.65992289911E+03  0.12699999809E+01 0.  1.
    10030    2    1    2    0    0  0.00000000000E+00  0.00000000000E+00  0.82843477202E+02  0.14026891391E+04  0.14002406148E+04 0.  0.
        2    1    3    3  502    0 -0.63367977527E+03 -0.18529420620E+02  0.33905245146E+03  0.71892277879E+03  0.25500000920E-02 0.  1.
       -2    1    3    3    0  502  0.63367977527E+03  0.18529420620E+02 -0.25620897425E+03  0.68376636033E+03  0.25500000920E-02 0. -1.
</event>
<event>
 5   0  0.1712327E-04  0.1400305E+04  0.7818609E-02  0.8953597E-01
        2   -1    0    0  501    0  0.00000000000E+00  0.00000000000E+00  0.16199060515E+04  0.16199060515E+04  0.25500000920E-02 0.  1.
       -2   -1    0    0    0  501  0.00000000000E+00  0.00000000000E+00 -0.30261868287E+03  0.30261868288E+03  0.25500000920E-02 0. -1.
    10030    2    1    2    0    0  0.00000000000E+00  0.00000000000E+00  0.13172873686E+04  0.19225247344E+04  0.14003054462E+04 0.  0.
        1    1    3    3  502    0 -0.58939184052E+02 -0.15125051097E+03 -0.27642639508E+03  0.32056527636E+03  0.50400001928E-02 0. -1.
       -1    1    3    3    0  502  0.58939184052E+02  0.15125051097E+03  0.15937137637E+04  0.16019594580E+04  0.50400001928E-02 0.  1.
</event>
<event>
 5   0  0.9900839E-05  0.1400825E+04  0.7818609E-02  0.8953222E-01
       -1   -1    0    0    0  501  0.00000000000E+00  0.00000000000E+00  0.31399867873E+03  0.31399867877E+03  0.50400001928E-02 0. -1.
        1   -1    0    0  501    0  0.00000000000E+00  0.00000000000E+00 -0.15623554760E+04  0.15623554760E+04  0.50400001928E-02 0.  1.
    10030    2    1    2    0    0  0.00000000000E+00  0.00000000000E+00 -0.12483567972E+04  0.18763541548E+04  0.14008248359E+04 0.  0.
        3    1    3    3  502    0 -0.20421918654E+02  0.46419396197E+03 -0.13261960341E+04  0.14052362862E+04  0.10100000352E+00 0.  1.
       -3    1    3    3    0  502  0.20421918654E+02 -0.46419396197E+03  0.77839236812E+02  0.47111786856E+03  0.10100000352E+00 0. -1.
</event>
<event>
 5   0  0.1833681E-04  0.1404485E+04  0.7818609E-02  0.8950579E-01
        2   -1    0    0  501    0  0.00000000000E+00  0.00000000000E+00  0.56956519530E+03  0.56956519531E+03  0.25500000920E-02 0.  1.
       -2   -1    0    0    0  501  0.00000000000E+00  0.00000000000E+00 -0.86582569033E+03  0.86582569033E+03  0.25500000920E-02 0. -1.
    10030    2    1    2    0    0  0.00000000000E+00  0.00000000000E+00 -0.29626049502E+03  0.14353908856E+04  0.14044845010E+04 0.  0.
        4    1    3    3  502    0  0.30057322958E+03  0.63187837151E+03 -0.87426021692E+02  0.70516626755E+03  0.12699999809E+01 0. -1.
       -4    1    3    3    0  502 -0.30057322958E+03 -0.63187837151E+03 -0.20883447333E+03  0.73022461809E+03  0.12699999809E+01 0.  1.
</event>
<event>
 5   0  0.1780171E-04  0.1398483E+04  0.7818609E-02  0.8954917E-01
        2   -1    0    0  501    0  0.00000000000E+00  0.00000000000E+00  0.11712925620E+04  0.11712925620E+04  0.25500000920E-02 0.  1.
       -2   -1    0    0    0  501  0.00000000000E+00  0.00000000000E+00 -0.41743523826E+03  0.41743523827E+03  0.25500000920E-02 0. -1.
    10030    2    1    2    0    0  0.00000000000E+00  0.00000000000E+00  0.75385732378E+03  0.15887278003E+04  0.13984831636E+04 0.  0.
        5    1    3    3  502    0  0.50970085423E+03 -0.47865747543E+03  0.37356627550E+03  0.79276843515E+03  0.46999998093E+01 0. -1.
       -5    1    3    3    0  502 -0.50970085423E+03  0.47865747543E+03  0.38029104827E+03  0.79595936516E+03  0.46999998093E+01 0.  1.
</event>
<event>
 5   0  0.1766237E-04  0.1399910E+04  0.7818609E-02  0.8953884E-01
        2   -1    0    0  501    0  0.00000000000E+00  0.00000000000E+00  0.12391506025E+04  0.12391506025E+04  0.25500000920E-02 0.  1.
       -2   -1    0    0    0  501  0.00000000000E+00  0.00000000000E+00 -0.39538104725E+03  0.39538104726E+03  0.25500000920E-02 0. -1.
    10030    2    1    2    0    0  0.00000000000E+00  0.00000000000E+00  0.84376955524E+03  0.16345316497E+04  0.13999095155E+04 0.  0.
        3    1    3    3  502    0 -0.57217662763E+03 -0.14478203117E+03  0.86123181393E+03  0.10440633014E+04  0.10100000352E+00 0.  1.
       -3    1    3    3    0  502  0.57217662763E+03  0.14478203117E+03 -0.17462258684E+02  0.59046834838E+03  0.10100000352E+00 0. -1.
</event>
<event>
 5   0  0.9260916E-05  0.1399490E+04  0.7818609E-02  0.8954188E-01
       -1   -1    0    0    0  501  0.00000000000E+00  0.00000000000E+00  0.26429280153E+03  0.26429280158E+03  0.50400001928E-02 0.  1.
        1   -1    0    0  501    0  0.00000000000E+00  0.00000000000E+00 -0.18526537631E+04  0.18526537631E+04  0.50400001928E-02 0. -1.
    10030    2    1    2    0    0  0.00000000000E+00  0.00000000000E+00 -0.15883609616E+04  0.21169465647E+04  0.13994899834E+04 0.  0.
        1    1    3    3  502    0 -0.14931391032E+03  0.59355076552E+03 -0.13072493580E+04  0.14434327276E+04  0.50400001928E-02 0. -1.
       -1    1    3    3    0  502  0.14931391032E+03 -0.59355076552E+03 -0.28111160356E+03  0.67351383709E+03  0.50400001928E-02 0.  1.
</event>
<event>
 5   0  0.6671375E-05  0.1401901E+04  0.7818609E-02  0.8952444E-01
       -4   -1    0    0    0  501  0.00000000000E+00  0.00000000000E+00  0.71884194182E+03  0.71884306369E+03  0.12699999809E+01 0.  1.
        4   -1    0    0  501    0  0.00000000000E+00  0.00000000000E+00 -0.68350199635E+03  0.68350317623E+03  0.12699999809E+01 0. -1.
    10030    2    1    2    0    0  0.00000000000E+00  0.00000000000E+00  0.35339945468E+02  0.14023462399E+04  0.14019008755E+04 0.  0.
        5    1    3    3  502    0  0.60838723217E+03  0.23319694270E+03  0.27619663169E+03  0.70768814297E+03  0.46999998093E+01 0.  1.
       -5    1    3    3    0  502 -0.60838723217E+03 -0.23319694270E+03 -0.24085668623E+03  0.69465809694E+03  0.46999998093E+01 0. -1.
</event>
<event>
 5   0  0.9978422E-05  0.1401224E+04  0.7818609E-02  0.8952933E-01
       -1   -1    0    0    0  501  0.00000000000E+00  0.00000000000E+00  0.36173212244E+03  0.36173212248E+03  0.50400001928E-02 0. -1.
        1   -1    0    0  501    0  0.00000000000E+00  0.00000000000E+00 -0.13569635649E+04  0.13569635650E+04  0.50400001928E-02 0.  1.
    10030    2    1    2    0    0  0.00000000000E+00  0.00000000000E+00 -0.99523144250E+03  0.17186956874E+04  0.14012241940E+04 0.  0.
        2    1    3    3  502    0  0.20364183254E+02  0.95319515792E+02  0.35337517815E+03  0.36657131174E+03  0.25500000920E-02 0. -1.
       -2    1    3    3    0  502 -0.20364183254E+02 -0.95319515792E+02 -0.13486066207E+04  0.13521243757E+04  0.25500000920E-02 0.  1.
</event>
<event>
 5   0  0.1794185E-04  0.1398366E+04  0.7818609E-02  0.8955002E-01
       -2   -1    0    0    0  501  0.00000000000E+00  0.00000000000E+00  0.69025978562E+03  0.69025978562E+03  0.25500000920E-02 0.  1.
        2   -1    0    0  501    0  0.00000000000E+00  0.00000000000E+00 -0.70822112951E+03  0.70822112951E+03  0.25500000920E-02 0. -1.
    10030    2    1    2    0    0  0.00000000000E+00  0.00000000000E+00 -0.17961343892E+02  0.13984809151E+04  0.13983655674E+04 0.  0.
        2    1    3    3  502    0  0.25090244046E+03 -0.50672977787E+03  0.40230677731E+03  0.69395810067E+03  0.25500000920E-02 0.  1.
       -2    1    3    3    0  502 -0.25090244046E+03  0.50672977787E+03 -0.42026812120E+03  0.70452281447E+03  0.25500000920E-02 0. -1.
</event>
<event>
 5   0  0.1833681E-04  0.1399783E+04  0.7818609E-02  0.8953976E-01
        2   -1    0    0  501    0  0.00000000000E+00  0.00000000000E+00  0.56291355597E+03  0.56291355597E+03  0.25500000920E-02 0.  1.
       -2   -1    0    0    0  501  0.00000000000E+00  0.00000000000E+00 -0.87020094962E+03  0.87020094962E+03  0.25500000920E-02 0. -1.
    10030    2    1    2    0    0  0.00000000000E+00  0.00000000000E+00 -0.30728739365E+03  0.14331145056E+04  0.13997827131E+04 0.  0.
        4    1    3    3  502    0 -0.26492900942E+03  0.64408214227E+03 -0.22470180486E+03  0.73179348182E+03  0.12699999809E+01 0. -1.
       -4    1    3    3    0  502  0.26492900942E+03 -0.64408214227E+03 -0.82585588799E+02  0.70132102378E+03  0.12699999809E+01 0.  1.
</event>
<event>
 5   0  0.1780171E-04  0.1403695E+04  0.7818609E-02  0.8951148E-01
       -2   -1    0    0    0  501  0.00000000000E+00  0.00000000000E+00  0.74172178827E+03  0.74172178828E+03  0.25500000920E-02 0. -1.
        2   -1    0    0  501    0  0.00000000000E+00  0.00000000000E+00 -0.66411664653E+03  0.66411664654E+03  0.25500000920E-02 0.  1.
    10030    2    1    2    0    0  0.00000000000E+00  0.00000000000E+00  0.77605141739E+02  0.14058384348E+04  0.14036948197E+04 0.  0.
        5    1    3    3  502    0  0.79153849044E+02 -0.59330894075E+03  0.40581391142E+03  0.72317899008E+03  0.46999998093E+01 0. -1.
       -5    1    3    3    0  502 -0.79153849044E+02  0.59330894075E+03 -0.32820876968E+03  0.68265944473E+03  0.46999998093E+01 0.  1.
</event>
<event>
 5   0  0.9260916E-05  0.1404119E+04  0.7818609E-02  0.8950842E-01
       -1   -1    0    0    0  501  0.00000000000E+00  0.00000000000E+00  0.49472628508E+03  0.49472628511E+03  0.50400001928E-02 0. -1.
        1   -1    0    0  501    0  0.00000000000E+00  0.00000000000E+00 -0.99628349512E+03  0.99628349513E+03  0.50400001928E-02 0.  1.
    10030    2    1    2    0    0  0.00000000000E+00  0.00000000000E+00 -0.50155721004E+03  0.14910097802E+04  0.14041191295E+04 0.  0.
        1    1    3    3  502    0 -0.61836757281E+02  0.61515240866E+03 -0.60400643887E+03  0.86432635541E+03  0.50400001928E-02 0. -1.
       -1    1    3    3    0  502  0.61836757281E+02 -0.61515240866E+03  0.10244922884E+03  0.62668342482E+03  0.50400001928E-02 0.  1.
</event>
<event>
 5   0  0.9828111E-05  0.1397911E+04  0.7818609E-02  0.8955332E-01
        1   -1    0    0  501    0  0.00000000000E+00  0.00000000000E+00  0.69947886175E+03  0.69947886177E+03  0.50400001928E-02 0. -1.
       -1   -1    0    0    0  501  0.00000000000E+00  0.00000000000E+00 -0.69843217060E+03  0.69843217062E+03  0.50400001928E-02 0.  1.
    10030    2    1    2    0    0  0.00000000000E+00  0.00000000000E+00  0.10466911535E+01  0.13979110324E+04  0.13979106405E+04 0.  0.
        4    1    3    3  502    0 -0.53133087363E+03  0.32535401099E+03 -0.31628772329E+03  0.69871830271E+03  0.12699999809E+01 0.  1.
       -4    1    3    3    0  502  0.53133087363E+03 -0.32535401099E+03  0.31733441444E+03  0.69919272967E+03  0.12699999809E+01 0. -1.
</event>
<event>
 5   0  0.1794185E-04  0.1399722E+04  0.7818609E-02  0.8954020E-01
       -2   -1    0    0    0  501  0.00000000000E+00  0.00000000000E+00  0.25960327932E+03  0.25960327933E+03  0.25500000920E-02 0. -1.
        2   -1    0    0  501    0  0.00000000000E+00  0.00000000000E+00 -0.18867458336E+04  0.18867458336E+04  0.25500000920E-02 0.  1.
    10030    2    1    2    0    0  0.00000000000E+00  0.00000000000E+00 -0.16271425543E+04  0.21463491130E+04  0.13997219805E+04 0.  0.
        2    1    3    3  502    0 -0.30718816744E+03 -0.40074052846E+03 -0.70463360257E+02  0.50982607477E+03  0.25500000920E-02 0. -1.
       -2    1    3    3    0  502  0.30718816744E+03  0.40074052846E+03 -0.15566791940E+04  0.16365230382E+04  0.25500000920E-02 0.  1.
</event>
<event>
 5   0  0.1712327E-04  0.1413555E+04  0.7818609E-02  0.8944065E-01
       -2   -1    0    0    0  501  0.00000000000E+00  0.00000000000E+00  0.53284555611E+03  0.53284555612E+03  0.25500000920E-02 0.  1.
        2   -1    0    0  501    0  0.00000000000E+00  0.00000000000E+00 -0.93748464345E+03  0.93748464346E+03  0.25500000920E-02 0. -1.
    10030    2    1    2    0    0  0.00000000000E+00  0.00000000000E+00 -0.40463908734E+03  0.14703301996E+04  0.14135551297E+04 0.  0.
        1    1    3    3  502    0  0.56286998289E+03 -0.26633665232E+03  0.14543896188E+03  0.63946096180E+03  0.50400001928E-02 0.  1.
       -1    1    3    3    0  502 -0.56286998289E+03  0.26633665232E+03 -0.55007804922E+03  0.83086923777E+03  0.50400001928E-02 0. -1.
</event>
<event>
 5   0  0.1712327E-04  0.1399135E+04  0.7818609E-02  0.8954445E-01
       -2   -1    0    0    0  501  0.00000000000E+00  0.00000000000E+00  0.29630626497E+03  0.29630626498E+03  0.25500000920E-02 0.  1.
        2   -1    0    0  501    0  0.00000000000E+00  0.00000000000E+00 -0.16516510336E+04  0.16516510336E+04  0.25500000920E-02 0. -1.
    10030    2    1    2    0    0  0.00000000000E+00  0.00000000000E+00 -0.13553447687E+04  0.19479572986E+04  0.13991348024E+04 0.  0.
        1    1    3    3  502    0 -0.14807996295E+03  0.35377439507E+03 -0.14922453934E+04  0.15407401832E+04  0.50400001928E-02 0. -1.
       -1    1    3    3    0  502  0.14807996295E+03 -0.35377439507E+03  0.13690062469E+03  0.40721711543E+03  0.50400001928E-02 0.  1.
</event>
<event>
 5   0  0.9978422E-05  0.1398891E+04  0.7818609E-02  0.8954622E-01
        1   -1    0    0  501    0  0.00000000000E+00  0.00000000000E+00  0.10227023319E+04  0.10227023319E+04  0.50400001928E-02 0. -1.
       -1   -1    0    0    0  501  0.00000000000E+00  0.00000000000E+00 -0.47836385182E+03  0.47836385185E+03  0.50400001928E-02 0.  1.
    10030    2    1    2    0    0  0.00000000000E+00  0.00000000000E+00  0.54433848011E+03  0.15010661838E+04  0.13988907417E+04 0.  0.
        2    1    3    3  502    0 -0.45274936704E+03 -0.34471056242E+03  0.70859001277E+03  0.90879434825E+03  0.25500000920E-02 0. -1.
       -2    1    3    3    0  502  0.45274936704E+03  0.34471056242E+03 -0.16425153267E+03  0.59227183555E+03  0.25500000920E-02 0.  1.
</event>
<event>
 5   0  0.1780171E-04  0.1401366E+04  0.7818609E-02  0.8952830E-01
       -2   -1    0    0    0  501  0.00000000000E+00  0.00000000000E+00  0.71125106632E+03  0.71125106633E+03  0.25500000920E-02 0.  1.
        2   -1    0    0  501    0  0.00000000000E+00  0.00000000000E+00 -0.69027189240E+03  0.69027189241E+03  0.25500000920E-02 0. -1.
    10030    2    1    2    0    0  0.00000000000E+00  0.00000000000E+00  0.20979173923E+02  0.14015229587E+04  0.14013659330E+04 0.  0.
        5    1    3    3  502    0 -0.27198298875E+03  0.21217913521E+03  0.62042659662E+03  0.70989152931E+03  0.46999998093E+01 0.  1.
       -5    1    3    3    0  502  0.27198298875E+03 -0.21217913521E+03 -0.59944742270E+03  0.69163142943E+03  0.46999998093E+01 0. -1.
</event>
<event>
 5   0  0.9828111E-05  0.1400496E+04  0.7818609E-02  0.8953459E-01
       -1   -1    0    0    0  501  0.00000000000E+00  0.00000000000E+00  0.47255107860E+03  0.47255107863E+03  0.50400001928E-02 0. -1.
        1   -1    0    0  501    0  0.00000000000E+00  0.00000000000E+00 -0.10376600683E+04  0.10376600683E+04  0.50400001928E-02 0.  1.
    10030    2    1    2    0    0  0.00000000000E+00  0.00000000000E+00 -0.56510898970E+03  0.15102111469E+04  0.14004961757E+04 0.  0.
        4    1    3    3  502    0  0.21863994330E+03  0.42822449424E+03 -0.83151975933E+03  0.96052400560E+03  0.12699999809E+01 0.  1.
       -4    1    3    3    0  502 -0.21863994330E+03 -0.42822449424E+03  0.26641076963E+03  0.54968714134E+03  0.12699999809E+01 0. -1.
</event>
<event>
 5   0  0.9260916E-05  0.1401722E+04  0.7818609E-02  0.8952573E-01
        1   -1    0    0  501    0  0.00000000000E+00  0.00000000000E+00  0.57444629943E+03  0.57444629946E+03  0.50400001928E-02 0.  1.
       -1   -1    0    0    0  501  0.00000000000E+00  0.00000000000E+00 -0.85509442235E+03  0.85509442237E+03  0.50400001928E-02 0. -1.
    10030    2    1    2    0    0  0.00000000000E+00  0.00000000000E+00 -0.28064812292E+03  0.14295407218E+04  0.14017215510E+04 0.  0.
        1    1    3    3  502    0 -0.44575799692E+03  0.34116744808E+03 -0.56830782277E+03  0.79879233903E+03  0.50400001928E-02 0. -1.
       -1    1    3    3    0  502  0.44575799692E+03 -0.34116744808E+03  0.28765969985E+03  0.63074838279E+03  0.50400001928E-02 0.  1.
</event>
<event>
 5   0  0.9260916E-05  0.1400801E+04  0.7818609E-02  0.8953239E-01
       -1   -1    0    0    0  501  0.00000000000E+00  0.00000000000E+00  0.83544629017E+03  0.83544629019E+03  0.50400001928E-02 0.  1.
        1   -1    0    0  501    0  0.00000000000E+00  0.00000000000E+00 -0.58718448513E+03  0.58718448515E+03  0.50400001928E-02 0. -1.
    10030    2    1    2    0    0  0.00000000000E+00  0.00000000000E+00  0.24826180504E+03  0.14226307753E+04  0.14008013418E+04 0.  0.
        1    1    3    3  502    0 -0.27593640110E+03 -0.63335669669E+03  0.24116339751E+03  0.73173860567E+03  0.50400001928E-02 0.  1.
       -1    1    3    3    0  502  0.27593640110E+03  0.63335669669E+03  0.70984075308E+01  0.69089216967E+03  0.50400001928E-02 0. -1.
</event>
<event>
 5   0  0.9978422E-05  0.1398993E+04  0.7818609E-02  0.8954548E-01
        1   -1    0    0  501    0  0.00000000000E+00  0.00000000000E+00  0.78348106747E+03  0.78348106749E+03  0.50400001928E-02 0.  1.
       -1   -1    0    0    0  501  0.00000000000E+00  0.00000000000E+00 -0.62451472878E+03  0.62451472880E+03  0.50400001928E-02 0. -1.
    10030    2    1    2    0    0  0.00000000000E+00  0.00000000000E+00  0.15896633869E+03  0.14079957963E+04  0.13989931614E+04 0.  0.
        2    1    3    3  502    0  0.32374398183E+03 -0.20758642593E+03 -0.50856538252E+03  0.63760570755E+03  0.25500000920E-02 0. -1.
       -2    1    3    3    0  502 -0.32374398183E+03  0.20758642593E+03  0.66753172121E+03  0.77039008874E+03  0.25500000920E-02 0.  1.
</event>
<event>
 5   0  0.6671375E-05  0.1399342E+04  0.7818609E-02  0.8954295E-01
       -3   -1    0    0    0  501  0.00000000000E+00  0.00000000000E+00  0.10784533652E+04  0.10784533700E+04  0.10100000352E+00 0. -1.
        3   -1    0    0  501    0  0.00000000000E+00  0.00000000000E+00 -0.45392747708E+03  0.45392748831E+03  0.10100000352E+00 0.  1.
    10030    2    1    2    0    0  0.00000000000E+00  0.00000000000E+00  0.62452588816E+03  0.15323808583E+04  0.13993421704E+04 0.  0.
        2    1    3    3  502    0 -0.15221207144E+03 -0.53201765355E+03  0.78113849371E+03  0.95728190453E+03  0.25500000920E-02 0. -1.
       -2    1    3    3    0  502  0.15221207144E+03  0.53201765355E+03 -0.15661260555E+03  0.57509895375E+03  0.25500000920E-02 0.  1.
</event>
<event>
 5   0  0.9260916E-05  0.1399825E+04  0.7818609E-02  0.8953946E-01
        1   -1    0    0  501    0  0.00000000000E+00  0.00000000000E+00  0.13859693358E+04  0.13859693359E+04  0.50400001928E-02 0. -1.
       -1   -1    0    0    0  501  0.00000000000E+00  0.00000000000E+00 -0.35345458522E+03  0.35345458525E+03  0.50400001928E-02 0.  1.
    10030    2    1    2    0    0  0.00000000000E+00  0.00000000000E+00  0.10325147506E+04  0.17394239211E+04  0.13998245844E+04 0.  0.
        1    1    3    3  502    0  0.33002198272E+02  0.17303506862E+03 -0.32545892986E+03  0.37007268896E+03  0.50400001928E-02 0.  1.
       -1    1    3    3    0  502 -0.33002198272E+02 -0.17303506862E+03  0.13579736805E+04  0.13693512321E+04  0.50400001928E-02 0. -1.
</event>
<event>
 5   0  0.1766237E-04  0.1402198E+04  0.7818609E-02  0.8952229E-01
        2   -1    0    0  501    0  0.00000000000E+00  0.00000000000E+00  0.12973866342E+04  0.12973866342E+04  0.25500000920E-02 0. -1.
       -2   -1    0    0    0  501  0.00000000000E+00  0.00000000000E+00 -0.37886924328E+03  0.37886924329E+03  0.25500000920E-02 0.  1.
    10030    2    1    2    0    0  0.00000000000E+00  0.00000000000E+00  0.91851739097E+03  0.16762558775E+04  0.14021981206E+04 0.  0.
        3    1    3    3  502    0  0.17482424366E+03 -0.19408999354E+03  0.12370406415E+04  0.12643195801E+04  0.10100000352E+00 0. -1.
       -3    1    3    3    0  502 -0.17482424366E+03  0.19408999354E+03 -0.31852325055E+03  0.41193629739E+03  0.10100000352E+00 0.  1.
</event>
<event>
 5   0  0.9900839E-05  0.1402614E+04  0.7818609E-02  0.8951929E-01
        1   -1    0    0  501    0  0.00000000000E+00  0.00000000000E+00  0.12758130332E+04  0.12758130332E+04  0.50400001928E-02 0.  1.
       -1   -1    0    0    0  501  0.00000000000E+00  0.00000000000E+00 -0.38550433960E+03  0.38550433963E+03  0.50400001928E-02 0. -1.
    10030    2    1    2    0    0  0.00000000000E+00  0.00000000000E+00  0.89030869361E+03  0.16613173729E+04  0.14026139324E+04 0.  0.
        3    1    3    3  502    0 -0.45593349540E+03  0.38944990466E+03  0.14360446064E+02  0.59979397553E+03  0.10100000352E+00 0. -1.
       -3    1    3    3    0  502  0.45593349540E+03 -0.38944990466E+03  0.87594824755E+03  0.10615233973E+04  0.10100000352E+00 0.  1.
</event>
<event>
 5   0  0.1833681E-04  0.1435859E+04  0.7818609E-02  0.8928263E-01
       -2   -1    0    0    0  501  0.00000000000E+00  0.00000000000E+00  0.30983552684E+03  0.30983552685E+03  0.25500000920E-02 0.  1.
        2   -1    0    0  501    0  0.00000000000E+00  0.00000000000E+00 -0.16635364483E+04  0.16635364483E+04  0.25500000920E-02 0. -1.
    10030    2    1    2    0    0  0.00000000000E+00  0.00000000000E+00 -0.13537009215E+04  0.19733719752E+04  0.14358588954E+04 0.  0.
        4    1    3    3  502    0 -0.13452657700E+03  0.34767580930E+03  0.16638348478E+03  0.40824128307E+03  0.12699999809E+01 0.  1.
       -4    1    3    3    0  502  0.13452657700E+03 -0.34767580930E+03 -0.15200844063E+04  0.15651306921E+04  0.12699999809E+01 0. -1.
</event>
<event>
 5   0  0.1766237E-04  0.1400313E+04  0.7818609E-02  0.8953592E-01
       -2   -1    0    0    0  501  0.00000000000E+00  0.00000000000E+00  0.36675226392E+03  0.36675226393E+03  0.25500000920E-02 0. -1.
        2   -1    0    0  501    0  0.00000000000E+00  0.00000000000E+00 -0.13366496475E+04  0.13366496475E+04  0.25500000920E-02 0.  1.
    10030    2    1    2    0    0  0.00000000000E+00  0.00000000000E+00 -0.96989738361E+03  0.17034019115E+04  0.14003132283E+04 0.  0.
        3    1    3    3  502    0 -0.29464065870E+03  0.30315229306E+02  0.28678586018E+03  0.41228421105E+03  0.10100000352E+00 0. -1.
       -3    1    3    3    0  502  0.29464065870E+03 -0.30315229306E+02 -0.12566832438E+04  0.12911177004E+04  0.10100000352E+00 0.  1.
</event>
<event>
 5   0  0.1794185E-04  0.1410182E+04  0.7818609E-02  0.8946481E-01
        2   -1    0    0  501    0  0.00000000000E+00  0.00000000000E+00  0.66476766141E+03  0.66476766141E+03  0.25500000920E-02 0. -1.
       -2   -1    0    0    0  501  0.00000000000E+00  0.00000000000E+00 -0.74786012692E+03  0.74786012693E+03  0.25500000920E-02 0.  1.
    10030    2    1    2    0    0  0.00000000000E+00  0.00000000000E+00 -0.83092465516E+02  0.14126277883E+04  0.14101818714E+04 0.  0.
        2    1    3    3  502    0 -0.33265970532E+03 -0.48814163090E+03 -0.42719253218E+03  0.72899807333E+03  0.25500000920E-02 0.  1.
       -2    1    3    3    0  502  0.33265970532E+03  0.48814163090E+03  0.34410006666E+03  0.68362971501E+03  0.25500000920E-02 0. -1.
</event>
<event>
 5   0  0.6671375E-05  0.1400279E+04  0.7818609E-02  0.8953617E-01
       -1   -1    0    0    0  501  0.00000000000E+00  0.00000000000E+00  0.57147460297E+03  0.57147460299E+03  0.50400001928E-02 0.  1.
        1   -1    0    0  501    0  0.00000000000E+00  0.00000000000E+00 -0.85777265161E+03  0.85777265163E+03  0.50400001928E-02 0. -1.
    10030    2    1    2    0    0  0.00000000000E+00  0.00000000000E+00 -0.28629804864E+03  0.14292472546E+04  0.14002789516E+04 0.  0.
        5    1    3    3  502    0 -0.28111414824E+03  0.33076143344E+03 -0.70382607358E+03  0.82693501682E+03  0.46999998093E+01 0. -1.
       -5    1    3    3    0  502  0.28111414824E+03 -0.33076143344E+03  0.41752802494E+03  0.60231223780E+03  0.46999998093E+01 0.  1.
</event>
<event>
 5   0  0.9260916E-05  0.1392245E+04  0.7818609E-02  0.8959451E-01
        1   -1    0    0  501    0  0.00000000000E+00  0.00000000000E+00  0.84647722087E+03  0.84647722089E+03  0.50400001928E-02 0.  1.
       -1   -1    0    0    0  501  0.00000000000E+00  0.00000000000E+00 -0.57247464604E+03  0.57247464606E+03  0.50400001928E-02 0. -1.
    10030    2    1    2    0    0  0.00000000000E+00  0.00000000000E+00  0.27400257483E+03  0.14189518670E+04  0.13922453052E+04 0.  0.
        1    1    3    3  502    0 -0.56635996666E+03  0.19100136543E+03  0.50069607486E+03  0.77970615801E+03  0.50400001928E-02 0.  1.
       -1    1    3    3    0  502  0.56635996666E+03 -0.19100136543E+03 -0.22669350003E+03  0.63924570895E+03  0.50400001928E-02 0. -1.
</event>
<event>
 5   0  0.1712327E-04  0.1400030E+04  0.7818609E-02  0.8953797E-01
        2   -1    0    0  501    0  0.00000000000E+00  0.00000000000E+00  0.80642011030E+03  0.80642011031E+03  0.25500000920E-02 0.  1.
       -2   -1    0    0    0  501  0.00000000000E+00  0.00000000000E+00 -0.60765016272E+03  0.60765016272E+03  0.25500000920E-02 0. -1.
    10030    2    1    2    0    0  0.00000000000E+00  0.00000000000E+00  0.19876994759E+03  0.14140702730E+04  0.14000304443E+04 0.  0.
        1    1    3    3  502    0 -0.34143708019E+03 -0.39351448529E+03 -0.37283793264E+03  0.64065673641E+03  0.50400001928E-02 0. -1.
       -1    1    3    3    0  502  0.34143708019E+03  0.39351448529E+03  0.57160788023E+03  0.77341353662E+03  0.50400001928E-02 0.  1.
</event>
<event>
 5   0  0.1833681E-04  0.1400381E+04  0.7818609E-02  0.8953543E-01
        2   -1    0    0  501    0  0.00000000000E+00  0.00000000000E+00  0.71425616736E+03  0.71425616737E+03  0.25500000920E-02 0.  1.
       -2   -1    0    0    0  501  0.00000000000E+00  0.00000000000E+00 -0.68640149096E+03  0.68640149096E+03  0.25500000920E-02 0. -1.
    10030    2    1    2    0    0  0.00000000000E+00  0.00000000000E+00  0.27854676407E+02  0.14006576583E+04  0.14003806600E+04 0.  0.
        4    1    3    3  502    0 -0.36657308319E+03 -0.33821020241E+03 -0.47759933252E+03  0.69055390931E+03  0.12699999809E+01 0. -1.
       -4    1    3    3    0  502  0.36657308319E+03  0.33821020241E+03  0.50545400892E+03  0.71010374902E+03  0.12699999809E+01 0.  1.
</event>
<event>
 5   0  0.1780171E-04  0.1400542E+04  0.7818609E-02  0.8953426E-01
       -2   -1    0    0    0  501  0.00000000000E+00  0.00000000000E+00  0.31657941883E+03  0.31657941884E+03  0.25500000920E-02 0. -1.
        2   -1    0    0  501    0  0.00000000000E+00  0.00000000000E+00 -0.15489942048E+04  0.15489942048E+04  0.25500000920E-02 0.  1.
    10030    2    1    2    0    0  0.00000000000E+00  0.00000000000E+00 -0.12324147860E+04  0.18655736236E+04  0.14005423023E+04 0.  0.
        5    1    3    3  502    0 -0.10855471912E+03 -0.62019849402E+03 -0.20797066713E+03  0.66310194345E+03  0.46999998093E+01 0. -1.
       -5    1    3    3    0  502  0.10855471912E+03  0.62019849402E+03 -0.10244441189E+04  0.12024716802E+04  0.46999998093E+01 0.  1.
</event>
<event>
 5   0  0.1766237E-04  0.1399516E+04  0.7818609E-02  0.8954169E-01
       -2   -1    0    0    0  501  0.00000000000E+00  0.00000000000E+00  0.45272850825E+03  0.45272850826E+03  0.25500000920E-02 0.  1.
        2   -1    0    0  501    0  0.00000000000E+00  0.00000000000E+00 -0.10815781324E+04  0.10815781324E+04  0.25500000920E-02 0. -1.
    10030    2    1    2    0    0  0.00000000000E+00  0.00000000000E+00 -0.62884962413E+03  0.15343066406E+04  0.13995159941E+04 0.  0.
        3    1    3    3  502    0  0.27337771822E+03  0.25484566317E+03 -0.96299299003E+03  0.10329749261E+04  0.10100000352E+00 0. -1.
       -3    1    3    3    0  502 -0.27337771822E+03 -0.25484566317E+03  0.33414336590E+03  0.50133171457E+03  0.10100000352E+00 0.  1.
</event>
<event>
 5   0  0.6671375E-05  0.1402700E+04  0.7818609E-02  0.8951867E-01
       -3   -1    0    0    0  501  0.00000000000E+00  0.00000000000E+00  0.44775663628E+03  0.44775664767E+03  0.10100000352E+00 0.  1.
        3   -1    0    0  501    0  0.00000000000E+00  0.00000000000E+00 -0.10985694123E+04  0.10985694170E+04  0.10100000352E+00 0. -1.
    10030    2    1    2    0    0  0.00000000000E+00  0.00000000000E+00 -0.65081277606E+03  0.15463260647E+04  0.14026999069E+04 0.  0.
        1    1    3    3  502    0 -0.64273249252E+03  0.21713188274E+03 -0.12931541364E+03  0.69063288922E+03  0.50400001928E-02 0.  1.
       -1    1    3    3    0  502  0.64273249252E+03 -0.21713188274E+03 -0.52149736242E+03  0.85569317543E+03  0.50400001928E-02 0. -1.
</event>
<event>
 5   0  0.1833681E-04  0.1399645E+04  0.7818609E-02  0.8954076E-01
        2   -1    0    0  501    0  0.00000000000E+00  0.00000000000E+00  0.11327621424E+04  0.11327621424E+04  0.25500000920E-02 0. -1.
       -2   -1    0    0    0  501  0.00000000000E+00  0.00000000000E+00 -0.43235147148E+03  0.43235147149E+03  0.25500000920E-02 0.  1.
    10030    2    1    2    0    0  0.00000000000E+00  0.00000000000E+00  0.70041067094E+03  0.15651136139E+04  0.13996447823E+04 0.  0.
        4    1    3    3  502    0 -0.37593947871E+03 -0.58975343783E+03  0.32258373197E+03  0.77019574533E+03  0.12699999809E+01 0.  1.
       -4    1    3    3    0  502  0.37593947871E+03  0.58975343783E+03  0.37782693896E+03  0.79491786859E+03  0.12699999809E+01 0. -1.
</event>
<event>
 5   0  0.6671375E-05  0.1402668E+04  0.7818609E-02  0.8951890E-01
       -3   -1    0    0    0  501  0.00000000000E+00  0.00000000000E+00  0.11459847472E+04  0.11459847516E+04  0.10100000352E+00 0. -1.
        3   -1    0    0  501    0  0.00000000000E+00  0.00000000000E+00 -0.42921089800E+03  0.42921090988E+03  0.10100000352E+00 0.  1.
    10030    2    1    2    0    0  0.00000000000E+00  0.00000000000E+00  0.71677384920E+03  0.15751956615E+04  0.14026676802E+04 0.  0.
        2    1    3    3  502    0  0.31963313542E+03  0.83024420743E+02 -0.33643223356E+03  0.47142872577E+03  0.25500000920E-02 0.  1.
       -2    1    3    3    0  502 -0.31963313542E+03 -0.83024420743E+02  0.10532060828E+04  0.11037669358E+04  0.25500000920E-02 0. -1.
</event>
<event>
 5   0  0.6671375E-05  0.1399915E+04  0.7818609E-02  0.8953880E-01
        1   -1    0    0  501    0  0.00000000000E+00  0.00000000000E+00  0.86585313359E+03  0.86585313361E+03  0.50400001928E-02 0. -1.
       -1   -1    0    0    0  501  0.00000000000E+00  0.00000000000E+00 -0.56584722981E+03  0.56584722983E+03  0.50400001928E-02 0.  1.
    10030    2    1    2    0    0  0.00000000000E+00  0.00000000000E+00  0.30000590379E+03  0.14317003634E+04  0.13999151361E+04 0.  0.
        5    1    3    3  502    0  0.24381125184E+03  0.26857979763E+03 -0.46220328716E+03  0.58756531797E+03  0.46999998093E+01 0.  1.
       -5    1    3    3    0  502 -0.24381125184E+03 -0.26857979763E+03  0.76220919095E+03  0.84413504547E+03  0.46999998093E+01 0. -1.
</event>
<event>
 5   0  0.9978422E-05  0.1404306E+04  0.7818609E-02  0.8950708E-01
       -1   -1    0    0    0  501  0.00000000000E+00  0.00000000000E+00  0.92347850593E+03  0.92347850594E+03  0.50400001928E-02 0. -1.
        1   -1    0    0  501    0  0.00000000000E+00  0.00000000000E+00 -0.53387121950E+03  0.53387121952E+03  0.50400001928E-02 0.  1.
    10030    2    1    2    0    0  0.00000000000E+00  0.00000000000E+00  0.38960728643E+03  0.14573497255E+04  0.14043056593E+04 0.  0.
        2    1    3    3  502    0 -0.45354756516E+03  0.53364189211E+03  0.14250636439E+03  0.71469372935E+03  0.25500000920E-02 0.  1.
       -2    1    3    3    0  502  0.45354756516E+03 -0.53364189211E+03  0.24710092204E+03  0.74265599611E+03  0.25500000920E-02 0. -1.
</event>
<event>
 5   0  0.6671375E-05  0.1398086E+04  0.7818609E-02  0.8955205E-01
       -1   -1    0    0    0  501  0.00000000000E+00  0.00000000000E+00  0.83035124943E+03  0.83035124945E+03  0.50400001928E-02 0. -1.
        1   -1    0    0  501    0  0.00000000000E+00  0.00000000000E+00 -0.58849914708E+03  0.58849914710E+03  0.50400001928E-02 0.  1.
    10030    2    1    2    0    0  0.00000000000E+00  0.00000000000E+00  0.24185210235E+03  0.14188503965E+04  0.13980858373E+04 0.  0.
        5    1    3    3  502    0  0.46772502178E+03  0.27817081569E+03 -0.32433066688E+03  0.63352834994E+03  0.46999998093E+01 0.  1.
       -5    1    3    3    0  502 -0.46772502178E+03 -0.27817081569E+03  0.56618276924E+03  0.78532204660E+03  0.46999998093E+01 0. -1.
</event>
<event>
 5   0  0.1833681E-04  0.1400072E+04  0.7818609E-02  0.8953766E-01
        2   -1    0    0  501    0  0.00000000000E+00  0.00000000000E+00  0.72111022259E+03  0.72111022260E+03  0.25500000920E-02 0.  1.
       -2   -1    0    0    0  501  0.00000000000E+00  0.00000000000E+00 -0.67957773471E+03  0.67957773472E+03  0.25500000920E-02 0. -1.
    10030    2    1    2    0    0  0.00000000000E+00  0.00000000000E+00  0.41532487878E+02  0.14006879573E+04  0.14000720718E+04 0.  0.
        4    1    3    3  502    0  0.46089531475E+03  0.22142828039E+03  0.49909147141E+03  0.71452703535E+03  0.12699999809E+01 0.  1.
       -4    1    3    3    0  502 -0.46089531475E+03 -0.22142828039E+03 -0.45755898353E+03  0.68616092196E+03  0.12699999809E+01 0. -1.
</event>
<event>
 5   0  0.1766237E-04  0.1401844E+04  0.7818609E-02  0.8952485E-01
        2   -1    0    0  501    0  0.00000000000E+00  0.00000000000E+00  0.58322770415E+03  0.58322770416E+03  0.25500000920E-02 0.  1.
       -2   -1    0    0    0  501  0.00000000000E+00  0.00000000000E+00 -0.84236723437E+03  0.84236723438E+03  0.25500000920E-02 0. -1.
    10030    2    1    2    0    0  0.00000000000E+00  0.00000000000E+00 -0.25913953022E+03  0.14255949385E+04  0.14018443682E+04 0.  0.
        3    1    3    3  502    0 -0.63922940279E+03 -0.15415841030E+03 -0.37640171352E+03  0.75766569475E+03  0.10100000352E+00 0. -1.
       -3    1    3    3    0  502  0.63922940279E+03  0.15415841030E+03  0.11726218330E+03  0.66792924378E+03  0.10100000352E+00 0.  1.
</event>
<event>
 5   0  0.6671375E-05  0.1392458E+04  0.7818609E-02  0.8959296E-01
        1   -1    0    0  501    0  0.00000000000E+00  0.00000000000E+00  0.12263396484E+04  0.12263396484E+04  0.50400001928E-02 0.  1.
       -1   -1    0    0    0  501  0.00000000000E+00  0.00000000000E+00 -0.39526957492E+03  0.39526957495E+03  0.50400001928E-02 0. -1.
    10030    2    1    2    0    0  0.00000000000E+00  0.00000000000E+00  0.83107007350E+03  0.16216092234E+04  0.13924579011E+04 0.  0.
        5    1    3    3  502    0  0.15415648988E+02 -0.55931925742E+03  0.89800421449E+03  0.10580686808E+04  0.46999998093E+01 0.  1.
       -5    1    3    3    0  502 -0.15415648988E+02  0.55931925742E+03 -0.66934140985E+02  0.56354054263E+03  0.46999998093E+01 0. -1.
</event>
<event>
 5   0  0.1794185E-04  0.1404726E+04  0.7818609E-02  0.8950404E-01
        2   -1    0    0  501    0  0.00000000000E+00  0.00000000000E+00  0.10640094552E+04  0.10640094552E+04  0.25500000920E-02 0. -1.
       -2   -1    0    0    0  501  0.00000000000E+00  0.00000000000E+00 -0.46363695214E+03  0.46363695214E+03  0.25500000920E-02 0.  1.
    10030    2    1    2    0    0  0.00000000000E+00  0.00000000000E+00  0.60037250308E+03  0.15276464074E+04  0.14047264515E+04 0.  0.
        2    1    3    3  502    0 -0.36484426437E+03  0.60000772436E+03  0.31531368308E+03  0.76976835820E+03  0.25500000920E-02 0. -1.
       -2    1    3    3    0  502  0.36484426437E+03 -0.60000772436E+03  0.28505882000E+03  0.75787804917E+03  0.25500000920E-02 0.  1.
</event>
<event>
 5   0  0.6671375E-05  0.1400157E+04  0.7818609E-02  0.8953705E-01
       -3   -1    0    0    0  501  0.00000000000E+00  0.00000000000E+00  0.52596033494E+03  0.52596034464E+03  0.10100000352E+00 0.  1.
        3   -1    0    0  501    0  0.00000000000E+00  0.00000000000E+00 -0.93183775708E+03  0.93183776255E+03  0.10100000352E+00 0. -1.
    10030    2    1    2    0    0  0.00000000000E+00  0.00000000000E+00 -0.40587742214E+03  0.14577981072E+04  0.14001567196E+04 0.  0.
        4    1    3    3  502    0 -0.69947310643E+03 -0.22270550100E+02 -0.18347435911E+03  0.72347982513E+03  0.12699999809E+01 0. -1.
       -4    1    3    3    0  502  0.69947310643E+03  0.22270550100E+02 -0.22240306303E+03  0.73431828206E+03  0.12699999809E+01 0.  1.
</event>
<event>
 5   0  0.1833681E-04  0.1401064E+04  0.7818609E-02  0.8953049E-01
        2   -1    0    0  501    0  0.00000000000E+00  0.00000000000E+00  0.66806897575E+03  0.66806897575E+03  0.25500000920E-02 0. -1.
       -2   -1    0    0    0  501  0.00000000000E+00  0.00000000000E+00 -0.73457209015E+03  0.73457209015E+03  0.25500000920E-02 0.  1.
    10030    2    1    2    0    0  0.00000000000E+00  0.00000000000E+00 -0.66503114398E+02  0.14026410659E+04  0.14010636301E+04 0.  0.
        4    1    3    3  502    0  0.54799702282E+03  0.43442227151E+03 -0.74768284798E+02  0.70328895649E+03  0.12699999809E+01 0. -1.
       -4    1    3    3    0  502 -0.54799702282E+03 -0.43442227151E+03  0.82651704002E+01  0.69935210942E+03  0.12699999809E+01 0.  1.
</event>
<event>
 5   0  0.9260916E-05  0.1403660E+04  0.7818609E-02  0.8951173E-01
       -1   -1    0    0    0  501  0.00000000000E+00  0.00000000000E+00  0.47569855150E+03  0.47569855153E+03  0.50400001928E-02 0.  1.
        1   -1    0    0  501    0  0.00000000000E+00  0.00000000000E+00 -0.10354572662E+04  0.10354572662E+04  0.50400001928E-02 0. -1.
    10030    2    1    2    0    0  0.00000000000E+00  0.00000000000E+00 -0.55975871465E+03  0.15111558177E+04  0.14036602462E+04 0.  0.
        1    1    3    3  502    0 -0.59318334016E+03  0.27666523160E+03 -0.71927283873E+01  0.65456998158E+03  0.50400001928E-02 0. -1.
       -1    1    3    3    0  502  0.59318334016E+03 -0.27666523160E+03 -0.55256598626E+03  0.85658583611E+03  0.50400001928E-02 0.  1.
</event>
<event>
 5   0  0.1794185E-04  0.1410557E+04  0.7818609E-02  0.8946212E-01
        2   -1    0    0  501    0  0.00000000000E+00  0.00000000000E+00  0.11134579139E+04  0.11134579139E+04  0.25500000920E-02 0.  1.
       -2   -1    0    0    0  501  0.00000000000E+00  0.00000000000E+00 -0.44673256523E+03  0.44673256524E+03  0.25500000920E-02 0. -1.
    10030    2    1    2    0    0  0.00000000000E+00  0.00000000000E+00  0.66672534867E+03  0.15601904791E+04  0.14105572093E+04 0.  0.
        2    1    3    3  502    0 -0.16246775134E+03 -0.48575338778E+02 -0.42384857310E+03  0.45651171582E+03  0.25500000920E-02 0. -1.
       -2    1    3    3    0  502  0.16246775134E+03  0.48575338778E+02  0.10905739218E+04  0.11036787633E+04  0.25500000920E-02 0.  1.
</event>
<event>
 5   0  0.6671375E-05  0.1357853E+04  0.7818609E-02  0.8984904E-01
       -1   -1    0    0    0  501  0.00000000000E+00  0.00000000000E+00  0.26584652888E+03  0.26584652893E+03  0.50400001928E-02 0. -1.
        1   -1    0    0  501    0  0.00000000000E+00  0.00000000000E+00 -0.17338627777E+04  0.17338627777E+04  0.50400001928E-02 0.  1.
    10030    2    1    2    0    0  0.00000000000E+00  0.00000000000E+00 -0.14680162488E+04  0.19997093066E+04  0.13578533073E+04 0.  0.
        5    1    3    3  502    0  0.58200443318E+02 -0.67237686263E+03 -0.62537349060E+03  0.92010435807E+03  0.46999998093E+01 0. -1.
       -5    1    3    3    0  502 -0.58200443318E+02  0.67237686263E+03 -0.84264275821E+03  0.10796049486E+04  0.46999998093E+01 0.  1.
</event>
<event>
 5   0  0.6671375E-05  0.1399267E+04  0.7818609E-02  0.8954350E-01
        1   -1    0    0  501    0  0.00000000000E+00  0.00000000000E+00  0.17579129885E+04  0.17579129885E+04  0.50400001928E-02 0.  1.
       -1   -1    0    0    0  501  0.00000000000E+00  0.00000000000E+00 -0.27844770627E+03  0.27844770632E+03  0.50400001928E-02 0. -1.
    10030    2    1    2    0    0  0.00000000000E+00  0.00000000000E+00  0.14794652822E+04  0.20363606948E+04  0.13992667216E+04 0.  0.
        5    1    3    3  502    0 -0.44052203182E+03 -0.38141043868E+03  0.13032407370E+04  0.14275826042E+04  0.46999998093E+01 0.  1.
       -5    1    3    3    0  502  0.44052203182E+03  0.38141043868E+03  0.17622454518E+03  0.60877809058E+03  0.46999998093E+01 0. -1.
</event>
<event>
 5   0  0.9900839E-05  0.1397150E+04  0.7818609E-02  0.8955884E-01
        1   -1    0    0  501    0  0.00000000000E+00  0.00000000000E+00  0.48391364072E+03  0.48391364075E+03  0.50400001928E-02 0. -1.
       -1   -1    0    0    0  501  0.00000000000E+00  0.00000000000E+00 -0.10084585955E+04  0.10084585955E+04  0.50400001928E-02 0.  1.
    10030    2    1    2    0    0  0.00000000000E+00  0.00000000000E+00 -0.52454495480E+03  0.14923722363E+04  0.13971497708E+04 0.  0.
        3    1    3    3  502    0 -0.22566057821E+03 -0.17116504004E+02 -0.96821790831E+03  0.99431463805E+03  0.10100000352E+00 0.  1.
       -3    1    3    3    0  502  0.22566057821E+03  0.17116504004E+02  0.44367295352E+03  0.49805759823E+03  0.10100000352E+00 0. -1.
</event>
<event>
 5   0  0.1780171E-04  0.1400341E+04  0.7818609E-02  0.8953572E-01
        2   -1    0    0  501    0  0.00000000000E+00  0.00000000000E+00  0.94828818047E+03  0.94828818047E+03  0.25500000920E-02 0.  1.
       -2   -1    0    0    0  501  0.00000000000E+00  0.00000000000E+00 -0.51697200173E+03  0.51697200174E+03  0.25500000920E-02 0. -1.
    10030    2    1    2    0    0  0.00000000000E+00  0.00000000000E+00  0.43131617874E+03  0.14652601822E+04  0.14003405855E+04 0.  0.
        5    1    3    3  502    0  0.35547415665E+03  0.57624328593E+03  0.40224534926E+03  0.78755419599E+03  0.46999998093E+01 0.  1.
       -5    1    3    3    0  502 -0.35547415665E+03 -0.57624328593E+03  0.29070829478E+02  0.67770598622E+03  0.46999998093E+01 0. -1.
</event>
<event>
 5   0  0.6671375E-05  0.1400712E+04  0.7818609E-02  0.8953303E-01
       -1   -1    0    0    0  501  0.00000000000E+00  0.00000000000E+00  0.10750802346E+04  0.10750802346E+04  0.50400001928E-02 0. -1.
        1   -1    0    0  501    0  0.00000000000E+00  0.00000000000E+00 -0.45624356180E+03  0.45624356183E+03  0.50400001928E-02 0.  1.
    10030    2    1    2    0    0  0.00000000000E+00  0.00000000000E+00  0.61883667277E+03  0.15313237964E+04  0.14007118697E+04 0.  0.
        5    1    3    3  502    0 -0.23060884821E+03 -0.14452743605E+03 -0.39605013849E+03  0.48056885338E+03  0.46999998093E+01 0.  1.
       -5    1    3    3    0  502  0.23060884821E+03  0.14452743605E+03  0.10148868113E+04  0.10507549430E+04  0.46999998093E+01 0. -1.
</event>
<event>
 5   0  0.1766237E-04  0.1399028E+04  0.7818609E-02  0.8954522E-01
        2   -1    0    0  501    0  0.00000000000E+00  0.00000000000E+00  0.11519188512E+04  0.11519188512E+04  0.25500000920E-02 0. -1.
       -2   -1    0    0    0  501  0.00000000000E+00  0.00000000000E+00 -0.42478672142E+03  0.42478672143E+03  0.25500000920E-02 0.  1.
    10030    2    1    2    0    0  0.00000000000E+00  0.00000000000E+00  0.72713212978E+03  0.15767055726E+04  0.13990279942E+04 0.  0.
        3    1    3    3  502    0  0.63142269469E+03 -0.21157609091E+03  0.60491468675E+03  0.89965596205E+03  0.10100000352E+00 0. -1.
       -3    1    3    3    0  502 -0.63142269469E+03  0.21157609091E+03  0.12221744303E+03  0.67704961059E+03  0.10100000352E+00 0.  1.
</event>
<event>
 5   0  0.9260916E-05  0.1400041E+04  0.7818609E-02  0.8953789E-01
       -1   -1    0    0    0  501  0.00000000000E+00  0.00000000000E+00  0.10754163158E+04  0.10754163158E+04  0.50400001928E-02 0.  1.
        1   -1    0    0  501    0  0.00000000000E+00  0.00000000000E+00 -0.45566413804E+03  0.45566413807E+03  0.50400001928E-02 0. -1.
    10030    2    1    2    0    0  0.00000000000E+00  0.00000000000E+00  0.61975217773E+03  0.15310804539E+04  0.14000409260E+04 0.  0.
        1    1    3    3  502    0  0.98991003786E+02 -0.67585259734E+03  0.47735251009E+03  0.83333148931E+03  0.50400001928E-02 0. -1.
       -1    1    3    3    0  502 -0.98991003786E+02  0.67585259734E+03  0.14239966764E+03  0.69774896455E+03  0.50400001928E-02 0.  1.
</event>
<event>
 5   0  0.6671375E-05  0.1403875E+04  0.7818609E-02  0.8951018E-01
        1   -1    0    0  501    0  0.00000000000E+00  0.00000000000E+00  0.65945636533E+03  0.65945636535E+03  0.50400001928E-02 0. -1.
       -1   -1    0    0    0  501  0.00000000000E+00  0.00000000000E+00 -0.74715534917E+03  0.74715534918E+03  0.50400001928E-02 0.  1.
    10030    2    1    2    0    0  0.00000000000E+00  0.00000000000E+00 -0.87698983834E+02  0.14066117145E+04  0.14038751382E+04 0.  0.
        5    1    3    3  502    0 -0.40548043823E+03 -0.52357278749E+03 -0.27700766139E+03  0.71784272933E+03  0.46999998093E+01 0.  1.
       -5    1    3    3    0  502  0.40548043823E+03  0.52357278749E+03  0.18930867756E+03  0.68876898521E+03  0.46999998093E+01 0. -1.
</event>
<event>
 5   0  0.1766237E-04  0.1399486E+04  0.7818609E-02  0.8954190E-01
        2   -1    0    0  501    0  0.00000000000E+00  0.00000000000E+00  0.15157680447E+04  0.15157680447E+04  0.25500000920E-02 0. -1.
       -2   -1    0    0    0  501  0.00000000000E+00  0.00000000000E+00 -0.32303130789E+03  0.32303130790E+03  0.25500000920E-02 0.  1.
    10030    2    1    2    0    0  0.00000000000E+00  0.00000000000E+00  0.11927367368E+04  0.18387993526E+04  0.13994863828E+04 0.  0.
        3    1    3    3  502    0  0.12870627164E+03  0.53058267439E+03  0.21305989926E+02  0.54638560938E+03  0.10100000352E+00 0.  1.
       -3    1    3    3    0  502 -0.12870627164E+03 -0.53058267439E+03  0.11714307469E+04  0.12924137432E+04  0.10100000352E+00 0. -1.
</event>
<event>
 5   0  0.1780171E-04  0.1400570E+04  0.7818609E-02  0.8953406E-01
        2   -1    0    0  501    0  0.00000000000E+00  0.00000000000E+00  0.18727322359E+04  0.18727322359E+04  0.25500000920E-02 0.  1.
       -2   -1    0    0    0  501  0.00000000000E+00  0.00000000000E+00 -0.26186279692E+03  0.26186279693E+03  0.25500000920E-02 0. -1.
    10030    2    1    2    0    0  0.00000000000E+00  0.00000000000E+00  0.16108694389E+04  0.21345950328E+04  0.14005697429E+04 0.  0.
        5    1    3    3  502    0 -0.57450299600E+03 -0.39864703178E+03  0.86253551425E+03  0.11103885589E+04  0.46999998093E+01 0.  1.
       -5    1    3    3    0  502  0.57450299600E+03  0.39864703178E+03  0.74833392468E+03  0.10242064739E+04  0.46999998093E+01 0. -1.
</event>
<event>
 5   0  0.1780171E-04  0.1401399E+04  0.7818609E-02  0.8952807E-01
       -2   -1    0    0    0  501  0.00000000000E+00  0.00000000000E+00  0.40329076155E+03  0.40329076156E+03  0.25500000920E-02 0.  1.
        2   -1    0    0  501    0  0.00000000000E+00  0.00000000000E+00 -0.12174329825E+04  0.12174329825E+04  0.25500000920E-02 0. -1.
    10030    2    1    2    0    0  0.00000000000E+00  0.00000000000E+00 -0.81414222090E+03  0.16207237440E+04  0.14013985509E+04 0.  0.
        5    1    3    3  502    0  0.14508680003E+03 -0.39023753508E+03 -0.10588533627E+04  0.11377732846E+04  0.46999998093E+01 0. -1.
       -5    1    3    3    0  502 -0.14508680003E+03  0.39023753508E+03  0.24471114183E+03  0.48295045943E+03  0.46999998093E+01 0.  1.
</event>
<event>
 5   0  0.9828111E-05  0.1406031E+04  0.7818609E-02  0.8949465E-01
       -1   -1    0    0    0  501  0.00000000000E+00  0.00000000000E+00  0.60199333467E+03  0.60199333469E+03  0.50400001928E-02 0. -1.
        1   -1    0    0  501    0  0.00000000000E+00  0.00000000000E+00 -0.82099004509E+03  0.82099004511E+03  0.50400001928E-02 0.  1.
    10030    2    1    2    0    0  0.00000000000E+00  0.00000000000E+00 -0.21899671042E+03  0.14229833798E+04  0.14060306327E+04 0.  0.
        4    1    3    3  502    0 -0.51463832009E+03 -0.21403566868E+03 -0.54310911295E+03  0.77822425396E+03  0.12699999809E+01 0.  1.
       -4    1    3    3    0  502  0.51463832009E+03  0.21403566868E+03  0.32411240254E+03  0.64475912584E+03  0.12699999809E+01 0. -1.
</event>
<event>
 5   0  0.6671375E-05  0.1396916E+04  0.7818609E-02  0.8956054E-01
       -1   -1    0    0    0  501  0.00000000000E+00  0.00000000000E+00  0.29797108605E+03  0.29797108609E+03  0.50400001928E-02 0.  1.
        1   -1    0    0  501    0  0.00000000000E+00  0.00000000000E+00 -0.16372182689E+04  0.16372182689E+04  0.50400001928E-02 0. -1.
    10030    2    1    2    0    0  0.00000000000E+00  0.00000000000E+00 -0.13392471829E+04  0.19351893550E+04  0.13969161832E+04 0.  0.
        5    1    3    3  502    0 -0.19422850750E+03 -0.12503946313E+03 -0.15827460697E+04  0.15995208007E+04  0.46999998093E+01 0. -1.
       -5    1    3    3    0  502  0.19422850750E+03  0.12503946313E+03  0.24349888689E+03  0.33566855435E+03  0.46999998093E+01 0.  1.
</event>
<event>
 5   0  0.9828111E-05  0.1407082E+04  0.7818609E-02  0.8948708E-01
        1   -1    0    0  501    0  0.00000000000E+00  0.00000000000E+00  0.90669914170E+03  0.90669914172E+03  0.50400001928E-02 0.  1.
       -1   -1    0    0    0  501  0.00000000000E+00  0.00000000000E+00 -0.54590292605E+03  0.54590292607E+03  0.50400001928E-02 0. -1.
    10030    2    1    2    0    0  0.00000000000E+00  0.00000000000E+00  0.36079621565E+03  0.14526020678E+04  0.14070816814E+04 0.  0.
        4    1    3    3  502    0  0.17430523469E+03 -0.64750405087E+03 -0.39384265141E+02  0.67171165240E+03  0.12699999809E+01 0. -1.
       -4    1    3    3    0  502 -0.17430523469E+03  0.64750405087E+03  0.40018048079E+03  0.78089041539E+03  0.12699999809E+01 0.  1.
</event>
<event>
 5   0  0.9900839E-05  0.1394521E+04  0.7818609E-02  0.8957794E-01
        1   -1    0    0  501    0  0.00000000000E+00  0.00000000000E+00  0.14965370153E+04  0.14965370153E+04  0.50400001928E-02 0.  1.
       -1   -1    0    0    0  501  0.00000000000E+00  0.00000000000E+00 -0.32486459886E+03  0.32486459890E+03  0.50400001928E-02 0. -1.
    10030    2    1    2    0    0  0.00000000000E+00  0.00000000000E+00  0.11716724165E+04  0.18214016142E+04  0.13945205588E+04 0.  0.
        3    1    3    3  502    0  0.43205404896E+03 -0.99966145584E+02 -0.11693028537E+03  0.45862471948E+03  0.10100000352E+00 0. -1.
       -3    1    3    3    0  502 -0.43205404896E+03  0.99966145584E+02  0.12886027019E+04  0.13627768948E+04  0.10100000352E+00 0.  1.
</event>
<event>
 5   0  0.6671375E-05  0.1382352E+04  0.7818609E-02  0.8966693E-01
       -1   -1    0    0    0  501  0.00000000000E+00  0.00000000000E+00  0.58556660987E+03  0.58556660990E+03  0.50400001928E-02 0.  1.
        1   -1    0    0  501    0  0.00000000000E+00  0.00000000000E+00 -0.81583239553E+03  0.81583239555E+03  0.50400001928E-02 0. -1.
    10030    2    1    2    0    0  0.00000000000E+00  0.00000000000E+00 -0.23026578566E+03  0.14013990054E+04  0.13823519235E+04 0.  0.
        5    1    3    3  502    0  0.20501987968E+03  0.61714737593E+03  0.12218248241E+03  0.66170588912E+03  0.46999998093E+01 0.  1.
       -5    1    3    3    0  502 -0.20501987968E+03 -0.61714737593E+03 -0.35244826807E+03  0.73969311633E+03  0.46999998093E+01 0. -1.
</event>
<event>
 5   0  0.9828111E-05  0.1399362E+04  0.7818609E-02  0.8954280E-01
        1   -1    0    0  501    0  0.00000000000E+00  0.00000000000E+00  0.43883142983E+03  0.43883142986E+03  0.50400001928E-02 0.  1.
       -1   -1    0    0    0  501  0.00000000000E+00  0.00000000000E+00 -0.11155847229E+04  0.11155847229E+04  0.50400001928E-02 0. -1.
    10030    2    1    2    0    0  0.00000000000E+00  0.00000000000E+00 -0.67675329305E+03  0.15544161528E+04  0.13993621963E+04 0.  0.
        4    1    3    3  502    0  0.13489931880E+03 -0.28019359387E+03  0.35784607541E+03  0.47409039523E+03  0.12699999809E+01 0.  1.
       -4    1    3    3    0  502 -0.13489931880E+03  0.28019359387E+03 -0.10345993685E+04  0.10803257575E+04  0.12699999809E+01 0. -1.
</event>
<event>
 5   0  0.1766237E-04  0.1402869E+04  0.7818609E-02  0.8951745E-01
        2   -1    0    0  501    0  0.00000000000E+00  0.00000000000E+00  0.47103801741E+03  0.47103801742E+03  0.25500000920E-02 0.  1.
       -2   -1    0    0    0  501  0.00000000000E+00  0.00000000000E+00 -0.10445234369E+04  0.10445234369E+04  0.25500000920E-02 0. -1.
    10030    2    1    2    0    0  0.00000000000E+00  0.00000000000E+00 -0.57348541952E+03  0.15155614544E+04  0.14028688447E+04 0.  0.
        3    1    3    3  502    0 -0.17709207216E+03 -0.26145426419E+03 -0.96338676105E+03  0.10138214813E+04  0.10100000352E+00 0. -1.
       -3    1    3    3    0  502  0.17709207216E+03  0.26145426419E+03  0.38990134153E+03  0.50173997310E+03  0.10100000352E+00 0.  1.
</event>
<event>
 5   0  0.1780171E-04  0.1397231E+04  0.7818609E-02  0.8955825E-01
       -2   -1    0    0    0  501  0.00000000000E+00  0.00000000000E+00  0.90149875772E+03  0.90149875772E+03  0.25500000920E-02 0. -1.
        2   -1    0    0  501    0  0.00000000000E+00  0.00000000000E+00 -0.54139135642E+03  0.54139135643E+03  0.25500000920E-02 0.  1.
    10030    2    1    2    0    0  0.00000000000E+00  0.00000000000E+00  0.36010740129E+03  0.14428901142E+04  0.13972310264E+04 0.  0.
        5    1    3    3  502    0  0.31170951444E+03 -0.62157276585E+03  0.24952786018E+03  0.73878397901E+03  0.46999998093E+01 0. -1.
       -5    1    3    3    0  502 -0.31170951444E+03  0.62157276585E+03  0.11057954112E+03  0.70410613515E+03  0.46999998093E+01 0.  1.
</event>
<event>
 5   0  0.1780171E-04  0.1398471E+04  0.7818609E-02  0.8954926E-01
       -2   -1    0    0    0  501  0.00000000000E+00  0.00000000000E+00  0.40702299129E+03  0.40702299130E+03  0.25500000920E-02 0.  1.
        2   -1    0    0  501    0  0.00000000000E+00  0.00000000000E+00 -0.12012356288E+04  0.12012356288E+04  0.25500000920E-02 0. -1.
    10030    2    1    2    0    0  0.00000000000E+00  0.00000000000E+00 -0.79421263746E+03  0.16082586201E+04  0.13984713352E+04 0.  0.
        5    1    3    3  502    0 -0.25150809291E+03  0.21304263705E+03  0.31205569310E+03  0.45392106318E+03  0.46999998093E+01 0.  1.
       -5    1    3    3    0  502  0.25150809291E+03 -0.21304263705E+03 -0.11062683306E+04  0.11543375569E+04  0.46999998093E+01 0. -1.
</event>
<event>
 5   0  0.9260916E-05  0.1398833E+04  0.7818609E-02  0.8954664E-01
       -1   -1    0    0    0  501  0.00000000000E+00  0.00000000000E+00  0.28828666291E+03  0.28828666296E+03  0.50400001928E-02 0.  1.
        1   -1    0    0  501    0  0.00000000000E+00  0.00000000000E+00 -0.16968638886E+04  0.16968638886E+04  0.50400001928E-02 0. -1.
    10030    2    1    2    0    0  0.00000000000E+00  0.00000000000E+00 -0.14085772257E+04  0.19851505516E+04  0.13988326961E+04 0.  0.
        1    1    3    3  502    0 -0.42921130868E+03  0.54454961801E+03 -0.83456140044E+03  0.10850112281E+04  0.50400001928E-02 0. -1.
       -1    1    3    3    0  502  0.42921130868E+03 -0.54454961801E+03 -0.57401582523E+03  0.90013932345E+03  0.50400001928E-02 0.  1.
</event>
<event>
 5   0  0.1712327E-04  0.1398536E+04  0.7818609E-02  0.8954879E-01
       -2   -1    0    0    0  501  0.00000000000E+00  0.00000000000E+00  0.86976500778E+03  0.86976500778E+03  0.25500000920E-02 0.  1.
        2   -1    0    0  501    0  0.00000000000E+00  0.00000000000E+00 -0.56219265125E+03  0.56219265126E+03  0.25500000920E-02 0. -1.
    10030    2    1    2    0    0  0.00000000000E+00  0.00000000000E+00  0.30757235653E+03  0.14319576590E+04  0.13985356566E+04 0.  0.
        1    1    3    3  502    0 -0.30028951591E+03  0.62711545087E+03  0.77659434155E+02  0.69962745074E+03  0.50400001928E-02 0. -1.
       -1    1    3    3    0  502  0.30028951591E+03 -0.62711545087E+03  0.22991292238E+03  0.73233020830E+03  0.50400001928E-02 0.  1.
</event>
<event>
 5   0  0.1712327E-04  0.1400125E+04  0.7818609E-02  0.8953728E-01
       -2   -1    0    0    0  501  0.00000000000E+00  0.00000000000E+00  0.49732769233E+03  0.49732769233E+03  0.25500000920E-02 0.  1.
        2   -1    0    0  501    0  0.00000000000E+00  0.00000000000E+00 -0.98544189480E+03  0.98544189480E+03  0.25500000920E-02 0. -1.
    10030    2    1    2    0    0  0.00000000000E+00  0.00000000000E+00 -0.48811420247E+03  0.14827695871E+04  0.14001250565E+04 0.  0.
        1    1    3    3  502    0  0.59040455574E+03 -0.19082953092E+03 -0.58737464559E+03  0.85440179285E+03  0.50400001928E-02 0. -1.
       -1    1    3    3    0  502 -0.59040455574E+03  0.19082953092E+03  0.99260443114E+02  0.62836779429E+03  0.50400001928E-02 0.  1.
</event>
<event>
 5   0  0.9900839E-05  0.1390227E+04  0.7818609E-02  0.8960923E-01
       -1   -1    0    0    0  501  0.00000000000E+00  0.00000000000E+00  0.23339129591E+03  0.23339129596E+03  0.50400001928E-02 0. -1.
        1   -1    0    0  501    0  0.00000000000E+00  0.00000000000E+00 -0.20702694171E+04  0.20702694171E+04  0.50400001928E-02 0.  1.
    10030    2    1    2    0    0  0.00000000000E+00  0.00000000000E+00 -0.18368781212E+04  0.23036607130E+04  0.13902271213E+04 0.  0.
        3    1    3    3  502    0 -0.54096421085E+03 -0.35326558898E+03 -0.13433137061E+04  0.14906141610E+04  0.10100000352E+00 0.  1.
       -3    1    3    3    0  502  0.54096421085E+03  0.35326558898E+03 -0.49356441510E+03  0.81304655207E+03  0.10100000352E+00 0. -1.
</event>
<event>
 5   0  0.1833681E-04  0.1394225E+04  0.7818609E-02  0.8958010E-01
       -2   -1    0    0    0  501  0.00000000000E+00  0.00000000000E+00  0.22706897787E+03  0.22706897788E+03  0.25500000920E-02 0.  1.
        2   -1    0    0  501    0  0.00000000000E+00  0.00000000000E+00 -0.21401671412E+04  0.21401671412E+04  0.25500000920E-02 0. -1.
    10030    2    1    2    0    0  0.00000000000E+00  0.00000000000E+00 -0.19130981634E+04  0.23672361191E+04  0.13942246092E+04 0.  0.
        4    1    3    3  502    0  0.32345972110E+03  0.82207992341E+02 -0.19957054404E+04  0.20234194233E+04  0.12699999809E+01 0. -1.
       -4    1    3    3    0  502 -0.32345972110E+03 -0.82207992341E+02  0.82607276994E+02  0.34381669577E+03  0.12699999809E+01 0.  1.
</event>
<event>
 5   0  0.9978422E-05  0.1401239E+04  0.7818609E-02  0.8952922E-01
        1   -1    0    0  501    0  0.00000000000E+00  0.00000000000E+00  0.66740884625E+03  0.66740884626E+03  0.50400001928E-02 0.  1.
       -1   -1    0    0    0  501  0.00000000000E+00  0.00000000000E+00 -0.73548325527E+03  0.73548325528E+03  0.50400001928E-02 0. -1.
    10030    2    1    2    0    0  0.00000000000E+00  0.00000000000E+00 -0.68074409022E+02  0.14028921015E+04  0.14012394954E+04 0.  0.
        2    1    3    3  502    0  0.38599911915E+02 -0.14572264619E+03 -0.71905390825E+03  0.73468603211E+03  0.25500000920E-02 0. -1.
       -2    1    3    3    0  502 -0.38599911915E+02  0.14572264619E+03  0.65097949922E+03  0.66820606943E+03  0.25500000920E-02 0.  1.
</event>
<event>
 5   0  0.1794185E-04  0.1406718E+04  0.7818609E-02  0.8948970E-01
       -2   -1    0    0    0  501  0.00000000000E+00  0.00000000000E+00  0.58249635136E+03  0.58249635137E+03  0.25500000920E-02 0. -1.
        2   -1    0    0  501    0  0.00000000000E+00  0.00000000000E+00 -0.84929993520E+03  0.84929993520E+03  0.25500000920E-02 0.  1.
    10030    2    1    2    0    0  0.00000000000E+00  0.00000000000E+00 -0.26680358384E+03  0.14317962866E+04  0.14067183278E+04 0.  0.
        2    1    3    3  502    0  0.56881737773E+03 -0.24970216356E+03 -0.46914555962E+03  0.77846126160E+03  0.25500000920E-02 0.  1.
       -2    1    3    3    0  502 -0.56881737773E+03  0.24970216356E+03  0.20234197578E+03  0.65333502498E+03  0.25500000920E-02 0. -1.
</event>
<event>
 5   0  0.9260916E-05  0.1400943E+04  0.7818609E-02  0.8953136E-01
       -1   -1    0    0    0  501  0.00000000000E+00  0.00000000000E+00  0.43560472724E+03  0.43560472727E+03  0.50400001928E-02 0.  1.
        1   -1    0    0  501    0  0.00000000000E+00  0.00000000000E+00 -0.11263891557E+04  0.11263891557E+04  0.50400001928E-02 0. -1.
    10030    2    1    2    0    0  0.00000000000E+00  0.00000000000E+00 -0.69078442848E+03  0.15619938830E+04  0.14009431694E+04 0.  0.
        1    1    3    3  502    0 -0.44900938947E+03  0.51298758962E+03 -0.52480963330E+03  0.86034344896E+03  0.50400001928E-02 0. -1.
       -1    1    3    3    0  502  0.44900938947E+03 -0.51298758962E+03 -0.16597479518E+03  0.70165043404E+03  0.50400001928E-02 0.  1.
</event>
<event>
 5   0  0.1794185E-04  0.1404086E+04  0.7818609E-02  0.8950866E-01
        2   -1    0    0  501    0  0.00000000000E+00  0.00000000000E+00  0.94093566850E+03  0.94093566850E+03  0.25500000920E-02 0.  1.
       -2   -1    0    0    0  501  0.00000000000E+00  0.00000000000E+00 -0.52380268167E+03  0.52380268168E+03  0.25500000920E-02 0. -1.
    10030    2    1    2    0    0  0.00000000000E+00  0.00000000000E+00  0.41713298683E+03  0.14647383502E+04  0.14040863598E+04 0.  0.
        2    1    3    3  502    0 -0.16840631845E+03 -0.38770457120E+03 -0.37617214470E+03  0.56584538973E+03  0.25500000920E-02 0. -1.
       -2    1    3    3    0  502  0.16840631845E+03  0.38770457120E+03  0.79330513153E+03  0.89889296045E+03  0.25500000920E-02 0.  1.
</event>
<event>
 5   0  0.1780171E-04  0.1398069E+04  0.7818609E-02  0.8955217E-01
       -2   -1    0    0    0  501  0.00000000000E+00  0.00000000000E+00  0.41855034125E+03  0.41855034126E+03  0.25500000920E-02 0. -1.
        2   -1    0    0  501    0  0.00000000000E+00  0.00000000000E+00 -0.11674806781E+04  0.11674806781E+04  0.25500000920E-02 0.  1.
    10030    2    1    2    0    0  0.00000000000E+00  0.00000000000E+00 -0.74893033686E+03  0.15860310194E+04  0.13980692919E+04 0.  0.
        5    1    3    3  502    0 -0.65628371998E+03 -0.80845053260E+02 -0.63161908419E+03  0.91444464090E+03  0.46999998093E+01 0.  1.
       -5    1    3    3    0  502  0.65628371998E+03  0.80845053260E+02 -0.11731125267E+03  0.67158637847E+03  0.46999998093E+01 0. -1.
</event>
<event>
 5   0  0.1780171E-04  0.1401488E+04  0.7818609E-02  0.8952742E-01
        2   -1    0    0  501    0  0.00000000000E+00  0.00000000000E+00  0.13483459442E+04  0.13483459442E+04  0.25500000920E-02 0. -1.
       -2   -1    0    0    0  501  0.00000000000E+00  0.00000000000E+00 -0.36418109229E+03  0.36418109230E+03  0.25500000920E-02 0.  1.
    10030    2    1    2    0    0  0.00000000000E+00  0.00000000000E+00  0.98416485189E+03  0.17125270365E+04  0.14014879218E+04 0.  0.
        5    1    3    3  502    0 -0.56983498037E+03  0.38917875834E+03  0.64097808170E+03  0.94183172702E+03  0.46999998093E+01 0. -1.
       -5    1    3    3    0  502  0.56983498037E+03 -0.38917875834E+03  0.34318677018E+03  0.77069530946E+03  0.46999998093E+01 0.  1.
</event>
<event>
 5   0  0.1780171E-04  0.1398167E+04  0.7818609E-02  0.8955147E-01
       -2   -1    0    0    0  501  0.00000000000E+00  0.00000000000E+00  0.65954252557E+03  0.65954252557E+03  0.25500000920E-02 0. -1.
        2   -1    0    0  501    0  0.00000000000E+00  0.00000000000E+00 -0.74099472380E+03  0.74099472380E+03  0.25500000920E-02 0.  1.
    10030    2    1    2    0    0  0.00000000000E+00  0.00000000000E+00 -0.81452198231E+02  0.14005372494E+04  0.13981667019E+04 0.  0.
        5    1    3    3  502    0  0.27672304288E+03  0.50261057464E+03 -0.44078075848E+03  0.72353493298E+03  0.46999998093E+01 0.  1.
       -5    1    3    3    0  502 -0.27672304288E+03 -0.50261057464E+03  0.35932856025E+03  0.67700231640E+03  0.46999998093E+01 0. -1.
</event>
<event>
 5   0  0.9260916E-05  0.1398186E+04  0.7818609E-02  0.8955133E-01
        1   -1    0    0  501    0  0.00000000000E+00  0.00000000000E+00  0.96847408251E+03  0.96847408252E+03  0.50400001928E-02 0. -1.
       -1   -1    0    0    0  501  0.00000000000E+00  0.00000000000E+00 -0.50464007790E+03  0.50464007793E+03  0.50400001928E-02 0.  1.
    10030    2    1    2    0    0  0.00000000000E+00  0.00000000000E+00  0.46383400460E+03  0.14731141604E+04  0.13981857337E+04 0.  0.
        1    1    3    3  502    0 -0.37605168628E+03 -0.54239183973E+03 -0.10928140037E+02  0.66009332888E+03  0.50400001928E-02 0.  1.
       -1    1    3    3    0  502  0.37605168628E+03  0.54239183973E+03  0.47476214464E+03  0.81302083157E+03  0.50400001928E-02 0. -1.
</event>
<event>
 5   0  0.6671375E-05  0.1401897E+04  0.7818609E-02  0.8952447E-01
        3   -1    0    0  501    0  0.00000000000E+00  0.00000000000E+00  0.53970569951E+03  0.53970570896E+03  0.10100000352E+00 0. -1.
       -3   -1    0    0    0  501  0.00000000000E+00  0.00000000000E+00 -0.91036379208E+03  0.91036379768E+03  0.10100000352E+00 0.  1.
    10030    2    1    2    0    0  0.00000000000E+00  0.00000000000E+00 -0.37065809256E+03  0.14500695066E+04  0.14018966269E+04 0.  0.
        3    1    3    3  502    0  0.48587932248E+03 -0.50504057388E+03 -0.17130472697E+03  0.72144994072E+03  0.10100000352E+00 0. -1.
       -3    1    3    3    0  502 -0.48587932248E+03  0.50504057388E+03 -0.19935336559E+03  0.72861956593E+03  0.10100000352E+00 0.  1.
</event>
<event>
 5   0  0.9900839E-05  0.1359686E+04  0.7818609E-02  0.8983528E-01
       -1   -1    0    0    0  501  0.00000000000E+00  0.00000000000E+00  0.62073895702E+03  0.62073895704E+03  0.50400001928E-02 0.  1.
        1   -1    0    0  501    0  0.00000000000E+00  0.00000000000E+00 -0.74457512167E+03  0.74457512169E+03  0.50400001928E-02 0. -1.
    10030    2    1    2    0    0  0.00000000000E+00  0.00000000000E+00 -0.12383616465E+03  0.13653140787E+04  0.13596864116E+04 0.  0.
        3    1    3    3  502    0  0.14732757231E+03 -0.19383078183E+03 -0.69929798764E+03  0.74046841341E+03  0.10100000352E+00 0. -1.
       -3    1    3    3    0  502 -0.14732757231E+03  0.19383078183E+03  0.57546182299E+03  0.62484566532E+03  0.10100000352E+00 0.  1.
</event>
<event>
 5   0  0.9900839E-05  0.1398892E+04  0.7818609E-02  0.8954621E-01
        1   -1    0    0  501    0  0.00000000000E+00  0.00000000000E+00  0.11764982430E+04  0.11764982430E+04  0.50400001928E-02 0. -1.
       -1   -1    0    0    0  501  0.00000000000E+00  0.00000000000E+00 -0.41583144833E+03  0.41583144836E+03  0.50400001928E-02 0.  1.
    10030    2    1    2    0    0  0.00000000000E+00  0.00000000000E+00  0.76066679463E+03  0.15923296913E+04  0.13988923738E+04 0.  0.
        3    1    3    3  502    0  0.38131042492E+03  0.67270456029E+02  0.10433767156E+04  0.11129051780E+04  0.10100000352E+00 0. -1.
       -3    1    3    3    0  502 -0.38131042492E+03 -0.67270456029E+02 -0.28270992093E+03  0.47942451335E+03  0.10100000352E+00 0.  1.
</event>
<event>
 5   0  0.1712327E-04  0.1399429E+04  0.7818609E-02  0.8954232E-01
       -2   -1    0    0    0  501  0.00000000000E+00  0.00000000000E+00  0.96511803344E+03  0.96511803345E+03  0.25500000920E-02 0.  1.
        2   -1    0    0  501    0  0.00000000000E+00  0.00000000000E+00 -0.50729615989E+03  0.50729615990E+03  0.25500000920E-02 0. -1.
    10030    2    1    2    0    0  0.00000000000E+00  0.00000000000E+00  0.45782187355E+03  0.14724141933E+04  0.13994294155E+04 0.  0.
        1    1    3    3  502    0 -0.78210048953E+01 -0.65680144339E+03  0.48263342677E+03  0.81509774188E+03  0.50400001928E-02 0.  1.
       -1    1    3    3    0  502  0.78210048953E+01  0.65680144339E+03 -0.24811553214E+02  0.65731645146E+03  0.50400001928E-02 0. -1.
</event>
<event>
 5   0  0.6671375E-05  0.1394519E+04  0.7818609E-02  0.8957796E-01
       -1   -1    0    0    0  501  0.00000000000E+00  0.00000000000E+00  0.44929878155E+03  0.44929878158E+03  0.50400001928E-02 0.  1.
        1   -1    0    0  501    0  0.00000000000E+00  0.00000000000E+00 -0.10820656261E+04  0.10820656261E+04  0.50400001928E-02 0. -1.
    10030    2    1    2    0    0  0.00000000000E+00  0.00000000000E+00 -0.63276684451E+03  0.15313644076E+04  0.13945189384E+04 0.  0.
        5    1    3    3  502    0  0.25744085701E+03 -0.89781993484E+02  0.38831560375E+03  0.47449731224E+03  0.46999998093E+01 0.  1.
       -5    1    3    3    0  502 -0.25744085701E+03  0.89781993484E+02 -0.10210824483E+04  0.10568670954E+04  0.46999998093E+01 0. -1.
</event>
<event>
 5   0  0.1712327E-04  0.1398848E+04  0.7818609E-02  0.8954653E-01
       -2   -1    0    0    0  501  0.00000000000E+00  0.00000000000E+00  0.37572469714E+03  0.37572469714E+03  0.25500000920E-02 0. -1.
        2   -1    0    0  501    0  0.00000000000E+00  0.00000000000E+00 -0.13020011754E+04  0.13020011754E+04  0.25500000920E-02 0.  1.
    10030    2    1    2    0    0  0.00000000000E+00  0.00000000000E+00 -0.92627647825E+03  0.16777258725E+04  0.13988480937E+04 0.  0.
        1    1    3    3  502    0  0.34151104117E+03  0.35584670348E+03  0.13165041177E+03  0.51047869550E+03  0.50400001928E-02 0. -1.
       -1    1    3    3    0  502 -0.34151104117E+03 -0.35584670348E+03 -0.10579268900E+04  0.11672471770E+04  0.50400001928E-02 0.  1.
</event>
<event>
 5   0  0.1766237E-04  0.1400166E+04  0.7818609E-02  0.8953698E-01
       -2   -1    0    0    0  501  0.00000000000E+00  0.00000000000E+00  0.32032855832E+03  0.32032855833E+03  0.25500000920E-02 0. -1.
        2   -1    0    0  501    0  0.00000000000E+00  0.00000000000E+00 -0.15300419422E+04  0.15300419422E+04  0.25500000920E-02 0.  1.
    10030    2    1    2    0    0  0.00000000000E+00  0.00000000000E+00 -0.12097133839E+04  0.18503705006E+04  0.14001658895E+04 0.  0.
        3    1    3    3  502    0 -0.10677677257E+03 -0.91254330961E+02  0.30151656537E+03  0.33262724102E+03  0.10100000352E+00 0. -1.
       -3    1    3    3    0  502  0.10677677257E+03  0.91254330961E+02 -0.15112299493E+04  0.15177432596E+04  0.10100000352E+00 0.  1.
</event>
<event>
 5   0  0.1794185E-04  0.1400602E+04  0.7818609E-02  0.8953383E-01
       -2   -1    0    0    0  501  0.00000000000E+00  0.00000000000E+00  0.44403743050E+03  0.44403743050E+03  0.25500000920E-02 0. -1.
        2   -1    0    0  501    0  0.00000000000E+00  0.00000000000E+00 -0.11044604028E+04  0.11044604028E+04  0.25500000920E-02 0.  1.
    10030    2    1    2    0    0  0.00000000000E+00  0.00000000000E+00 -0.66042297232E+03  0.15484978333E+04  0.14006023838E+04 0.  0.
        2    1    3    3  502    0  0.56319146871E+03 -0.39311769652E+03 -0.17904152213E+03  0.70977603538E+03  0.25500000920E-02 0. -1.
       -2    1    3    3    0  502 -0.56319146871E+03  0.39311769652E+03 -0.48138145018E+03  0.83872179794E+03  0.25500000920E-02 0.  1.
</event>
<event>
 5   0  0.9978422E-05  0.1400083E+04  0.7818609E-02  0.8953758E-01
       -1   -1    0    0    0  501  0.00000000000E+00  0.00000000000E+00  0.40008273854E+03  0.40008273857E+03  0.50400001928E-02 0. -1.
        1   -1    0    0  501    0  0.00000000000E+00  0.00000000000E+00 -0.12248925302E+04  0.12248925302E+04  0.50400001928E-02 0.  1.
    10030    2    1    2    0    0  0.00000000000E+00  0.00000000000E+00 -0.82480979164E+03  0.16249752688E+04  0.14000833660E+04 0.  0.
        2    1    3    3  502    0 -0.26244761664E+03 -0.58088564704E+03 -0.74828871513E+03  0.98297654479E+03  0.25500000920E-02 0.  1.
       -2    1    3    3    0  502  0.26244761664E+03  0.58088564704E+03 -0.76521076510E+02  0.64199872396E+03  0.25500000920E-02 0. -1.
</event>
<event>
 5   0  0.1780171E-04  0.1399622E+04  0.7818609E-02  0.8954093E-01
        2   -1    0    0  501    0  0.00000000000E+00  0.00000000000E+00  0.82332368101E+03  0.82332368101E+03  0.25500000920E-02 0.  1.
       -2   -1    0    0    0  501  0.00000000000E+00  0.00000000000E+00 -0.59482693768E+03  0.59482693768E+03  0.25500000920E-02 0. -1.
    10030    2    1    2    0    0  0.00000000000E+00  0.00000000000E+00  0.22849674333E+03  0.14181506187E+04  0.13996215258E+04 0.  0.
        5    1    3    3  502    0  0.59706060055E+03 -0.13370171523E+03 -0.22988826272E+03  0.65362696756E+03  0.46999998093E+01 0. -1.
       -5    1    3    3    0  502 -0.59706060055E+03  0.13370171523E+03  0.45838500605E+03  0.76452365114E+03  0.46999998093E+01 0.  1.
</event>
<event>
 5   0  0.6671375E-05  0.1399873E+04  0.7818609E-02  0.8953910E-01
       -1   -1    0    0    0  501  0.00000000000E+00  0.00000000000E+00  0.98793962526E+03  0.98793962528E+03  0.50400001928E-02 0.  1.
        1   -1    0    0  501    0  0.00000000000E+00  0.00000000000E+00 -0.49589177839E+03  0.49589177842E+03  0.50400001928E-02 0. -1.
    10030    2    1    2    0    0  0.00000000000E+00  0.00000000000E+00  0.49204784687E+03  0.14838314037E+04  0.13998730482E+04 0.  0.
        5    1    3    3  502    0 -0.12790167599E+03 -0.45506080257E+03 -0.30112262827E+03  0.56047845633E+03  0.46999998093E+01 0. -1.
       -5    1    3    3    0  502  0.12790167599E+03  0.45506080257E+03  0.79317047515E+03  0.92335294736E+03  0.46999998093E+01 0.  1.
</event>
<event>
 5   0  0.1780171E-04  0.1397120E+04  0.7818609E-02  0.8955906E-01
       -2   -1    0    0    0  501  0.00000000000E+00  0.00000000000E+00  0.60151039301E+03  0.60151039301E+03  0.25500000920E-02 0.  1.
        2   -1    0    0  501    0  0.00000000000E+00  0.00000000000E+00 -0.81126769436E+03  0.81126769436E+03  0.25500000920E-02 0. -1.
    10030    2    1    2    0    0  0.00000000000E+00  0.00000000000E+00 -0.20975730135E+03  0.14127780874E+04  0.13971198226E+04 0.  0.
        5    1    3    3  502    0 -0.53956997332E+03 -0.14138059203E+03  0.32035742016E+03  0.64325360051E+03  0.46999998093E+01 0.  1.
       -5    1    3    3    0  502  0.53956997332E+03  0.14138059203E+03 -0.53011472152E+03  0.76952448686E+03  0.46999998093E+01 0. -1.
</event>
<event>
 5   0  0.1712327E-04  0.1396768E+04  0.7818609E-02  0.8956161E-01
        2   -1    0    0  501    0  0.00000000000E+00  0.00000000000E+00  0.75729660992E+03  0.75729660992E+03  0.25500000920E-02 0.  1.
       -2   -1    0    0    0  501  0.00000000000E+00  0.00000000000E+00 -0.64405468245E+03  0.64405468246E+03  0.25500000920E-02 0. -1.
    10030    2    1    2    0    0  0.00000000000E+00  0.00000000000E+00  0.11324192747E+03  0.14013512924E+04  0.13967683095E+04 0.  0.
        1    1    3    3  502    0 -0.22036695522E+03 -0.41950556707E+03  0.57132854470E+03  0.74226869917E+03  0.50400001928E-02 0.  1.
       -1    1    3    3    0  502  0.22036695522E+03  0.41950556707E+03 -0.45808661723E+03  0.65908259321E+03  0.50400001928E-02 0. -1.
</event>
<event>
 5   0  0.1833681E-04  0.1401214E+04  0.7818609E-02  0.8952941E-01
       -2   -1    0    0    0  501  0.00000000000E+00  0.00000000000E+00  0.62321084239E+03  0.62321084240E+03  0.25500000920E-02 0. -1.
        2   -1    0    0  501    0  0.00000000000E+00  0.00000000000E+00 -0.78761441148E+03  0.78761441149E+03  0.25500000920E-02 0.  1.
    10030    2    1    2    0    0  0.00000000000E+00  0.00000000000E+00 -0.16440356909E+03  0.14108252539E+04  0.14012135324E+04 0.  0.
        4    1    3    3  502    0 -0.57574817336E+03 -0.79246687247E+02  0.31173931621E+03  0.65950664192E+03  0.12699999809E+01 0. -1.
       -4    1    3    3    0  502  0.57574817336E+03  0.79246687247E+02 -0.47614288530E+03  0.75131861197E+03  0.12699999809E+01 0.  1.
</event>
<event>
 5   0  0.9978422E-05  0.1397246E+04  0.7818609E-02  0.8955814E-01
        1   -1    0    0  501    0  0.00000000000E+00  0.00000000000E+00  0.10174335765E+04  0.10174335765E+04  0.50400001928E-02 0. -1.
       -1   -1    0    0    0  501  0.00000000000E+00  0.00000000000E+00 -0.47971106416E+03  0.47971106419E+03  0.50400001928E-02 0.  1.
    10030    2    1    2    0    0  0.00000000000E+00  0.00000000000E+00  0.53772251236E+03  0.14971446407E+04  0.13972460681E+04 0.  0.
        2    1    3    3  502    0 -0.67676150590E+03 -0.13532085426E+03  0.15268276863E+03  0.70684503061E+03  0.25500000920E-02 0. -1.
       -2    1    3    3    0  502  0.67676150590E+03  0.13532085426E+03  0.38503974373E+03  0.79029961010E+03  0.25500000920E-02 0.  1.
</event>
<event>
 5   0  0.9978422E-05  0.1399200E+04  0.7818609E-02  0.8954398E-01
       -1   -1    0    0    0  501  0.00000000000E+00  0.00000000000E+00  0.57745937958E+03  0.57745937960E+03  0.50400001928E-02 0.  1.
        1   -1    0    0  501    0  0.00000000000E+00  0.00000000000E+00 -0.84757531281E+03  0.84757531282E+03  0.50400001928E-02 0. -1.
    10030    2    1    2    0    0  0.00000000000E+00  0.00000000000E+00 -0.27011593322E+03  0.14250346924E+04  0.13992002206E+04 0.  0.
        2    1    3    3  502    0  0.49587056930E+03 -0.36143202736E+03 -0.47729752285E+03  0.77738899994E+03  0.25500000920E-02 0.  1.
       -2    1    3    3    0  502 -0.49587056930E+03  0.36143202736E+03  0.20718158962E+03  0.64764569248E+03  0.25500000920E-02 0. -1.
</event>
<event>
 5   0  0.1780171E-04  0.1405374E+04  0.7818609E-02  0.8949938E-01
        2   -1    0    0  501    0  0.00000000000E+00  0.00000000000E+00  0.16936518319E+04  0.16936518319E+04  0.25500000920E-02 0. -1.
       -2   -1    0    0    0  501  0.00000000000E+00  0.00000000000E+00 -0.29154089959E+03  0.29154089960E+03  0.25500000920E-02 0.  1.
    10030    2    1    2    0    0  0.00000000000E+00  0.00000000000E+00  0.14021109323E+04  0.19851927315E+04  0.14053736566E+04 0.  0.
        5    1    3    3  502    0  0.15689656055E+03 -0.57432609575E+03  0.17388051144E+03  0.62026084612E+03  0.46999998093E+01 0.  1.
       -5    1    3    3    0  502 -0.15689656055E+03  0.57432609575E+03  0.12282304209E+04  0.13649318854E+04  0.46999998093E+01 0. -1.
</event>
<event>
 5   0  0.1766237E-04  0.1400243E+04  0.7818609E-02  0.8953642E-01
       -2   -1    0    0    0  501  0.00000000000E+00  0.00000000000E+00  0.40069178219E+03  0.40069178220E+03  0.25500000920E-02 0. -1.
        2   -1    0    0  501    0  0.00000000000E+00  0.00000000000E+00 -0.12233100861E+04  0.12233100862E+04  0.25500000920E-02 0.  1.
    10030    2    1    2    0    0  0.00000000000E+00  0.00000000000E+00 -0.82261830396E+03  0.16240018684E+04  0.14002432626E+04 0.  0.
        3    1    3    3  502    0 -0.62482080569E+03 -0.66375231563E+02 -0.76946685907E+03  0.99342134464E+03  0.10100000352E+00 0.  1.
       -3    1    3    3    0  502  0.62482080569E+03  0.66375231563E+02 -0.53151444884E+02  0.63058052371E+03  0.10100000352E+00 0. -1.
</event>
<event>
 5   0  0.9978422E-05  0.1401573E+04  0.7818609E-02  0.8952680E-01
       -1   -1    0    0    0  501  0.00000000000E+00  0.00000000000E+00  0.80258688543E+03  0.80258688545E+03  0.50400001928E-02 0. -1.
        1   -1    0    0  501    0  0.00000000000E+00  0.00000000000E+00 -0.61189883785E+03  0.61189883787E+03  0.50400001928E-02 0.  1.
    10030    2    1    2    0    0  0.00000000000E+00  0.00000000000E+00  0.19068804758E+03  0.14144857233E+04  0.14015733766E+04 0.  0.
        2    1    3    3  502    0 -0.19187846859E+03 -0.19593001965E+03 -0.55549732103E+03  0.61950237529E+03  0.25500000920E-02 0.  1.
       -2    1    3    3    0  502  0.19187846859E+03  0.19593001965E+03  0.74618536861E+03  0.79498334803E+03  0.25500000920E-02 0. -1.
</event>
<event>
 5   0  0.1833681E-04  0.1402374E+04  0.7818609E-02  0.8952102E-01
       -2   -1    0    0    0  501  0.00000000000E+00  0.00000000000E+00  0.23271202044E+03  0.23271202046E+03  0.25500000920E-02 0.  1.
        2   -1    0    0  501    0  0.00000000000E+00  0.00000000000E+00 -0.21127534589E+04  0.21127534589E+04  0.25500000920E-02 0. -1.
    10030    2    1    2    0    0  0.00000000000E+00  0.00000000000E+00 -0.18800414385E+04  0.23454654794E+04  0.14023738819E+04 0.  0.
        4    1    3    3  502    0  0.69844686330E+03  0.11060222743E+02 -0.10419080760E+04  0.12544020094E+04  0.12699999809E+01 0. -1.
       -4    1    3    3    0  502 -0.69844686330E+03 -0.11060222743E+02 -0.83813336247E+03  0.10910634700E+04  0.12699999809E+01 0.  1.
</event>
<event>
 5   0  0.9828111E-05  0.1399583E+04  0.7818609E-02  0.8954121E-01
       -1   -1    0    0    0  501  0.00000000000E+00  0.00000000000E+00  0.11847305109E+04  0.11847305109E+04  0.50400001928E-02 0.  1.
        1   -1    0    0  501    0  0.00000000000E+00  0.00000000000E+00 -0.41334966325E+03  0.41334966328E+03  0.50400001928E-02 0. -1.
    10030    2    1    2    0    0  0.00000000000E+00  0.00000000000E+00  0.77138084764E+03  0.15980801742E+04  0.13995827346E+04 0.  0.
        4    1    3    3  502    0 -0.47236059500E+03  0.46408427113E+02 -0.20146593119E+03  0.51562428972E+03  0.12699999809E+01 0. -1.
       -4    1    3    3    0  502  0.47236059500E+03 -0.46408427113E+02  0.97284677883E+03  0.10824558845E+04  0.12699999809E+01 0.  1.
</event>
<event>
 5   0  0.6671375E-05  0.1399445E+04  0.7818609E-02  0.8954220E-01
       -3   -1    0    0    0  501  0.00000000000E+00  0.00000000000E+00  0.28758780357E+03  0.28758782131E+03  0.10100000352E+00 0.  1.
        3   -1    0    0  501    0  0.00000000000E+00  0.00000000000E+00 -0.17024775236E+04  0.17024775266E+04  0.10100000352E+00 0. -1.
    10030    2    1    2    0    0  0.00000000000E+00  0.00000000000E+00 -0.14148897200E+04  0.19900653479E+04  0.13994453076E+04 0.  0.
        4    1    3    3  502    0  0.14567224243E+02  0.68513969423E+03 -0.50643087971E+03  0.85211645534E+03  0.12699999809E+01 0.  1.
       -4    1    3    3    0  502 -0.14567224243E+02 -0.68513969423E+03 -0.90845884028E+03  0.11379488925E+04  0.12699999809E+01 0. -1.
</event>
<event>
 5   0  0.9900839E-05  0.1404384E+04  0.7818609E-02  0.8950651E-01
       -1   -1    0    0    0  501  0.00000000000E+00  0.00000000000E+00  0.39142109792E+03  0.39142109795E+03  0.50400001928E-02 0.  1.
        1   -1    0    0  501    0  0.00000000000E+00  0.00000000000E+00 -0.12597012520E+04  0.12597012520E+04  0.50400001928E-02 0. -1.
    10030    2    1    2    0    0  0.00000000000E+00  0.00000000000E+00 -0.86828015410E+03  0.16511223500E+04  0.14043840602E+04 0.  0.
        3    1    3    3  502    0  0.54937035222E+03 -0.38807825593E+03 -0.67121358983E+03  0.95023166123E+03  0.10100000352E+00 0. -1.
       -3    1    3    3    0  502 -0.54937035222E+03  0.38807825593E+03 -0.19706656427E+03  0.70089068876E+03  0.10100000352E+00 0.  1.
</event>
<event>
 5   0  0.1712327E-04  0.1400133E+04  0.7818609E-02  0.8953723E-01
        2   -1    0    0  501    0  0.00000000000E+00  0.00000000000E+00  0.92314146889E+03  0.92314146890E+03  0.25500000920E-02 0. -1.
       -2   -1    0    0    0  501  0.00000000000E+00  0.00000000000E+00 -0.53089672004E+03  0.53089672004E+03  0.25500000920E-02 0.  1.
    10030    2    1    2    0    0  0.00000000000E+00  0.00000000000E+00  0.39224474886E+03  0.14540381889E+04  0.14001325337E+04 0.  0.
        1    1    3    3  502    0  0.40831932501E+03 -0.42556165203E+03 -0.19558007821E+03  0.62135252303E+03  0.50400001928E-02 0.  1.
       -1    1    3    3    0  502 -0.40831932501E+03  0.42556165203E+03  0.58782482707E+03  0.83268566591E+03  0.50400001928E-02 0. -1.
</event>
<event>
 5   0  0.9978422E-05  0.1396000E+04  0.7818609E-02  0.8956719E-01
       -1   -1    0    0    0  501  0.00000000000E+00  0.00000000000E+00  0.33412728261E+03  0.33412728265E+03  0.50400001928E-02 0. -1.
        1   -1    0    0  501    0  0.00000000000E+00  0.00000000000E+00 -0.14581383129E+04  0.14581383129E+04  0.50400001928E-02 0.  1.
    10030    2    1    2    0    0  0.00000000000E+00  0.00000000000E+00 -0.11240110303E+04  0.17922655955E+04  0.13959997023E+04 0.  0.
        2    1    3    3  502    0  0.27934818480E+03  0.20329350448E+03 -0.13406632446E+04  0.13844643703E+04  0.25500000920E-02 0.  1.
       -2    1    3    3    0  502 -0.27934818480E+03 -0.20329350448E+03  0.21665221431E+03  0.40780122521E+03  0.25500000920E-02 0. -1.
</event>
<event>
 5   0  0.1712327E-04  0.1399513E+04  0.7818609E-02  0.8954171E-01
        2   -1    0    0  501    0  0.00000000000E+00  0.00000000000E+00  0.11794747528E+04  0.11794747528E+04  0.25500000920E-02 0. -1.
       -2   -1    0    0    0  501  0.00000000000E+00  0.00000000000E+00 -0.41515004300E+03  0.41515004301E+03  0.25500000920E-02 0.  1.
    10030    2    1    2    0    0  0.00000000000E+00  0.00000000000E+00  0.76432470980E+03  0.15946247958E+04  0.13995127643E+04 0.  0.
        1    1    3    3  502    0  0.66716711661E+03 -0.10229133551E+03  0.17180686986E+03  0.69648623775E+03  0.50400001928E-02 0.  1.
       -1    1    3    3    0  502 -0.66716711661E+03  0.10229133551E+03  0.59251783993E+03  0.89813855806E+03  0.50400001928E-02 0. -1.
</event>
<event>
 5   0  0.6671375E-05  0.1399781E+04  0.7818609E-02  0.8953977E-01
       -3   -1    0    0    0  501  0.00000000000E+00  0.00000000000E+00  0.92141866629E+03  0.92141867182E+03  0.10100000352E+00 0.  1.
        3   -1    0    0  501    0  0.00000000000E+00  0.00000000000E+00 -0.53162208662E+03  0.53162209621E+03  0.10100000352E+00 0. -1.
    10030    2    1    2    0    0  0.00000000000E+00  0.00000000000E+00  0.38979657967E+03  0.14530407680E+04  0.13997807328E+04 0.  0.
        3    1    3    3  502    0 -0.24320822667E+03 -0.34388710671E+03 -0.38533102226E+03  0.57086652608E+03  0.10100000352E+00 0. -1.
       -3    1    3    3    0  502  0.24320822667E+03  0.34388710671E+03  0.77512760193E+03  0.88217424195E+03  0.10100000352E+00 0.  1.
</event>
<event>
 5   0  0.1766237E-04  0.1399823E+04  0.7818609E-02  0.8953946E-01
       -2   -1    0    0    0  501  0.00000000000E+00  0.00000000000E+00  0.32918507508E+03  0.32918507509E+03  0.25500000920E-02 0.  1.
        2   -1    0    0  501    0  0.00000000000E+00  0.00000000000E+00 -0.14881487360E+04  0.14881487360E+04  0.25500000920E-02 0. -1.
    10030    2    1    2    0    0  0.00000000000E+00  0.00000000000E+00 -0.11589636610E+04  0.18173338111E+04  0.13998233509E+04 0.  0.
        3    1    3    3  502    0 -0.10784428923E+03  0.68765303920E+03 -0.48426310947E+03  0.84794331322E+03  0.10100000352E+00 0.  1.
       -3    1    3    3    0  502  0.10784428923E+03 -0.68765303920E+03 -0.67470055149E+03  0.96939049790E+03  0.10100000352E+00 0. -1.
</event>
<event>
 5   0  0.9260916E-05  0.1399715E+04  0.7818609E-02  0.8954025E-01
       -1   -1    0    0    0  501  0.00000000000E+00  0.00000000000E+00  0.98016058632E+03  0.98016058633E+03  0.50400001928E-02 0. -1.
        1   -1    0    0  501    0  0.00000000000E+00  0.00000000000E+00 -0.49971451794E+03  0.49971451797E+03  0.50400001928E-02 0.  1.
    10030    2    1    2    0    0  0.00000000000E+00  0.00000000000E+00  0.48044606838E+03  0.14798751043E+04  0.13997149352E+04 0.  0.
        1    1    3    3  502    0 -0.20965608897E+03  0.24953364438E+01 -0.46572752626E+03  0.51074850082E+03  0.50400001928E-02 0.  1.
       -1    1    3    3    0  502  0.20965608897E+03 -0.24953364438E+01  0.94617359464E+03  0.96912660348E+03  0.50400001928E-02 0. -1.
</event>
<event>
 5   0  0.9260916E-05  0.1400566E+04  0.7818609E-02  0.8953409E-01
       -1   -1    0    0    0  501  0.00000000000E+00  0.00000000000E+00  0.69007964031E+03  0.69007964033E+03  0.50400001928E-02 0.  1.
        1   -1    0    0  501    0  0.00000000000E+00  0.00000000000E+00 -0.71063729331E+03  0.71063729333E+03  0.50400001928E-02 0. -1.
    10030    2    1    2    0    0  0.00000000000E+00  0.00000000000E+00 -0.20557652997E+02  0.14007169337E+04  0.14005660681E+04 0.  0.
        1    1    3    3  502    0 -0.34937463988E+03 -0.82785835570E+02 -0.61157581960E+03  0.70918341542E+03  0.50400001928E-02 0. -1.
       -1    1    3    3    0  502  0.34937463988E+03  0.82785835570E+02  0.59101816660E+03  0.69153351823E+03  0.50400001928E-02 0.  1.
</event>
<event>
 5   0  0.1712327E-04  0.1390156E+04  0.7818609E-02  0.8960975E-01
        2   -1    0    0  501    0  0.00000000000E+00  0.00000000000E+00  0.19941372235E+04  0.19941372235E+04  0.25500000920E-02 0.  1.
       -2   -1    0    0    0  501  0.00000000000E+00  0.00000000000E+00 -0.24227693176E+03  0.24227693177E+03  0.25500000920E-02 0. -1.
    10030    2    1    2    0    0  0.00000000000E+00  0.00000000000E+00  0.17518602917E+04  0.22364141553E+04  0.13901560316E+04 0.  0.
        1    1    3    3  502    0 -0.23265559608E+03  0.64370702367E+03  0.68123751095E+03  0.96569762611E+03  0.50400001928E-02 0. -1.
       -1    1    3    3    0  502  0.23265559608E+03 -0.64370702367E+03  0.10706227808E+04  0.12707165292E+04  0.50400001928E-02 0.  1.
</event>
<event>
 5   0  0.9978422E-05  0.1399569E+04  0.7818609E-02  0.8954130E-01
        1   -1    0    0  501    0  0.00000000000E+00  0.00000000000E+00  0.10203763654E+04  0.10203763655E+04  0.50400001928E-02 0.  1.
       -1   -1    0    0    0  501  0.00000000000E+00  0.00000000000E+00 -0.47991956613E+03  0.47991956615E+03  0.50400001928E-02 0. -1.
    10030    2    1    2    0    0  0.00000000000E+00  0.00000000000E+00  0.54045679931E+03  0.15002959316E+04  0.13995693375E+04 0.  0.
        2    1    3    3  502    0 -0.65081398842E+03  0.24674432605E+02  0.54464198206E+03  0.84900092095E+03  0.25500000920E-02 0.  1.
       -2    1    3    3    0  502  0.65081398842E+03 -0.24674432605E+02 -0.41851827481E+01  0.65129501065E+03  0.25500000920E-02 0. -1.
</event>
<event>
 5   0  0.9260916E-05  0.1400454E+04  0.7818609E-02  0.8953490E-01
       -1   -1    0    0    0  501  0.00000000000E+00  0.00000000000E+00  0.32598999481E+03  0.32598999485E+03  0.50400001928E-02 0. -1.
        1   -1    0    0  501    0  0.00000000000E+00  0.00000000000E+00 -0.15040879995E+04  0.15040879995E+04  0.50400001928E-02 0.  1.
    10030    2    1    2    0    0  0.00000000000E+00  0.00000000000E+00 -0.11780980047E+04  0.18300779943E+04  0.14004536968E+04 0.  0.
        1    1    3    3  502    0  0.48264815907E+03  0.45575680288E+03 -0.29785760895E+03  0.72758687732E+03  0.50400001928E-02 0. -1.
       -1    1    3    3    0  502 -0.48264815907E+03 -0.45575680288E+03 -0.88024039572E+03  0.11024911170E+04  0.50400001928E-02 0.  1.
</event>
<event>
 5   0  0.1766237E-04  0.1406035E+04  0.7818609E-02  0.8949461E-01
       -2   -1    0    0    0  501  0.00000000000E+00  0.00000000000E+00  0.33669997518E+03  0.33669997519E+03  0.25500000920E-02 0. -1.
        2   -1    0    0  501    0  0.00000000000E+00  0.00000000000E+00 -0.14678761572E+04  0.14678761572E+04  0.25500000920E-02 0.  1.
    10030    2    1    2    0    0  0.00000000000E+00  0.00000000000E+00 -0.11311761820E+04  0.18045761324E+04  0.14060353704E+04 0.  0.
        3    1    3    3  502    0  0.19281154850E+03  0.71729821480E+02 -0.14283800514E+04  0.14431185128E+04  0.10100000352E+00 0.  1.
       -3    1    3    3    0  502 -0.19281154850E+03 -0.71729821480E+02  0.29720386943E+03  0.36145761955E+03  0.10100000352E+00 0. -1.
</event>
<event>
 5   0  0.9828111E-05  0.1400500E+04  0.7818609E-02  0.8953457E-01
       -1   -1    0    0    0  501  0.00000000000E+00  0.00000000000E+00  0.28946382500E+03  0.28946382504E+03  0.50400001928E-02 0. -1.
        1   -1    0    0  501    0  0.00000000000E+00  0.00000000000E+00 -0.16939934411E+04  0.16939934411E+04  0.50400001928E-02 0.  1.
    10030    2    1    2    0    0  0.00000000000E+00  0.00000000000E+00 -0.14045296161E+04  0.19834572662E+04  0.14004996552E+04 0.  0.
        4    1    3    3  502    0  0.59679324749E+03 -0.24164794331E+03 -0.31236557297E+03  0.71563242858E+03  0.12699999809E+01 0.  1.
       -4    1    3    3    0  502 -0.59679324749E+03  0.24164794331E+03 -0.10921640431E+04  0.12678248376E+04  0.12699999809E+01 0. -1.
</event>
<event>
 5   0  0.9260916E-05  0.1411429E+04  0.7818609E-02  0.8945587E-01
        1   -1    0    0  501    0  0.00000000000E+00  0.00000000000E+00  0.11599149406E+04  0.11599149406E+04  0.50400001928E-02 0. -1.
       -1   -1    0    0    0  501  0.00000000000E+00  0.00000000000E+00 -0.42937037959E+03  0.42937037962E+03  0.50400001928E-02 0.  1.
    10030    2    1    2    0    0  0.00000000000E+00  0.00000000000E+00  0.73054456103E+03  0.15892853203E+04  0.14114292308E+04 0.  0.
        1    1    3    3  502    0 -0.23625114988E+03 -0.26050580231E+03  0.10542175500E+04  0.11113291689E+04  0.50400001928E-02 0. -1.
       -1    1    3    3    0  502  0.23625114988E+03  0.26050580231E+03 -0.32367298895E+03  0.47795615139E+03  0.50400001928E-02 0.  1.
</event>
<event>
 5   0  0.9828111E-05  0.1400706E+04  0.7818609E-02  0.8953308E-01
        1   -1    0    0  501    0  0.00000000000E+00  0.00000000000E+00  0.12924093912E+04  0.12924093912E+04  0.50400001928E-02 0. -1.
       -1   -1    0    0    0  501  0.00000000000E+00  0.00000000000E+00 -0.37951919848E+03  0.37951919851E+03  0.50400001928E-02 0.  1.
    10030    2    1    2    0    0  0.00000000000E+00  0.00000000000E+00  0.91289019269E+03  0.16719285897E+04  0.14007057882E+04 0.  0.
        4    1    3    3  502    0 -0.50385972133E+03  0.23071408536E+03  0.96760571758E+03  0.11150632473E+04  0.12699999809E+01 0. -1.
       -4    1    3    3    0  502  0.50385972133E+03 -0.23071408536E+03 -0.54715524890E+02  0.55686534236E+03  0.12699999809E+01 0.  1.
</event>
<event>
 5   0  0.1794185E-04  0.1397985E+04  0.7818609E-02  0.8955278E-01
       -2   -1    0    0    0  501  0.00000000000E+00  0.00000000000E+00  0.41198202094E+03  0.41198202095E+03  0.25500000920E-02 0.  1.
        2   -1    0    0  501    0  0.00000000000E+00  0.00000000000E+00 -0.11859508729E+04  0.11859508729E+04  0.25500000920E-02 0. -1.
    10030    2    1    2    0    0  0.00000000000E+00  0.00000000000E+00 -0.77396885200E+03  0.15979328939E+04  0.13979848889E+04 0.  0.
        2    1    3    3  502    0 -0.28885207571E+03  0.14925388413E+03 -0.10942562808E+04  0.11415380203E+04  0.25500000920E-02 0. -1.
       -2    1    3    3    0  502  0.28885207571E+03 -0.14925388413E+03  0.32028742885E+03  0.45639487360E+03  0.25500000920E-02 0.  1.
</event>
<event>
 5   0  0.1833681E-04  0.1406086E+04  0.7818609E-02  0.8949425E-01
        2   -1    0    0  501    0  0.00000000000E+00  0.00000000000E+00  0.20789586424E+03  0.20789586425E+03  0.25500000920E-02 0.  1.
       -2   -1    0    0    0  501  0.00000000000E+00  0.00000000000E+00 -0.23774865731E+04  0.23774865731E+04  0.25500000920E-02 0. -1.
    10030    2    1    2    0    0  0.00000000000E+00  0.00000000000E+00 -0.21695907089E+04  0.25853824374E+04  0.14060862361E+04 0.  0.
        4    1    3    3  502    0 -0.42886401986E+03  0.40990019026E+03 -0.39112330506E+03  0.71057833218E+03  0.12699999809E+01 0.  1.
       -4    1    3    3    0  502  0.42886401986E+03 -0.40990019026E+03 -0.17784674038E+04  0.18748041052E+04  0.12699999809E+01 0. -1.
</event>
<event>
 5   0  0.1766237E-04  0.1399271E+04  0.7818609E-02  0.8954346E-01
        2   -1    0    0  501    0  0.00000000000E+00  0.00000000000E+00  0.13363922214E+04  0.13363922214E+04  0.25500000920E-02 0. -1.
       -2   -1    0    0    0  501  0.00000000000E+00  0.00000000000E+00 -0.36627731064E+03  0.36627731065E+03  0.25500000920E-02 0.  1.
    10030    2    1    2    0    0  0.00000000000E+00  0.00000000000E+00  0.97011491072E+03  0.17026695320E+04  0.13992714516E+04 0.  0.
        3    1    3    3  502    0 -0.30688826053E+03 -0.37140380000E+02  0.12487843755E+04  0.12864766764E+04  0.10100000352E+00 0. -1.
       -3    1    3    3    0  502  0.30688826053E+03  0.37140380000E+02 -0.27866946476E+03  0.41619285562E+03  0.10100000352E+00 0.  1.
</event>
<event>
 5   0  0.9900839E-05  0.1399572E+04  0.7818609E-02  0.8954128E-01
        1   -1    0    0  501    0  0.00000000000E+00  0.00000000000E+00  0.79450240445E+03  0.79450240446E+03  0.50400001928E-02 0.  1.
       -1   -1    0    0    0  501  0.00000000000E+00  0.00000000000E+00 -0.61636112718E+03  0.61636112720E+03  0.50400001928E-02 0. -1.
    10030    2    1    2    0    0  0.00000000000E+00  0.00000000000E+00  0.17814127727E+03  0.14108635317E+04  0.13995719311E+04 0.  0.
        3    1    3    3  502    0 -0.27567303271E+03  0.97008578807E+02 -0.55190051777E+03  0.62450018178E+03  0.10100000352E+00 0. -1.
       -3    1    3    3    0  502  0.27567303271E+03 -0.97008578807E+02  0.73004179504E+03  0.78636334988E+03  0.10100000352E+00 0.  1.
</event>
<event>
 5   0  0.1780171E-04  0.1395269E+04  0.7818609E-02  0.8957250E-01
        2   -1    0    0  501    0  0.00000000000E+00  0.00000000000E+00  0.11183017546E+04  0.11183017546E+04  0.25500000920E-02 0. -1.
       -2   -1    0    0    0  501  0.00000000000E+00  0.00000000000E+00 -0.43520830984E+03  0.43520830984E+03  0.25500000920E-02 0.  1.
    10030    2    1    2    0    0  0.00000000000E+00  0.00000000000E+00  0.68309344478E+03  0.15535100645E+04  0.13952694600E+04 0.  0.
        5    1    3    3  502    0  0.15257557204E+03  0.68060640855E+03  0.35596693557E+03  0.78309573985E+03  0.46999998093E+01 0.  1.
       -5    1    3    3    0  502 -0.15257557204E+03 -0.68060640855E+03  0.32712650921E+03  0.77041432461E+03  0.46999998093E+01 0. -1.
</event>
<event>
 5   0  0.6671375E-05  0.1399216E+04  0.7818609E-02  0.8954386E-01
       -1   -1    0    0    0  501  0.00000000000E+00  0.00000000000E+00  0.38097926687E+03  0.38097926691E+03  0.50400001928E-02 0.  1.
        1   -1    0    0  501    0  0.00000000000E+00  0.00000000000E+00 -0.12847197123E+04  0.12847197123E+04  0.50400001928E-02 0. -1.
    10030    2    1    2    0    0  0.00000000000E+00  0.00000000000E+00 -0.90374044541E+03  0.16656989792E+04  0.13992163152E+04 0.  0.
        5    1    3    3  502    0  0.62341026221E+03  0.31658535041E+03 -0.42362753145E+03  0.81752615526E+03  0.46999998093E+01 0.  1.
       -5    1    3    3    0  502 -0.62341026221E+03 -0.31658535041E+03 -0.48011291396E+03  0.84817282394E+03  0.46999998093E+01 0. -1.
</event>
<event>
 5   0  0.1794185E-04  0.1398213E+04  0.7818609E-02  0.8955113E-01
        2   -1    0    0  501    0  0.00000000000E+00  0.00000000000E+00  0.25156502463E+04  0.25156502463E+04  0.25500000920E-02 0. -1.
       -2   -1    0    0    0  501  0.00000000000E+00  0.00000000000E+00 -0.19428380937E+03  0.19428380939E+03  0.25500000920E-02 0.  1.
    10030    2    1    2    0    0  0.00000000000E+00  0.00000000000E+00  0.23213664369E+04  0.27099340557E+04  0.13982133069E+04 0.  0.
        2    1    3    3  502    0  0.68800411542E+03 -0.66612895913E+02  0.95774987566E+03  0.11811315613E+04  0.25500000920E-02 0. -1.
       -2    1    3    3    0  502 -0.68800411542E+03  0.66612895913E+02  0.13636165613E+04  0.15288024944E+04  0.25500000920E-02 0.  1.
</event>
<event>
 5   0  0.9900839E-05  0.1399880E+04  0.7818609E-02  0.8953906E-01
        1   -1    0    0  501    0  0.00000000000E+00  0.00000000000E+00  0.14831803646E+04  0.14831803646E+04  0.50400001928E-02 0.  1.
       -1   -1    0    0    0  501  0.00000000000E+00  0.00000000000E+00 -0.33031429089E+03  0.33031429093E+03  0.50400001928E-02 0. -1.
    10030    2    1    2    0    0  0.00000000000E+00  0.00000000000E+00  0.11528660737E+04  0.18134946556E+04  0.13998795240E+04 0.  0.
        3    1    3    3  502    0 -0.67403077064E+03  0.13060555369E+03  0.75282744575E+03  0.10188839304E+04  0.10100000352E+00 0.  1.
       -3    1    3    3    0  502  0.67403077064E+03 -0.13060555369E+03  0.40003862800E+03  0.79461072514E+03  0.10100000352E+00 0. -1.
</event>
<event>
 5   0  0.1780171E-04  0.1403917E+04  0.7818609E-02  0.8950988E-01
       -2   -1    0    0    0  501  0.00000000000E+00  0.00000000000E+00  0.62230957169E+03  0.62230957170E+03  0.25500000920E-02 0.  1.
        2   -1    0    0  501    0  0.00000000000E+00  0.00000000000E+00 -0.79180216250E+03  0.79180216251E+03  0.25500000920E-02 0. -1.
    10030    2    1    2    0    0  0.00000000000E+00  0.00000000000E+00 -0.16949259081E+03  0.14141117342E+04  0.14039174685E+04 0.  0.
        5    1    3    3  502    0  0.62450056467E+03 -0.22744319472E+03  0.14270885727E+03  0.67979354957E+03  0.46999998093E+01 0.  1.
       -5    1    3    3    0  502 -0.62450056467E+03  0.22744319472E+03 -0.31220144808E+03  0.73431818463E+03  0.46999998093E+01 0. -1.
</event>
<event>
 5   0  0.6671375E-05  0.1396452E+04  0.7818609E-02  0.8956391E-01
        1   -1    0    0  501    0  0.00000000000E+00  0.00000000000E+00  0.25524589812E+04  0.25524589812E+04  0.50400001928E-02 0. -1.
       -1   -1    0    0    0  501  0.00000000000E+00  0.00000000000E+00 -0.19099984228E+03  0.19099984234E+03  0.50400001928E-02 0.  1.
    10030    2    1    2    0    0  0.00000000000E+00  0.00000000000E+00  0.23614591390E+04  0.27434588236E+04  0.13964515931E+04 0.  0.
        5    1    3    3  502    0  0.83155022515E+02  0.68322145165E+03  0.14114405608E+04  0.15703161645E+04  0.46999998093E+01 0.  1.
       -5    1    3    3    0  502 -0.83155022515E+02 -0.68322145165E+03  0.95001857814E+03  0.11731426591E+04  0.46999998093E+01 0. -1.
</event>
<event>
 5   0  0.1780171E-04  0.1399240E+04  0.7818609E-02  0.8954369E-01
        2   -1    0    0  501    0  0.00000000000E+00  0.00000000000E+00  0.10143441685E+04  0.10143441685E+04  0.25500000920E-02 0.  1.
       -2   -1    0    0    0  501  0.00000000000E+00  0.00000000000E+00 -0.48254621320E+03  0.48254621320E+03  0.25500000920E-02 0. -1.
    10030    2    1    2    0    0  0.00000000000E+00  0.00000000000E+00  0.53179795525E+03  0.14968903817E+04  0.13992397041E+04 0.  0.
        5    1    3    3  502    0  0.97117376413E+01  0.54492593519E+03 -0.20335568802E+03  0.58173380385E+03  0.46999998093E+01 0. -1.
       -5    1    3    3    0  502 -0.97117376413E+01 -0.54492593519E+03  0.73515364328E+03  0.91515657781E+03  0.46999998093E+01 0.  1.
</event>
<event>
 5   0  0.1712327E-04  0.1402622E+04  0.7818609E-02  0.8951923E-01
        2   -1    0    0  501    0  0.00000000000E+00  0.00000000000E+00  0.15772365685E+04  0.15772365685E+04  0.25500000920E-02 0. -1.
       -2   -1    0    0    0  501  0.00000000000E+00  0.00000000000E+00 -0.31183451889E+03  0.31183451890E+03  0.25500000920E-02 0.  1.
    10030    2    1    2    0    0  0.00000000000E+00  0.00000000000E+00  0.12654020496E+04  0.18890710874E+04  0.14026215549E+04 0.  0.
        1    1    3    3  502    0  0.46746735370E+03 -0.44454686683E+03  0.26216994369E+03  0.69633377268E+03  0.50400001928E-02 0.  1.
       -1    1    3    3    0  502 -0.46746735370E+03  0.44454686683E+03  0.10032321059E+04  0.11927373147E+04  0.50400001928E-02 0. -1.
</event>
<event>
 5   0  0.1833681E-04  0.1398827E+04  0.7818609E-02  0.8954668E-01
       -2   -1    0    0    0  501  0.00000000000E+00  0.00000000000E+00  0.68059385488E+03  0.68059385488E+03  0.25500000920E-02 0.  1.
        2   -1    0    0  501    0  0.00000000000E+00  0.00000000000E+00 -0.71875376042E+03  0.71875376043E+03  0.25500000920E-02 0. -1.
    10030    2    1    2    0    0  0.00000000000E+00  0.00000000000E+00 -0.38159905545E+02  0.13993476153E+04  0.13988272124E+04 0.  0.
        4    1    3    3  502    0 -0.54159712799E+03 -0.11885784936E+03 -0.44552851893E+03  0.71130296743E+03  0.12699999809E+01 0. -1.
       -4    1    3    3    0  502  0.54159712799E+03  0.11885784936E+03  0.40736861338E+03  0.68804464788E+03  0.12699999809E+01 0.  1.
</event>
<event>
 5   0  0.9900839E-05  0.1401274E+04  0.7818609E-02  0.8952897E-01
        1   -1    0    0  501    0  0.00000000000E+00  0.00000000000E+00  0.87643303432E+03  0.87643303434E+03  0.50400001928E-02 0.  1.
       -1   -1    0    0    0  501  0.00000000000E+00  0.00000000000E+00 -0.56010195862E+03  0.56010195864E+03  0.50400001928E-02 0. -1.
    10030    2    1    2    0    0  0.00000000000E+00  0.00000000000E+00  0.31633107570E+03  0.14365349930E+04  0.14012735053E+04 0.  0.
        3    1    3    3  502    0 -0.61626007053E+03 -0.15471646574E+03 -0.14452386880E+03  0.65161401010E+03  0.10100000352E+00 0. -1.
       -3    1    3    3    0  502  0.61626007053E+03  0.15471646574E+03  0.46085494450E+03  0.78492098288E+03  0.10100000352E+00 0.  1.
</event>
<event>
 5   0  0.9828111E-05  0.1400611E+04  0.7818609E-02  0.8953377E-01
       -1   -1    0    0    0  501  0.00000000000E+00  0.00000000000E+00  0.18032584264E+04  0.18032584264E+04  0.50400001928E-02 0. -1.
        1   -1    0    0  501    0  0.00000000000E+00  0.00000000000E+00 -0.27196741283E+03  0.27196741288E+03  0.50400001928E-02 0.  1.
    10030    2    1    2    0    0  0.00000000000E+00  0.00000000000E+00  0.15312910136E+04  0.20752258393E+04  0.14006106225E+04 0.  0.
        4    1    3    3  502    0 -0.33660340529E+03  0.20278874901E+03 -0.93206031286E+02  0.40387387431E+03  0.12699999809E+01 0.  1.
       -4    1    3    3    0  502  0.33660340529E+03 -0.20278874901E+03  0.16244970448E+04  0.16713519650E+04  0.12699999809E+01 0. -1.
</event>
<event>
 5   0  0.1712327E-04  0.1392605E+04  0.7818609E-02  0.8959189E-01
        2   -1    0    0  501    0  0.00000000000E+00  0.00000000000E+00  0.18225057166E+04  0.18225057166E+04  0.25500000920E-02 0. -1.
       -2   -1    0    0    0  501  0.00000000000E+00  0.00000000000E+00 -0.26602797631E+03  0.26602797632E+03  0.25500000920E-02 0.  1.
    10030    2    1    2    0    0  0.00000000000E+00  0.00000000000E+00  0.15564777403E+04  0.20885336929E+04  0.13926054827E+04 0.  0.
        1    1    3    3  502    0 -0.59414416170E+01 -0.49772097708E+03  0.48013002250E+02  0.50006671571E+03  0.50400001928E-02 0.  1.
       -1    1    3    3    0  502  0.59414416170E+01  0.49772097708E+03  0.15084647380E+04  0.15884669772E+04  0.50400001928E-02 0. -1.
</event>
<event>
 5   0  0.9260916E-05  0.1374594E+04  0.7818609E-02  0.8972417E-01
        1   -1    0    0  501    0  0.00000000000E+00  0.00000000000E+00  0.80017796593E+03  0.80017796594E+03  0.50400001928E-02 0.  1.
       -1   -1    0    0    0  501  0.00000000000E+00  0.00000000000E+00 -0.59034020927E+03  0.59034020929E+03  0.50400001928E-02 0. -1.
    10030    2    1    2    0    0  0.00000000000E+00  0.00000000000E+00  0.20983775666E+03  0.13905181752E+04  0.13745940897E+04 0.  0.
        1    1    3    3  502    0 -0.24380713332E+03  0.62528100795E+03 -0.44983383941E+02  0.67263791301E+03  0.50400001928E-02 0.  1.
       -1    1    3    3    0  502  0.24380713332E+03 -0.62528100795E+03  0.25482114060E+03  0.71788026222E+03  0.50400001928E-02 0. -1.
</event>
<event>
 5   0  0.1833681E-04  0.1400109E+04  0.7818609E-02  0.8953740E-01
        2   -1    0    0  501    0  0.00000000000E+00  0.00000000000E+00  0.10778218859E+04  0.10778218859E+04  0.25500000920E-02 0.  1.
       -2   -1    0    0    0  501  0.00000000000E+00  0.00000000000E+00 -0.45469127004E+03  0.45469127005E+03  0.25500000920E-02 0. -1.
    10030    2    1    2    0    0  0.00000000000E+00  0.00000000000E+00  0.62313061586E+03  0.15325131560E+04  0.14001088560E+04 0.  0.
        4    1    3    3  502    0  0.44868341397E+03 -0.53614714638E+03  0.27203914476E+03  0.75018496234E+03  0.12699999809E+01 0.  1.
       -4    1    3    3    0  502 -0.44868341397E+03  0.53614714638E+03  0.35109147110E+03  0.78232819362E+03  0.12699999809E+01 0. -1.
</event>
<event>
 5   0  0.1780171E-04  0.1400376E+04  0.7818609E-02  0.8953546E-01
        2   -1    0    0  501    0  0.00000000000E+00  0.00000000000E+00  0.83493612857E+03  0.83493612857E+03  0.25500000920E-02 0.  1.
       -2   -1    0    0    0  501  0.00000000000E+00  0.00000000000E+00 -0.58718666632E+03  0.58718666632E+03  0.25500000920E-02 0. -1.
    10030    2    1    2    0    0  0.00000000000E+00  0.00000000000E+00  0.24774946225E+03  0.14221227949E+04  0.14003761808E+04 0.  0.
        5    1    3    3  502    0 -0.65666360998E+03  0.51744042783E+02  0.36495700152E+03  0.75306058561E+03  0.46999998093E+01 0. -1.
       -5    1    3    3    0  502  0.65666360998E+03 -0.51744042783E+02 -0.11720753927E+03  0.66906220929E+03  0.46999998093E+01 0.  1.
</event>
<event>
 5   0  0.1780171E-04  0.1401981E+04  0.7818609E-02  0.8952386E-01
        2   -1    0    0  501    0  0.00000000000E+00  0.00000000000E+00  0.73681627290E+03  0.73681627290E+03  0.25500000920E-02 0.  1.
       -2   -1    0    0    0  501  0.00000000000E+00  0.00000000000E+00 -0.66690645449E+03  0.66690645449E+03  0.25500000920E-02 0. -1.
    10030    2    1    2    0    0  0.00000000000E+00  0.00000000000E+00  0.69909818412E+02  0.14037227274E+04  0.14019807819E+04 0.  0.
        5    1    3    3  502    0 -0.52910117360E+02 -0.18795309182E+03  0.70902210389E+03  0.73543203564E+03  0.46999998093E+01 0.  1.
       -5    1    3    3    0  502  0.52910117360E+02  0.18795309182E+03 -0.63911228548E+03  0.66829069176E+03  0.46999998093E+01 0. -1.
</event>
<event>
 5   0  0.9828111E-05  0.1399877E+04  0.7818609E-02  0.8953908E-01
        1   -1    0    0  501    0  0.00000000000E+00  0.00000000000E+00  0.58686481194E+03  0.58686481196E+03  0.50400001928E-02 0.  1.
       -1   -1    0    0    0  501  0.00000000000E+00  0.00000000000E+00 -0.83479862492E+03  0.83479862493E+03  0.50400001928E-02 0. -1.
    10030    2    1    2    0    0  0.00000000000E+00  0.00000000000E+00 -0.24793381298E+03  0.14216634369E+04  0.13998770489E+04 0.  0.
        4    1    3    3  502    0 -0.17104397422E+03  0.83583854441E+00  0.56531213202E+03  0.59062353429E+03  0.12699999809E+01 0.  1.
       -4    1    3    3    0  502  0.17104397422E+03 -0.83583854441E+00 -0.81324594500E+03  0.83103990260E+03  0.12699999809E+01 0. -1.
</event>
<event>
 5   0  0.9828111E-05  0.1398788E+04  0.7818609E-02  0.8954696E-01
        1   -1    0    0  501    0  0.00000000000E+00  0.00000000000E+00  0.76181793042E+03  0.76181793044E+03  0.50400001928E-02 0. -1.
       -1   -1    0    0    0  501  0.00000000000E+00  0.00000000000E+00 -0.64208539728E+03  0.64208539730E+03  0.50400001928E-02 0.  1.
    10030    2    1    2    0    0  0.00000000000E+00  0.00000000000E+00  0.11973253315E+03  0.14039033277E+04  0.13987882878E+04 0.  0.
        4    1    3    3  502    0  0.59776517608E+03  0.15311770847E+03  0.39028482513E+03  0.73013156075E+03  0.12699999809E+01 0. -1.
       -4    1    3    3    0  502 -0.59776517608E+03 -0.15311770847E+03 -0.27055229198E+03  0.67377176698E+03  0.12699999809E+01 0.  1.
</event>
<event>
 5   0  0.6671375E-05  0.1399212E+04  0.7818609E-02  0.8954389E-01
        1   -1    0    0  501    0  0.00000000000E+00  0.00000000000E+00  0.74621293874E+03  0.74621293876E+03  0.50400001928E-02 0. -1.
       -1   -1    0    0    0  501  0.00000000000E+00  0.00000000000E+00 -0.65590974107E+03  0.65590974109E+03  0.50400001928E-02 0.  1.
    10030    2    1    2    0    0  0.00000000000E+00  0.00000000000E+00  0.90303197674E+02  0.14021226798E+04  0.13992116859E+04 0.  0.
        5    1    3    3  502    0  0.62740982713E+02 -0.67356554981E+02 -0.64979889615E+03  0.65630330782E+03  0.46999998093E+01 0.  1.
       -5    1    3    3    0  502 -0.62740982713E+02  0.67356554981E+02  0.74010209383E+03  0.74581937203E+03  0.46999998093E+01 0. -1.
</event>
<event>
 5   0  0.9260916E-05  0.1399222E+04  0.7818609E-02  0.8954382E-01
       -1   -1    0    0    0  501  0.00000000000E+00  0.00000000000E+00  0.24238580629E+03  0.24238580634E+03  0.50400001928E-02 0.  1.
        1   -1    0    0  501    0  0.00000000000E+00  0.00000000000E+00 -0.20193237993E+04  0.20193237993E+04  0.50400001928E-02 0. -1.
    10030    2    1    2    0    0  0.00000000000E+00  0.00000000000E+00 -0.17769379930E+04  0.22617096056E+04  0.13992218227E+04 0.  0.
        1    1    3    3  502    0  0.51973220957E+03  0.32935669962E+03 -0.35028121300E+03  0.70802142161E+03  0.50400001928E-02 0.  1.
       -1    1    3    3    0  502 -0.51973220957E+03 -0.32935669962E+03 -0.14266567800E+04  0.15536881840E+04  0.50400001928E-02 0. -1.
</event>
<event>
 5   0  0.1780171E-04  0.1404028E+04  0.7818609E-02  0.8950908E-01
        2   -1    0    0  501    0  0.00000000000E+00  0.00000000000E+00  0.11650322152E+04  0.11650322152E+04  0.25500000920E-02 0. -1.
       -2   -1    0    0    0  501  0.00000000000E+00  0.00000000000E+00 -0.42301295612E+03  0.42301295613E+03  0.25500000920E-02 0.  1.
    10030    2    1    2    0    0  0.00000000000E+00  0.00000000000E+00  0.74201925907E+03  0.15880451713E+04  0.14040280928E+04 0.  0.
        5    1    3    3  502    0 -0.12441024059E+03 -0.48387597469E+03  0.92878317749E+03  0.10546440858E+04  0.46999998093E+01 0. -1.
       -5    1    3    3    0  502  0.12441024059E+03  0.48387597469E+03 -0.18676391843E+03  0.53340108556E+03  0.46999998093E+01 0.  1.
</event>
<event>
 5   0  0.1712327E-04  0.1400798E+04  0.7818609E-02  0.8953241E-01
        2   -1    0    0  501    0  0.00000000000E+00  0.00000000000E+00  0.98160270361E+03  0.98160270361E+03  0.25500000920E-02 0. -1.
       -2   -1    0    0    0  501  0.00000000000E+00  0.00000000000E+00 -0.49975256666E+03  0.49975256667E+03  0.25500000920E-02 0.  1.
    10030    2    1    2    0    0  0.00000000000E+00  0.00000000000E+00  0.48185013695E+03  0.14813552703E+04  0.14007975879E+04 0.  0.
        1    1    3    3  502    0  0.11959419208E+02 -0.69605438469E+03  0.15953307150E+03  0.71420272687E+03  0.50400001928E-02 0. -1.
       -1    1    3    3    0  502 -0.11959419208E+02  0.69605438469E+03  0.32231706545E+03  0.76715254341E+03  0.50400001928E-02 0.  1.
</event>
<event>
 5   0  0.1712327E-04  0.1398740E+04  0.7818609E-02  0.8954731E-01
        2   -1    0    0  501    0  0.00000000000E+00  0.00000000000E+00  0.80651332281E+03  0.80651332282E+03  0.25500000920E-02 0.  1.
       -2   -1    0    0    0  501  0.00000000000E+00  0.00000000000E+00 -0.60646042226E+03  0.60646042227E+03  0.25500000920E-02 0. -1.
    10030    2    1    2    0    0  0.00000000000E+00  0.00000000000E+00  0.20005290055E+03  0.14129737451E+04  0.13987400192E+04 0.  0.
        1    1    3    3  502    0 -0.14088552704E+03 -0.61414399497E+03 -0.20653633786E+03  0.66308282828E+03  0.50400001928E-02 0. -1.
       -1    1    3    3    0  502  0.14088552704E+03  0.61414399497E+03  0.40658923842E+03  0.74989091680E+03  0.50400001928E-02 0.  1.
</event>
<event>
 5   0  0.1712327E-04  0.1400616E+04  0.7818609E-02  0.8953373E-01
        2   -1    0    0  501    0  0.00000000000E+00  0.00000000000E+00  0.16133363382E+04  0.16133363382E+04  0.25500000920E-02 0. -1.
       -2   -1    0    0    0  501  0.00000000000E+00  0.00000000000E+00 -0.30398572851E+03  0.30398572852E+03  0.25500000920E-02 0.  1.
    10030    2    1    2    0    0  0.00000000000E+00  0.00000000000E+00  0.13093506096E+04  0.19173220667E+04  0.14006158961E+04 0.  0.
        1    1    3    3  502    0  0.34746905499E+03 -0.18329787196E+02  0.14866329988E+04  0.15268098763E+04  0.50400001928E-02 0. -1.
       -1    1    3    3    0  502 -0.34746905499E+03  0.18329787196E+02 -0.17728238917E+03  0.39051219034E+03  0.50400001928E-02 0.  1.
</event>
<event>
 5   0  0.9978422E-05  0.1400351E+04  0.7818609E-02  0.8953564E-01
        1   -1    0    0  501    0  0.00000000000E+00  0.00000000000E+00  0.13863822252E+04  0.13863822253E+04  0.50400001928E-02 0. -1.
       -1   -1    0    0    0  501  0.00000000000E+00  0.00000000000E+00 -0.35361527980E+03  0.35361527984E+03  0.50400001928E-02 0.  1.
    10030    2    1    2    0    0  0.00000000000E+00  0.00000000000E+00  0.10327669454E+04  0.17399975051E+04  0.14003512967E+04 0.  0.
        2    1    3    3  502    0 -0.63804210509E+03  0.15503126020E+03  0.21428047516E+03  0.69068700693E+03  0.25500000920E-02 0.  1.
       -2    1    3    3    0  502  0.63804210509E+03 -0.15503126020E+03  0.81848647028E+03  0.10493104982E+04  0.25500000920E-02 0. -1.
</event>
<event>
 5   0  0.6671375E-05  0.1379030E+04  0.7818609E-02  0.8969139E-01
        1   -1    0    0  501    0  0.00000000000E+00  0.00000000000E+00  0.61215839015E+03  0.61215839017E+03  0.50400001928E-02 0. -1.
       -1   -1    0    0    0  501  0.00000000000E+00  0.00000000000E+00 -0.77664663277E+03  0.77664663279E+03  0.50400001928E-02 0.  1.
    10030    2    1    2    0    0  0.00000000000E+00  0.00000000000E+00 -0.16448824262E+03  0.13888050230E+04  0.13790297349E+04 0.  0.
        5    1    3    3  502    0 -0.28649447698E+03 -0.36490327521E+03  0.43144524680E+03  0.63356181749E+03  0.46999998093E+01 0. -1.
       -5    1    3    3    0  502  0.28649447698E+03  0.36490327521E+03 -0.59593348942E+03  0.75524320547E+03  0.46999998093E+01 0.  1.
</event>
<event>
 5   0  0.1780171E-04  0.1400005E+04  0.7818609E-02  0.8953815E-01
        2   -1    0    0  501    0  0.00000000000E+00  0.00000000000E+00  0.69934179657E+03  0.69934179657E+03  0.25500000920E-02 0. -1.
       -2   -1    0    0    0  501  0.00000000000E+00  0.00000000000E+00 -0.70066392389E+03  0.70066392389E+03  0.25500000920E-02 0.  1.
    10030    2    1    2    0    0  0.00000000000E+00  0.00000000000E+00 -0.13221273228E+01  0.14000057205E+04  0.14000050962E+04 0.  0.
        5    1    3    3  502    0 -0.63103458101E+03  0.22081274967E+03 -0.20807032780E+03  0.70019873190E+03  0.46999998093E+01 0.  1.
       -5    1    3    3    0  502  0.63103458101E+03 -0.22081274967E+03  0.20674820048E+03  0.69980698857E+03  0.46999998093E+01 0. -1.
</event>
<event>
 5   0  0.9828111E-05  0.1400940E+04  0.7818609E-02  0.8953138E-01
        1   -1    0    0  501    0  0.00000000000E+00  0.00000000000E+00  0.14278170270E+04  0.14278170271E+04  0.50400001928E-02 0. -1.
       -1   -1    0    0    0  501  0.00000000000E+00  0.00000000000E+00 -0.34364235269E+03  0.34364235273E+03  0.50400001928E-02 0.  1.
    10030    2    1    2    0    0  0.00000000000E+00  0.00000000000E+00  0.10841746744E+04  0.17714593798E+04  0.14009402592E+04 0.  0.
        4    1    3    3  502    0 -0.12179895870E+03 -0.67184455575E+03  0.73979416560E+03  0.10067309044E+04  0.12699999809E+01 0. -1.
       -4    1    3    3    0  502  0.12179895870E+03  0.67184455575E+03  0.34438050875E+03  0.76472847543E+03  0.12699999809E+01 0.  1.
</event>
<event>
 5   0  0.1794185E-04  0.1356414E+04  0.7818609E-02  0.8985987E-01
       -2   -1    0    0    0  501  0.00000000000E+00  0.00000000000E+00  0.57572201662E+03  0.57572201663E+03  0.25500000920E-02 0. -1.
        2   -1    0    0  501    0  0.00000000000E+00  0.00000000000E+00 -0.79893576314E+03  0.79893576314E+03  0.25500000920E-02 0.  1.
    10030    2    1    2    0    0  0.00000000000E+00  0.00000000000E+00 -0.22321374652E+03  0.13746577798E+04  0.13564142564E+04 0.  0.
        2    1    3    3  502    0  0.30535552275E+03  0.26109313981E+03 -0.66535615535E+03  0.77724541581E+03  0.25500000920E-02 0.  1.
       -2    1    3    3    0  502 -0.30535552275E+03 -0.26109313981E+03  0.44214240883E+03  0.59741236397E+03  0.25500000920E-02 0. -1.
</event>
<event>
 5   0  0.9260916E-05  0.1399953E+04  0.7818609E-02  0.8953853E-01
        1   -1    0    0  501    0  0.00000000000E+00  0.00000000000E+00  0.49897435956E+03  0.49897435958E+03  0.50400001928E-02 0. -1.
       -1   -1    0    0    0  501  0.00000000000E+00  0.00000000000E+00 -0.98194836832E+03  0.98194836833E+03  0.50400001928E-02 0.  1.
    10030    2    1    2    0    0  0.00000000000E+00  0.00000000000E+00 -0.48297400876E+03  0.14809227279E+04  0.13999529395E+04 0.  0.
        1    1    3    3  502    0  0.70144016751E+02  0.68998654992E+03 -0.34164939231E+03  0.77312736949E+03  0.50400001928E-02 0. -1.
       -1    1    3    3    0  502 -0.70144016751E+02 -0.68998654992E+03 -0.14132461645E+03  0.70779535842E+03  0.50400001928E-02 0.  1.
</event>
<event>
 5   0  0.1766237E-04  0.1401909E+04  0.7818609E-02  0.8952438E-01
       -2   -1    0    0    0  501  0.00000000000E+00  0.00000000000E+00  0.31988172605E+03  0.31988172606E+03  0.25500000920E-02 0.  1.
        2   -1    0    0  501    0  0.00000000000E+00  0.00000000000E+00 -0.15359965429E+04  0.15359965429E+04  0.25500000920E-02 0. -1.
    10030    2    1    2    0    0  0.00000000000E+00  0.00000000000E+00 -0.12161148168E+04  0.18558782689E+04  0.14019090204E+04 0.  0.
        3    1    3    3  502    0  0.66596975779E+02  0.95032824220E+02 -0.15231918753E+04  0.15276059355E+04  0.10100000352E+00 0. -1.
       -3    1    3    3    0  502 -0.66596975779E+02 -0.95032824220E+02  0.30707705849E+03  0.32827233346E+03  0.10100000352E+00 0.  1.
</event>
<event>
 5   0  0.1780171E-04  0.1395234E+04  0.7818609E-02  0.8957276E-01
       -2   -1    0    0    0  501  0.00000000000E+00  0.00000000000E+00  0.58195372975E+03  0.58195372975E+03  0.25500000920E-02 0. -1.
        2   -1    0    0  501    0  0.00000000000E+00  0.00000000000E+00 -0.83626845048E+03  0.83626845049E+03  0.25500000920E-02 0.  1.
    10030    2    1    2    0    0  0.00000000000E+00  0.00000000000E+00 -0.25431472074E+03  0.14182221802E+04  0.13952340934E+04 0.  0.
        5    1    3    3  502    0  0.13894184516E+03 -0.24409673698E+03 -0.77623879038E+03  0.82550396911E+03  0.46999998093E+01 0.  1.
       -5    1    3    3    0  502 -0.13894184516E+03  0.24409673698E+03  0.52192406964E+03  0.59271821113E+03  0.46999998093E+01 0. -1.
</event>
<event>
 5   0  0.9260916E-05  0.1400759E+04  0.7818609E-02  0.8953270E-01
        1   -1    0    0  501    0  0.00000000000E+00  0.00000000000E+00  0.10590564780E+04  0.10590564780E+04  0.50400001928E-02 0.  1.
       -1   -1    0    0    0  501  0.00000000000E+00  0.00000000000E+00 -0.46317760385E+03  0.46317760388E+03  0.50400001928E-02 0. -1.
    10030    2    1    2    0    0  0.00000000000E+00  0.00000000000E+00  0.59587887411E+03  0.15222340819E+04  0.14007587113E+04 0.  0.
        1    1    3    3  502    0  0.23000149148E+03 -0.50740294946E+02  0.10147273605E+04  0.10417038350E+04  0.50400001928E-02 0.  1.
       -1    1    3    3    0  502 -0.23000149148E+03  0.50740294946E+02 -0.41884848638E+03  0.48053024690E+03  0.50400001928E-02 0. -1.
</event>
<event>
 5   0  0.9828111E-05  0.1399375E+04  0.7818609E-02  0.8954271E-01
       -1   -1    0    0    0  501  0.00000000000E+00  0.00000000000E+00  0.30821170544E+03  0.30821170548E+03  0.50400001928E-02 0.  1.
        1   -1    0    0  501    0  0.00000000000E+00  0.00000000000E+00 -0.15883966125E+04  0.15883966125E+04  0.50400001928E-02 0. -1.
    10030    2    1    2    0    0  0.00000000000E+00  0.00000000000E+00 -0.12801849071E+04  0.18966083180E+04  0.13993747588E+04 0.  0.
        4    1    3    3  502    0  0.51555595319E+03  0.20332934230E+03 -0.61223970820E+02  0.55757577944E+03  0.12699999809E+01 0.  1.
       -4    1    3    3    0  502 -0.51555595319E+03 -0.20332934230E+03 -0.12189609363E+04  0.13390325386E+04  0.12699999809E+01 0. -1.
</event>
<event>
 5   0  0.6671375E-05  0.1399383E+04  0.7818609E-02  0.8954265E-01
       -1   -1    0    0    0  501  0.00000000000E+00  0.00000000000E+00  0.52786864273E+03  0.52786864276E+03  0.50400001928E-02 0.  1.
        1   -1    0    0  501    0  0.00000000000E+00  0.00000000000E+00 -0.92744333975E+03  0.92744333976E+03  0.50400001928E-02 0. -1.
    10030    2    1    2    0    0  0.00000000000E+00  0.00000000000E+00 -0.39957469702E+03  0.14553119825E+04  0.13993830884E+04 0.  0.
        5    1    3    3  502    0  0.16016927448E+03 -0.40336645512E+02 -0.90686149067E+03  0.92179232733E+03  0.46999998093E+01 0. -1.
       -5    1    3    3    0  502 -0.16016927448E+03  0.40336645512E+02  0.50728679366E+03  0.53351965519E+03  0.46999998093E+01 0.  1.
</event>
<event>
 5   0  0.6671375E-05  0.1399064E+04  0.7818609E-02  0.8954497E-01
        1   -1    0    0  501    0  0.00000000000E+00  0.00000000000E+00  0.54720290781E+03  0.54720290783E+03  0.50400001928E-02 0. -1.
       -1   -1    0    0    0  501  0.00000000000E+00  0.00000000000E+00 -0.89426557940E+03  0.89426557942E+03  0.50400001928E-02 0.  1.
    10030    2    1    2    0    0  0.00000000000E+00  0.00000000000E+00 -0.34706267159E+03  0.14414684872E+04  0.13990635803E+04 0.  0.
        5    1    3    3  502    0  0.12778342959E+03 -0.39398420436E+03 -0.75432848258E+03  0.86057289511E+03  0.46999998093E+01 0.  1.
       -5    1    3    3    0  502 -0.12778342959E+03  0.39398420436E+03  0.40726581099E+03  0.58089559214E+03  0.46999998093E+01 0. -1.
</event>
<event>
 5   0  0.1780171E-04  0.1398192E+04  0.7818609E-02  0.8955128E-01
        2   -1    0    0  501    0  0.00000000000E+00  0.00000000000E+00  0.47268334659E+03  0.47268334659E+03  0.25500000920E-02 0.  1.
       -2   -1    0    0    0  501  0.00000000000E+00  0.00000000000E+00 -0.10339588500E+04  0.10339588500E+04  0.25500000920E-02 0. -1.
    10030    2    1    2    0    0  0.00000000000E+00  0.00000000000E+00 -0.56127550342E+03  0.15066421966E+04  0.13981918745E+04 0.  0.
        5    1    3    3  502    0  0.39232596992E+03  0.54114047684E+03 -0.59906950087E+02  0.67109136115E+03  0.46999998093E+01 0.  1.
       -5    1    3    3    0  502 -0.39232596992E+03 -0.54114047684E+03 -0.50136855333E+03  0.83555083545E+03  0.46999998093E+01 0. -1.
</event>
<event>
 5   0  0.1780171E-04  0.1395588E+04  0.7818609E-02  0.8957019E-01
        2   -1    0    0  501    0  0.00000000000E+00  0.00000000000E+00  0.14856609244E+04  0.14856609244E+04  0.25500000920E-02 0. -1.
       -2   -1    0    0    0  501  0.00000000000E+00  0.00000000000E+00 -0.32774388031E+03  0.32774388032E+03  0.25500000920E-02 0.  1.
    10030    2    1    2    0    0  0.00000000000E+00  0.00000000000E+00  0.11579170441E+04  0.18134048047E+04  0.13955877274E+04 0.  0.
        5    1    3    3  502    0 -0.48857638353E+03  0.22223146015E+03 -0.39858208693E+00  0.53676433683E+03  0.46999998093E+01 0.  1.
       -5    1    3    3    0  502  0.48857638353E+03 -0.22223146015E+03  0.11583156262E+04  0.12766404679E+04  0.46999998093E+01 0. -1.
</event>
<event>
 5   0  0.1766237E-04  0.1400045E+04  0.7818609E-02  0.8953786E-01
        2   -1    0    0  501    0  0.00000000000E+00  0.00000000000E+00  0.11806174815E+04  0.11806174815E+04  0.25500000920E-02 0. -1.
       -2   -1    0    0    0  501  0.00000000000E+00  0.00000000000E+00 -0.41506387748E+03  0.41506387749E+03  0.25500000920E-02 0.  1.
    10030    2    1    2    0    0  0.00000000000E+00  0.00000000000E+00  0.76555360403E+03  0.15956813590E+04  0.14000452417E+04 0.  0.
        3    1    3    3  502    0 -0.11190900482E+03 -0.57769847176E+03 -0.49380672505E+02  0.59050623252E+03  0.10100000352E+00 0.  1.
       -3    1    3    3    0  502  0.11190900482E+03  0.57769847176E+03  0.81493427653E+03  0.10051751265E+04  0.10100000352E+00 0. -1.
</event>
<event>
 5   0  0.1780171E-04  0.1399371E+04  0.7818609E-02  0.8954274E-01
       -2   -1    0    0    0  501  0.00000000000E+00  0.00000000000E+00  0.88877404186E+03  0.88877404186E+03  0.25500000920E-02 0. -1.
        2   -1    0    0  501    0  0.00000000000E+00  0.00000000000E+00 -0.55082556439E+03  0.55082556439E+03  0.25500000920E-02 0.  1.
    10030    2    1    2    0    0  0.00000000000E+00  0.00000000000E+00  0.33794847748E+03  0.14395996063E+04  0.13993705202E+04 0.  0.
        5    1    3    3  502    0  0.40536315112E+03 -0.53173819734E+03  0.38098763939E+03  0.76957031268E+03  0.46999998093E+01 0. -1.
       -5    1    3    3    0  502 -0.40536315112E+03  0.53173819734E+03 -0.43039161911E+02  0.67002929358E+03  0.46999998093E+01 0.  1.
</event>
<event>
 5   0  0.9978422E-05  0.1398211E+04  0.7818609E-02  0.8955115E-01
       -1   -1    0    0    0  501  0.00000000000E+00  0.00000000000E+00  0.44600504937E+03  0.44600504940E+03  0.50400001928E-02 0.  1.
        1   -1    0    0  501    0  0.00000000000E+00  0.00000000000E+00 -0.10958359437E+04  0.10958359438E+04  0.50400001928E-02 0. -1.
    10030    2    1    2    0    0  0.00000000000E+00  0.00000000000E+00 -0.64983089437E+03  0.15418409932E+04  0.13982108056E+04 0.  0.
        2    1    3    3  502    0 -0.65405678741E+03 -0.20013227273E+03 -0.48435411072E+03  0.83811819711E+03  0.25500000920E-02 0. -1.
       -2    1    3    3    0  502  0.65405678741E+03  0.20013227273E+03 -0.16547678365E+03  0.70372279605E+03  0.25500000920E-02 0.  1.
</event>
<event>
 5   0  0.1766237E-04  0.1398647E+04  0.7818609E-02  0.8954799E-01
        2   -1    0    0  501    0  0.00000000000E+00  0.00000000000E+00  0.48604156705E+03  0.48604156706E+03  0.25500000920E-02 0.  1.
       -2   -1    0    0    0  501  0.00000000000E+00  0.00000000000E+00 -0.10061961567E+04  0.10061961567E+04  0.25500000920E-02 0. -1.
    10030    2    1    2    0    0  0.00000000000E+00  0.00000000000E+00 -0.52015458967E+03  0.14922377238E+04  0.13986467128E+04 0.  0.
        3    1    3    3  502    0 -0.27498654159E+03  0.13539128118E+02 -0.94594064145E+03  0.98519267831E+03  0.10100000352E+00 0. -1.
       -3    1    3    3    0  502  0.27498654159E+03 -0.13539128118E+02  0.42578605178E+03  0.50704504547E+03  0.10100000352E+00 0.  1.
</event>
<event>
 5   0  0.1833681E-04  0.1399899E+04  0.7818609E-02  0.8953892E-01
       -2   -1    0    0    0  501  0.00000000000E+00  0.00000000000E+00  0.38176242252E+03  0.38176242253E+03  0.25500000920E-02 0. -1.
        2   -1    0    0  501    0  0.00000000000E+00  0.00000000000E+00 -0.12833359495E+04  0.12833359495E+04  0.25500000920E-02 0.  1.
    10030    2    1    2    0    0  0.00000000000E+00  0.00000000000E+00 -0.90157352701E+03  0.16650983721E+04  0.13998991978E+04 0.  0.
        4    1    3    3  502    0  0.48425538408E+03 -0.46411147525E+03 -0.68874968282E+03  0.96139506809E+03  0.12699999809E+01 0.  1.
       -4    1    3    3    0  502 -0.48425538408E+03  0.46411147525E+03 -0.21282384418E+03  0.70370330397E+03  0.12699999809E+01 0. -1.
</event>
<event>
 5   0  0.1766237E-04  0.1387692E+04  0.7818609E-02  0.8962776E-01
       -2   -1    0    0    0  501  0.00000000000E+00  0.00000000000E+00  0.87535195687E+03  0.87535195687E+03  0.25500000920E-02 0.  1.
        2   -1    0    0  501    0  0.00000000000E+00  0.00000000000E+00 -0.54997534427E+03  0.54997534427E+03  0.25500000920E-02 0. -1.
    10030    2    1    2    0    0  0.00000000000E+00  0.00000000000E+00  0.32537661260E+03  0.14253273011E+04  0.13876915995E+04 0.  0.
        3    1    3    3  502    0 -0.51170689920E+02  0.46986081032E+02  0.87177081706E+03  0.87453444700E+03  0.10100000352E+00 0.  1.
       -3    1    3    3    0  502  0.51170689920E+02 -0.46986081032E+02 -0.54639420445E+03  0.55079285415E+03  0.10100000352E+00 0. -1.
</event>
<event>
 5   0  0.9978422E-05  0.1401098E+04  0.7818609E-02  0.8953024E-01
       -1   -1    0    0    0  501  0.00000000000E+00  0.00000000000E+00  0.69348267827E+03  0.69348267829E+03  0.50400001928E-02 0.  1.
        1   -1    0    0  501    0  0.00000000000E+00  0.00000000000E+00 -0.70768742983E+03  0.70768742984E+03  0.50400001928E-02 0. -1.
    10030    2    1    2    0    0  0.00000000000E+00  0.00000000000E+00 -0.14204751558E+02  0.14011701081E+04  0.14010981040E+04 0.  0.
        2    1    3    3  502    0 -0.58224598859E+03  0.25977745490E+03 -0.29741758218E+03  0.70352820519E+03  0.25500000920E-02 0. -1.
       -2    1    3    3    0  502  0.58224598859E+03 -0.25977745490E+03  0.28321283062E+03  0.69764190294E+03  0.25500000920E-02 0.  1.
</event>
<event>
 5   0  0.1794185E-04  0.1401126E+04  0.7818609E-02  0.8953004E-01
        2   -1    0    0  501    0  0.00000000000E+00  0.00000000000E+00  0.14519693534E+04  0.14519693534E+04  0.25500000920E-02 0. -1.
       -2   -1    0    0    0  501  0.00000000000E+00  0.00000000000E+00 -0.33801599252E+03  0.33801599253E+03  0.25500000920E-02 0.  1.
    10030    2    1    2    0    0  0.00000000000E+00  0.00000000000E+00  0.11139533609E+04  0.17899853459E+04  0.14011264927E+04 0.  0.
        2    1    3    3  502    0  0.26131631867E+01  0.65699584256E+03  0.86765236909E+03  0.10883340477E+04  0.25500000920E-02 0. -1.
       -2    1    3    3    0  502 -0.26131631867E+01 -0.65699584256E+03  0.24630099179E+03  0.70165129825E+03  0.25500000920E-02 0.  1.
</event>
<event>
 5   0  0.9828111E-05  0.1400223E+04  0.7818609E-02  0.8953657E-01
       -1   -1    0    0    0  501  0.00000000000E+00  0.00000000000E+00  0.49611878449E+03  0.49611878452E+03  0.50400001928E-02 0. -1.
        1   -1    0    0  501    0  0.00000000000E+00  0.00000000000E+00 -0.98798156399E+03  0.98798156400E+03  0.50400001928E-02 0.  1.
    10030    2    1    2    0    0  0.00000000000E+00  0.00000000000E+00 -0.49186277950E+03  0.14841003485E+04  0.14002231432E+04 0.  0.
        4    1    3    3  502    0 -0.18620964898E+03 -0.83503284083E+02  0.46389313478E+03  0.50679905803E+03  0.12699999809E+01 0. -1.
       -4    1    3    3    0  502  0.18620964898E+03  0.83503284083E+02 -0.95575591427E+03  0.97730129049E+03  0.12699999809E+01 0.  1.
</event>
<event>
 5   0  0.9828111E-05  0.1396604E+04  0.7818609E-02  0.8956280E-01
        1   -1    0    0  501    0  0.00000000000E+00  0.00000000000E+00  0.15325941482E+04  0.15325941482E+04  0.50400001928E-02 0.  1.
       -1   -1    0    0    0  501  0.00000000000E+00  0.00000000000E+00 -0.31817021776E+03  0.31817021780E+03  0.50400001928E-02 0. -1.
    10030    2    1    2    0    0  0.00000000000E+00  0.00000000000E+00  0.12144239304E+04  0.18507643660E+04  0.13966041872E+04 0.  0.
        4    1    3    3  502    0 -0.21404950183E+03 -0.35557885373E+03  0.13514098887E+04  0.14137057016E+04  0.12699999809E+01 0.  1.
       -4    1    3    3    0  502  0.21404950183E+03  0.35557885373E+03 -0.13698595832E+03  0.43705866440E+03  0.12699999809E+01 0. -1.
</event>
<event>
 5   0  0.1833681E-04  0.1399230E+04  0.7818609E-02  0.8954376E-01
        2   -1    0    0  501    0  0.00000000000E+00  0.00000000000E+00  0.51506120976E+03  0.51506120977E+03  0.25500000920E-02 0. -1.
       -2   -1    0    0    0  501  0.00000000000E+00  0.00000000000E+00 -0.95029643083E+03  0.95029643083E+03  0.25500000920E-02 0.  1.
    10030    2    1    2    0    0  0.00000000000E+00  0.00000000000E+00 -0.43523522107E+03  0.14653576406E+04  0.13992295441E+04 0.  0.
        4    1    3    3  502    0 -0.13963777504E+03  0.21800975406E+03  0.46304704926E+03  0.53051026740E+03  0.12699999809E+01 0. -1.
       -4    1    3    3    0  502  0.13963777504E+03 -0.21800975406E+03 -0.89828227033E+03  0.93484737320E+03  0.12699999809E+01 0.  1.
</event>
<event>
 5   0  0.6671375E-05  0.1400349E+04  0.7818609E-02  0.8953566E-01
        3   -1    0    0  501    0  0.00000000000E+00  0.00000000000E+00  0.68075746985E+03  0.68075747735E+03  0.10100000352E+00 0.  1.
       -3   -1    0    0    0  501  0.00000000000E+00  0.00000000000E+00 -0.72014546952E+03  0.72014547661E+03  0.10100000352E+00 0. -1.
    10030    2    1    2    0    0  0.00000000000E+00  0.00000000000E+00 -0.39387999670E+02  0.14009029540E+04  0.14003491250E+04 0.  0.
        5    1    3    3  502    0  0.28121848027E+02 -0.54876234251E+03 -0.45379116241E+03  0.71265661856E+03  0.46999998093E+01 0. -1.
       -5    1    3    3    0  502 -0.28121848027E+02  0.54876234251E+03  0.41440316275E+03  0.68824633539E+03  0.46999998093E+01 0.  1.
</event>
<event>
 5   0  0.9900839E-05  0.1395722E+04  0.7818609E-02  0.8956921E-01
       -1   -1    0    0    0  501  0.00000000000E+00  0.00000000000E+00  0.28821319570E+03  0.28821319574E+03  0.50400001928E-02 0. -1.
        1   -1    0    0  501    0  0.00000000000E+00  0.00000000000E+00 -0.16897562952E+04  0.16897562952E+04  0.50400001928E-02 0.  1.
    10030    2    1    2    0    0  0.00000000000E+00  0.00000000000E+00 -0.14015430995E+04  0.19779694910E+04  0.13957221240E+04 0.  0.
        3    1    3    3  502    0  0.17365264968E+03 -0.55741568328E+03 -0.15900898982E+03  0.60510441723E+03  0.10100000352E+00 0. -1.
       -3    1    3    3    0  502 -0.17365264968E+03  0.55741568328E+03 -0.12425341097E+04  0.13728650737E+04  0.10100000352E+00 0.  1.
</event>
<event>
 5   0  0.6671375E-05  0.1399430E+04  0.7818609E-02  0.8954231E-01
        4   -1    0    0  501    0  0.00000000000E+00  0.00000000000E+00  0.32012546858E+03  0.32012798774E+03  0.12699999809E+01 0.  1.
       -4   -1    0    0    0  501  0.00000000000E+00  0.00000000000E+00 -0.15293960022E+04  0.15293965295E+04  0.12699999809E+01 0. -1.
    10030    2    1    2    0    0  0.00000000000E+00  0.00000000000E+00 -0.12092705336E+04  0.18495245172E+04  0.13994304972E+04 0.  0.
        5    1    3    3  502    0  0.35401327643E+03  0.55913980405E+03 -0.90489945253E+03  0.11210833285E+04  0.46999998093E+01 0. -1.
       -5    1    3    3    0  502 -0.35401327643E+03 -0.55913980405E+03 -0.30437108108E+03  0.72844118868E+03  0.46999998093E+01 0.  1.
</event>
<event>
 5   0  0.1766237E-04  0.1400060E+04  0.7818609E-02  0.8953775E-01
        2   -1    0    0  501    0  0.00000000000E+00  0.00000000000E+00  0.15598681647E+04  0.15598681647E+04  0.25500000920E-02 0.  1.
       -2   -1    0    0    0  501  0.00000000000E+00  0.00000000000E+00 -0.31415615809E+03  0.31415615810E+03  0.25500000920E-02 0. -1.
    10030    2    1    2    0    0  0.00000000000E+00  0.00000000000E+00  0.12457120066E+04  0.18740243228E+04  0.14000602698E+04 0.  0.
        3    1    3    3  502    0 -0.26164279280E+03  0.32157343566E+03  0.13778822214E+04  0.14388974431E+04  0.10100000352E+00 0.  1.
       -3    1    3    3    0  502  0.26164279280E+03 -0.32157343566E+03 -0.13217021479E+03  0.43512687969E+03  0.10100000352E+00 0. -1.
</event>
<event>
 5   0  0.1766237E-04  0.1414232E+04  0.7818609E-02  0.8943581E-01
       -2   -1    0    0    0  501  0.00000000000E+00  0.00000000000E+00  0.24776815944E+03  0.24776815946E+03  0.25500000920E-02 0. -1.
        2   -1    0    0  501    0  0.00000000000E+00  0.00000000000E+00 -0.20180672588E+04  0.20180672588E+04  0.25500000920E-02 0.  1.
    10030    2    1    2    0    0  0.00000000000E+00  0.00000000000E+00 -0.17702990994E+04  0.22658354183E+04  0.14142316789E+04 0.  0.
        3    1    3    3  502    0  0.66542852245E+03  0.23083374418E+03 -0.98563319978E+03  0.12114256686E+04  0.10100000352E+00 0. -1.
       -3    1    3    3    0  502 -0.66542852245E+03 -0.23083374418E+03 -0.78466589960E+03  0.10544097496E+04  0.10100000352E+00 0.  1.
</event>
<event>
 5   0  0.1833681E-04  0.1395235E+04  0.7818609E-02  0.8957275E-01
        2   -1    0    0  501    0  0.00000000000E+00  0.00000000000E+00  0.77736629382E+03  0.77736629383E+03  0.25500000920E-02 0. -1.
       -2   -1    0    0    0  501  0.00000000000E+00  0.00000000000E+00 -0.62604964105E+03  0.62604964105E+03  0.25500000920E-02 0.  1.
    10030    2    1    2    0    0  0.00000000000E+00  0.00000000000E+00  0.15131665277E+03  0.14034159349E+04  0.13952345885E+04 0.  0.
        4    1    3    3  502    0 -0.11756214365E+03  0.36833292290E+03  0.65973379025E+03  0.76468312823E+03  0.12699999809E+01 0. -1.
       -4    1    3    3    0  502  0.11756214365E+03 -0.36833292290E+03 -0.50841713747E+03  0.63873280665E+03  0.12699999809E+01 0.  1.
</event>
<event>
 5   0  0.9260916E-05  0.1400078E+04  0.7818609E-02  0.8953762E-01
       -1   -1    0    0    0  501  0.00000000000E+00  0.00000000000E+00  0.10370656545E+04  0.10370656545E+04  0.50400001928E-02 0.  1.
        1   -1    0    0  501    0  0.00000000000E+00  0.00000000000E+00 -0.47253949959E+03  0.47253949961E+03  0.50400001928E-02 0. -1.
    10030    2    1    2    0    0  0.00000000000E+00  0.00000000000E+00  0.56452615491E+03  0.15096051541E+04  0.14000778342E+04 0.  0.
        1    1    3    3  502    0  0.31345797029E+03  0.25200774661E+03  0.90005249959E+03  0.98582874047E+03  0.50400001928E-02 0.  1.
       -1    1    3    3    0  502 -0.31345797029E+03 -0.25200774661E+03 -0.33552634468E+03  0.52377641365E+03  0.50400001928E-02 0. -1.
</event>
<event>
 5   0  0.1833681E-04  0.1401198E+04  0.7818609E-02  0.8952952E-01
        2   -1    0    0  501    0  0.00000000000E+00  0.00000000000E+00  0.21875375456E+04  0.21875375456E+04  0.25500000920E-02 0.  1.
       -2   -1    0    0    0  501  0.00000000000E+00  0.00000000000E+00 -0.22437958164E+03  0.22437958166E+03  0.25500000920E-02 0. -1.
    10030    2    1    2    0    0  0.00000000000E+00  0.00000000000E+00  0.19631579640E+04  0.24119171273E+04  0.14011977153E+04 0.  0.
        4    1    3    3  502    0 -0.35969146563E+03 -0.10547699899E+03 -0.37256309440E+02  0.37668686366E+03  0.12699999809E+01 0. -1.
       -4    1    3    3    0  502  0.35969146563E+03  0.10547699899E+03  0.20004142734E+04  0.20352302636E+04  0.12699999809E+01 0.  1.
</event>
<event>
 5   0  0.9900839E-05  0.1400841E+04  0.7818609E-02  0.8953210E-01
       -1   -1    0    0    0  501  0.00000000000E+00  0.00000000000E+00  0.87523792577E+03  0.87523792578E+03  0.50400001928E-02 0. -1.
        1   -1    0    0  501    0  0.00000000000E+00  0.00000000000E+00 -0.56052028333E+03  0.56052028335E+03  0.50400001928E-02 0.  1.
    10030    2    1    2    0    0  0.00000000000E+00  0.00000000000E+00  0.31471764244E+03  0.14357582091E+04  0.14008406193E+04 0.  0.
        3    1    3    3  502    0 -0.69055053531E+03 -0.11672002486E+03  0.14685675647E+03  0.71557705605E+03  0.10100000352E+00 0. -1.
       -3    1    3    3    0  502  0.69055053531E+03  0.11672002486E+03  0.16786088598E+03  0.72018115309E+03  0.10100000352E+00 0.  1.
</event>
<event>
 5   0  0.1766237E-04  0.1397818E+04  0.7818609E-02  0.8955399E-01
        2   -1    0    0  501    0  0.00000000000E+00  0.00000000000E+00  0.51995347458E+03  0.51995347459E+03  0.25500000920E-02 0. -1.
       -2   -1    0    0    0  501  0.00000000000E+00  0.00000000000E+00 -0.93945729360E+03  0.93945729361E+03  0.25500000920E-02 0.  1.
    10030    2    1    2    0    0  0.00000000000E+00  0.00000000000E+00 -0.41950381902E+03  0.14594107682E+04  0.13978184203E+04 0.  0.
        3    1    3    3  502    0 -0.13531005917E+03  0.46680881296E+03  0.31462855178E+03  0.57897358814E+03  0.10100000352E+00 0.  1.
       -3    1    3    3    0  502  0.13531005917E+03 -0.46680881296E+03 -0.73413237080E+03  0.88043718005E+03  0.10100000352E+00 0. -1.
</event>
<event>
 5   0  0.1766237E-04  0.1400380E+04  0.7818609E-02  0.8953543E-01
       -2   -1    0    0    0  501  0.00000000000E+00  0.00000000000E+00  0.33678146740E+03  0.33678146741E+03  0.25500000920E-02 0.  1.
        2   -1    0    0  501    0  0.00000000000E+00  0.00000000000E+00 -0.14557395231E+04  0.14557395231E+04  0.25500000920E-02 0. -1.
    10030    2    1    2    0    0  0.00000000000E+00  0.00000000000E+00 -0.11189580557E+04  0.17925209905E+04  0.14003800809E+04 0.  0.
        3    1    3    3  502    0  0.12238477787E+03 -0.66776434607E+03 -0.77887848549E+03  0.10332177704E+04  0.10100000352E+00 0. -1.
       -3    1    3    3    0  502 -0.12238477787E+03  0.66776434607E+03 -0.34007957018E+03  0.75930322006E+03  0.10100000352E+00 0.  1.
</event>
<event>
 5   0  0.9828111E-05  0.1398351E+04  0.7818609E-02  0.8955013E-01
        1   -1    0    0  501    0  0.00000000000E+00  0.00000000000E+00  0.51037590963E+03  0.51037590965E+03  0.50400001928E-02 0.  1.
       -1   -1    0    0    0  501  0.00000000000E+00  0.00000000000E+00 -0.95781635667E+03  0.95781635669E+03  0.50400001928E-02 0. -1.
    10030    2    1    2    0    0  0.00000000000E+00  0.00000000000E+00 -0.44744044704E+03  0.14681922663E+04  0.13983510208E+04 0.  0.
        4    1    3    3  502    0  0.16744881180E+03  0.50308440979E+03 -0.70223710565E+03  0.87992703868E+03  0.12699999809E+01 0. -1.
       -4    1    3    3    0  502 -0.16744881180E+03 -0.50308440979E+03  0.25479665860E+03  0.58826522767E+03  0.12699999809E+01 0.  1.
</event>
<event>
 5   0  0.9260916E-05  0.1399523E+04  0.7818609E-02  0.8954164E-01
        1   -1    0    0  501    0  0.00000000000E+00  0.00000000000E+00  0.12917446227E+04  0.12917446227E+04  0.50400001928E-02 0.  1.
       -1   -1    0    0    0  501  0.00000000000E+00  0.00000000000E+00 -0.37907350457E+03  0.37907350460E+03  0.50400001928E-02 0. -1.
    10030    2    1    2    0    0  0.00000000000E+00  0.00000000000E+00  0.91267111810E+03  0.16708181273E+04  0.13995230061E+04 0.  0.
        1    1    3    3  502    0  0.15016080743E+03 -0.57166651321E+03  0.91357220233E+01  0.59112970815E+03  0.50400001928E-02 0. -1.
       -1    1    3    3    0  502 -0.15016080743E+03  0.57166651321E+03  0.90353539607E+03  0.10796884191E+04  0.50400001928E-02 0.  1.
</event>
<event>
 5   0  0.1712327E-04  0.1401439E+04  0.7818609E-02  0.8952778E-01
        2   -1    0    0  501    0  0.00000000000E+00  0.00000000000E+00  0.10293475293E+04  0.10293475293E+04  0.25500000920E-02 0.  1.
       -2   -1    0    0    0  501  0.00000000000E+00  0.00000000000E+00 -0.47700878993E+03  0.47700878993E+03  0.25500000920E-02 0. -1.
    10030    2    1    2    0    0  0.00000000000E+00  0.00000000000E+00  0.55233873936E+03  0.15063563192E+04  0.14014390024E+04 0.  0.
        1    1    3    3  502    0 -0.62435699357E+02 -0.39644527050E+03  0.89357628944E+03  0.97956401227E+03  0.50400001928E-02 0.  1.
       -1    1    3    3    0  502  0.62435699357E+02  0.39644527050E+03 -0.34123755008E+03  0.52679230696E+03  0.50400001928E-02 0. -1.
</event>
<event>
 5   0  0.9828111E-05  0.1408999E+04  0.7818609E-02  0.8947330E-01
       -1   -1    0    0    0  501  0.00000000000E+00  0.00000000000E+00  0.41740886773E+03  0.41740886776E+03  0.50400001928E-02 0.  1.
        1   -1    0    0  501    0  0.00000000000E+00  0.00000000000E+00 -0.11890485990E+04  0.11890485990E+04  0.50400001928E-02 0. -1.
    10030    2    1    2    0    0  0.00000000000E+00  0.00000000000E+00 -0.77163973129E+03  0.16064574668E+04  0.14089988352E+04 0.  0.
        4    1    3    3  502    0 -0.35114197425E+03  0.39125874891E+03 -0.92051287883E+03  0.10600611622E+04  0.12699999809E+01 0. -1.
       -4    1    3    3    0  502  0.35114197425E+03 -0.39125874891E+03  0.14887314755E+03  0.54639630456E+03  0.12699999809E+01 0.  1.
</event>
<event>
 5   0  0.1780171E-04  0.1400786E+04  0.7818609E-02  0.8953250E-01
       -2   -1    0    0    0  501  0.00000000000E+00  0.00000000000E+00  0.72920950771E+03  0.72920950771E+03  0.25500000920E-02 0.  1.
        2   -1    0    0  501    0  0.00000000000E+00  0.00000000000E+00 -0.67271516502E+03  0.67271516503E+03  0.25500000920E-02 0. -1.
    10030    2    1    2    0    0  0.00000000000E+00  0.00000000000E+00  0.56494342681E+02  0.14019246727E+04  0.14007859141E+04 0.  0.
        5    1    3    3  502    0  0.41946434155E+03  0.15453083842E+02  0.58936245334E+03  0.72357399279E+03  0.46999998093E+01 0.  1.
       -5    1    3    3    0  502 -0.41946434155E+03 -0.15453083842E+02 -0.53286811066E+03  0.67835067995E+03  0.46999998093E+01 0. -1.
</event>
<event>
 5   0  0.9978422E-05  0.1401820E+04  0.7818609E-02  0.8952502E-01
       -1   -1    0    0    0  501  0.00000000000E+00  0.00000000000E+00  0.29581000639E+03  0.29581000644E+03  0.50400001928E-02 0. -1.
        1   -1    0    0  501    0  0.00000000000E+00  0.00000000000E+00 -0.16607785268E+04  0.16607785268E+04  0.50400001928E-02 0.  1.
    10030    2    1    2    0    0  0.00000000000E+00  0.00000000000E+00 -0.13649685204E+04  0.19565885332E+04  0.14018201121E+04 0.  0.
        2    1    3    3  502    0  0.65531034869E+03  0.44938217407E+02 -0.34109940370E+03  0.74013505503E+03  0.25500000920E-02 0.  1.
       -2    1    3    3    0  502 -0.65531034869E+03 -0.44938217407E+02 -0.10238691167E+04  0.12164534782E+04  0.25500000920E-02 0. -1.
</event>
<event>
 5   0  0.6671375E-05  0.1400709E+04  0.7818609E-02  0.8953305E-01
        1   -1    0    0  501    0  0.00000000000E+00  0.00000000000E+00  0.10107962439E+04  0.10107962439E+04  0.50400001928E-02 0.  1.
       -1   -1    0    0    0  501  0.00000000000E+00  0.00000000000E+00 -0.48525779899E+03  0.48525779901E+03  0.50400001928E-02 0. -1.
    10030    2    1    2    0    0  0.00000000000E+00  0.00000000000E+00  0.52553844488E+03  0.14960540429E+04  0.14007094782E+04 0.  0.
        5    1    3    3  502    0  0.44580376206E+03 -0.15527158319E+03  0.81530712853E+03  0.94212422888E+03  0.46999998093E+01 0.  1.
       -5    1    3    3    0  502 -0.44580376206E+03  0.15527158319E+03 -0.28976868366E+03  0.55392981400E+03  0.46999998093E+01 0. -1.
</event>
<event>
 5   0  0.9260916E-05  0.1398741E+04  0.7818609E-02  0.8954731E-01
       -1   -1    0    0    0  501  0.00000000000E+00  0.00000000000E+00  0.40686613342E+03  0.40686613345E+03  0.50400001928E-02 0. -1.
        1   -1    0    0  501    0  0.00000000000E+00  0.00000000000E+00 -0.12021616141E+04  0.12021616141E+04  0.50400001928E-02 0.  1.
    10030    2    1    2    0    0  0.00000000000E+00  0.00000000000E+00 -0.79529548065E+03  0.16090277475E+04  0.13987406446E+04 0.  0.
        1    1    3    3  502    0  0.11119810546E+03  0.45017430478E+03  0.20460449403E+03  0.50683816188E+03  0.50400001928E-02 0. -1.
       -1    1    3    3    0  502 -0.11119810546E+03 -0.45017430478E+03 -0.99989997468E+03  0.11021895857E+04  0.50400001928E-02 0.  1.
</event>
<event>
 5   0  0.1780171E-04  0.1397843E+04  0.7818609E-02  0.8955382E-01
        2   -1    0    0  501    0  0.00000000000E+00  0.00000000000E+00  0.19160222838E+04  0.19160222838E+04  0.25500000920E-02 0.  1.
       -2   -1    0    0    0  501  0.00000000000E+00  0.00000000000E+00 -0.25495064173E+03  0.25495064174E+03  0.25500000920E-02 0. -1.
    10030    2    1    2    0    0  0.00000000000E+00  0.00000000000E+00  0.16610716421E+04  0.21709729256E+04  0.13978427821E+04 0.  0.
        5    1    3    3  502    0 -0.49558304485E+03 -0.45449229720E+03  0.11264519538E+04  0.13119001093E+04  0.46999998093E+01 0. -1.
       -5    1    3    3    0  502  0.49558304485E+03  0.45449229720E+03  0.53461968833E+03  0.85907281630E+03  0.46999998093E+01 0.  1.
</event>
<event>
 5   0  0.9978422E-05  0.1396398E+04  0.7818609E-02  0.8956430E-01
       -1   -1    0    0    0  501  0.00000000000E+00  0.00000000000E+00  0.52178025269E+03  0.52178025271E+03  0.50400001928E-02 0. -1.
        1   -1    0    0  501    0  0.00000000000E+00  0.00000000000E+00 -0.93426704918E+03  0.93426704920E+03  0.50400001928E-02 0.  1.
    10030    2    1    2    0    0  0.00000000000E+00  0.00000000000E+00 -0.41248679650E+03  0.14560473019E+04  0.13963983630E+04 0.  0.
        2    1    3    3  502    0  0.34994719619E+03 -0.16727068598E+03  0.39910667854E+03  0.55653271546E+03  0.25500000920E-02 0. -1.
       -2    1    3    3    0  502 -0.34994719619E+03  0.16727068598E+03 -0.81159347504E+03  0.89951458645E+03  0.25500000920E-02 0.  1.
</event>
<event>
 5   0  0.9900839E-05  0.1399692E+04  0.7818609E-02  0.8954042E-01
       -1   -1    0    0    0  501  0.00000000000E+00  0.00000000000E+00  0.11827683389E+04  0.11827683390E+04  0.50400001928E-02 0. -1.
        1   -1    0    0  501    0  0.00000000000E+00  0.00000000000E+00 -0.41409988449E+03  0.41409988452E+03  0.50400001928E-02 0.  1.
    10030    2    1    2    0    0  0.00000000000E+00  0.00000000000E+00  0.76866845446E+03  0.15968682235E+04  0.13996917269E+04 0.  0.
        3    1    3    3  502    0 -0.58083150475E+03  0.19706762153E+03 -0.16369477603E+00  0.61335220010E+03  0.10100000352E+00 0. -1.
       -3    1    3    3    0  502  0.58083150475E+03 -0.19706762153E+03  0.76883214923E+03  0.98351602339E+03  0.10100000352E+00 0.  1.
</event>
<event>
 5   0  0.1766237E-04  0.1402477E+04  0.7818609E-02  0.8952028E-01
       -2   -1    0    0    0  501  0.00000000000E+00  0.00000000000E+00  0.35454918742E+03  0.35454918743E+03  0.25500000920E-02 0.  1.
        2   -1    0    0  501    0  0.00000000000E+00  0.00000000000E+00 -0.13869308068E+04  0.13869308068E+04  0.25500000920E-02 0. -1.
    10030    2    1    2    0    0  0.00000000000E+00  0.00000000000E+00 -0.10323816193E+04  0.17414799942E+04  0.14024766530E+04 0.  0.
        3    1    3    3  502    0 -0.29839144184E+03 -0.58018109586E+03 -0.83540553562E+03  0.10599764034E+04  0.10100000352E+00 0. -1.
       -3    1    3    3    0  502  0.29839144184E+03  0.58018109586E+03 -0.19697608372E+03  0.68150359082E+03  0.10100000352E+00 0.  1.
</event>
<event>
 5   0  0.1780171E-04  0.1400335E+04  0.7818609E-02  0.8953576E-01
        2   -1    0    0  501    0  0.00000000000E+00  0.00000000000E+00  0.11747997394E+04  0.11747997394E+04  0.25500000920E-02 0.  1.
       -2   -1    0    0    0  501  0.00000000000E+00  0.00000000000E+00 -0.41729200839E+03  0.41729200840E+03  0.25500000920E-02 0. -1.
    10030    2    1    2    0    0  0.00000000000E+00  0.00000000000E+00  0.75750773102E+03  0.15920917478E+04  0.14003350210E+04 0.  0.
        5    1    3    3  502    0  0.58423074970E+03 -0.38536020251E+03  0.35646300734E+03  0.78544001692E+03  0.46999998093E+01 0. -1.
       -5    1    3    3    0  502 -0.58423074970E+03  0.38536020251E+03  0.40104472367E+03  0.80665173090E+03  0.46999998093E+01 0.  1.
</event>
<event>
 5   0  0.1712327E-04  0.1399594E+04  0.7818609E-02  0.8954113E-01
        2   -1    0    0  501    0  0.00000000000E+00  0.00000000000E+00  0.19475330852E+04  0.19475330852E+04  0.25500000920E-02 0. -1.
       -2   -1    0    0    0  501  0.00000000000E+00  0.00000000000E+00 -0.25145427471E+03  0.25145427472E+03  0.25500000920E-02 0.  1.
    10030    2    1    2    0    0  0.00000000000E+00  0.00000000000E+00  0.16960788105E+04  0.21989873600E+04  0.13995935402E+04 0.  0.
        1    1    3    3  502    0 -0.95372768403E+02 -0.55703904101E+03  0.14964687047E+04  0.15996271573E+04  0.50400001928E-02 0. -1.
       -1    1    3    3    0  502  0.95372768403E+02  0.55703904101E+03  0.19961010581E+03  0.59936020266E+03  0.50400001928E-02 0.  1.
</event>
<event>
 5   0  0.9828111E-05  0.1399591E+04  0.7818609E-02  0.8954115E-01
       -1   -1    0    0    0  501  0.00000000000E+00  0.00000000000E+00  0.10414516818E+04  0.10414516818E+04  0.50400001928E-02 0.  1.
        1   -1    0    0  501    0  0.00000000000E+00  0.00000000000E+00 -0.47022193736E+03  0.47022193738E+03  0.50400001928E-02 0. -1.
    10030    2    1    2    0    0  0.00000000000E+00  0.00000000000E+00  0.57122974444E+03  0.15116736192E+04  0.13995905508E+04 0.  0.
        4    1    3    3  502    0 -0.42150330359E+03  0.54988960986E+03  0.39181615675E+03  0.79596804682E+03  0.12699999809E+01 0. -1.
       -4    1    3    3    0  502  0.42150330359E+03 -0.54988960986E+03  0.17941358769E+03  0.71570557237E+03  0.12699999809E+01 0.  1.
</event>
<event>
 5   0  0.9900839E-05  0.1397657E+04  0.7818609E-02  0.8955516E-01
        1   -1    0    0  501    0  0.00000000000E+00  0.00000000000E+00  0.21480734615E+04  0.21480734615E+04  0.50400001928E-02 0. -1.
       -1   -1    0    0    0  501  0.00000000000E+00  0.00000000000E+00 -0.22734847242E+03  0.22734847247E+03  0.50400001928E-02 0.  1.
    10030    2    1    2    0    0  0.00000000000E+00  0.00000000000E+00  0.19207249891E+04  0.23754219340E+04  0.13976569253E+04 0.  0.
        3    1    3    3  502    0 -0.15169913364E+03  0.38648730865E+03  0.50018905916E+01  0.41522294735E+03  0.10100000352E+00 0.  1.
       -3    1    3    3    0  502  0.15169913364E+03 -0.38648730865E+03  0.19157230985E+04  0.19601989866E+04  0.10100000352E+00 0. -1.
</event>
<event>
 5   0  0.9260916E-05  0.1406062E+04  0.7818609E-02  0.8949442E-01
        1   -1    0    0  501    0  0.00000000000E+00  0.00000000000E+00  0.17330560068E+04  0.17330560068E+04  0.50400001928E-02 0. -1.
       -1   -1    0    0    0  501  0.00000000000E+00  0.00000000000E+00 -0.28519135815E+03  0.28519135820E+03  0.50400001928E-02 0.  1.
    10030    2    1    2    0    0  0.00000000000E+00  0.00000000000E+00  0.14478646487E+04  0.20182473650E+04  0.14060620134E+04 0.  0.
        1    1    3    3  502    0  0.48818295845E+03  0.15374065428E+03  0.32119299516E+02  0.51282593453E+03  0.50400001928E-02 0.  1.
       -1    1    3    3    0  502 -0.48818295845E+03 -0.15374065428E+03  0.14157453492E+04  0.15054214305E+04  0.50400001928E-02 0. -1.
</event>
<event>
 5   0  0.1794185E-04  0.1401147E+04  0.7818609E-02  0.8952988E-01
        2   -1    0    0  501    0  0.00000000000E+00  0.00000000000E+00  0.12473475262E+04  0.12473475262E+04  0.25500000920E-02 0. -1.
       -2   -1    0    0    0  501  0.00000000000E+00  0.00000000000E+00 -0.39347780301E+03  0.39347780302E+03  0.25500000920E-02 0.  1.
    10030    2    1    2    0    0  0.00000000000E+00  0.00000000000E+00  0.85386972317E+03  0.16408253292E+04  0.14011474786E+04 0.  0.
        2    1    3    3  502    0  0.12358409979E+02 -0.69385391756E+03  0.53936606050E+03  0.87892077938E+03  0.25500000920E-02 0.  1.
       -2    1    3    3    0  502 -0.12358409979E+02  0.69385391756E+03  0.31450366267E+03  0.76190454982E+03  0.25500000920E-02 0. -1.
</event>
<event>
 5   0  0.9260916E-05  0.1401927E+04  0.7818609E-02  0.8952425E-01
        1   -1    0    0  501    0  0.00000000000E+00  0.00000000000E+00  0.17241441600E+04  0.17241441600E+04  0.50400001928E-02 0.  1.
       -1   -1    0    0    0  501  0.00000000000E+00  0.00000000000E+00 -0.28498189136E+03  0.28498189140E+03  0.50400001928E-02 0. -1.
    10030    2    1    2    0    0  0.00000000000E+00  0.00000000000E+00  0.14391622686E+04  0.20091260514E+04  0.14019270505E+04 0.  0.
        1    1    3    3  502    0  0.17205066929E+03 -0.28540873469E+03 -0.16418912966E+03  0.37150726637E+03  0.50400001928E-02 0. -1.
       -1    1    3    3    0  502 -0.17205066929E+03  0.28540873469E+03  0.16033513983E+04  0.16376187850E+04  0.50400001928E-02 0.  1.
</event>
<event>
 5   0  0.6671375E-05  0.1410664E+04  0.7818609E-02  0.8946136E-01
        4   -1    0    0  501    0  0.00000000000E+00  0.00000000000E+00  0.84865723034E+03  0.84865818061E+03  0.12699999809E+01 0. -1.
       -4   -1    0    0    0  501  0.00000000000E+00  0.00000000000E+00 -0.58621001998E+03  0.58621139568E+03  0.12699999809E+01 0.  1.
    10030    2    1    2    0    0  0.00000000000E+00  0.00000000000E+00  0.26244721036E+03  0.14348695763E+04  0.14106637313E+04 0.  0.
        3    1    3    3  502    0 -0.39844229113E+03 -0.56372818837E+03  0.27843890940E+03  0.74436144862E+03  0.10100000352E+00 0. -1.
       -3    1    3    3    0  502  0.39844229113E+03  0.56372818837E+03 -0.15991699032E+02  0.69050812766E+03  0.10100000352E+00 0.  1.
</event>
<event>
 5   0  0.9828111E-05  0.1394519E+04  0.7818609E-02  0.8957795E-01
        1   -1    0    0  501    0  0.00000000000E+00  0.00000000000E+00  0.87554547807E+03  0.87554547808E+03  0.50400001928E-02 0.  1.
       -1   -1    0    0    0  501  0.00000000000E+00  0.00000000000E+00 -0.55527776070E+03  0.55527776072E+03  0.50400001928E-02 0. -1.
    10030    2    1    2    0    0  0.00000000000E+00  0.00000000000E+00  0.32026771737E+03  0.14308232388E+04  0.13945191752E+04 0.  0.
        4    1    3    3  502    0 -0.24036363377E+03  0.93883991738E+02  0.82474728640E+03  0.86417508623E+03  0.12699999809E+01 0.  1.
       -4    1    3    3    0  502  0.24036363377E+03 -0.93883991738E+02 -0.50447956903E+03  0.56664815257E+03  0.12699999809E+01 0. -1.
</event>
<event>
 5   0  0.1766237E-04  0.1397114E+04  0.7818609E-02  0.8955910E-01
       -2   -1    0    0    0  501  0.00000000000E+00  0.00000000000E+00  0.44762565034E+03  0.44762565035E+03  0.25500000920E-02 0.  1.
        2   -1    0    0  501    0  0.00000000000E+00  0.00000000000E+00 -0.10901566281E+04  0.10901566281E+04  0.25500000920E-02 0. -1.
    10030    2    1    2    0    0  0.00000000000E+00  0.00000000000E+00 -0.64253097780E+03  0.15377822785E+04  0.13971142683E+04 0.  0.
        3    1    3    3  502    0 -0.82175370404E+02 -0.68647914156E+03 -0.43119990132E+03  0.81482499249E+03  0.10100000352E+00 0. -1.
       -3    1    3    3    0  502  0.82175370404E+02  0.68647914156E+03 -0.21133107648E+03  0.72295728600E+03  0.10100000352E+00 0.  1.
</event>
<event>
 5   0  0.1766237E-04  0.1400102E+04  0.7818609E-02  0.8953744E-01
        2   -1    0    0  501    0  0.00000000000E+00  0.00000000000E+00  0.10387990752E+04  0.10387990752E+04  0.25500000920E-02 0.  1.
       -2   -1    0    0    0  501  0.00000000000E+00  0.00000000000E+00 -0.47176748748E+03  0.47176748749E+03  0.25500000920E-02 0. -1.
    10030    2    1    2    0    0  0.00000000000E+00  0.00000000000E+00  0.56703158775E+03  0.15105665627E+04  0.14001023244E+04 0.  0.
        3    1    3    3  502    0  0.26960835185E+03 -0.49003458332E+03  0.73774187247E+03  0.92578919675E+03  0.10100000352E+00 0.  1.
       -3    1    3    3    0  502 -0.26960835185E+03  0.49003458332E+03 -0.17071028472E+03  0.58477736596E+03  0.10100000352E+00 0. -1.
</event>
<event>
 5   0  0.9978422E-05  0.1401667E+04  0.7818609E-02  0.8952613E-01
        1   -1    0    0  501    0  0.00000000000E+00  0.00000000000E+00  0.74314529952E+03  0.74314529954E+03  0.50400001928E-02 0. -1.
       -1   -1    0    0    0  501  0.00000000000E+00  0.00000000000E+00 -0.66093034009E+03  0.66093034011E+03  0.50400001928E-02 0.  1.
    10030    2    1    2    0    0  0.00000000000E+00  0.00000000000E+00  0.82214959431E+02  0.14040756396E+04  0.14016665446E+04 0.  0.
        2    1    3    3  502    0  0.24169385207E+02  0.66986319447E+03  0.24607200202E+03  0.71403941675E+03  0.25500000920E-02 0.  1.
       -2    1    3    3    0  502 -0.24169385207E+02 -0.66986319447E+03 -0.16385704259E+03  0.69003622289E+03  0.25500000920E-02 0. -1.
</event>
<event>
 5   0  0.6671375E-05  0.1400817E+04  0.7818609E-02  0.8953228E-01
        1   -1    0    0  501    0  0.00000000000E+00  0.00000000000E+00  0.13252894763E+04  0.13252894763E+04  0.50400001928E-02 0.  1.
       -1   -1    0    0    0  501  0.00000000000E+00  0.00000000000E+00 -0.37016201476E+03  0.37016201479E+03  0.50400001928E-02 0. -1.
    10030    2    1    2    0    0  0.00000000000E+00  0.00000000000E+00  0.95512746154E+03  0.16954514911E+04  0.14008166514E+04 0.  0.
        5    1    3    3  502    0 -0.11915688416E+02  0.63640909433E+03  0.12388359682E+03  0.64848111348E+03  0.46999998093E+01 0. -1.
       -5    1    3    3    0  502  0.11915688416E+02 -0.63640909433E+03  0.83124386471E+03  0.10469703776E+04  0.46999998093E+01 0.  1.
</event>
<event>
 5   0  0.6671375E-05  0.1402906E+04  0.7818609E-02  0.8951718E-01
        1   -1    0    0  501    0  0.00000000000E+00  0.00000000000E+00  0.75116100588E+03  0.75116100590E+03  0.50400001928E-02 0. -1.
       -1   -1    0    0    0  501  0.00000000000E+00  0.00000000000E+00 -0.65503447392E+03  0.65503447394E+03  0.50400001928E-02 0.  1.
    10030    2    1    2    0    0  0.00000000000E+00  0.00000000000E+00  0.96126531961E+02  0.14061954798E+04  0.14029060615E+04 0.  0.
        5    1    3    3  502    0  0.45387415995E+03 -0.12190393369E+03  0.57000673258E+03  0.73877742744E+03  0.46999998093E+01 0. -1.
       -5    1    3    3    0  502 -0.45387415995E+03  0.12190393369E+03 -0.47388020062E+03  0.66741805239E+03  0.46999998093E+01 0.  1.
</event>
<event>
 5   0  0.1780171E-04  0.1400372E+04  0.7818609E-02  0.8953550E-01
       -2   -1    0    0    0  501  0.00000000000E+00  0.00000000000E+00  0.60049574339E+03  0.60049574340E+03  0.25500000920E-02 0. -1.
        2   -1    0    0  501    0  0.00000000000E+00  0.00000000000E+00 -0.81642565381E+03  0.81642565381E+03  0.25500000920E-02 0.  1.
    10030    2    1    2    0    0  0.00000000000E+00  0.00000000000E+00 -0.21592991042E+03  0.14169213972E+04  0.14003715649E+04 0.  0.
        5    1    3    3  502    0 -0.53936969943E+03  0.25626246345E+02 -0.55894726658E+03  0.77718756679E+03  0.46999998093E+01 0.  1.
       -5    1    3    3    0  502  0.53936969943E+03 -0.25626246345E+02  0.34301735616E+03  0.63973383042E+03  0.46999998093E+01 0. -1.
</event>
<event>
 5   0  0.1712327E-04  0.1397841E+04  0.7818609E-02  0.8955383E-01
       -2   -1    0    0    0  501  0.00000000000E+00  0.00000000000E+00  0.50607968796E+03  0.50607968797E+03  0.25500000920E-02 0.  1.
        2   -1    0    0  501    0  0.00000000000E+00  0.00000000000E+00 -0.96524347742E+03  0.96524347742E+03  0.25500000920E-02 0. -1.
    10030    2    1    2    0    0  0.00000000000E+00  0.00000000000E+00 -0.45916378946E+03  0.14713231654E+04  0.13978413613E+04 0.  0.
        1    1    3    3  502    0  0.20264494603E+03 -0.62014135756E+03 -0.49345934275E+03  0.81801124716E+03  0.50400001928E-02 0. -1.
       -1    1    3    3    0  502 -0.20264494603E+03  0.62014135756E+03  0.34295553287E+02  0.65331191823E+03  0.50400001928E-02 0.  1.
</event>
<event>
 5   0  0.6671375E-05  0.1400022E+04  0.7818609E-02  0.8953802E-01
        1   -1    0    0  501    0  0.00000000000E+00  0.00000000000E+00  0.19487118950E+04  0.19487118950E+04  0.50400001928E-02 0.  1.
       -1   -1    0    0    0  501  0.00000000000E+00  0.00000000000E+00 -0.25145619273E+03  0.25145619278E+03  0.50400001928E-02 0. -1.
    10030    2    1    2    0    0  0.00000000000E+00  0.00000000000E+00  0.16972557023E+04  0.22001680878E+04  0.14000223911E+04 0.  0.
        5    1    3    3  502    0 -0.61388172649E+02  0.69727388365E+03  0.85781922866E+03  0.11071744649E+04  0.46999998093E+01 0. -1.
       -5    1    3    3    0  502  0.61388172649E+02 -0.69727388365E+03  0.83943647363E+03  0.10929936230E+04  0.46999998093E+01 0.  1.
</event>
<event>
 5   0  0.9828111E-05  0.1398116E+04  0.7818609E-02  0.8955183E-01
        1   -1    0    0  501    0  0.00000000000E+00  0.00000000000E+00  0.11862821591E+04  0.11862821591E+04  0.50400001928E-02 0. -1.
       -1   -1    0    0    0  501  0.00000000000E+00  0.00000000000E+00 -0.41194426957E+03  0.41194426960E+03  0.50400001928E-02 0.  1.
    10030    2    1    2    0    0  0.00000000000E+00  0.00000000000E+00  0.77433788954E+03  0.15982264287E+04  0.13981160718E+04 0.  0.
        4    1    3    3  502    0  0.16102640761E+02 -0.12790739646E+03 -0.39823686159E+03  0.41858548462E+03  0.12699999809E+01 0.  1.
       -4    1    3    3    0  502 -0.16102640761E+02  0.12790739646E+03  0.11725747511E+04  0.11796409441E+04  0.12699999809E+01 0. -1.
</event>
<event>
 5   0  0.1833681E-04  0.1401862E+04  0.7818609E-02  0.8952472E-01
       -2   -1    0    0    0  501  0.00000000000E+00  0.00000000000E+00  0.17415705403E+03  0.17415705405E+03  0.25500000920E-02 0. -1.
        2   -1    0    0  501    0  0.00000000000E+00  0.00000000000E+00 -0.28210402070E+04  0.28210402070E+04  0.25500000920E-02 0.  1.
    10030    2    1    2    0    0  0.00000000000E+00  0.00000000000E+00 -0.26468831530E+04  0.29951972610E+04  0.14018616933E+04 0.  0.
        4    1    3    3  502    0 -0.42864264496E+03 -0.32710506456E+03 -0.22803127329E+04  0.23431944036E+04  0.12699999809E+01 0.  1.
       -4    1    3    3    0  502  0.42864264496E+03  0.32710506456E+03 -0.36657042004E+03  0.65200285742E+03  0.12699999809E+01 0. -1.
</event>
<event>
 5   0  0.1766237E-04  0.1400758E+04  0.7818609E-02  0.8953270E-01
       -2   -1    0    0    0  501  0.00000000000E+00  0.00000000000E+00  0.45864551303E+03  0.45864551303E+03  0.25500000920E-02 0. -1.
        2   -1    0    0  501    0  0.00000000000E+00  0.00000000000E+00 -0.10695203848E+04  0.10695203848E+04  0.25500000920E-02 0.  1.
    10030    2    1    2    0    0  0.00000000000E+00  0.00000000000E+00 -0.61087487177E+03  0.15281658978E+04  0.14007579742E+04 0.  0.
        3    1    3    3  502    0 -0.42894747805E+03  0.55042168071E+03 -0.37062835661E+03  0.79014261652E+03  0.10100000352E+00 0. -1.
       -3    1    3    3    0  502  0.42894747805E+03 -0.55042168071E+03 -0.24024651516E+03  0.73802328132E+03  0.10100000352E+00 0.  1.
</event>
<event>
 5   0  0.1780171E-04  0.1399761E+04  0.7818609E-02  0.8953992E-01
       -2   -1    0    0    0  501  0.00000000000E+00  0.00000000000E+00  0.65668178839E+03  0.65668178840E+03  0.25500000920E-02 0. -1.
        2   -1    0    0  501    0  0.00000000000E+00  0.00000000000E+00 -0.74592102704E+03  0.74592102704E+03  0.25500000920E-02 0.  1.
    10030    2    1    2    0    0  0.00000000000E+00  0.00000000000E+00 -0.89239238647E+02  0.14026028154E+04  0.13997610568E+04 0.  0.
        5    1    3    3  502    0  0.36516463539E+03  0.32207716681E+03  0.45912532834E+03  0.66925112584E+03  0.46999998093E+01 0. -1.
       -5    1    3    3    0  502 -0.36516463539E+03 -0.32207716681E+03 -0.54836456698E+03  0.73335168960E+03  0.46999998093E+01 0.  1.
</event>
<event>
 5   0  0.1780171E-04  0.1400303E+04  0.7818609E-02  0.8953599E-01
       -2   -1    0    0    0  501  0.00000000000E+00  0.00000000000E+00  0.33633144618E+03  0.33633144619E+03  0.25500000920E-02 0. -1.
        2   -1    0    0  501    0  0.00000000000E+00  0.00000000000E+00 -0.14575264663E+04  0.14575264663E+04  0.25500000920E-02 0.  1.
    10030    2    1    2    0    0  0.00000000000E+00  0.00000000000E+00 -0.11211950201E+04  0.17938579125E+04  0.14003028019E+04 0.  0.
        5    1    3    3  502    0  0.10820506510E+03 -0.52815788275E+03  0.11633072220E+02  0.53927405240E+03  0.46999998093E+01 0. -1.
       -5    1    3    3    0  502 -0.10820506510E+03  0.52815788275E+03 -0.11328280924E+04  0.12545838601E+04  0.46999998093E+01 0.  1.
</event>
<event>
 5   0  0.1780171E-04  0.1403425E+04  0.7818609E-02  0.8951343E-01
       -2   -1    0    0    0  501  0.00000000000E+00  0.00000000000E+00  0.30618721422E+03  0.30618721423E+03  0.25500000920E-02 0. -1.
        2   -1    0    0  501    0  0.00000000000E+00  0.00000000000E+00 -0.16081683885E+04  0.16081683885E+04  0.25500000920E-02 0.  1.
    10030    2    1    2    0    0  0.00000000000E+00  0.00000000000E+00 -0.13019811743E+04  0.19143556028E+04  0.14034252369E+04 0.  0.
        5    1    3    3  502    0  0.31545011285E+03 -0.74447086666E+02 -0.14999216467E+04  0.15345482002E+04  0.46999998093E+01 0.  1.
       -5    1    3    3    0  502 -0.31545011285E+03  0.74447086666E+02  0.19794047242E+03  0.37980740255E+03  0.46999998093E+01 0. -1.
</event>
<event>
 5   0  0.6671375E-05  0.1411634E+04  0.7818609E-02  0.8945440E-01
        1   -1    0    0  501    0  0.00000000000E+00  0.00000000000E+00  0.84742185154E+03  0.84742185155E+03  0.50400001928E-02 0.  1.
       -1   -1    0    0    0  501  0.00000000000E+00  0.00000000000E+00 -0.58787470036E+03  0.58787470038E+03  0.50400001928E-02 0. -1.
    10030    2    1    2    0    0  0.00000000000E+00  0.00000000000E+00  0.25954715118E+03  0.14352965519E+04  0.14116343253E+04 0.  0.
        5    1    3    3  502    0 -0.98412845638E+02 -0.62755822579E+03 -0.18302151105E+03  0.66108500092E+03  0.46999998093E+01 0. -1.
       -5    1    3    3    0  502  0.98412845638E+02  0.62755822579E+03  0.44256866223E+03  0.77421155101E+03  0.46999998093E+01 0.  1.
</event>
<event>
 5   0  0.1712327E-04  0.1390538E+04  0.7818609E-02  0.8960696E-01
       -2   -1    0    0    0  501  0.00000000000E+00  0.00000000000E+00  0.66656252094E+03  0.66656252094E+03  0.25500000920E-02 0.  1.
        2   -1    0    0  501    0  0.00000000000E+00  0.00000000000E+00 -0.72521150242E+03  0.72521150242E+03  0.25500000920E-02 0. -1.
    10030    2    1    2    0    0  0.00000000000E+00  0.00000000000E+00 -0.58648981477E+02  0.13917740234E+04  0.13905377482E+04 0.  0.
        1    1    3    3  502    0 -0.47084918032E+03 -0.18288382302E+03  0.44885895462E+03  0.67573649044E+03  0.50400001928E-02 0.  1.
       -1    1    3    3    0  502  0.47084918032E+03  0.18288382302E+03 -0.50750793610E+03  0.71603753293E+03  0.50400001928E-02 0. -1.
</event>
<event>
 5   0  0.9978422E-05  0.1382728E+04  0.7818609E-02  0.8966417E-01
        1   -1    0    0  501    0  0.00000000000E+00  0.00000000000E+00  0.10937293813E+04  0.10937293813E+04  0.50400001928E-02 0. -1.
       -1   -1    0    0    0  501  0.00000000000E+00  0.00000000000E+00 -0.43702225255E+03  0.43702225258E+03  0.50400001928E-02 0.  1.
    10030    2    1    2    0    0  0.00000000000E+00  0.00000000000E+00  0.65670712876E+03  0.15307516339E+04  0.13827278517E+04 0.  0.
        2    1    3    3  502    0 -0.31516268052E+03 -0.55834674877E+03  0.61470465182E+03  0.88822317918E+03  0.25500000920E-02 0. -1.
       -2    1    3    3    0  502  0.31516268052E+03  0.55834674877E+03  0.42002476945E+02  0.64252845473E+03  0.25500000920E-02 0.  1.
</event>
<event>
 5   0  0.9978422E-05  0.1403949E+04  0.7818609E-02  0.8950965E-01
        1   -1    0    0  501    0  0.00000000000E+00  0.00000000000E+00  0.93544555320E+03  0.93544555322E+03  0.50400001928E-02 0. -1.
       -1   -1    0    0    0  501  0.00000000000E+00  0.00000000000E+00 -0.52677366692E+03  0.52677366695E+03  0.50400001928E-02 0.  1.
    10030    2    1    2    0    0  0.00000000000E+00  0.00000000000E+00  0.40867188628E+03  0.14622192202E+04  0.14039488371E+04 0.  0.
        2    1    3    3  502    0  0.51346999954E+03 -0.14973691347E+03 -0.26917139975E+03  0.59877026156E+03  0.25500000920E-02 0.  1.
       -2    1    3    3    0  502 -0.51346999954E+03  0.14973691347E+03  0.67784328603E+03  0.86344895860E+03  0.25500000920E-02 0. -1.
</event>
<event>
 5   0  0.9900839E-05  0.1395483E+04  0.7818609E-02  0.8957095E-01
       -1   -1    0    0    0  501  0.00000000000E+00  0.00000000000E+00  0.89176839302E+03  0.89176839303E+03  0.50400001928E-02 0. -1.
        1   -1    0    0  501    0  0.00000000000E+00  0.00000000000E+00 -0.54593014997E+03  0.54593015000E+03  0.50400001928E-02 0.  1.
    10030    2    1    2    0    0  0.00000000000E+00  0.00000000000E+00  0.34583824305E+03  0.14376985430E+04  0.13954830742E+04 0.  0.
        3    1    3    3  502    0  0.44728725592E+03 -0.10465504503E+03  0.71399704742E+03  0.84900551334E+03  0.10100000352E+00 0. -1.
       -3    1    3    3    0  502 -0.44728725592E+03  0.10465504503E+03 -0.36815880438E+03  0.58869302968E+03  0.10100000352E+00 0.  1.
</event>
<event>
 5   0  0.1712327E-04  0.1403244E+04  0.7818609E-02  0.8951474E-01
        2   -1    0    0  501    0  0.00000000000E+00  0.00000000000E+00  0.19302960687E+04  0.19302960687E+04  0.25500000920E-02 0.  1.
       -2   -1    0    0    0  501  0.00000000000E+00  0.00000000000E+00 -0.25502469235E+03  0.25502469236E+03  0.25500000920E-02 0. -1.
    10030    2    1    2    0    0  0.00000000000E+00  0.00000000000E+00  0.16752713763E+04  0.21853207610E+04  0.14032436154E+04 0.  0.
        1    1    3    3  502    0  0.45807069548E+03  0.12738034620E+01  0.99844811931E+01  0.45818126819E+03  0.50400001928E-02 0. -1.
       -1    1    3    3    0  502 -0.45807069548E+03 -0.12738034620E+01  0.16652868951E+04  0.17271394928E+04  0.50400001928E-02 0.  1.
</event>
<event>
 5   0  0.9828111E-05  0.1404617E+04  0.7818609E-02  0.8950484E-01
       -1   -1    0    0    0  501  0.00000000000E+00  0.00000000000E+00  0.80300474754E+03  0.80300474755E+03  0.50400001928E-02 0. -1.
        1   -1    0    0  501    0  0.00000000000E+00  0.00000000000E+00 -0.61423911227E+03  0.61423911229E+03  0.50400001928E-02 0.  1.
    10030    2    1    2    0    0  0.00000000000E+00  0.00000000000E+00  0.18876563527E+03  0.14172438598E+04  0.14046165645E+04 0.  0.
        4    1    3    3  502    0  0.27472000335E+03  0.48885372638E+03 -0.33224962090E+03  0.65179787475E+03  0.12699999809E+01 0.  1.
       -4    1    3    3    0  502 -0.27472000335E+03 -0.48885372638E+03  0.52101525617E+03  0.76544598510E+03  0.12699999809E+01 0. -1.
</event>
<event>
 5   0  0.9828111E-05  0.1398694E+04  0.7818609E-02  0.8954764E-01
       -1   -1    0    0    0  501  0.00000000000E+00  0.00000000000E+00  0.38283520923E+03  0.38283520926E+03  0.50400001928E-02 0. -1.
        1   -1    0    0  501    0  0.00000000000E+00  0.00000000000E+00 -0.12775372025E+04  0.12775372025E+04  0.50400001928E-02 0.  1.
    10030    2    1    2    0    0  0.00000000000E+00  0.00000000000E+00 -0.89470199326E+03  0.16603724118E+04  0.13986939940E+04 0.  0.
        4    1    3    3  502    0  0.62000054843E+03  0.22619946731E+03 -0.17273132604E+03  0.68220568962E+03  0.12699999809E+01 0.  1.
       -4    1    3    3    0  502 -0.62000054843E+03 -0.22619946731E+03 -0.72197066722E+03  0.97816672213E+03  0.12699999809E+01 0. -1.
</event>
<event>
 5   0  0.6671375E-05  0.1400035E+04  0.7818609E-02  0.8953794E-01
       -1   -1    0    0    0  501  0.00000000000E+00  0.00000000000E+00  0.65431648907E+03  0.65431648909E+03  0.50400001928E-02 0.  1.
        1   -1    0    0  501    0  0.00000000000E+00  0.00000000000E+00 -0.74891006965E+03  0.74891006966E+03  0.50400001928E-02 0. -1.
    10030    2    1    2    0    0  0.00000000000E+00  0.00000000000E+00 -0.94593580576E+02  0.14032265588E+04  0.14000345816E+04 0.  0.
        5    1    3    3  502    0  0.40121657178E+03 -0.43595997969E+03 -0.42092851332E+03  0.72680034719E+03  0.46999998093E+01 0. -1.
       -5    1    3    3    0  502 -0.40121657178E+03  0.43595997969E+03  0.32633493274E+03  0.67642621156E+03  0.46999998093E+01 0.  1.
</event>
<event>
 5   0  0.1794185E-04  0.1399465E+04  0.7818609E-02  0.8954206E-01
       -2   -1    0    0    0  501  0.00000000000E+00  0.00000000000E+00  0.16130454507E+04  0.16130454507E+04  0.25500000920E-02 0. -1.
        2   -1    0    0  501    0  0.00000000000E+00  0.00000000000E+00 -0.30354095957E+03  0.30354095958E+03  0.25500000920E-02 0.  1.
    10030    2    1    2    0    0  0.00000000000E+00  0.00000000000E+00  0.13095044911E+04  0.19165864103E+04  0.13994647033E+04 0.  0.
        2    1    3    3  502    0 -0.13484677980E+02 -0.69947111933E+03  0.63619138404E+03  0.94561152724E+03  0.25500000920E-02 0. -1.
       -2    1    3    3    0  502  0.13484677980E+02  0.69947111933E+03  0.67331310711E+03  0.97097488306E+03  0.25500000920E-02 0.  1.
</event>
<event>
 5   0  0.1833681E-04  0.1414823E+04  0.7818609E-02  0.8943159E-01
       -2   -1    0    0    0  501  0.00000000000E+00  0.00000000000E+00  0.38357497769E+03  0.38357497769E+03  0.25500000920E-02 0. -1.
        2   -1    0    0  501    0  0.00000000000E+00  0.00000000000E+00 -0.13046489604E+04  0.13046489604E+04  0.25500000920E-02 0.  1.
    10030    2    1    2    0    0  0.00000000000E+00  0.00000000000E+00 -0.92107398269E+03  0.16882239381E+04  0.14148225272E+04 0.  0.
        4    1    3    3  502    0 -0.85529674869E+01  0.40197248222E+03  0.23398045224E+03  0.46519189014E+03  0.12699999809E+01 0. -1.
       -4    1    3    3    0  502  0.85529674869E+01 -0.40197248222E+03 -0.11550544349E+04  0.12230320479E+04  0.12699999809E+01 0.  1.
</event>
<event>
 5   0  0.1780171E-04  0.1399585E+04  0.7818609E-02  0.8954119E-01
       -2   -1    0    0    0  501  0.00000000000E+00  0.00000000000E+00  0.29339067716E+03  0.29339067717E+03  0.25500000920E-02 0.  1.
        2   -1    0    0  501    0  0.00000000000E+00  0.00000000000E+00 -0.16691370555E+04  0.16691370555E+04  0.25500000920E-02 0. -1.
    10030    2    1    2    0    0  0.00000000000E+00  0.00000000000E+00 -0.13757463783E+04  0.19625277327E+04  0.13995845826E+04 0.  0.
        5    1    3    3  502    0 -0.46172497160E+03 -0.46387689371E+03 -0.10350906638E+04  0.12246658704E+04  0.46999998093E+01 0. -1.
       -5    1    3    3    0  502  0.46172497160E+03  0.46387689371E+03 -0.34065571458E+03  0.73786186227E+03  0.46999998093E+01 0.  1.
</event>
<event>
 5   0  0.1766237E-04  0.1395983E+04  0.7818609E-02  0.8956731E-01
       -2   -1    0    0    0  501  0.00000000000E+00  0.00000000000E+00  0.70477859305E+03  0.70477859305E+03  0.25500000920E-02 0.  1.
        2   -1    0    0  501    0  0.00000000000E+00  0.00000000000E+00 -0.69126980377E+03  0.69126980378E+03  0.25500000920E-02 0. -1.
    10030    2    1    2    0    0  0.00000000000E+00  0.00000000000E+00  0.13508789279E+02  0.13960483968E+04  0.13959830368E+04 0.  0.
        3    1    3    3  502    0 -0.13400836237E+03 -0.68088224406E+03 -0.68304286255E+02  0.69729789702E+03  0.10100000352E+00 0. -1.
       -3    1    3    3    0  502  0.13400836237E+03  0.68088224406E+03  0.81813075533E+02  0.69875049981E+03  0.10100000352E+00 0.  1.
</event>
<event>
 5   0  0.1780171E-04  0.1400180E+04  0.7818609E-02  0.8953688E-01
       -2   -1    0    0    0  501  0.00000000000E+00  0.00000000000E+00  0.58045803253E+03  0.58045803253E+03  0.25500000920E-02 0. -1.
        2   -1    0    0  501    0  0.00000000000E+00  0.00000000000E+00 -0.84437840171E+03  0.84437840172E+03  0.25500000920E-02 0.  1.
    10030    2    1    2    0    0  0.00000000000E+00  0.00000000000E+00 -0.26392036919E+03  0.14248364342E+04  0.14001803109E+04 0.  0.
        5    1    3    3  502    0  0.84528566907E+02  0.35248839559E+03 -0.74143166158E+03  0.82530972758E+03  0.46999998093E+01 0.  1.
       -5    1    3    3    0  502 -0.84528566907E+02 -0.35248839559E+03  0.47751129239E+03  0.59952670667E+03  0.46999998093E+01 0. -1.
</event>
<event>
 5   0  0.1794185E-04  0.1401900E+04  0.7818609E-02  0.8952444E-01
        2   -1    0    0  501    0  0.00000000000E+00  0.00000000000E+00  0.12979418898E+04  0.12979418898E+04  0.25500000920E-02 0.  1.
       -2   -1    0    0    0  501  0.00000000000E+00  0.00000000000E+00 -0.37854628895E+03  0.37854628896E+03  0.25500000920E-02 0. -1.
    10030    2    1    2    0    0  0.00000000000E+00  0.00000000000E+00  0.91939560085E+03  0.16764881788E+04  0.14019002613E+04 0.  0.
        2    1    3    3  502    0  0.36484611788E+02 -0.32495152780E+03 -0.28174682154E+03  0.43163166447E+03  0.25500000920E-02 0. -1.
       -2    1    3    3    0  502 -0.36484611788E+02  0.32495152780E+03  0.12011424224E+04  0.12448565143E+04  0.25500000920E-02 0.  1.
</event>
<event>
 5   0  0.9260916E-05  0.1398724E+04  0.7818609E-02  0.8954743E-01
        1   -1    0    0  501    0  0.00000000000E+00  0.00000000000E+00  0.71149908655E+03  0.71149908657E+03  0.50400001928E-02 0.  1.
       -1   -1    0    0    0  501  0.00000000000E+00  0.00000000000E+00 -0.68743180341E+03  0.68743180343E+03  0.50400001928E-02 0. -1.
    10030    2    1    2    0    0  0.00000000000E+00  0.00000000000E+00  0.24067283138E+02  0.13989308900E+04  0.13987238472E+04 0.  0.
        1    1    3    3  502    0  0.69470764788E+03 -0.27327626739E+02  0.87818104896E+02  0.70076924503E+03  0.50400001928E-02 0.  1.
       -1    1    3    3    0  502 -0.69470764788E+03  0.27327626739E+02 -0.63750821758E+02  0.69816164497E+03  0.50400001928E-02 0. -1.
</event>
<event>
 5   0  0.9828111E-05  0.1400292E+04  0.7818609E-02  0.8953607E-01
        1   -1    0    0  501    0  0.00000000000E+00  0.00000000000E+00  0.10773369365E+04  0.10773369365E+04  0.50400001928E-02 0. -1.
       -1   -1    0    0    0  501  0.00000000000E+00  0.00000000000E+00 -0.45501483331E+03  0.45501483334E+03  0.50400001928E-02 0.  1.
    10030    2    1    2    0    0  0.00000000000E+00  0.00000000000E+00  0.62232210315E+03  0.15323517698E+04  0.14002918076E+04 0.  0.
        4    1    3    3  502    0 -0.32899631380E+02 -0.29186496828E+03 -0.38433671216E+03  0.48371878883E+03  0.12699999809E+01 0.  1.
       -4    1    3    3    0  502  0.32899631380E+02  0.29186496828E+03  0.10066588153E+04  0.10486329810E+04  0.12699999809E+01 0. -1.
</event>
<event>
 5   0  0.1833681E-04  0.1401508E+04  0.7818609E-02  0.8952728E-01
        2   -1    0    0  501    0  0.00000000000E+00  0.00000000000E+00  0.84157356740E+03  0.84157356740E+03  0.25500000920E-02 0.  1.
       -2   -1    0    0    0  501  0.00000000000E+00  0.00000000000E+00 -0.58349781809E+03  0.58349781810E+03  0.25500000920E-02 0. -1.
    10030    2    1    2    0    0  0.00000000000E+00  0.00000000000E+00  0.25807574931E+03  0.14250713855E+04  0.14015082452E+04 0.  0.
        4    1    3    3  502    0  0.15636318863E+03 -0.51879932422E+03 -0.32278927883E+03  0.63071127864E+03  0.12699999809E+01 0. -1.
       -4    1    3    3    0  502 -0.15636318863E+03  0.51879932422E+03  0.58086502814E+03  0.79436010687E+03  0.12699999809E+01 0.  1.
</event>
<event>
 5   0  0.1833681E-04  0.1398211E+04  0.7818609E-02  0.8955115E-01
        2   -1    0    0  501    0  0.00000000000E+00  0.00000000000E+00  0.12816759495E+04  0.12816759495E+04  0.25500000920E-02 0. -1.
       -2   -1    0    0    0  501  0.00000000000E+00  0.00000000000E+00 -0.38133531259E+03  0.38133531260E+03  0.25500000920E-02 0.  1.
    10030    2    1    2    0    0  0.00000000000E+00  0.00000000000E+00  0.90034063687E+03  0.16630112621E+04  0.13982107121E+04 0.  0.
        4    1    3    3  502    0 -0.67488281266E+03 -0.12643170877E+03  0.60658646029E+03  0.91618804539E+03  0.12699999809E+01 0. -1.
       -4    1    3    3    0  502  0.67488281266E+03  0.12643170877E+03  0.29375417658E+03  0.74682321668E+03  0.12699999809E+01 0.  1.
</event>
<event>
 5   0  0.9978422E-05  0.1401357E+04  0.7818609E-02  0.8952837E-01
        1   -1    0    0  501    0  0.00000000000E+00  0.00000000000E+00  0.59832514720E+03  0.59832514722E+03  0.50400001928E-02 0.  1.
       -1   -1    0    0    0  501  0.00000000000E+00  0.00000000000E+00 -0.82054070325E+03  0.82054070326E+03  0.50400001928E-02 0. -1.
    10030    2    1    2    0    0  0.00000000000E+00  0.00000000000E+00 -0.22221555605E+03  0.14188658505E+04  0.14013566813E+04 0.  0.
        2    1    3    3  502    0  0.22412382791E+03 -0.56301949904E+03  0.24503660645E+03  0.65365540237E+03  0.25500000920E-02 0.  1.
       -2    1    3    3    0  502 -0.22412382791E+03  0.56301949904E+03 -0.46725216249E+03  0.76521044811E+03  0.25500000920E-02 0. -1.
</event>
<event>
 5   0  0.9978422E-05  0.1394412E+04  0.7818609E-02  0.8957874E-01
        1   -1    0    0  501    0  0.00000000000E+00  0.00000000000E+00  0.10150557468E+04  0.10150557468E+04  0.50400001928E-02 0.  1.
       -1   -1    0    0    0  501  0.00000000000E+00  0.00000000000E+00 -0.47888604235E+03  0.47888604238E+03  0.50400001928E-02 0. -1.
    10030    2    1    2    0    0  0.00000000000E+00  0.00000000000E+00  0.53616970447E+03  0.14939417892E+04  0.13944117461E+04 0.  0.
        2    1    3    3  502    0  0.23221304025E+03 -0.51840080786E+03  0.70121009677E+03  0.90241780428E+03  0.25500000920E-02 0.  1.
       -2    1    3    3    0  502 -0.23221304025E+03  0.51840080786E+03 -0.16504039230E+03  0.59152398494E+03  0.25500000920E-02 0. -1.
</event>
<event>
 5   0  0.1794185E-04  0.1405990E+04  0.7818609E-02  0.8949494E-01
        2   -1    0    0  501    0  0.00000000000E+00  0.00000000000E+00  0.14727361145E+04  0.14727361145E+04  0.25500000920E-02 0.  1.
       -2   -1    0    0    0  501  0.00000000000E+00  0.00000000000E+00 -0.33556732288E+03  0.33556732289E+03  0.25500000920E-02 0. -1.
    10030    2    1    2    0    0  0.00000000000E+00  0.00000000000E+00  0.11371687916E+04  0.18083034374E+04  0.14059902066E+04 0.  0.
        2    1    3    3  502    0 -0.53317466854E+03  0.39377708335E+03  0.26732359399E+03  0.71470100213E+03  0.25500000920E-02 0. -1.
       -2    1    3    3    0  502  0.53317466854E+03 -0.39377708335E+03  0.86984519759E+03  0.10936024352E+04  0.25500000920E-02 0.  1.
</event>
<event>
 5   0  0.1766237E-04  0.1398033E+04  0.7818609E-02  0.8955244E-01
        2   -1    0    0  501    0  0.00000000000E+00  0.00000000000E+00  0.24331137366E+04  0.24331137366E+04  0.25500000920E-02 0. -1.
       -2   -1    0    0    0  501  0.00000000000E+00  0.00000000000E+00 -0.20082241024E+03  0.20082241026E+03  0.25500000920E-02 0.  1.
    10030    2    1    2    0    0  0.00000000000E+00  0.00000000000E+00  0.22322913264E+04  0.26339361469E+04  0.13980325676E+04 0.  0.
        3    1    3    3  502    0 -0.91710588836E+02  0.42018263135E+03  0.21543465012E+04  0.21968552828E+04  0.10100000352E+00 0. -1.
       -3    1    3    3    0  502  0.91710588836E+02 -0.42018263135E+03  0.77944825116E+02  0.43708086409E+03  0.10100000352E+00 0.  1.
</event>
<event>
 5   0  0.6671375E-05  0.1401868E+04  0.7818609E-02  0.8952468E-01
       -3   -1    0    0    0  501  0.00000000000E+00  0.00000000000E+00  0.55966971721E+03  0.55966972632E+03  0.10100000352E+00 0. -1.
        3   -1    0    0  501    0  0.00000000000E+00  0.00000000000E+00 -0.87785410540E+03  0.87785411121E+03  0.10100000352E+00 0.  1.
    10030    2    1    2    0    0  0.00000000000E+00  0.00000000000E+00 -0.31818438819E+03  0.14375238375E+04  0.14018678535E+04 0.  0.
        3    1    3    3  502    0  0.32290376756E+03  0.61319223343E+03 -0.26682043990E+03  0.74260670317E+03  0.10100000352E+00 0.  1.
       -3    1    3    3    0  502 -0.32290376756E+03 -0.61319223343E+03 -0.51363948294E+02  0.69491713436E+03  0.10100000352E+00 0. -1.
</event>
<event>
 5   0  0.6671375E-05  0.1391878E+04  0.7818609E-02  0.8959718E-01
        1   -1    0    0  501    0  0.00000000000E+00  0.00000000000E+00  0.93592956078E+03  0.93592956080E+03  0.50400001928E-02 0. -1.
       -1   -1    0    0    0  501  0.00000000000E+00  0.00000000000E+00 -0.51748701564E+03  0.51748701567E+03  0.50400001928E-02 0.  1.
    10030    2    1    2    0    0  0.00000000000E+00  0.00000000000E+00  0.41844254514E+03  0.14534165765E+04  0.13918784362E+04 0.  0.
        5    1    3    3  502    0 -0.43117878750E+03 -0.32802876655E+03  0.66532967316E+03  0.85802312466E+03  0.46999998093E+01 0. -1.
       -5    1    3    3    0  502  0.43117878750E+03  0.32802876655E+03 -0.24688712802E+03  0.59539345180E+03  0.46999998093E+01 0.  1.
</event>
<event>
 5   0  0.1794185E-04  0.1391985E+04  0.7818609E-02  0.8959641E-01
        2   -1    0    0  501    0  0.00000000000E+00  0.00000000000E+00  0.18909117770E+04  0.18909117770E+04  0.25500000920E-02 0.  1.
       -2   -1    0    0    0  501  0.00000000000E+00  0.00000000000E+00 -0.25617565951E+03  0.25617565952E+03  0.25500000920E-02 0. -1.
    10030    2    1    2    0    0  0.00000000000E+00  0.00000000000E+00  0.16347361175E+04  0.21470874365E+04  0.13919850165E+04 0.  0.
        2    1    3    3  502    0 -0.62135516729E+03  0.28270076015E+03  0.60811748595E+03  0.91422581479E+03  0.25500000920E-02 0.  1.
       -2    1    3    3    0  502  0.62135516729E+03 -0.28270076015E+03  0.10266186316E+04  0.12328616218E+04  0.25500000920E-02 0. -1.
</event>
<event>
 5   0  0.1712327E-04  0.1401988E+04  0.7818609E-02  0.8952381E-01
       -2   -1    0    0    0  501  0.00000000000E+00  0.00000000000E+00  0.63875189245E+03  0.63875189246E+03  0.25500000920E-02 0.  1.
        2   -1    0    0  501    0  0.00000000000E+00  0.00000000000E+00 -0.76930111214E+03  0.76930111215E+03  0.25500000920E-02 0. -1.
    10030    2    1    2    0    0  0.00000000000E+00  0.00000000000E+00 -0.13054921969E+03  0.14080530046E+04  0.14019879333E+04 0.  0.
        1    1    3    3  502    0 -0.40221504421E+03 -0.59408374760E+02 -0.63878457360E+03  0.75720012432E+03  0.50400001928E-02 0. -1.
       -1    1    3    3    0  502  0.40221504421E+03  0.59408374760E+02  0.50823535391E+03  0.65085288028E+03  0.50400001928E-02 0.  1.
</event>
<event>
 5   0  0.6671375E-05  0.1407482E+04  0.7818609E-02  0.8948421E-01
        1   -1    0    0  501    0  0.00000000000E+00  0.00000000000E+00  0.85619658470E+03  0.85619658471E+03  0.50400001928E-02 0.  1.
       -1   -1    0    0    0  501  0.00000000000E+00  0.00000000000E+00 -0.57843149019E+03  0.57843149021E+03  0.50400001928E-02 0. -1.
    10030    2    1    2    0    0  0.00000000000E+00  0.00000000000E+00  0.27776509451E+03  0.14346280749E+04  0.14074815330E+04 0.  0.
        5    1    3    3  502    0 -0.43953024964E+03 -0.33110661480E+02 -0.42028348070E+03  0.60905127075E+03  0.46999998093E+01 0. -1.
       -5    1    3    3    0  502  0.43953024964E+03  0.33110661480E+02  0.69804857521E+03  0.82557680418E+03  0.46999998093E+01 0.  1.
</event>
<event>
 5   0  0.1780171E-04  0.1399766E+04  0.7818609E-02  0.8953988E-01
        2   -1    0    0  501    0  0.00000000000E+00  0.00000000000E+00  0.14224352370E+04  0.14224352370E+04  0.25500000920E-02 0.  1.
       -2   -1    0    0    0  501  0.00000000000E+00  0.00000000000E+00 -0.34436444484E+03  0.34436444485E+03  0.25500000920E-02 0. -1.
    10030    2    1    2    0    0  0.00000000000E+00  0.00000000000E+00  0.10780707921E+04  0.17667996818E+04  0.13997658672E+04 0.  0.
        5    1    3    3  502    0  0.25430011654E+02 -0.13416117922E+03 -0.32736743661E+03  0.35473572707E+03  0.46999998093E+01 0. -1.
       -5    1    3    3    0  502 -0.25430011654E+02  0.13416117922E+03  0.14054382288E+04  0.14120639548E+04  0.46999998093E+01 0.  1.
</event>
<event>
 5   0  0.1833681E-04  0.1399999E+04  0.7818609E-02  0.8953819E-01
        2   -1    0    0  501    0  0.00000000000E+00  0.00000000000E+00  0.87872060623E+03  0.87872060623E+03  0.25500000920E-02 0.  1.
       -2   -1    0    0    0  501  0.00000000000E+00  0.00000000000E+00 -0.55762788425E+03  0.55762788426E+03  0.25500000920E-02 0. -1.
    10030    2    1    2    0    0  0.00000000000E+00  0.00000000000E+00  0.32109272198E+03  0.14363484905E+04  0.13999987322E+04 0.  0.
        4    1    3    3  502    0  0.27208053693E+03 -0.37639566198E+02 -0.50002871261E+03  0.57050405945E+03  0.12699999809E+01 0. -1.
       -4    1    3    3    0  502 -0.27208053693E+03  0.37639566198E+02  0.82112143459E+03  0.86584443104E+03  0.12699999809E+01 0.  1.
</event>
<event>
 5   0  0.1794185E-04  0.1396920E+04  0.7818609E-02  0.8956051E-01
       -2   -1    0    0    0  501  0.00000000000E+00  0.00000000000E+00  0.40420096234E+03  0.40420096235E+03  0.25500000920E-02 0.  1.
        2   -1    0    0  501    0  0.00000000000E+00  0.00000000000E+00 -0.12069403236E+04  0.12069403236E+04  0.25500000920E-02 0. -1.
    10030    2    1    2    0    0  0.00000000000E+00  0.00000000000E+00 -0.80273936129E+03  0.16111412860E+04  0.13969200984E+04 0.  0.
        2    1    3    3  502    0  0.38467414441E+03  0.29554249292E+03 -0.98095298354E+03  0.10943437844E+04  0.25500000920E-02 0. -1.
       -2    1    3    3    0  502 -0.38467414441E+03 -0.29554249292E+03  0.17821362226E+03  0.51679750160E+03  0.25500000920E-02 0.  1.
</event>
<event>
 5   0  0.9900839E-05  0.1397969E+04  0.7818609E-02  0.8955290E-01
       -1   -1    0    0    0  501  0.00000000000E+00  0.00000000000E+00  0.43865216621E+03  0.43865216623E+03  0.50400001928E-02 0.  1.
        1   -1    0    0  501    0  0.00000000000E+00  0.00000000000E+00 -0.11138199518E+04  0.11138199518E+04  0.50400001928E-02 0. -1.
    10030    2    1    2    0    0  0.00000000000E+00  0.00000000000E+00 -0.67516778555E+03  0.15524721180E+04  0.13979692910E+04 0.  0.
        3    1    3    3  502    0  0.29538685178E+03  0.55464456748E+03 -0.67751086632E+03  0.92406978775E+03  0.10100000352E+00 0. -1.
       -3    1    3    3    0  502 -0.29538685178E+03 -0.55464456748E+03  0.23430807755E+01  0.62840233025E+03  0.10100000352E+00 0.  1.
</event>
<event>
 5   0  0.6671375E-05  0.1400553E+04  0.7818609E-02  0.8953418E-01
        1   -1    0    0  501    0  0.00000000000E+00  0.00000000000E+00  0.10197092360E+04  0.10197092360E+04  0.50400001928E-02 0.  1.
       -1   -1    0    0    0  501  0.00000000000E+00  0.00000000000E+00 -0.48090892413E+03  0.48090892415E+03  0.50400001928E-02 0. -1.
    10030    2    1    2    0    0  0.00000000000E+00  0.00000000000E+00  0.53880031186E+03  0.15006181602E+04  0.14005531359E+04 0.  0.
        5    1    3    3  502    0 -0.14262857786E+03  0.21183472175E+02  0.10036137341E+04  0.10139301100E+04  0.46999998093E+01 0.  1.
       -5    1    3    3    0  502  0.14262857786E+03 -0.21183472175E+02 -0.46481342221E+03  0.48668805017E+03  0.46999998093E+01 0. -1.
</event>
<event>
 5   0  0.1712327E-04  0.1400976E+04  0.7818609E-02  0.8953112E-01
        2   -1    0    0  501    0  0.00000000000E+00  0.00000000000E+00  0.12836734796E+04  0.12836734796E+04  0.25500000920E-02 0. -1.
       -2   -1    0    0    0  501  0.00000000000E+00  0.00000000000E+00 -0.38224957576E+03  0.38224957576E+03  0.25500000920E-02 0.  1.
    10030    2    1    2    0    0  0.00000000000E+00  0.00000000000E+00  0.90142390383E+03  0.16659230554E+04  0.14009762924E+04 0.  0.
        1    1    3    3  502    0  0.69253961960E+03 -0.10364244494E+03  0.47233823397E+03  0.84466341723E+03  0.50400001928E-02 0.  1.
       -1    1    3    3    0  502 -0.69253961960E+03  0.10364244494E+03  0.42908566986E+03  0.82125963812E+03  0.50400001928E-02 0. -1.
</event>
<event>
 5   0  0.1780171E-04  0.1399638E+04  0.7818609E-02  0.8954081E-01
        2   -1    0    0  501    0  0.00000000000E+00  0.00000000000E+00  0.15613540565E+04  0.15613540565E+04  0.25500000920E-02 0. -1.
       -2   -1    0    0    0  501  0.00000000000E+00  0.00000000000E+00 -0.31366787407E+03  0.31366787408E+03  0.25500000920E-02 0.  1.
    10030    2    1    2    0    0  0.00000000000E+00  0.00000000000E+00  0.12476861824E+04  0.18750219306E+04  0.13996379640E+04 0.  0.
        5    1    3    3  502    0 -0.24929768175E+02  0.70767544172E+02  0.15559289667E+04  0.15577440670E+04  0.46999998093E+01 0. -1.
       -5    1    3    3    0  502  0.24929768175E+02 -0.70767544172E+02 -0.30824278431E+03  0.31727786360E+03  0.46999998093E+01 0.  1.
</event>
<event>
 5   0  0.1780171E-04  0.1400323E+04  0.7818609E-02  0.8953585E-01
        2   -1    0    0  501    0  0.00000000000E+00  0.00000000000E+00  0.11810450124E+04  0.11810450124E+04  0.25500000920E-02 0.  1.
       -2   -1    0    0    0  501  0.00000000000E+00  0.00000000000E+00 -0.41507830417E+03  0.41507830418E+03  0.25500000920E-02 0. -1.
    10030    2    1    2    0    0  0.00000000000E+00  0.00000000000E+00  0.76596670824E+03  0.15961233166E+04  0.14003230497E+04 0.  0.
        5    1    3    3  502    0 -0.60667788944E+03 -0.31062482534E+03  0.56556265012E+03  0.88567999010E+03  0.46999998093E+01 0.  1.
       -5    1    3    3    0  502  0.60667788944E+03  0.31062482534E+03  0.20040405812E+03  0.71044332649E+03  0.46999998093E+01 0. -1.
</event>
<event>
 5   0  0.9828111E-05  0.1397083E+04  0.7818609E-02  0.8955932E-01
       -1   -1    0    0    0  501  0.00000000000E+00  0.00000000000E+00  0.29525117896E+03  0.29525117900E+03  0.50400001928E-02 0.  1.
        1   -1    0    0  501    0  0.00000000000E+00  0.00000000000E+00 -0.16526961834E+04  0.16526961834E+04  0.50400001928E-02 0. -1.
    10030    2    1    2    0    0  0.00000000000E+00  0.00000000000E+00 -0.13574450044E+04  0.19479473624E+04  0.13970833857E+04 0.  0.
        4    1    3    3  502    0  0.19068291946E+02 -0.13013923277E+03  0.27782843729E+03  0.30739237650E+03  0.12699999809E+01 0.  1.
       -4    1    3    3    0  502 -0.19068291946E+02  0.13013923277E+03 -0.16352734417E+04  0.16405549859E+04  0.12699999809E+01 0. -1.
</event>
<event>
 5   0  0.9828111E-05  0.1394779E+04  0.7818609E-02  0.8957606E-01
       -1   -1    0    0    0  501  0.00000000000E+00  0.00000000000E+00  0.19277143770E+04  0.19277143770E+04  0.50400001928E-02 0.  1.
        1   -1    0    0  501    0  0.00000000000E+00  0.00000000000E+00 -0.25229475570E+03  0.25229475575E+03  0.50400001928E-02 0. -1.
    10030    2    1    2    0    0  0.00000000000E+00  0.00000000000E+00  0.16754196213E+04  0.21800091328E+04  0.13947791623E+04 0.  0.
        4    1    3    3  502    0  0.27368139634E+03 -0.30253307746E+03  0.17217570847E+04  0.17694283940E+04  0.12699999809E+01 0.  1.
       -4    1    3    3    0  502 -0.27368139634E+03  0.30253307746E+03 -0.46337463423E+02  0.41058073880E+03  0.12699999809E+01 0. -1.
</event>
<event>
 5   0  0.9978422E-05  0.1402105E+04  0.7818609E-02  0.8952296E-01
       -1   -1    0    0    0  501  0.00000000000E+00  0.00000000000E+00  0.50175231605E+03  0.50175231608E+03  0.50400001928E-02 0. -1.
        1   -1    0    0  501    0  0.00000000000E+00  0.00000000000E+00 -0.97951632404E+03  0.97951632405E+03  0.50400001928E-02 0.  1.
    10030    2    1    2    0    0  0.00000000000E+00  0.00000000000E+00 -0.47776400799E+03  0.14812686401E+04  0.14021049664E+04 0.  0.
        2    1    3    3  502    0 -0.86580650931E+02  0.48047499190E+03  0.29263649270E+03  0.56919991552E+03  0.25500000920E-02 0. -1.
       -2    1    3    3    0  502  0.86580650931E+02 -0.48047499190E+03 -0.77040050068E+03  0.91206872462E+03  0.25500000920E-02 0.  1.
</event>
<event>
 5   0  0.1712327E-04  0.1400358E+04  0.7818609E-02  0.8953560E-01
       -2   -1    0    0    0  501  0.00000000000E+00  0.00000000000E+00  0.50768675449E+03  0.50768675449E+03  0.25500000920E-02 0.  1.
        2   -1    0    0  501    0  0.00000000000E+00  0.00000000000E+00 -0.96565544696E+03  0.96565544697E+03  0.25500000920E-02 0. -1.
    10030    2    1    2    0    0  0.00000000000E+00  0.00000000000E+00 -0.45796869248E+03  0.14733422015E+04  0.14003577826E+04 0.  0.
        1    1    3    3  502    0 -0.33859502193E+03  0.61263920332E+03 -0.21147052498E+03  0.73122716393E+03  0.50400001928E-02 0.  1.
       -1    1    3    3    0  502  0.33859502193E+03 -0.61263920332E+03 -0.24649816750E+03  0.74211503753E+03  0.50400001928E-02 0. -1.
</event>
<event>
 5   0  0.1780171E-04  0.1393508E+04  0.7818609E-02  0.8958531E-01
        2   -1    0    0  501    0  0.00000000000E+00  0.00000000000E+00  0.17534219596E+04  0.17534219596E+04  0.25500000920E-02 0.  1.
       -2   -1    0    0    0  501  0.00000000000E+00  0.00000000000E+00 -0.27686791028E+03  0.27686791029E+03  0.25500000920E-02 0. -1.
    10030    2    1    2    0    0  0.00000000000E+00  0.00000000000E+00  0.14765540493E+04  0.20302898699E+04  0.13935081970E+04 0.  0.
        5    1    3    3  502    0 -0.27102060228E+03 -0.46039947436E+03  0.13898903307E+04  0.14890389734E+04  0.46999998093E+01 0.  1.
       -5    1    3    3    0  502  0.27102060228E+03  0.46039947436E+03  0.86663718613E+02  0.54125089651E+03  0.46999998093E+01 0. -1.
</event>
<event>
 5   0  0.1766237E-04  0.1399186E+04  0.7818609E-02  0.8954408E-01
        2   -1    0    0  501    0  0.00000000000E+00  0.00000000000E+00  0.11149198855E+04  0.11149198855E+04  0.25500000920E-02 0.  1.
       -2   -1    0    0    0  501  0.00000000000E+00  0.00000000000E+00 -0.43898226510E+03  0.43898226510E+03  0.25500000920E-02 0. -1.
    10030    2    1    2    0    0  0.00000000000E+00  0.00000000000E+00  0.67593762037E+03  0.15539021506E+04  0.13991855584E+04 0.  0.
        3    1    3    3  502    0  0.68695225005E+02 -0.55545672908E+03  0.80411830764E+03  0.97972316227E+03  0.10100000352E+00 0.  1.
       -3    1    3    3    0  502 -0.68695225005E+02  0.55545672908E+03 -0.12818068727E+03  0.57417898830E+03  0.10100000352E+00 0. -1.
</event>
<event>
 5   0  0.9828111E-05  0.1398235E+04  0.7818609E-02  0.8955097E-01
        1   -1    0    0  501    0  0.00000000000E+00  0.00000000000E+00  0.55907761047E+03  0.55907761049E+03  0.50400001928E-02 0.  1.
       -1   -1    0    0    0  501  0.00000000000E+00  0.00000000000E+00 -0.87423521435E+03  0.87423521436E+03  0.50400001928E-02 0. -1.
    10030    2    1    2    0    0  0.00000000000E+00  0.00000000000E+00 -0.31515760388E+03  0.14333128249E+04  0.13982350799E+04 0.  0.
        4    1    3    3  502    0 -0.35365034835E+03  0.38028721916E+03 -0.63737739630E+03  0.82215478844E+03  0.12699999809E+01 0. -1.
       -4    1    3    3    0  502  0.35365034835E+03 -0.38028721916E+03  0.32221979242E+03  0.61115803641E+03  0.12699999809E+01 0.  1.
</event>
<event>
 5   0  0.1712327E-04  0.1399054E+04  0.7818609E-02  0.8954504E-01
       -2   -1    0    0    0  501  0.00000000000E+00  0.00000000000E+00  0.32103266682E+03  0.32103266683E+03  0.25500000920E-02 0. -1.
        2   -1    0    0  501    0  0.00000000000E+00  0.00000000000E+00 -0.15242617841E+04  0.15242617841E+04  0.25500000920E-02 0.  1.
    10030    2    1    2    0    0  0.00000000000E+00  0.00000000000E+00 -0.12032291173E+04  0.18452944509E+04  0.13990537166E+04 0.  0.
        1    1    3    3  502    0  0.53388822676E+03  0.97435844604E+02 -0.19465688142E+02  0.54305551790E+03  0.50400001928E-02 0.  1.
       -1    1    3    3    0  502 -0.53388822676E+03 -0.97435844604E+02 -0.11837634291E+04  0.13022389330E+04  0.50400001928E-02 0. -1.
</event>
<event>
 5   0  0.9828111E-05  0.1396911E+04  0.7818609E-02  0.8956057E-01
        1   -1    0    0  501    0  0.00000000000E+00  0.00000000000E+00  0.33765454326E+03  0.33765454330E+03  0.50400001928E-02 0.  1.
       -1   -1    0    0    0  501  0.00000000000E+00  0.00000000000E+00 -0.14447906993E+04  0.14447906993E+04  0.50400001928E-02 0. -1.
    10030    2    1    2    0    0  0.00000000000E+00  0.00000000000E+00 -0.11071361560E+04  0.17824452426E+04  0.13969110834E+04 0.  0.
        4    1    3    3  502    0 -0.46922587857E+03 -0.48705988183E+03 -0.33095151782E+03  0.75294805509E+03  0.12699999809E+01 0.  1.
       -4    1    3    3    0  502  0.46922587857E+03  0.48705988183E+03 -0.77618463819E+03  0.10294971875E+04  0.12699999809E+01 0. -1.
</event>
<event>
 5   0  0.1766237E-04  0.1398162E+04  0.7818609E-02  0.8955150E-01
       -2   -1    0    0    0  501  0.00000000000E+00  0.00000000000E+00  0.29518324269E+03  0.29518324270E+03  0.25500000920E-02 0. -1.
        2   -1    0    0  501    0  0.00000000000E+00  0.00000000000E+00 -0.16556292306E+04  0.16556292306E+04  0.25500000920E-02 0.  1.
    10030    2    1    2    0    0  0.00000000000E+00  0.00000000000E+00 -0.13604459879E+04  0.19508124733E+04  0.13981616573E+04 0.  0.
        3    1    3    3  502    0  0.27394625447E+03  0.51168643479E+03 -0.13652519053E+03  0.59624549955E+03  0.10100000352E+00 0. -1.
       -3    1    3    3    0  502 -0.27394625447E+03 -0.51168643479E+03 -0.12239207974E+04  0.13545669737E+04  0.10100000352E+00 0.  1.
</event>
<event>
 5   0  0.1833681E-04  0.1399849E+04  0.7818609E-02  0.8953928E-01
       -2   -1    0    0    0  501  0.00000000000E+00  0.00000000000E+00  0.95996390640E+03  0.95996390641E+03  0.25500000920E-02 0.  1.
        2   -1    0    0  501    0  0.00000000000E+00  0.00000000000E+00 -0.51032591881E+03  0.51032591882E+03  0.25500000920E-02 0. -1.
    10030    2    1    2    0    0  0.00000000000E+00  0.00000000000E+00  0.44963798759E+03  0.14702898252E+04  0.13998492241E+04 0.  0.
        4    1    3    3  502    0 -0.21625801042E+03  0.14011726288E+02  0.92383761637E+03  0.94891591296E+03  0.12699999809E+01 0.  1.
       -4    1    3    3    0  502  0.21625801042E+03 -0.14011726288E+02 -0.47419962878E+03  0.52137391226E+03  0.12699999809E+01 0. -1.
</event>
<event>
 5   0  0.9260916E-05  0.1404520E+04  0.7818609E-02  0.8950553E-01
       -1   -1    0    0    0  501  0.00000000000E+00  0.00000000000E+00  0.42769829115E+03  0.42769829118E+03  0.50400001928E-02 0. -1.
        1   -1    0    0  501    0  0.00000000000E+00  0.00000000000E+00 -0.11530775935E+04  0.11530775935E+04  0.50400001928E-02 0.  1.
    10030    2    1    2    0    0  0.00000000000E+00  0.00000000000E+00 -0.72537930233E+03  0.15807758847E+04  0.14045202972E+04 0.  0.
        1    1    3    3  502    0 -0.55064115465E+03 -0.45438743633E+02 -0.85056004663E+03  0.10142597072E+04  0.50400001928E-02 0.  1.
       -1    1    3    3    0  502  0.55064115465E+03  0.45438743633E+02  0.12518074430E+03  0.56651617751E+03  0.50400001928E-02 0. -1.
</event>
<event>
 5   0  0.1712327E-04  0.1393029E+04  0.7818609E-02  0.8958880E-01
       -2   -1    0    0    0  501  0.00000000000E+00  0.00000000000E+00  0.59186416960E+03  0.59186416961E+03  0.25500000920E-02 0.  1.
        2   -1    0    0  501    0  0.00000000000E+00  0.00000000000E+00 -0.81966816886E+03  0.81966816886E+03  0.25500000920E-02 0. -1.
    10030    2    1    2    0    0  0.00000000000E+00  0.00000000000E+00 -0.22780399926E+03  0.14115323385E+04  0.13930286718E+04 0.  0.
        1    1    3    3  502    0  0.67097833255E+03 -0.15406868182E+03 -0.67469525879E+01  0.68847265949E+03  0.50400001928E-02 0.  1.
       -1    1    3    3    0  502 -0.67097833255E+03  0.15406868182E+03 -0.22105704667E+03  0.72305967899E+03  0.50400001928E-02 0. -1.
</event>
<event>
 5   0  0.6671375E-05  0.1429209E+04  0.7818609E-02  0.8932943E-01
       -1   -1    0    0    0  501  0.00000000000E+00  0.00000000000E+00  0.81960459395E+03  0.81960459396E+03  0.50400001928E-02 0.  1.
        1   -1    0    0  501    0  0.00000000000E+00  0.00000000000E+00 -0.62305570846E+03  0.62305570848E+03  0.50400001928E-02 0. -1.
    10030    2    1    2    0    0  0.00000000000E+00  0.00000000000E+00  0.19654888549E+03  0.14426603024E+04  0.14292086215E+04 0.  0.
        5    1    3    3  502    0  0.53848350469E+03  0.39273817174E+03  0.35843943821E+03  0.75677518275E+03  0.46999998093E+01 0. -1.
       -5    1    3    3    0  502 -0.53848350469E+03 -0.39273817174E+03 -0.16189055272E+03  0.68588511970E+03  0.46999998093E+01 0.  1.
</event>
<event>
 5   0  0.6671375E-05  0.1400448E+04  0.7818609E-02  0.8953495E-01
       -1   -1    0    0    0  501  0.00000000000E+00  0.00000000000E+00  0.87422371886E+03  0.87422371887E+03  0.50400001928E-02 0. -1.
        1   -1    0    0  501    0  0.00000000000E+00  0.00000000000E+00 -0.56085577217E+03  0.56085577219E+03  0.50400001928E-02 0.  1.
    10030    2    1    2    0    0  0.00000000000E+00  0.00000000000E+00  0.31336794669E+03  0.14350794911E+04  0.14004476697E+04 0.  0.
        5    1    3    3  502    0  0.56898162031E+03 -0.84331916481E+02  0.56585687218E+03  0.80688787708E+03  0.46999998093E+01 0. -1.
       -5    1    3    3    0  502 -0.56898162031E+03  0.84331916481E+02 -0.25248892549E+03  0.62819161399E+03  0.46999998093E+01 0.  1.
</event>
<event>
 5   0  0.9828111E-05  0.1400592E+04  0.7818609E-02  0.8953390E-01
        1   -1    0    0  501    0  0.00000000000E+00  0.00000000000E+00  0.73534780225E+03  0.73534780226E+03  0.50400001928E-02 0.  1.
       -1   -1    0    0    0  501  0.00000000000E+00  0.00000000000E+00 -0.66691463082E+03  0.66691463084E+03  0.50400001928E-02 0. -1.
    10030    2    1    2    0    0  0.00000000000E+00  0.00000000000E+00  0.68433171429E+02  0.14022624331E+04  0.14005916008E+04 0.  0.
        4    1    3    3  502    0  0.29119752708E+03  0.57600199350E+03 -0.23783961143E+03  0.68785433775E+03  0.12699999809E+01 0. -1.
       -4    1    3    3    0  502 -0.29119752708E+03 -0.57600199350E+03  0.30627278286E+03  0.71440809536E+03  0.12699999809E+01 0.  1.
</event>
<event>
 5   0  0.9900839E-05  0.1402768E+04  0.7818609E-02  0.8951817E-01
       -1   -1    0    0    0  501  0.00000000000E+00  0.00000000000E+00  0.90631225186E+03  0.90631225187E+03  0.50400001928E-02 0. -1.
        1   -1    0    0  501    0  0.00000000000E+00  0.00000000000E+00 -0.54279277048E+03  0.54279277050E+03  0.50400001928E-02 0.  1.
    10030    2    1    2    0    0  0.00000000000E+00  0.00000000000E+00  0.36351948138E+03  0.14491050224E+04  0.14027683175E+04 0.  0.
        3    1    3    3  502    0 -0.48370267651E+03 -0.42228660964E+03 -0.10977777417E+03  0.65141801467E+03  0.10100000352E+00 0.  1.
       -3    1    3    3    0  502  0.48370267651E+03  0.42228660964E+03  0.47329725555E+03  0.79768700770E+03  0.10100000352E+00 0. -1.
</event>
<event>
 5   0  0.9900839E-05  0.1400762E+04  0.7818609E-02  0.8953267E-01
       -1   -1    0    0    0  501  0.00000000000E+00  0.00000000000E+00  0.97707967501E+03  0.97707967502E+03  0.50400001928E-02 0.  1.
        1   -1    0    0  501    0  0.00000000000E+00  0.00000000000E+00 -0.50204025252E+03  0.50204025254E+03  0.50400001928E-02 0. -1.
    10030    2    1    2    0    0  0.00000000000E+00  0.00000000000E+00  0.47503942249E+03  0.14791199276E+04  0.14007616882E+04 0.  0.
        3    1    3    3  502    0 -0.36464638642E+03  0.66810806706E+02 -0.38994545207E+03  0.53804101778E+03  0.10100000352E+00 0. -1.
       -3    1    3    3    0  502  0.36464638642E+03 -0.66810806706E+02  0.86498487456E+03  0.94107890979E+03  0.10100000352E+00 0.  1.
</event>
<event>
 5   0  0.9828111E-05  0.1398077E+04  0.7818609E-02  0.8955212E-01
       -1   -1    0    0    0  501  0.00000000000E+00  0.00000000000E+00  0.25256606692E+03  0.25256606697E+03  0.50400001928E-02 0. -1.
        1   -1    0    0  501    0  0.00000000000E+00  0.00000000000E+00 -0.19347600204E+04  0.19347600204E+04  0.50400001928E-02 0.  1.
    10030    2    1    2    0    0  0.00000000000E+00  0.00000000000E+00 -0.16821939535E+04  0.21873260874E+04  0.13980768632E+04 0.  0.
        4    1    3    3  502    0 -0.62639854962E+02 -0.69585559722E+03 -0.87657936468E+03  0.11209512742E+04  0.12699999809E+01 0.  1.
       -4    1    3    3    0  502  0.62639854962E+02  0.69585559722E+03 -0.80561458880E+03  0.10663748132E+04  0.12699999809E+01 0. -1.
</event>
<event>
 5   0  0.9900839E-05  0.1414202E+04  0.7818609E-02  0.8943602E-01
        1   -1    0    0  501    0  0.00000000000E+00  0.00000000000E+00  0.17514637044E+04  0.17514637045E+04  0.50400001928E-02 0.  1.
       -1   -1    0    0    0  501  0.00000000000E+00  0.00000000000E+00 -0.28547075491E+03  0.28547075495E+03  0.50400001928E-02 0. -1.
    10030    2    1    2    0    0  0.00000000000E+00  0.00000000000E+00  0.14659929495E+04  0.20369344594E+04  0.14142017762E+04 0.  0.
        3    1    3    3  502    0  0.44730678819E+02  0.61820745385E+03  0.12231581981E+04  0.13712393217E+04  0.10100000352E+00 0.  1.
       -3    1    3    3    0  502 -0.44730678819E+02 -0.61820745385E+03  0.24283475142E+03  0.66569513767E+03  0.10100000352E+00 0. -1.
</event>
<event>
 5   0  0.9260916E-05  0.1402251E+04  0.7818609E-02  0.8952191E-01
        1   -1    0    0  501    0  0.00000000000E+00  0.00000000000E+00  0.48095576872E+03  0.48095576874E+03  0.50400001928E-02 0.  1.
       -1   -1    0    0    0  501  0.00000000000E+00  0.00000000000E+00 -0.10220830921E+04  0.10220830921E+04  0.50400001928E-02 0. -1.
    10030    2    1    2    0    0  0.00000000000E+00  0.00000000000E+00 -0.54112732336E+03  0.15030388608E+04  0.14022507041E+04 0.  0.
        1    1    3    3  502    0 -0.65505848015E+03  0.84998168555E+02 -0.18614751290E+02  0.66081223511E+03  0.50400001928E-02 0. -1.
       -1    1    3    3    0  502  0.65505848015E+03 -0.84998168555E+02 -0.52251257207E+03  0.84222662572E+03  0.50400001928E-02 0.  1.
</event>
<event>
 5   0  0.6671375E-05  0.1414148E+04  0.7818609E-02  0.8943640E-01
       -1   -1    0    0    0  501  0.00000000000E+00  0.00000000000E+00  0.74717738428E+03  0.74717738430E+03  0.50400001928E-02 0.  1.
        1   -1    0    0  501    0  0.00000000000E+00  0.00000000000E+00 -0.66912342049E+03  0.66912342051E+03  0.50400001928E-02 0. -1.
    10030    2    1    2    0    0  0.00000000000E+00  0.00000000000E+00  0.78053963792E+02  0.14163008048E+04  0.14141483474E+04 0.  0.
        5    1    3    3  502    0  0.24623439626E+03  0.66219124582E+03  0.67410428259E+02  0.70971464673E+03  0.46999998093E+01 0. -1.
       -5    1    3    3    0  502 -0.24623439626E+03 -0.66219124582E+03  0.10643535533E+02  0.70658615808E+03  0.46999998093E+01 0.  1.
</event>
<event>
 5   0  0.1766237E-04  0.1400668E+04  0.7818609E-02  0.8953335E-01
        2   -1    0    0  501    0  0.00000000000E+00  0.00000000000E+00  0.75929981910E+03  0.75929981910E+03  0.25500000920E-02 0. -1.
       -2   -1    0    0    0  501  0.00000000000E+00  0.00000000000E+00 -0.64594771772E+03  0.64594771772E+03  0.25500000920E-02 0.  1.
    10030    2    1    2    0    0  0.00000000000E+00  0.00000000000E+00  0.11335210138E+03  0.14052475368E+04  0.14006683908E+04 0.  0.
        3    1    3    3  502    0 -0.42116185891E+03 -0.17818210072E+03  0.58882675054E+03  0.74554887484E+03  0.10100000352E+00 0. -1.
       -3    1    3    3    0  502  0.42116185891E+03  0.17818210072E+03 -0.47547464916E+03  0.65969866198E+03  0.10100000352E+00 0.  1.
</event>
<event>
 5   0  0.1794185E-04  0.1401481E+04  0.7818609E-02  0.8952747E-01
       -2   -1    0    0    0  501  0.00000000000E+00  0.00000000000E+00  0.31932432047E+03  0.31932432048E+03  0.25500000920E-02 0. -1.
        2   -1    0    0  501    0  0.00000000000E+00  0.00000000000E+00 -0.15377380718E+04  0.15377380718E+04  0.25500000920E-02 0.  1.
    10030    2    1    2    0    0  0.00000000000E+00  0.00000000000E+00 -0.12184137514E+04  0.18570623923E+04  0.14014808809E+04 0.  0.
        2    1    3    3  502    0 -0.21627165629E+03  0.32739852462E+03  0.16010406266E+03  0.42378831287E+03  0.25500000920E-02 0. -1.
       -2    1    3    3    0  502  0.21627165629E+03 -0.32739852462E+03 -0.13785178140E+04  0.14332740795E+04  0.25500000920E-02 0.  1.
</event>
<event>
 5   0  0.6671375E-05  0.1405393E+04  0.7818609E-02  0.8949924E-01
        1   -1    0    0  501    0  0.00000000000E+00  0.00000000000E+00  0.65667885104E+03  0.65667885106E+03  0.50400001928E-02 0. -1.
       -1   -1    0    0    0  501  0.00000000000E+00  0.00000000000E+00 -0.75193921511E+03  0.75193921512E+03  0.50400001928E-02 0.  1.
    10030    2    1    2    0    0  0.00000000000E+00  0.00000000000E+00 -0.95260364067E+02  0.14086180662E+04  0.14053932971E+04 0.  0.
        5    1    3    3  502    0 -0.60538802281E+03 -0.30961255967E+03 -0.22525390175E+03  0.71632116087E+03  0.46999998093E+01 0.  1.
       -5    1    3    3    0  502  0.60538802281E+03  0.30961255967E+03  0.12999353768E+03  0.69229690531E+03  0.46999998093E+01 0. -1.
</event>
<event>
 5   0  0.1766237E-04  0.1400015E+04  0.7818609E-02  0.8953808E-01
        2   -1    0    0  501    0  0.00000000000E+00  0.00000000000E+00  0.13442015061E+04  0.13442015061E+04  0.25500000920E-02 0. -1.
       -2   -1    0    0    0  501  0.00000000000E+00  0.00000000000E+00 -0.36453634261E+03  0.36453634262E+03  0.25500000920E-02 0.  1.
    10030    2    1    2    0    0  0.00000000000E+00  0.00000000000E+00  0.97966516351E+03  0.17087378487E+04  0.14000147153E+04 0.  0.
        3    1    3    3  502    0  0.50265107035E+02  0.66473801683E+03  0.75048332380E+03  0.10038069742E+04  0.10100000352E+00 0.  1.
       -3    1    3    3    0  502 -0.50265107035E+02 -0.66473801683E+03  0.22918183971E+03  0.70493087452E+03  0.10100000352E+00 0. -1.
</event>
<event>
 5   0  0.1712327E-04  0.1397966E+04  0.7818609E-02  0.8955292E-01
        2   -1    0    0  501    0  0.00000000000E+00  0.00000000000E+00  0.32595371858E+03  0.32595371859E+03  0.25500000920E-02 0.  1.
       -2   -1    0    0    0  501  0.00000000000E+00  0.00000000000E+00 -0.14989157873E+04  0.14989157873E+04  0.25500000920E-02 0. -1.
    10030    2    1    2    0    0  0.00000000000E+00  0.00000000000E+00 -0.11729620688E+04  0.18248695059E+04  0.13979659148E+04 0.  0.
        1    1    3    3  502    0 -0.60799893654E+03 -0.31665018520E+03 -0.76473582416E+03  0.10270106754E+04  0.50400001928E-02 0.  1.
       -1    1    3    3    0  502  0.60799893654E+03  0.31665018520E+03 -0.40822624460E+03  0.79785883052E+03  0.50400001928E-02 0. -1.
</event>
<event>
 5   0  0.1833681E-04  0.1402757E+04  0.7818609E-02  0.8951825E-01
        2   -1    0    0  501    0  0.00000000000E+00  0.00000000000E+00  0.75558252712E+03  0.75558252713E+03  0.25500000920E-02 0. -1.
       -2   -1    0    0    0  501  0.00000000000E+00  0.00000000000E+00 -0.65106305972E+03  0.65106305973E+03  0.25500000920E-02 0.  1.
    10030    2    1    2    0    0  0.00000000000E+00  0.00000000000E+00  0.10451946740E+03  0.14066455869E+04  0.14027571023E+04 0.  0.
        4    1    3    3  502    0 -0.33499445305E+03 -0.61510030968E+03  0.15271382053E+02  0.70057440901E+03  0.12699999809E+01 0.  1.
       -4    1    3    3    0  502  0.33499445305E+03  0.61510030968E+03  0.89248085349E+02  0.70607117785E+03  0.12699999809E+01 0. -1.
</event>
<event>
 5   0  0.1794185E-04  0.1400025E+04  0.7818609E-02  0.8953800E-01
       -2   -1    0    0    0  501  0.00000000000E+00  0.00000000000E+00  0.47056639315E+03  0.47056639315E+03  0.25500000920E-02 0.  1.
        2   -1    0    0  501    0  0.00000000000E+00  0.00000000000E+00 -0.10413362314E+04  0.10413362314E+04  0.25500000920E-02 0. -1.
    10030    2    1    2    0    0  0.00000000000E+00  0.00000000000E+00 -0.57076983821E+03  0.15119026245E+04  0.14000254776E+04 0.  0.
        2    1    3    3  502    0 -0.59648069230E+03 -0.30731947165E+02  0.10887003626E+03  0.60711313086E+03  0.25500000920E-02 0.  1.
       -2    1    3    3    0  502  0.59648069230E+03  0.30731947165E+02 -0.67963987446E+03  0.90478949365E+03  0.25500000920E-02 0. -1.
</event>
<event>
 5   0  0.6671375E-05  0.1399749E+04  0.7818609E-02  0.8954000E-01
       -1   -1    0    0    0  501  0.00000000000E+00  0.00000000000E+00  0.94732822024E+03  0.94732822025E+03  0.50400001928E-02 0.  1.
        1   -1    0    0  501    0  0.00000000000E+00  0.00000000000E+00 -0.51705877861E+03  0.51705877864E+03  0.50400001928E-02 0. -1.
    10030    2    1    2    0    0  0.00000000000E+00  0.00000000000E+00  0.43026944163E+03  0.14643869989E+04  0.13997490811E+04 0.  0.
        5    1    3    3  502    0 -0.25801705747E+03  0.58567926145E+03 -0.81155959562E+02  0.64513671343E+03  0.46999998093E+01 0.  1.
       -5    1    3    3    0  502  0.25801705747E+03 -0.58567926145E+03  0.51142540119E+03  0.81925028546E+03  0.46999998093E+01 0. -1.
</event>
<event>
 5   0  0.1794185E-04  0.1401611E+04  0.7818609E-02  0.8952653E-01
       -2   -1    0    0    0  501  0.00000000000E+00  0.00000000000E+00  0.24639052218E+03  0.24639052220E+03  0.25500000920E-02 0. -1.
        2   -1    0    0  501    0  0.00000000000E+00  0.00000000000E+00 -0.19932915996E+04  0.19932915996E+04  0.25500000920E-02 0.  1.
    10030    2    1    2    0    0  0.00000000000E+00  0.00000000000E+00 -0.17469010774E+04  0.22396821218E+04  0.14016107278E+04 0.  0.
        2    1    3    3  502    0 -0.27984159423E+03  0.20745270695E+03 -0.18451474124E+04  0.18777425055E+04  0.25500000920E-02 0.  1.
       -2    1    3    3    0  502  0.27984159423E+03 -0.20745270695E+03  0.98246335001E+02  0.36193961627E+03  0.25500000920E-02 0. -1.
</event>
<event>
 5   0  0.6671375E-05  0.1401628E+04  0.7818609E-02  0.8952641E-01
       -1   -1    0    0    0  501  0.00000000000E+00  0.00000000000E+00  0.33010048635E+03  0.33010048639E+03  0.50400001928E-02 0.  1.
        1   -1    0    0  501    0  0.00000000000E+00  0.00000000000E+00 -0.14878504822E+04  0.14878504822E+04  0.50400001928E-02 0. -1.
    10030    2    1    2    0    0  0.00000000000E+00  0.00000000000E+00 -0.11577499958E+04  0.18179509686E+04  0.14016278648E+04 0.  0.
        5    1    3    3  502    0  0.48093015851E+03  0.22342161215E+03 -0.11731164579E+04  0.12874142099E+04  0.46999998093E+01 0. -1.
       -5    1    3    3    0  502 -0.48093015851E+03 -0.22342161215E+03  0.15366462056E+02  0.53053675866E+03  0.46999998093E+01 0.  1.
</event>
<event>
 5   0  0.9978422E-05  0.1400429E+04  0.7818609E-02  0.8953508E-01
       -1   -1    0    0    0  501  0.00000000000E+00  0.00000000000E+00  0.64309616993E+03  0.64309616995E+03  0.50400001928E-02 0. -1.
        1   -1    0    0  501    0  0.00000000000E+00  0.00000000000E+00 -0.76240579285E+03  0.76240579287E+03  0.50400001928E-02 0.  1.
    10030    2    1    2    0    0  0.00000000000E+00  0.00000000000E+00 -0.11930962292E+03  0.14055019628E+04  0.14004288562E+04 0.  0.
        2    1    3    3  502    0  0.15510870935E+03  0.29815826574E+03  0.55685310733E+03  0.65041713253E+03  0.25500000920E-02 0. -1.
       -2    1    3    3    0  502 -0.15510870935E+03 -0.29815826574E+03 -0.67616273024E+03  0.75508483028E+03  0.25500000920E-02 0.  1.
</event>
<event>
 5   0  0.9978422E-05  0.1398808E+04  0.7818609E-02  0.8954682E-01
       -1   -1    0    0    0  501  0.00000000000E+00  0.00000000000E+00  0.45111836336E+03  0.45111836339E+03  0.50400001928E-02 0. -1.
        1   -1    0    0  501    0  0.00000000000E+00  0.00000000000E+00 -0.10843411314E+04  0.10843411314E+04  0.50400001928E-02 0.  1.
    10030    2    1    2    0    0  0.00000000000E+00  0.00000000000E+00 -0.63322276804E+03  0.15354594948E+04  0.13988083451E+04 0.  0.
        2    1    3    3  502    0 -0.55834668985E+03 -0.37524592977E+03 -0.52662830469E+03  0.85434062597E+03  0.25500000920E-02 0.  1.
       -2    1    3    3    0  502  0.55834668985E+03  0.37524592977E+03 -0.10659446335E+03  0.68111886884E+03  0.25500000920E-02 0. -1.
</event>
<event>
 5   0  0.9828111E-05  0.1398804E+04  0.7818609E-02  0.8954684E-01
       -1   -1    0    0    0  501  0.00000000000E+00  0.00000000000E+00  0.80117812134E+03  0.80117812136E+03  0.50400001928E-02 0. -1.
        1   -1    0    0  501    0  0.00000000000E+00  0.00000000000E+00 -0.61055514824E+03  0.61055514826E+03  0.50400001928E-02 0.  1.
    10030    2    1    2    0    0  0.00000000000E+00  0.00000000000E+00  0.19062297310E+03  0.14117332696E+04  0.13988043847E+04 0.  0.
        4    1    3    3  502    0  0.58391631153E+03 -0.32905212507E+03  0.29697894443E+03  0.73309731020E+03  0.12699999809E+01 0. -1.
       -4    1    3    3    0  502 -0.58391631153E+03  0.32905212507E+03 -0.10635597133E+03  0.67863595943E+03  0.12699999809E+01 0.  1.
</event>
<event>
 5   0  0.1712327E-04  0.1398834E+04  0.7818609E-02  0.8954663E-01
        2   -1    0    0  501    0  0.00000000000E+00  0.00000000000E+00  0.12858924777E+04  0.12858924777E+04  0.25500000920E-02 0. -1.
       -2   -1    0    0    0  501  0.00000000000E+00  0.00000000000E+00 -0.38042361544E+03  0.38042361545E+03  0.25500000920E-02 0.  1.
    10030    2    1    2    0    0  0.00000000000E+00  0.00000000000E+00  0.90546886227E+03  0.16663160932E+04  0.13988336076E+04 0.  0.
        1    1    3    3  502    0  0.32702713370E+03 -0.42468333879E+03 -0.82494091499E+02  0.54231721306E+03  0.50400001928E-02 0.  1.
       -1    1    3    3    0  502 -0.32702713370E+03  0.42468333879E+03  0.98796295377E+03  0.11239988801E+04  0.50400001928E-02 0. -1.
</event>
<event>
 5   0  0.1833681E-04  0.1395168E+04  0.7818609E-02  0.8957323E-01
        2   -1    0    0  501    0  0.00000000000E+00  0.00000000000E+00  0.23866102993E+04  0.23866102993E+04  0.25500000920E-02 0. -1.
       -2   -1    0    0    0  501  0.00000000000E+00  0.00000000000E+00 -0.20389743713E+03  0.20389743715E+03  0.25500000920E-02 0.  1.
    10030    2    1    2    0    0  0.00000000000E+00  0.00000000000E+00  0.21827128621E+04  0.25905077364E+04  0.13951684106E+04 0.  0.
        4    1    3    3  502    0  0.83873392425E+02 -0.22909156079E+03  0.23048159501E+04  0.23176919264E+04  0.12699999809E+01 0. -1.
       -4    1    3    3    0  502 -0.83873392425E+02  0.22909156079E+03 -0.12210308796E+03  0.27281580997E+03  0.12699999809E+01 0.  1.
</event>
<event>
 5   0  0.6671375E-05  0.1381128E+04  0.7818609E-02  0.8967594E-01
        3   -1    0    0  501    0  0.00000000000E+00  0.00000000000E+00  0.10947813638E+04  0.10947813684E+04  0.10100000352E+00 0. -1.
       -3   -1    0    0    0  501  0.00000000000E+00  0.00000000000E+00 -0.43559233457E+03  0.43559234628E+03  0.10100000352E+00 0.  1.
    10030    2    1    2    0    0  0.00000000000E+00  0.00000000000E+00  0.65918902920E+03  0.15303737147E+04  0.13811276300E+04 0.  0.
        5    1    3    3  502    0 -0.18806950075E+03  0.35186081899E+03 -0.29494324777E+03  0.49617515301E+03  0.46999998093E+01 0.  1.
       -5    1    3    3    0  502  0.18806950075E+03 -0.35186081899E+03  0.95413227698E+03  0.10341985617E+04  0.46999998093E+01 0. -1.
</event>
<event>
 5   0  0.9900839E-05  0.1398644E+04  0.7818609E-02  0.8954801E-01
        1   -1    0    0  501    0  0.00000000000E+00  0.00000000000E+00  0.90667772521E+03  0.90667772522E+03  0.50400001928E-02 0. -1.
       -1   -1    0    0    0  501  0.00000000000E+00  0.00000000000E+00 -0.53938827136E+03  0.53938827139E+03  0.50400001928E-02 0.  1.
    10030    2    1    2    0    0  0.00000000000E+00  0.00000000000E+00  0.36728945385E+03  0.14460659966E+04  0.13986441019E+04 0.  0.
        3    1    3    3  502    0 -0.20309898908E+02  0.57168547466E+03  0.59954545094E+03  0.82866852956E+03  0.10100000352E+00 0. -1.
       -3    1    3    3    0  502  0.20309898908E+02 -0.57168547466E+03 -0.23225599710E+03  0.61739746705E+03  0.10100000352E+00 0.  1.
</event>
<event>
 5   0  0.1766237E-04  0.1403270E+04  0.7818609E-02  0.8951455E-01
       -2   -1    0    0    0  501  0.00000000000E+00  0.00000000000E+00  0.17249769812E+04  0.17249769812E+04  0.25500000920E-02 0.  1.
        2   -1    0    0  501    0  0.00000000000E+00  0.00000000000E+00 -0.28539029042E+03  0.28539029043E+03  0.25500000920E-02 0. -1.
    10030    2    1    2    0    0  0.00000000000E+00  0.00000000000E+00  0.14395866908E+04  0.20103672716E+04  0.14032700120E+04 0.  0.
        3    1    3    3  502    0  0.59649207527E+02  0.49756110460E+03  0.16246965091E+02  0.50138713071E+03  0.10100000352E+00 0. -1.
       -3    1    3    3    0  502 -0.59649207527E+02 -0.49756110460E+03  0.14233397257E+04  0.15089801409E+04  0.10100000352E+00 0.  1.
</event>
<event>
 5   0  0.9900839E-05  0.1401615E+04  0.7818609E-02  0.8952651E-01
        1   -1    0    0  501    0  0.00000000000E+00  0.00000000000E+00  0.17748822740E+04  0.17748822740E+04  0.50400001928E-02 0. -1.
       -1   -1    0    0    0  501  0.00000000000E+00  0.00000000000E+00 -0.27671183005E+03  0.27671183009E+03  0.50400001928E-02 0.  1.
    10030    2    1    2    0    0  0.00000000000E+00  0.00000000000E+00  0.14981704440E+04  0.20515941041E+04  0.14016146720E+04 0.  0.
        3    1    3    3  502    0 -0.68518024385E+03 -0.12864031159E+03  0.85372562885E+03  0.11022103955E+04  0.10100000352E+00 0. -1.
       -3    1    3    3    0  502  0.68518024385E+03  0.12864031159E+03  0.64444481514E+03  0.94938370867E+03  0.10100000352E+00 0.  1.
</event>
<event>
 5   0  0.9978422E-05  0.1410748E+04  0.7818609E-02  0.8946075E-01
       -1   -1    0    0    0  501  0.00000000000E+00  0.00000000000E+00  0.31064070516E+03  0.31064070520E+03  0.50400001928E-02 0.  1.
        1   -1    0    0  501    0  0.00000000000E+00  0.00000000000E+00 -0.16016973847E+04  0.16016973848E+04  0.50400001928E-02 0. -1.
    10030    2    1    2    0    0  0.00000000000E+00  0.00000000000E+00 -0.12910566796E+04  0.19123380900E+04  0.14107478940E+04 0.  0.
        2    1    3    3  502    0  0.67793496985E+03  0.33425831999E+01 -0.90958363637E+03  0.11344379171E+04  0.25500000920E-02 0.  1.
       -2    1    3    3    0  502 -0.67793496985E+03 -0.33425831999E+01 -0.38147304322E+03  0.77790017285E+03  0.25500000920E-02 0. -1.
</event>
<event>
 5   0  0.1794185E-04  0.1399304E+04  0.7818609E-02  0.8954322E-01
       -2   -1    0    0    0  501  0.00000000000E+00  0.00000000000E+00  0.12529670376E+04  0.12529670376E+04  0.25500000920E-02 0.  1.
        2   -1    0    0  501    0  0.00000000000E+00  0.00000000000E+00 -0.39068311576E+03  0.39068311577E+03  0.25500000920E-02 0. -1.
    10030    2    1    2    0    0  0.00000000000E+00  0.00000000000E+00  0.86228392181E+03  0.16436501533E+04  0.13993042074E+04 0.  0.
        2    1    3    3  502    0 -0.34283063881E+03  0.18395940507E+02 -0.28493471340E+03  0.44616033939E+03  0.25500000920E-02 0. -1.
       -2    1    3    3    0  502  0.34283063881E+03 -0.18395940507E+02  0.11472186352E+04  0.11974898140E+04  0.25500000920E-02 0.  1.
</event>
<event>
 5   0  0.6671375E-05  0.1402361E+04  0.7818609E-02  0.8952111E-01
       -1   -1    0    0    0  501  0.00000000000E+00  0.00000000000E+00  0.36066113248E+03  0.36066113252E+03  0.50400001928E-02 0. -1.
        1   -1    0    0  501    0  0.00000000000E+00  0.00000000000E+00 -0.13632027677E+04  0.13632027677E+04  0.50400001928E-02 0.  1.
    10030    2    1    2    0    0  0.00000000000E+00  0.00000000000E+00 -0.10025416352E+04  0.17238639002E+04  0.14023612288E+04 0.  0.
        5    1    3    3  502    0 -0.67740102814E+03  0.93697775362E+02 -0.31091140725E+03  0.75122527859E+03  0.46999998093E+01 0. -1.
       -5    1    3    3    0  502  0.67740102814E+03 -0.93697775362E+02 -0.69163022792E+03  0.97263862159E+03  0.46999998093E+01 0.  1.
</event>
<event>
 5   0  0.9260916E-05  0.1405000E+04  0.7818609E-02  0.8950207E-01
       -1   -1    0    0    0  501  0.00000000000E+00  0.00000000000E+00  0.45529400282E+03  0.45529400285E+03  0.50400001928E-02 0.  1.
        1   -1    0    0  501    0  0.00000000000E+00  0.00000000000E+00 -0.10839292704E+04  0.10839292704E+04  0.50400001928E-02 0. -1.
    10030    2    1    2    0    0  0.00000000000E+00  0.00000000000E+00 -0.62863526760E+03  0.15392232733E+04  0.14050003507E+04 0.  0.
        1    1    3    3  502    0  0.11690135276E+03  0.65398415589E+03 -0.64149062456E+02  0.66744011317E+03  0.50400001928E-02 0.  1.
       -1    1    3    3    0  502 -0.11690135276E+03 -0.65398415589E+03 -0.56448620515E+03  0.87178316011E+03  0.50400001928E-02 0. -1.
</event>
<event>
 5   0  0.1833681E-04  0.1397772E+04  0.7818609E-02  0.8955433E-01
        2   -1    0    0  501    0  0.00000000000E+00  0.00000000000E+00  0.50009898768E+03  0.50009898769E+03  0.25500000920E-02 0.  1.
       -2   -1    0    0    0  501  0.00000000000E+00  0.00000000000E+00 -0.97669012229E+03  0.97669012230E+03  0.25500000920E-02 0. -1.
    10030    2    1    2    0    0  0.00000000000E+00  0.00000000000E+00 -0.47659113461E+03  0.14767891100E+04  0.13977721437E+04 0.  0.
        4    1    3    3  502    0 -0.34315914065E+03 -0.25228234563E+03  0.34713639845E+03  0.54946325606E+03  0.12699999809E+01 0.  1.
       -4    1    3    3    0  502  0.34315914065E+03  0.25228234563E+03 -0.82372753306E+03  0.92732585392E+03  0.12699999809E+01 0. -1.
</event>
<event>
 5   0  0.9260916E-05  0.1401328E+04  0.7818609E-02  0.8952858E-01
        1   -1    0    0  501    0  0.00000000000E+00  0.00000000000E+00  0.48559531368E+03  0.48559531370E+03  0.50400001928E-02 0. -1.
       -1   -1    0    0    0  501  0.00000000000E+00  0.00000000000E+00 -0.10109858780E+04  0.10109858780E+04  0.50400001928E-02 0.  1.
    10030    2    1    2    0    0  0.00000000000E+00  0.00000000000E+00 -0.52539056428E+03  0.14965811917E+04  0.14013279481E+04 0.  0.
        1    1    3    3  502    0 -0.43525229262E+02  0.59683127051E+03  0.12653382081E+03  0.61164762640E+03  0.50400001928E-02 0. -1.
       -1    1    3    3    0  502  0.43525229262E+02 -0.59683127051E+03 -0.65192438510E+03  0.88493356528E+03  0.50400001928E-02 0.  1.
</event>
<event>
 5   0  0.1833681E-04  0.1399901E+04  0.7818609E-02  0.8953890E-01
        2   -1    0    0  501    0  0.00000000000E+00  0.00000000000E+00  0.11473940600E+04  0.11473940600E+04  0.25500000920E-02 0. -1.
       -2   -1    0    0    0  501  0.00000000000E+00  0.00000000000E+00 -0.42699438487E+03  0.42699438488E+03  0.25500000920E-02 0.  1.
    10030    2    1    2    0    0  0.00000000000E+00  0.00000000000E+00  0.72039967511E+03  0.15743884449E+04  0.13999011692E+04 0.  0.
        4    1    3    3  502    0 -0.54514356798E+02 -0.63105759143E+02 -0.42138633623E+03  0.42956048375E+03  0.12699999809E+01 0.  1.
       -4    1    3    3    0  502  0.54514356798E+02  0.63105759143E+02  0.11417860113E+04  0.11448279611E+04  0.12699999809E+01 0. -1.
</event>
<event>
 5   0  0.1780171E-04  0.1398042E+04  0.7818609E-02  0.8955237E-01
        2   -1    0    0  501    0  0.00000000000E+00  0.00000000000E+00  0.59296758764E+03  0.59296758765E+03  0.25500000920E-02 0.  1.
       -2   -1    0    0    0  501  0.00000000000E+00  0.00000000000E+00 -0.82404240564E+03  0.82404240564E+03  0.25500000920E-02 0. -1.
    10030    2    1    2    0    0  0.00000000000E+00  0.00000000000E+00 -0.23107481800E+03  0.14170099933E+04  0.13980421129E+04 0.  0.
        5    1    3    3  502    0 -0.65643582906E+03 -0.12880351142E+03  0.89969498986E+02  0.67499255031E+03  0.46999998093E+01 0.  1.
       -5    1    3    3    0  502  0.65643582906E+03  0.12880351142E+03 -0.32104431698E+03  0.74201744298E+03  0.46999998093E+01 0. -1.
</event>
<event>
 5   0  0.9828111E-05  0.1401382E+04  0.7818609E-02  0.8952819E-01
        1   -1    0    0  501    0  0.00000000000E+00  0.00000000000E+00  0.68050474962E+03  0.68050474964E+03  0.50400001928E-02 0.  1.
       -1   -1    0    0    0  501  0.00000000000E+00  0.00000000000E+00 -0.72147625003E+03  0.72147625005E+03  0.50400001928E-02 0. -1.
    10030    2    1    2    0    0  0.00000000000E+00  0.00000000000E+00 -0.40971500410E+02  0.14019809997E+04  0.14013821961E+04 0.  0.
        4    1    3    3  502    0 -0.35978043991E+02 -0.10768303092E+03  0.67124034713E+03  0.68077549259E+03  0.12699999809E+01 0.  1.
       -4    1    3    3    0  502  0.35978043991E+02  0.10768303092E+03 -0.71221184754E+03  0.72120550710E+03  0.12699999809E+01 0. -1.
</event>
<event>
 5   0  0.1780171E-04  0.1400335E+04  0.7818609E-02  0.8953576E-01
       -2   -1    0    0    0  501  0.00000000000E+00  0.00000000000E+00  0.58359191266E+03  0.58359191267E+03  0.25500000920E-02 0. -1.
        2   -1    0    0  501    0  0.00000000000E+00  0.00000000000E+00 -0.84002980568E+03  0.84002980569E+03  0.25500000920E-02 0.  1.
    10030    2    1    2    0    0  0.00000000000E+00  0.00000000000E+00 -0.25643789302E+03  0.14236217184E+04  0.14003351042E+04 0.  0.
        5    1    3    3  502    0 -0.90180189733E+02  0.63961511408E+03  0.14640752116E+03  0.66234221745E+03  0.46999998093E+01 0. -1.
       -5    1    3    3    0  502  0.90180189733E+02 -0.63961511408E+03 -0.40284541417E+03  0.76127950090E+03  0.46999998093E+01 0.  1.
</event>
<event>
 5   0  0.9978422E-05  0.1403370E+04  0.7818609E-02  0.8951383E-01
       -1   -1    0    0    0  501  0.00000000000E+00  0.00000000000E+00  0.35928747902E+03  0.35928747906E+03  0.50400001928E-02 0. -1.
        1   -1    0    0  501    0  0.00000000000E+00  0.00000000000E+00 -0.13703840857E+04  0.13703840857E+04  0.50400001928E-02 0.  1.
    10030    2    1    2    0    0  0.00000000000E+00  0.00000000000E+00 -0.10110966067E+04  0.17296715648E+04  0.14033700061E+04 0.  0.
        2    1    3    3  502    0  0.25213528087E+03 -0.56577873542E+03 -0.91187409926E+03  0.11023575419E+04  0.25500000920E-02 0.  1.
       -2    1    3    3    0  502 -0.25213528087E+03  0.56577873542E+03 -0.99222507449E+02  0.62731402288E+03  0.25500000920E-02 0. -1.
</event>
<event>
 5   0  0.6671375E-05  0.1404099E+04  0.7818609E-02  0.8950856E-01
        3   -1    0    0  501    0  0.00000000000E+00  0.00000000000E+00  0.24283020267E+04  0.24283020288E+04  0.10100000352E+00 0.  1.
       -3   -1    0    0    0  501  0.00000000000E+00  0.00000000000E+00 -0.20297055276E+03  0.20297057789E+03  0.10100000352E+00 0. -1.
    10030    2    1    2    0    0  0.00000000000E+00  0.00000000000E+00  0.22253314740E+04  0.26312726067E+04  0.14040994843E+04 0.  0.
        3    1    3    3  502    0 -0.52295750484E+03  0.44288899304E+03  0.13983413154E+04  0.15572391135E+04  0.10100000352E+00 0.  1.
       -3    1    3    3    0  502  0.52295750484E+03 -0.44288899304E+03  0.82699015860E+03  0.10740334933E+04  0.10100000352E+00 0. -1.
</event>
<event>
 5   0  0.1794185E-04  0.1407860E+04  0.7818609E-02  0.8948149E-01
        2   -1    0    0  501    0  0.00000000000E+00  0.00000000000E+00  0.91315517819E+03  0.91315517820E+03  0.25500000920E-02 0.  1.
       -2   -1    0    0    0  501  0.00000000000E+00  0.00000000000E+00 -0.54264300535E+03  0.54264300535E+03  0.25500000920E-02 0. -1.
    10030    2    1    2    0    0  0.00000000000E+00  0.00000000000E+00  0.37051217284E+03  0.14557981835E+04  0.14078597519E+04 0.  0.
        2    1    3    3  502    0  0.57134970948E+03 -0.26909774093E+03 -0.13623751325E+03  0.64607642328E+03  0.25500000920E-02 0. -1.
       -2    1    3    3    0  502 -0.57134970948E+03  0.26909774093E+03  0.50674968610E+03  0.80972176027E+03  0.25500000920E-02 0.  1.
</event>
<event>
 5   0  0.6671375E-05  0.1402777E+04  0.7818609E-02  0.8951811E-01
        1   -1    0    0  501    0  0.00000000000E+00  0.00000000000E+00  0.12101204582E+04  0.12101204582E+04  0.50400001928E-02 0. -1.
       -1   -1    0    0    0  501  0.00000000000E+00  0.00000000000E+00 -0.40652653378E+03  0.40652653381E+03  0.50400001928E-02 0.  1.
    10030    2    1    2    0    0  0.00000000000E+00  0.00000000000E+00  0.80359392441E+03  0.16166469920E+04  0.14027773528E+04 0.  0.
        5    1    3    3  502    0 -0.15209817031E+03 -0.48726172012E+03  0.95613714522E+03  0.10838718410E+04  0.46999998093E+01 0. -1.
       -5    1    3    3    0  502  0.15209817031E+03  0.48726172012E+03 -0.15254322080E+03  0.53277515099E+03  0.46999998093E+01 0.  1.
</event>
</LesHouchesEvents>
