<LesHouchesEvents version="3.0">
<header>
<!--
#*********************************************************************
#                                                                    *
#                        MadGraph5_aMC@NLO                           *
#                                                                    *
#                           Going Beyond                             *
#                                                                    *
#                   http://madgraph.hep.uiuc.edu                     *
#                   http://madgraph.phys.ucl.ac.be                   *
#                   http://amcatnlo.cern.ch                          *
#                                                                    *
#                     The MadGraph5_aMC@NLO team                     *
#                                                                    *
#....................................................................*
#                                                                    *
# This file contains all the information necessary to reproduce      *
# the events generated:                                              *
#                                                                    *
# 1. software version                                                *
# 2. proc_card          : code generation info including model       *
# 3. param_card         : model primary parameters in the LH format  *
# 4. run_card           : running parameters (collider and cuts)     *
# 5. pythia_card        : present only if pythia has been run        *
# 6. pgs_card           : present only if pgs has been run           *
# 7. delphes_cards      : present only if delphes has been run       *
#                                                                    *
#                                                                    *
#*********************************************************************
-->
<MGVersion>
#5.2.2.3
</MGVersion>
<MG5ProcCard>
#************************************************************
#*                     MadGraph5_aMC@NLO                    *
#*                                                          *
#*                *                       *                 *
#*                  *        * *        *                   *
#*                    * * * * 5 * * * *                     *
#*                  *        * *        *                   *
#*                *                       *                 *
#*                                                          *
#*                                                          *
#*         VERSION 2.2.3                 2015-02-10         *
#*                                                          *
#*    The MadGraph5_aMC@NLO Development Team - Find us at   *
#*    https://server06.fynu.ucl.ac.be/projects/madgraph     *
#*                                                          *
#************************************************************
#*                                                          *
#*               Command File for MadGraph5_aMC@NLO         *
#*                                                          *
#*     run as ./bin/mg5_aMC  filename                       *
#*                                                          *
#************************************************************
set group_subprocesses Auto
set ignore_six_quark_processes False
set loop_optimized_output True
set gauge unitary
set complex_mass_scheme False
import model sm
define p = g u c d s u~ c~ d~ s~
define j = g u c d s u~ c~ d~ s~
define l+ = e+ mu+
define l- = e- mu-
define vl = ve vm vt
define vl~ = ve~ vm~ vt~
import model Zprime_UFO
generate p p > zph, zph > j j
add process p p > zph, zph > b b~
output Dijet_signal
</MG5ProcCard>
<MGProcCard>
#*********************************************************************
#                        MadGraph/MadEvent                           *
#                   http://madgraph.hep.uiuc.edu                     *
#                                                                    *
#                          proc_card.dat                             *
#*********************************************************************
#                                                                    *
#            This Files is generated by MADGRAPH 5                   *
#                                                                    *
# WARNING: This Files is generated for MADEVENT (compatibility issue)*
#          This files is NOT a valid MG4 proc_card.dat               *
#          Running this in MG4 will NEVER reproduce the result of MG5*
#                                                                    *
#*********************************************************************
#*********************************************************************
# Process(es) requested : mg2 input                                  *
#*********************************************************************
# Begin PROCESS # This is TAG. Do not modify this line
p p > zph , zph > j j           #Process
# Be carefull the coupling are here in MG5 convention
          
end_coup           # End the couplings input

done               # this tells MG there are no more procs
# End PROCESS  # This is TAG. Do not modify this line
#*********************************************************************
# Model information                                                  *
#*********************************************************************
# Begin MODEL  # This is TAG. Do not modify this line
Zprime_UFO
# End   MODEL  # This is TAG. Do not modify this line
#*********************************************************************
# Start multiparticle definitions                                    *
#*********************************************************************
# Begin MULTIPARTICLES # This is TAG. Do not modify this line

# End  MULTIPARTICLES # This is TAG. Do not modify this line
</MGProcCard>
<MGRunCard>
#*********************************************************************
#                       MadGraph5_aMC@NLO                            *
#                                                                    *
#                     run_card.dat MadEvent                          *
#                                                                    *
#  This file is used to set the parameters of the run.               *
#                                                                    *
#  Some notation/conventions:                                        *
#                                                                    *
#   Lines starting with a '# ' are info or comments                  *
#                                                                    *
#   mind the format:   value    = variable     ! comment             *
#*********************************************************************
#
#*******************                                                 
# Running parameters
#*******************                                                 
#                                                                    
#*********************************************************************
# Tag name for the run (one word)                                    *
#*********************************************************************
  tag_1     = run_tag ! name of the run 
#*********************************************************************
# Run to generate the grid pack                                      *
#*********************************************************************
  .false.     = gridpack  !True = setting up the grid pack
#*********************************************************************
# Number of events and rnd seed                                      *
# Warning: Do not generate more than 1M events in a single run       *
# If you want to run Pythia, avoid more than 50k events in a run.    *
#*********************************************************************
  2000 = nevents ! Number of unweighted events requested 
 2973 = iseed   ! rnd seed (0=assigned automatically=default))
#*********************************************************************
# Collider type and energy                                           *
# lpp: 0=No PDF, 1=proton, -1=antiproton, 2=photon from proton,      *
#                                         3=photon from electron     *
#*********************************************************************
        1     = lpp1    ! beam 1 type 
        1     = lpp2    ! beam 2 type
     4000     = ebeam1  ! beam 1 total energy in GeV
     4000     = ebeam2  ! beam 2 total energy in GeV
#*********************************************************************
# Beam polarization from -100 (left-handed) to 100 (right-handed)    *
#*********************************************************************
        0     = polbeam1 ! beam polarization for beam 1
        0     = polbeam2 ! beam polarization for beam 2
#*********************************************************************
# PDF CHOICE: this automatically fixes also alpha_s and its evol.    *
#*********************************************************************
 'nn23lo1'    = pdlabel     ! PDF set                                     
 230000    = lhaid     ! if pdlabel=lhapdf, this is the lhapdf number
#*********************************************************************
# Renormalization and factorization scales                           *
#*********************************************************************
 F        = fixed_ren_scale  ! if .true. use fixed ren scale
 F        = fixed_fac_scale  ! if .true. use fixed fac scale
 91.1880  = scale            ! fixed ren scale
 91.1880  = dsqrt_q2fact1    ! fixed fact scale for pdf1
 91.1880  = dsqrt_q2fact2    ! fixed fact scale for pdf2
 1        = scalefact        ! scale factor for event-by-event scales
#*********************************************************************
# Matching - Warning! ickkw > 1 is still beta
#*********************************************************************
 0        = ickkw            ! 0 no matching, 1 MLM, 2 CKKW matching
 1        = highestmult      ! for ickkw=2, highest mult group
 1        = ktscheme         ! for ickkw=1, 1 Durham kT, 2 Pythia pTE
 1        = alpsfact         ! scale factor for QCD emission vx
 F        = chcluster        ! cluster only according to channel diag
 T        = pdfwgt           ! for ickkw=1, perform pdf reweighting
 5        = asrwgtflavor     ! highest quark flavor for a_s reweight
 T        = clusinfo         ! include clustering tag in output
 3.0      = lhe_version       ! Change the way clustering information pass to shower.        
#*********************************************************************
#**********************************************************
#
#**********************************************************
# Automatic ptj and mjj cuts if xqcut > 0
# (turn off for VBF and single top processes)
#**********************************************************
   T  = auto_ptj_mjj  ! Automatic setting of ptj and mjj
#**********************************************************
#                                                                    
#**********************************
# BW cutoff (M+/-bwcutoff*Gamma)
#**********************************
  15  = bwcutoff      ! (M+/-bwcutoff*Gamma)
#**********************************************************
# Apply pt/E/eta/dr/mij cuts on decay products or not
# (note that etmiss/ptll/ptheavy/ht/sorted cuts always apply)
#**********************************************************
   T  = cut_decays    ! Cut decay products 
#*************************************************************
# Number of helicities to sum per event (0 = all helicities)
# 0 gives more stable result, but longer run time (needed for
# long decay chains e.g.).
# Use >=2 if most helicities contribute, e.g. pure QCD.
#*************************************************************
   0  = nhel          ! Number of helicities used per event
#*******************                                                 
# Standard Cuts
#*******************                                                 
#                                                                    
#*********************************************************************
# Minimum and maximum pt's (for max, -1 means no cut)                *
#*********************************************************************
 20  = ptj       ! minimum pt for the jets 
  0  = ptb       ! minimum pt for the b 
 10  = pta       ! minimum pt for the photons 
 10  = ptl       ! minimum pt for the charged leptons 
  0  = misset    ! minimum missing Et (sum of neutrino's momenta)
  0  = ptheavy   ! minimum pt for one heavy final state
 1.0 = ptonium   ! minimum pt for the quarkonium states
 -1  = ptjmax    ! maximum pt for the jets
 -1  = ptbmax    ! maximum pt for the b
 -1  = ptamax    ! maximum pt for the photons
 -1  = ptlmax    ! maximum pt for the charged leptons
 -1  = missetmax ! maximum missing Et (sum of neutrino's momenta)
#*********************************************************************
# Minimum and maximum E's (in the center of mass frame)              *
#*********************************************************************
  0  = ej     ! minimum E for the jets 
  0  = eb     ! minimum E for the b 
  0  = ea     ! minimum E for the photons 
  0  = el     ! minimum E for the charged leptons 
 -1   = ejmax ! maximum E for the jets
 -1   = ebmax ! maximum E for the b
 -1   = eamax ! maximum E for the photons
 -1   = elmax ! maximum E for the charged leptons
#*********************************************************************
# Maximum and minimum absolute rapidity (for max, -1 means no cut)   *
#*********************************************************************
   5  = etaj    ! max rap for the jets 
  -1  = etab    ! max rap for the b
 2.5  = etaa    ! max rap for the photons 
 2.5  = etal    ! max rap for the charged leptons 
 0.6  = etaonium ! max rap for the quarkonium states
   0  = etajmin ! min rap for the jets
   0  = etabmin ! min rap for the b
   0  = etaamin ! min rap for the photons
   0  = etalmin ! main rap for the charged leptons
#*********************************************************************
# Minimum and maximum DeltaR distance                                *
#*********************************************************************
 0.4 = drjj    ! min distance between jets 
 0   = drbb    ! min distance between b's 
 0.4 = drll    ! min distance between leptons 
 0.4 = draa    ! min distance between gammas 
 0   = drbj    ! min distance between b and jet 
 0.4 = draj    ! min distance between gamma and jet 
 0.4 = drjl    ! min distance between jet and lepton 
 0   = drab    ! min distance between gamma and b 
 0   = drbl    ! min distance between b and lepton 
 0.4 = dral    ! min distance between gamma and lepton 
 -1  = drjjmax ! max distance between jets
 -1  = drbbmax ! max distance between b's
 -1  = drllmax ! max distance between leptons
 -1  = draamax ! max distance between gammas
 -1  = drbjmax ! max distance between b and jet
 -1  = drajmax ! max distance between gamma and jet
 -1  = drjlmax ! max distance between jet and lepton
 -1  = drabmax ! max distance between gamma and b
 -1  = drblmax ! max distance between b and lepton
 -1  = dralmax ! maxdistance between gamma and lepton
#*********************************************************************
# Minimum and maximum invariant mass for pairs                       *
# WARNING: for four lepton final state mmll cut require to have      *
#          different lepton masses for each flavor!                  *           
#*********************************************************************
 0   = mmjj    ! min invariant mass of a jet pair 
 0   = mmbb    ! min invariant mass of a b pair 
 0   = mmaa    ! min invariant mass of gamma gamma pair
 0   = mmll    ! min invariant mass of l+l- (same flavour) lepton pair
 -1  = mmjjmax ! max invariant mass of a jet pair
 -1  = mmbbmax ! max invariant mass of a b pair
 -1  = mmaamax ! max invariant mass of gamma gamma pair
 -1  = mmllmax ! max invariant mass of l+l- (same flavour) lepton pair
#*********************************************************************
# Minimum and maximum invariant mass for all letpons                 *
#*********************************************************************
 0   = mmnl    ! min invariant mass for all letpons (l+- and vl) 
 -1  = mmnlmax ! max invariant mass for all letpons (l+- and vl) 
#*********************************************************************
# Minimum and maximum pt for 4-momenta sum of leptons                *
#*********************************************************************
 0   = ptllmin  ! Minimum pt for 4-momenta sum of leptons(l and vl)
 -1  = ptllmax  ! Maximum pt for 4-momenta sum of leptons(l and vl)
#*********************************************************************
# Inclusive cuts                                                     *
#*********************************************************************
 0  = xptj ! minimum pt for at least one jet  
 0  = xptb ! minimum pt for at least one b 
 0  = xpta ! minimum pt for at least one photon 
 0  = xptl ! minimum pt for at least one charged lepton 
#*********************************************************************
# Control the pt's of the jets sorted by pt                          *
#*********************************************************************
 0   = ptj1min ! minimum pt for the leading jet in pt
 0   = ptj2min ! minimum pt for the second jet in pt
 0   = ptj3min ! minimum pt for the third jet in pt
 0   = ptj4min ! minimum pt for the fourth jet in pt
 -1  = ptj1max ! maximum pt for the leading jet in pt 
 -1  = ptj2max ! maximum pt for the second jet in pt
 -1  = ptj3max ! maximum pt for the third jet in pt
 -1  = ptj4max ! maximum pt for the fourth jet in pt
 0   = cutuse  ! reject event if fails any (0) / all (1) jet pt cuts
#*********************************************************************
# Control the pt's of leptons sorted by pt                           *
#*********************************************************************
 0   = ptl1min ! minimum pt for the leading lepton in pt
 0   = ptl2min ! minimum pt for the second lepton in pt
 0   = ptl3min ! minimum pt for the third lepton in pt
 0   = ptl4min ! minimum pt for the fourth lepton in pt
 -1  = ptl1max ! maximum pt for the leading lepton in pt 
 -1  = ptl2max ! maximum pt for the second lepton in pt
 -1  = ptl3max ! maximum pt for the third lepton in pt
 -1  = ptl4max ! maximum pt for the fourth lepton in pt
#*********************************************************************
# Control the Ht(k)=Sum of k leading jets                            *
#*********************************************************************
 0   = htjmin ! minimum jet HT=Sum(jet pt)
 -1  = htjmax ! maximum jet HT=Sum(jet pt)
 0   = ihtmin  !inclusive Ht for all partons (including b)
 -1  = ihtmax  !inclusive Ht for all partons (including b)
 0   = ht2min ! minimum Ht for the two leading jets
 0   = ht3min ! minimum Ht for the three leading jets
 0   = ht4min ! minimum Ht for the four leading jets
 -1  = ht2max ! maximum Ht for the two leading jets
 -1  = ht3max ! maximum Ht for the three leading jets
 -1  = ht4max ! maximum Ht for the four leading jets
#***********************************************************************
# Photon-isolation cuts, according to hep-ph/9801442                   *
# When ptgmin=0, all the other parameters are ignored                  *
# When ptgmin>0, pta and draj are not going to be used                 *
#***********************************************************************
   0 = ptgmin ! Min photon transverse momentum
 0.4 = R0gamma ! Radius of isolation code
 1.0 = xn ! n parameter of eq.(3.4) in hep-ph/9801442
 1.0 = epsgamma ! epsilon_gamma parameter of eq.(3.4) in hep-ph/9801442
 .true. = isoEM ! isolate photons from EM energy (photons and leptons)
#*********************************************************************
# WBF cuts                                                           *
#*********************************************************************
 0   = xetamin ! minimum rapidity for two jets in the WBF case  
 0   = deltaeta ! minimum rapidity for two jets in the WBF case 
#*********************************************************************
# KT DURHAM CUT                                                      *
#*********************************************************************
 -1    =  ktdurham        
 0.4  =  dparameter 
#*********************************************************************
# maximal pdg code for quark to be considered as a light jet         *
# (otherwise b cuts are applied)                                     *
#*********************************************************************
 4 = maxjetflavor    ! Maximum jet pdg code
#*********************************************************************
# Jet measure cuts                                                   *
#*********************************************************************
 0   = xqcut   ! minimum kt jet measure between partons
#*********************************************************************
#
#*********************************************************************
# Store info for systematics studies                                 *
# WARNING: If use_syst is T, matched Pythia output is                *
#          meaningful ONLY if plotted taking matchscale              *
#          reweighting into account!                                 *
#*********************************************************************
   F  = use_syst      ! Enable systematics studies
#
#**************************************
# Parameter of the systematics study
#  will be used by SysCalc (if installed)
#**************************************                                  
#
0.5 1 2 = sys_scalefact  # factorization/renormalization scale factor
0.5 1 2 = sys_alpsfact  # \alpha_s emission scale factors
30 50 = sys_matchscale # variation of merging scale
# PDF sets and number of members (0 or none for all members).
CT10nlo.LHgrid = sys_pdf # matching scales
# MSTW2008nlo68cl.LHgrid 1  = sys_pdf
</MGRunCard>
<slha>
######################################################################
## PARAM_CARD AUTOMATICALY GENERATED BY MG5 FOLLOWING UFO MODEL   ####
######################################################################
##                                                                  ##
##  Width set on Auto will be computed following the information    ##
##        present in the decay.py files of the model.               ##
##        See  arXiv:1402.1178 for more details.                    ##
##                                                                  ##
######################################################################

###################################
## INFORMATION FOR CKMBLOCK
###################################
Block ckmblock 
    1 2.277360e-01 # cabi 

###################################
## INFORMATION FOR FRBLOCK
###################################
Block frblock 
    1 1.600000e+00 # gz 

###################################
## INFORMATION FOR MASS
###################################
Block mass 
    1 5.040000e-03 # MD 
    2 2.550000e-03 # MU 
    3 1.010000e-01 # MS 
    4 1.270000e+00 # MC 
    5 4.700000e+00 # MB 
    6 1.720000e+02 # MT 
   11 5.110000e-04 # Me 
   13 1.056600e-01 # MM 
   15 1.777000e+00 # MTA 
   23 9.118760e+01 # MZ 
   25 1.200000e+02 # MH 
  10030 2.800000e+03 # MZph 
  10031 3.000000e+02 # MZpl 
## Dependent parameters, given by model restrictions.
## Those values should be edited following the 
## analytical expression. MG5 ignores those values 
## but they are important for interfacing the output of MG5
## to external program such as Pythia.
  12 0.000000 # ve : 0.0 
  14 0.000000 # vm : 0.0 
  16 0.000000 # vt : 0.0 
  21 0.000000 # g : 0.0 
  22 0.000000 # a : 0.0 
  24 79.824360 # w+ : cmath.sqrt(MZ__exp__2/2. + cmath.sqrt(MZ__exp__4/4. - (aEW*cmath.pi*MZ__exp__2)/(Gf*sqrt__2))) 

###################################
## INFORMATION FOR SMINPUTS
###################################
Block sminputs 
    1 1.279000e+02 # aEWM1 
    2 1.166370e-05 # Gf 
    3 1.184000e-01 # aS 

###################################
## INFORMATION FOR YUKAWA
###################################
Block yukawa 
    1 5.040000e-03 # ymdo 
    2 2.550000e-03 # ymup 
    3 1.010000e-01 # yms 
    4 1.270000e+00 # ymc 
    5 4.700000e+00 # ymb 
    6 1.720000e+02 # ymt 
   11 5.110000e-04 # yme 
   13 1.056600e-01 # ymm 
   15 1.777000e+00 # ymtau 

###################################
## INFORMATION FOR DECAY
###################################
DECAY   6 1.508336e+00 # WT 
DECAY  23 2.495200e+00 # WZ 
DECAY  24 2.085000e+00 # WW 
DECAY  25 5.753088e-03 # WH 
## Dependent parameters, given by model restrictions.
## Those values should be edited following the 
## analytical expression. MG5 ignores those values 
## but they are important for interfacing the output of MG5
## to external program such as Pythia.
DECAY  1 0.000000 # d : 0.0 
DECAY  2 0.000000 # u : 0.0 
DECAY  3 0.000000 # s : 0.0 
DECAY  4 0.000000 # c : 0.0 
DECAY  5 0.000000 # b : 0.0 
DECAY  11 0.000000 # e- : 0.0 
DECAY  12 0.000000 # ve : 0.0 
DECAY  13 0.000000 # mu- : 0.0 
DECAY  14 0.000000 # vm : 0.0 
DECAY  15 0.000000 # ta- : 0.0 
DECAY  16 0.000000 # vt : 0.0 
DECAY  21 0.000000 # g : 0.0 
DECAY  22 0.000000 # a : 0.0 
DECAY  10030 0.308725 # zph : (gz__exp__2*MZph*(5 + cmath.sqrt(1 - (4*MT__exp__2)/MZph__exp__2)))/(144.*cmath.pi) 
DECAY  10031 0.132629 # zpl : (5*gz__exp__2*MZpl)/(144.*cmath.pi) 
#===========================================================
# QUANTUM NUMBERS OF NEW STATE(S) (NON SM PDG CODE)
#===========================================================

Block QNUMBERS 10030  # zph 
        1 0  # 3 times electric charge
        2 3  # number of spin states (2S+1)
        3 1  # colour rep (1: singlet, 3: triplet, 8: octet)
        4 0  # Particle/Antiparticle distinction (0=own anti)
Block QNUMBERS 10031  # zpl 
        1 0  # 3 times electric charge
        2 3  # number of spin states (2S+1)
        3 1  # colour rep (1: singlet, 3: triplet, 8: octet)
        4 0  # Particle/Antiparticle distinction (0=own anti)
</slha>
## END BANNER##
<MGGenerationInfo>
#  Number of Events        :         3944
#  Integrated weight (pb)  :  0.71664E-02
#  Max wgt                 :  0.38903E-05
#  Average wgt             :  0.18170E-05
</MGGenerationInfo>
</header>
<init>
     2212     2212  0.40000000000E+04  0.40000000000E+04 0 0  247000  247000 2   1
  0.71756127700E-02  0.23033572807E-04  0.38902740000E-05   0
</init>
<event>
 5   0  0.2697964E-05  0.2328244E+04  0.7818609E-02  0.8466868E-01
       -2   -1    0    0    0  501  0.00000000000E+00  0.00000000000E+00  0.74854423320E+03  0.74854423321E+03  0.25500000920E-02 0.  1.
        2   -1    0    0  501    0  0.00000000000E+00  0.00000000000E+00 -0.18104203039E+04  0.18104203039E+04  0.25500000920E-02 0. -1.
    10030    2    1    2    0    0  0.00000000000E+00  0.00000000000E+00 -0.10618760707E+04  0.25589645371E+04  0.23282436970E+04 0.  0.
        1    1    3    3  502    0  0.83807034060E+03  0.58213437666E+03  0.84886978564E+02  0.10239375603E+04  0.50400001928E-02 0.  1.
       -1    1    3    3    0  502 -0.83807034060E+03 -0.58213437666E+03 -0.11467630493E+04  0.15350269768E+04  0.50400001928E-02 0. -1.
</event>
<event>
 5   0  0.2697964E-05  0.2614559E+04  0.7818609E-02  0.8363272E-01
       -2   -1    0    0    0  501  0.00000000000E+00  0.00000000000E+00  0.10956523541E+04  0.10956523541E+04  0.25500000920E-02 0.  1.
        2   -1    0    0  501    0  0.00000000000E+00  0.00000000000E+00 -0.15597833506E+04  0.15597833506E+04  0.25500000920E-02 0. -1.
    10030    2    1    2    0    0  0.00000000000E+00  0.00000000000E+00 -0.46413099652E+03  0.26554357047E+04  0.26145594658E+04 0.  0.
        1    1    3    3  502    0  0.56496465425E+03 -0.11375335622E+04 -0.54644097226E+03  0.13826660485E+04  0.50400001928E-02 0. -1.
       -1    1    3    3    0  502 -0.56496465425E+03  0.11375335622E+04  0.82309975736E+02  0.12727696562E+04  0.50400001928E-02 0.  1.
</event>
<event>
 5   0  0.2651061E-05  0.2747203E+04  0.7818609E-02  0.8319850E-01
       -2   -1    0    0    0  501  0.00000000000E+00  0.00000000000E+00  0.13935409640E+04  0.13935409640E+04  0.25500000920E-02 0.  1.
        2   -1    0    0  501    0  0.00000000000E+00  0.00000000000E+00 -0.13539469001E+04  0.13539469001E+04  0.25500000920E-02 0. -1.
    10030    2    1    2    0    0  0.00000000000E+00  0.00000000000E+00  0.39594063956E+02  0.27474878641E+04  0.27472025541E+04 0.  0.
        3    1    3    3  502    0  0.39156815256E+03 -0.12307503166E+04 -0.44791434109E+03  0.13670037407E+04  0.10100000352E+00 0. -1.
       -3    1    3    3    0  502 -0.39156815256E+03  0.12307503166E+04  0.48750840505E+03  0.13804841234E+04  0.10100000352E+00 0.  1.
</event>
<event>
 5   0  0.2697964E-05  0.2752455E+04  0.7818609E-02  0.8318183E-01
        2   -1    0    0  501    0  0.00000000000E+00  0.00000000000E+00  0.29350228648E+04  0.29350228648E+04  0.25500000920E-02 0.  1.
       -2   -1    0    0    0  501  0.00000000000E+00  0.00000000000E+00 -0.64531065260E+03  0.64531065260E+03  0.25500000920E-02 0. -1.
    10030    2    1    2    0    0  0.00000000000E+00  0.00000000000E+00  0.22897122122E+04  0.35803335174E+04  0.27524545557E+04 0.  0.
        1    1    3    3  502    0  0.80361611584E+03 -0.81139293184E+03  0.21438710208E+04  0.24290616101E+04  0.50400001928E-02 0.  1.
       -1    1    3    3    0  502 -0.80361611584E+03  0.81139293184E+03  0.14584119135E+03  0.11512719073E+04  0.50400001928E-02 0. -1.
</event>
<event>
 5   0  0.2651061E-05  0.2535764E+04  0.7818609E-02  0.8390354E-01
        2   -1    0    0  501    0  0.00000000000E+00  0.00000000000E+00  0.19784351648E+04  0.19784351648E+04  0.25500000920E-02 0.  1.
       -2   -1    0    0    0  501  0.00000000000E+00  0.00000000000E+00 -0.81252351944E+03  0.81252351945E+03  0.25500000920E-02 0. -1.
    10030    2    1    2    0    0  0.00000000000E+00  0.00000000000E+00  0.11659116454E+04  0.27909586843E+04  0.25357642659E+04 0.  0.
        3    1    3    3  502    0 -0.11765257763E+04 -0.23844359137E+03  0.13390514241E+03  0.12078902458E+04  0.10100000352E+00 0. -1.
       -3    1    3    3    0  502  0.11765257763E+04  0.23844359137E+03  0.10320065030E+04  0.15830684385E+04  0.10100000352E+00 0.  1.
</event>
<event>
 5   0  0.1078103E-05  0.2786028E+04  0.7818609E-02  0.8307619E-01
       -1   -1    0    0    0  501  0.00000000000E+00  0.00000000000E+00  0.93501056974E+03  0.93501056976E+03  0.50400001928E-02 0. -1.
        1   -1    0    0  501    0  0.00000000000E+00  0.00000000000E+00 -0.20753644044E+04  0.20753644044E+04  0.50400001928E-02 0.  1.
    10030    2    1    2    0    0  0.00000000000E+00  0.00000000000E+00 -0.11403538346E+04  0.30103749741E+04  0.27860277487E+04 0.  0.
        1    1    3    3  502    0  0.99108975684E+02 -0.13863270244E+04 -0.67132271550E+03  0.15435023149E+04  0.50400001928E-02 0. -1.
       -1    1    3    3    0  502 -0.99108975684E+02  0.13863270244E+04 -0.46903111913E+03  0.14668726592E+04  0.50400001928E-02 0.  1.
</event>
<event>
 5   0  0.1105862E-05  0.2833200E+04  0.7818609E-02  0.8293035E-01
        1   -1    0    0  501    0  0.00000000000E+00  0.00000000000E+00  0.16461357604E+04  0.16461357604E+04  0.50400001928E-02 0.  1.
       -1   -1    0    0    0  501  0.00000000000E+00  0.00000000000E+00 -0.12190704923E+04  0.12190704923E+04  0.50400001928E-02 0. -1.
    10030    2    1    2    0    0  0.00000000000E+00  0.00000000000E+00  0.42706526813E+03  0.28652062527E+04  0.28331999801E+04 0.  0.
        3    1    3    3  502    0 -0.98877260534E+02 -0.12940257405E+03 -0.12095721965E+04  0.12204862341E+04  0.10100000352E+00 0. -1.
       -3    1    3    3    0  502  0.98877260534E+02  0.12940257405E+03  0.16366374646E+04  0.16447200186E+04  0.10100000352E+00 0.  1.
</event>
<event>
 5   0  0.2697964E-05  0.2739049E+04  0.7818609E-02  0.8322445E-01
        2   -1    0    0  501    0  0.00000000000E+00  0.00000000000E+00  0.16079689331E+04  0.16079689331E+04  0.25500000920E-02 0. -1.
       -2   -1    0    0    0  501  0.00000000000E+00  0.00000000000E+00 -0.11664384749E+04  0.11664384749E+04  0.25500000920E-02 0.  1.
    10030    2    1    2    0    0  0.00000000000E+00  0.00000000000E+00  0.44153045822E+03  0.27744074081E+04  0.27390486159E+04 0.  0.
        1    1    3    3  502    0  0.11791500576E+04 -0.69551241163E+03  0.25952746491E+03  0.13933724836E+04  0.50400001928E-02 0. -1.
       -1    1    3    3    0  502 -0.11791500576E+04  0.69551241163E+03  0.18200299332E+03  0.13810349245E+04  0.50400001928E-02 0.  1.
</event>
<event>
 5   0  0.1075146E-05  0.1762510E+04  0.7818609E-02  0.8726494E-01
        1   -1    0    0  501    0  0.00000000000E+00  0.00000000000E+00  0.11699775824E+04  0.11699775824E+04  0.50400001928E-02 0. -1.
       -1   -1    0    0    0  501  0.00000000000E+00  0.00000000000E+00 -0.66378198381E+03  0.66378198383E+03  0.50400001928E-02 0.  1.
    10030    2    1    2    0    0  0.00000000000E+00  0.00000000000E+00  0.50619559861E+03  0.18337595663E+04  0.17625096206E+04 0.  0.
        2    1    3    3  502    0 -0.30581472270E+03 -0.31706730408E+03  0.10472059103E+04  0.11360873816E+04  0.25500000920E-02 0. -1.
       -2    1    3    3    0  502  0.30581472270E+03  0.31706730408E+03 -0.54101031170E+03  0.69767218470E+03  0.25500000920E-02 0.  1.
</event>
<event>
 5   0  0.2697964E-05  0.2798436E+04  0.7818609E-02  0.8303754E-01
       -2   -1    0    0    0  501  0.00000000000E+00  0.00000000000E+00  0.15605575915E+04  0.15605575915E+04  0.25500000920E-02 0. -1.
        2   -1    0    0  501    0  0.00000000000E+00  0.00000000000E+00 -0.12545590126E+04  0.12545590126E+04  0.25500000920E-02 0.  1.
    10030    2    1    2    0    0  0.00000000000E+00  0.00000000000E+00  0.30599857890E+03  0.28151166041E+04  0.27984364142E+04 0.  0.
        1    1    3    3  502    0 -0.11640549067E+04 -0.25551687883E+03 -0.58451379689E+03  0.13273918336E+04  0.50400001928E-02 0.  1.
       -1    1    3    3    0  502  0.11640549067E+04  0.25551687883E+03  0.89051237579E+03  0.14877247705E+04  0.50400001928E-02 0. -1.
</event>
<event>
 5   0  0.8958000E-06  0.2811768E+04  0.7818609E-02  0.8299624E-01
        4   -1    0    0  501    0  0.00000000000E+00  0.00000000000E+00  0.19033496805E+04  0.19033501042E+04  0.12699999809E+01 0.  1.
       -4   -1    0    0    0  501  0.00000000000E+00  0.00000000000E+00 -0.10384367213E+04  0.10384374979E+04  0.12699999809E+01 0. -1.
    10030    2    1    2    0    0  0.00000000000E+00  0.00000000000E+00  0.86491295919E+03  0.29417876021E+04  0.28117681037E+04 0.  0.
        2    1    3    3  502    0 -0.50532883116E+03  0.41892858168E+03  0.17331878510E+04  0.18533209412E+04  0.25500000920E-02 0.  1.
       -2    1    3    3    0  502  0.50532883116E+03 -0.41892858168E+03 -0.86827489183E+03  0.10884666609E+04  0.25500000920E-02 0. -1.
</event>
<event>
 5   0  0.2518686E-05  0.2949698E+04  0.7818609E-02  0.8258243E-01
       -2   -1    0    0    0  501  0.00000000000E+00  0.00000000000E+00  0.73707304193E+03  0.73707304194E+03  0.25500000920E-02 0. -1.
        2   -1    0    0  501    0  0.00000000000E+00  0.00000000000E+00 -0.29511038621E+04  0.29511038621E+04  0.25500000920E-02 0.  1.
    10030    2    1    2    0    0  0.00000000000E+00  0.00000000000E+00 -0.22140308201E+04  0.36881769040E+04  0.29496976799E+04 0.  0.
        5    1    3    3  502    0 -0.46633305110E+03 -0.30839251175E+03  0.59942935712E+03  0.81970122607E+03  0.46999998093E+01 0. -1.
       -5    1    3    3    0  502  0.46633305110E+03  0.30839251175E+03 -0.28134601773E+04  0.28684756779E+04  0.46999998093E+01 0.  1.
</event>
<event>
 5   0  0.1017456E-05  0.2472496E+04  0.7818609E-02  0.8412850E-01
        1   -1    0    0  501    0  0.00000000000E+00  0.00000000000E+00  0.12124586451E+04  0.12124586451E+04  0.50400001928E-02 0. -1.
       -1   -1    0    0    0  501  0.00000000000E+00  0.00000000000E+00 -0.12605037332E+04  0.12605037332E+04  0.50400001928E-02 0.  1.
    10030    2    1    2    0    0  0.00000000000E+00  0.00000000000E+00 -0.48045088063E+02  0.24729623783E+04  0.24724956206E+04 0.  0.
        5    1    3    3  502    0  0.10648468072E+04  0.56930072208E+03 -0.28918487659E+03  0.12416328031E+04  0.46999998093E+01 0. -1.
       -5    1    3    3    0  502 -0.10648468072E+04 -0.56930072208E+03  0.24113978853E+03  0.12313295751E+04  0.46999998093E+01 0.  1.
</event>
<event>
 5   0  0.1078103E-05  0.1974102E+04  0.7818609E-02  0.8618826E-01
        1   -1    0    0  501    0  0.00000000000E+00  0.00000000000E+00  0.96891090272E+03  0.96891090274E+03  0.50400001928E-02 0. -1.
       -1   -1    0    0    0  501  0.00000000000E+00  0.00000000000E+00 -0.10055304972E+04  0.10055304972E+04  0.50400001928E-02 0.  1.
    10030    2    1    2    0    0  0.00000000000E+00  0.00000000000E+00 -0.36619594459E+02  0.19744413999E+04  0.19741017823E+04 0.  0.
        1    1    3    3  502    0 -0.48536635983E+03  0.73120627992E+03  0.43346065409E+03  0.97884179811E+03  0.50400001928E-02 0. -1.
       -1    1    3    3    0  502  0.48536635983E+03 -0.73120627992E+03 -0.47008024855E+03  0.99559960182E+03  0.50400001928E-02 0.  1.
</event>
<event>
 5   0  0.1105862E-05  0.2690436E+04  0.7818609E-02  0.8338115E-01
       -1   -1    0    0    0  501  0.00000000000E+00  0.00000000000E+00  0.10443538685E+04  0.10443538686E+04  0.50400001928E-02 0.  1.
        1   -1    0    0  501    0  0.00000000000E+00  0.00000000000E+00 -0.17327572699E+04  0.17327572699E+04  0.50400001928E-02 0. -1.
    10030    2    1    2    0    0  0.00000000000E+00  0.00000000000E+00 -0.68840340134E+03  0.27771111384E+04  0.26904362160E+04 0.  0.
        3    1    3    3  502    0  0.10812774854E+04 -0.79769293197E+03 -0.41059119257E+03  0.14050125095E+04  0.10100000352E+00 0.  1.
       -3    1    3    3    0  502 -0.10812774854E+04  0.79769293197E+03 -0.27781220877E+03  0.13720986290E+04  0.10100000352E+00 0. -1.
</event>
<event>
 5   0  0.1105862E-05  0.1921920E+04  0.7818609E-02  0.8644022E-01
        1   -1    0    0  501    0  0.00000000000E+00  0.00000000000E+00  0.21560327026E+04  0.21560327026E+04  0.50400001928E-02 0. -1.
       -1   -1    0    0    0  501  0.00000000000E+00  0.00000000000E+00 -0.42830704290E+03  0.42830704293E+03  0.50400001928E-02 0.  1.
    10030    2    1    2    0    0  0.00000000000E+00  0.00000000000E+00  0.17277256597E+04  0.25843397455E+04  0.19219198644E+04 0.  0.
        3    1    3    3  502    0 -0.74675652802E+03  0.24107383272E+03  0.16097367635E+04  0.17908138828E+04  0.10100000352E+00 0. -1.
       -3    1    3    3    0  502  0.74675652802E+03 -0.24107383272E+03  0.11798889619E+03  0.79352586271E+03  0.10100000352E+00 0.  1.
</event>
<event>
 5   0  0.2697964E-05  0.2801981E+04  0.7818609E-02  0.8302654E-01
       -2   -1    0    0    0  501  0.00000000000E+00  0.00000000000E+00  0.89736378396E+03  0.89736378396E+03  0.25500000920E-02 0.  1.
        2   -1    0    0  501    0  0.00000000000E+00  0.00000000000E+00 -0.21872673001E+04  0.21872673001E+04  0.25500000920E-02 0. -1.
    10030    2    1    2    0    0  0.00000000000E+00  0.00000000000E+00 -0.12899035161E+04  0.30846310841E+04  0.28019810570E+04 0.  0.
        1    1    3    3  502    0 -0.26130928637E+03 -0.85073132374E+03 -0.18361108574E+04  0.20404238307E+04  0.50400001928E-02 0. -1.
       -1    1    3    3    0  502  0.26130928637E+03  0.85073132374E+03  0.54620734123E+03  0.10442072534E+04  0.50400001928E-02 0.  1.
</event>
<event>
 5   0  0.1067434E-05  0.2754650E+04  0.7818609E-02  0.8317488E-01
        1   -1    0    0  501    0  0.00000000000E+00  0.00000000000E+00  0.18713367290E+04  0.18713367290E+04  0.50400001928E-02 0. -1.
       -1   -1    0    0    0  501  0.00000000000E+00  0.00000000000E+00 -0.10137269075E+04  0.10137269075E+04  0.50400001928E-02 0.  1.
    10030    2    1    2    0    0  0.00000000000E+00  0.00000000000E+00  0.85760982151E+03  0.28850636365E+04  0.27546501740E+04 0.  0.
        4    1    3    3  502    0 -0.10434986993E+04  0.34763945759E+03 -0.43946712414E+03  0.11844305357E+04  0.12699999809E+01 0.  1.
       -4    1    3    3    0  502  0.10434986993E+04 -0.34763945759E+03  0.12970769457E+04  0.17006331008E+04  0.12699999809E+01 0. -1.
</event>
<event>
 5   0  0.1078103E-05  0.2806912E+04  0.7818609E-02  0.8301126E-01
       -1   -1    0    0    0  501  0.00000000000E+00  0.00000000000E+00  0.86345892154E+03  0.86345892155E+03  0.50400001928E-02 0. -1.
        1   -1    0    0  501    0  0.00000000000E+00  0.00000000000E+00 -0.22811604849E+04  0.22811604849E+04  0.50400001928E-02 0.  1.
    10030    2    1    2    0    0  0.00000000000E+00  0.00000000000E+00 -0.14177015633E+04  0.31446194064E+04  0.28069117351E+04 0.  0.
        1    1    3    3  502    0 -0.76588710707E+03  0.29058631120E+03 -0.19855479248E+04  0.21478882715E+04  0.50400001928E-02 0.  1.
       -1    1    3    3    0  502  0.76588710707E+03 -0.29058631120E+03  0.56784636150E+03  0.99673113492E+03  0.50400001928E-02 0. -1.
</event>
<event>
 5   0  0.2588048E-05  0.2827557E+04  0.7818609E-02  0.8294764E-01
       -2   -1    0    0    0  501  0.00000000000E+00  0.00000000000E+00  0.10297815499E+04  0.10297815499E+04  0.25500000920E-02 0. -1.
        2   -1    0    0  501    0  0.00000000000E+00  0.00000000000E+00 -0.19409650886E+04  0.19409650886E+04  0.25500000920E-02 0.  1.
    10030    2    1    2    0    0  0.00000000000E+00  0.00000000000E+00 -0.91118353876E+03  0.29707466385E+04  0.28275572760E+04 0.  0.
        2    1    3    3  502    0  0.83943624148E+03 -0.66342327179E+03 -0.14265033467E+04  0.17831700534E+04  0.25500000920E-02 0.  1.
       -2    1    3    3    0  502 -0.83943624148E+03  0.66342327179E+03  0.51531980795E+03  0.11875765851E+04  0.25500000920E-02 0. -1.
</event>
<event>
 5   0  0.1105862E-05  0.2841677E+04  0.7818609E-02  0.8290445E-01
        1   -1    0    0  501    0  0.00000000000E+00  0.00000000000E+00  0.11619761345E+04  0.11619761345E+04  0.50400001928E-02 0.  1.
       -1   -1    0    0    0  501  0.00000000000E+00  0.00000000000E+00 -0.17373699732E+04  0.17373699732E+04  0.50400001928E-02 0. -1.
    10030    2    1    2    0    0  0.00000000000E+00  0.00000000000E+00 -0.57539383864E+03  0.28993461077E+04  0.28416772834E+04 0.  0.
        3    1    3    3  502    0  0.55245827992E+03 -0.11265525148E+04  0.39250460391E+03  0.13146826971E+04  0.10100000352E+00 0.  1.
       -3    1    3    3    0  502 -0.55245827992E+03  0.11265525148E+04 -0.96789844255E+03  0.15846634106E+04  0.10100000352E+00 0. -1.
</event>
<event>
 5   0  0.2651061E-05  0.2792091E+04  0.7818609E-02  0.8305728E-01
        2   -1    0    0  501    0  0.00000000000E+00  0.00000000000E+00  0.27777864343E+04  0.27777864343E+04  0.25500000920E-02 0.  1.
       -2   -1    0    0    0  501  0.00000000000E+00  0.00000000000E+00 -0.70161715210E+03  0.70161715211E+03  0.25500000920E-02 0. -1.
    10030    2    1    2    0    0  0.00000000000E+00  0.00000000000E+00  0.20761692822E+04  0.34794035864E+04  0.27920906914E+04 0.  0.
        3    1    3    3  502    0 -0.76915141891E+03 -0.65511626110E+03 -0.16249056893E+03  0.10233154039E+04  0.10100000352E+00 0. -1.
       -3    1    3    3    0  502  0.76915141891E+03  0.65511626110E+03  0.22386598511E+04  0.24560881825E+04  0.10100000352E+00 0.  1.
</event>
<event>
 5   0  0.1078103E-05  0.1584369E+04  0.7818609E-02  0.8830209E-01
        1   -1    0    0  501    0  0.00000000000E+00  0.00000000000E+00  0.11197530901E+04  0.11197530901E+04  0.50400001928E-02 0.  1.
       -1   -1    0    0    0  501  0.00000000000E+00  0.00000000000E+00 -0.56044133887E+03  0.56044133889E+03  0.50400001928E-02 0. -1.
    10030    2    1    2    0    0  0.00000000000E+00  0.00000000000E+00  0.55931175119E+03  0.16801944290E+04  0.15843685443E+04 0.  0.
        1    1    3    3  502    0 -0.69761370894E+03  0.12827480032E+03  0.65374700835E+03  0.96462659213E+03  0.50400001928E-02 0.  1.
       -1    1    3    3    0  502  0.69761370894E+03 -0.12827480032E+03 -0.94435257154E+02  0.71556783684E+03  0.50400001928E-02 0. -1.
</event>
<event>
 5   0  0.2588048E-05  0.2685020E+04  0.7818609E-02  0.8339882E-01
        2   -1    0    0  501    0  0.00000000000E+00  0.00000000000E+00  0.16444081908E+04  0.16444081908E+04  0.25500000920E-02 0. -1.
       -2   -1    0    0    0  501  0.00000000000E+00  0.00000000000E+00 -0.10960375412E+04  0.10960375412E+04  0.25500000920E-02 0.  1.
    10030    2    1    2    0    0  0.00000000000E+00  0.00000000000E+00  0.54837064956E+03  0.27404457320E+04  0.26850200075E+04 0.  0.
        2    1    3    3  502    0 -0.20048963446E+03 -0.13150626464E+04  0.45888286650E+03  0.14071813468E+04  0.25500000920E-02 0.  1.
       -2    1    3    3    0  502  0.20048963446E+03  0.13150626464E+04  0.89487783058E+02  0.13332643852E+04  0.25500000920E-02 0. -1.
</event>
<event>
 5   0  0.1075146E-05  0.2696211E+04  0.7818609E-02  0.8336235E-01
       -1   -1    0    0    0  501  0.00000000000E+00  0.00000000000E+00  0.94639315202E+03  0.94639315203E+03  0.50400001928E-02 0. -1.
        1   -1    0    0  501    0  0.00000000000E+00  0.00000000000E+00 -0.19203319901E+04  0.19203319901E+04  0.50400001928E-02 0.  1.
    10030    2    1    2    0    0  0.00000000000E+00  0.00000000000E+00 -0.97393883812E+03  0.28667251422E+04  0.26962114495E+04 0.  0.
        2    1    3    3  502    0  0.76332222148E+02 -0.33004582487E+01  0.94408930149E+03  0.94717586032E+03  0.25500000920E-02 0. -1.
       -2    1    3    3    0  502 -0.76332222148E+02  0.33004582487E+01 -0.19180281396E+04  0.19195492819E+04  0.25500000920E-02 0.  1.
</event>
<event>
 5   0  0.2651061E-05  0.2785032E+04  0.7818609E-02  0.8307930E-01
        2   -1    0    0  501    0  0.00000000000E+00  0.00000000000E+00  0.16854894192E+04  0.16854894192E+04  0.25500000920E-02 0. -1.
       -2   -1    0    0    0  501  0.00000000000E+00  0.00000000000E+00 -0.11504679022E+04  0.11504679022E+04  0.25500000920E-02 0.  1.
    10030    2    1    2    0    0  0.00000000000E+00  0.00000000000E+00  0.53502151695E+03  0.28359573214E+04  0.27850324784E+04 0.  0.
        3    1    3    3  502    0 -0.11800888652E+04 -0.61752785832E+03 -0.14630796470E+03  0.13399091075E+04  0.10100000352E+00 0.  1.
       -3    1    3    3    0  502  0.11800888652E+04  0.61752785832E+03  0.68132948165E+03  0.14960482139E+04  0.10100000352E+00 0. -1.
</event>
<event>
 5   0  0.2518686E-05  0.1836706E+04  0.7818609E-02  0.8687020E-01
       -2   -1    0    0    0  501  0.00000000000E+00  0.00000000000E+00  0.76053166721E+03  0.76053166722E+03  0.25500000920E-02 0. -1.
        2   -1    0    0  501    0  0.00000000000E+00  0.00000000000E+00 -0.11089246896E+04  0.11089246896E+04  0.25500000920E-02 0.  1.
    10030    2    1    2    0    0  0.00000000000E+00  0.00000000000E+00 -0.34839302239E+03  0.18694563568E+04  0.18367061202E+04 0.  0.
        5    1    3    3  502    0 -0.17556230457E+03  0.66013652148E+02  0.74081616011E+03  0.76420586110E+03  0.46999998093E+01 0. -1.
       -5    1    3    3    0  502  0.17556230457E+03 -0.66013652148E+02 -0.10892091825E+04  0.11052504957E+04  0.46999998093E+01 0.  1.
</event>
<event>
 5   0  0.1075146E-05  0.2807781E+04  0.7818609E-02  0.8300857E-01
       -1   -1    0    0    0  501  0.00000000000E+00  0.00000000000E+00  0.80139862510E+03  0.80139862512E+03  0.50400001928E-02 0. -1.
        1   -1    0    0  501    0  0.00000000000E+00  0.00000000000E+00 -0.24593366028E+04  0.24593366028E+04  0.50400001928E-02 0.  1.
    10030    2    1    2    0    0  0.00000000000E+00  0.00000000000E+00 -0.16579379777E+04  0.32607352279E+04  0.28077813107E+04 0.  0.
        2    1    3    3  502    0 -0.66835623222E+03  0.86480350315E+03 -0.18522000437E+04  0.21506348259E+04  0.25500000920E-02 0.  1.
       -2    1    3    3    0  502  0.66835623222E+03 -0.86480350315E+03  0.19426206609E+03  0.11101004020E+04  0.25500000920E-02 0. -1.
</event>
<event>
 5   0  0.2651061E-05  0.2901217E+04  0.7818609E-02  0.8272515E-01
        2   -1    0    0  501    0  0.00000000000E+00  0.00000000000E+00  0.21557236912E+04  0.21557236912E+04  0.25500000920E-02 0.  1.
       -2   -1    0    0    0  501  0.00000000000E+00  0.00000000000E+00 -0.97612948854E+03  0.97612948854E+03  0.25500000920E-02 0. -1.
    10030    2    1    2    0    0  0.00000000000E+00  0.00000000000E+00  0.11795942027E+04  0.31318531798E+04  0.29012173060E+04 0.  0.
        3    1    3    3  502    0 -0.11796764759E+04 -0.32172842896E+03 -0.25270783093E+03  0.12486020294E+04  0.10100000352E+00 0. -1.
       -3    1    3    3    0  502  0.11796764759E+04  0.32172842896E+03  0.14323020336E+04  0.18832511504E+04  0.10100000352E+00 0.  1.
</event>
<event>
 5   0  0.2697964E-05  0.2764008E+04  0.7818609E-02  0.8314530E-01
       -2   -1    0    0    0  501  0.00000000000E+00  0.00000000000E+00  0.90722081464E+03  0.90722081464E+03  0.25500000920E-02 0.  1.
        2   -1    0    0  501    0  0.00000000000E+00  0.00000000000E+00 -0.21052598239E+04  0.21052598240E+04  0.25500000920E-02 0. -1.
    10030    2    1    2    0    0  0.00000000000E+00  0.00000000000E+00 -0.11980390093E+04  0.30124806386E+04  0.27640083448E+04 0.  0.
        1    1    3    3  502    0 -0.15685837182E+03  0.61673760043E+03 -0.19360712577E+04  0.20379749094E+04  0.50400001928E-02 0. -1.
       -1    1    3    3    0  502  0.15685837182E+03 -0.61673760043E+03  0.73803224835E+03  0.97450572919E+03  0.50400001928E-02 0.  1.
</event>
<event>
 5   0  0.1017456E-05  0.2481897E+04  0.7818609E-02  0.8409463E-01
        1   -1    0    0  501    0  0.00000000000E+00  0.00000000000E+00  0.91699963629E+03  0.91699963631E+03  0.50400001928E-02 0.  1.
       -1   -1    0    0    0  501  0.00000000000E+00  0.00000000000E+00 -0.16793393940E+04  0.16793393940E+04  0.50400001928E-02 0. -1.
    10030    2    1    2    0    0  0.00000000000E+00  0.00000000000E+00 -0.76233975767E+03  0.25963390303E+04  0.24818973496E+04 0.  0.
        5    1    3    3  502    0  0.42418025976E+02  0.74626918784E+02  0.91388079780E+03  0.91791539290E+03  0.46999998093E+01 0.  1.
       -5    1    3    3    0  502 -0.42418025976E+02 -0.74626918784E+02 -0.16762205555E+04  0.16784236374E+04  0.46999998093E+01 0. -1.
</event>
<event>
 5   0  0.2651061E-05  0.2714598E+04  0.7818609E-02  0.8330284E-01
        2   -1    0    0  501    0  0.00000000000E+00  0.00000000000E+00  0.11621114147E+04  0.11621114147E+04  0.25500000920E-02 0.  1.
       -2   -1    0    0    0  501  0.00000000000E+00  0.00000000000E+00 -0.15852703307E+04  0.15852703307E+04  0.25500000920E-02 0. -1.
    10030    2    1    2    0    0  0.00000000000E+00  0.00000000000E+00 -0.42315891610E+03  0.27473817454E+04  0.27145981262E+04 0.  0.
        3    1    3    3  502    0 -0.58435500452E+03 -0.78381368826E+03 -0.11644518033E+04  0.15204547614E+04  0.10100000352E+00 0.  1.
       -3    1    3    3    0  502  0.58435500452E+03  0.78381368826E+03  0.74129288718E+03  0.12269269840E+04  0.10100000352E+00 0. -1.
</event>
<event>
 5   0  0.1067434E-05  0.2594233E+04  0.7818609E-02  0.8370163E-01
        1   -1    0    0  501    0  0.00000000000E+00  0.00000000000E+00  0.34094606051E+04  0.34094606051E+04  0.50400001928E-02 0. -1.
       -1   -1    0    0    0  501  0.00000000000E+00  0.00000000000E+00 -0.49348300423E+03  0.49348300426E+03  0.50400001928E-02 0.  1.
    10030    2    1    2    0    0  0.00000000000E+00  0.00000000000E+00  0.29159776009E+04  0.39029436094E+04  0.25942327284E+04 0.  0.
        4    1    3    3  502    0  0.74812208439E+03  0.45319031539E+03  0.16960710405E+02  0.87484706876E+03  0.12699999809E+01 0.  1.
       -4    1    3    3    0  502 -0.74812208439E+03 -0.45319031539E+03  0.28990168905E+04  0.30280965406E+04  0.12699999809E+01 0. -1.
</event>
<event>
 5   0  0.1078103E-05  0.2809522E+04  0.7818609E-02  0.8300318E-01
       -1   -1    0    0    0  501  0.00000000000E+00  0.00000000000E+00  0.10281069588E+04  0.10281069588E+04  0.50400001928E-02 0. -1.
        1   -1    0    0  501    0  0.00000000000E+00  0.00000000000E+00 -0.19194052075E+04  0.19194052075E+04  0.50400001928E-02 0.  1.
    10030    2    1    2    0    0  0.00000000000E+00  0.00000000000E+00 -0.89129824867E+03  0.29475121663E+04  0.28095222730E+04 0.  0.
        1    1    3    3  502    0 -0.93542830848E+03  0.39568173303E+02 -0.15443496751E+04  0.18059921594E+04  0.50400001928E-02 0.  1.
       -1    1    3    3    0  502  0.93542830848E+03 -0.39568173303E+02  0.65305142647E+03  0.11415200070E+04  0.50400001928E-02 0. -1.
</event>
<event>
 5   0  0.1105862E-05  0.1441061E+04  0.7818609E-02  0.8924621E-01
        1   -1    0    0  501    0  0.00000000000E+00  0.00000000000E+00  0.11636300610E+04  0.11636300610E+04  0.50400001928E-02 0. -1.
       -1   -1    0    0    0  501  0.00000000000E+00  0.00000000000E+00 -0.44615911959E+03  0.44615911962E+03  0.50400001928E-02 0.  1.
    10030    2    1    2    0    0  0.00000000000E+00  0.00000000000E+00  0.71747094139E+03  0.16097891806E+04  0.14410609474E+04 0.  0.
        3    1    3    3  502    0  0.93264263412E+02 -0.41940216797E+03  0.10048785459E+04  0.10928757036E+04  0.10100000352E+00 0. -1.
       -3    1    3    3    0  502 -0.93264263412E+02  0.41940216797E+03 -0.28740760454E+03  0.51691347697E+03  0.10100000352E+00 0.  1.
</event>
<event>
 5   0  0.2624815E-05  0.2761929E+04  0.7818609E-02  0.8315186E-01
        2   -1    0    0  501    0  0.00000000000E+00  0.00000000000E+00  0.28620094684E+04  0.28620094684E+04  0.25500000920E-02 0. -1.
       -2   -1    0    0    0  501  0.00000000000E+00  0.00000000000E+00 -0.66633727069E+03  0.66633727070E+03  0.25500000920E-02 0.  1.
    10030    2    1    2    0    0  0.00000000000E+00  0.00000000000E+00  0.21956721977E+04  0.35283467391E+04  0.27619294545E+04 0.  0.
        4    1    3    3  502    0  0.19936694454E+03  0.27427780214E+03 -0.61232946460E+03  0.69994605324E+03  0.12699999809E+01 0.  1.
       -4    1    3    3    0  502 -0.19936694454E+03 -0.27427780214E+03  0.28080016623E+04  0.28284006859E+04  0.12699999809E+01 0. -1.
</event>
<event>
 5   0  0.2624815E-05  0.2759723E+04  0.7818609E-02  0.8315883E-01
       -2   -1    0    0    0  501  0.00000000000E+00  0.00000000000E+00  0.15526203814E+04  0.15526203814E+04  0.25500000920E-02 0. -1.
        2   -1    0    0  501    0  0.00000000000E+00  0.00000000000E+00 -0.12263253065E+04  0.12263253065E+04  0.25500000920E-02 0.  1.
    10030    2    1    2    0    0  0.00000000000E+00  0.00000000000E+00  0.32629507493E+03  0.27789456879E+04  0.27597229318E+04 0.  0.
        4    1    3    3  502    0 -0.60650999825E+02 -0.10300982073E+04  0.10856263924E+04  0.14977874139E+04  0.12699999809E+01 0. -1.
       -4    1    3    3    0  502  0.60650999825E+02  0.10300982073E+04 -0.75933131747E+03  0.12811582740E+04  0.12699999809E+01 0.  1.
</event>
<event>
 5   0  0.8958000E-06  0.2785662E+04  0.7818609E-02  0.8307734E-01
        4   -1    0    0  501    0  0.00000000000E+00  0.00000000000E+00  0.13112618118E+04  0.13112624268E+04  0.12699999809E+01 0. -1.
       -4   -1    0    0    0  501  0.00000000000E+00  0.00000000000E+00 -0.14794730178E+04  0.14794735629E+04  0.12699999809E+01 0.  1.
    10030    2    1    2    0    0  0.00000000000E+00  0.00000000000E+00 -0.16821120605E+03  0.27907359898E+04  0.27856619240E+04 0.  0.
        5    1    3    3  502    0  0.45439440461E+02 -0.27053403756E+03 -0.14521340623E+04  0.14778257114E+04  0.46999998093E+01 0.  1.
       -5    1    3    3    0  502 -0.45439440461E+02  0.27053403756E+03  0.12839228563E+04  0.13129102784E+04  0.46999998093E+01 0. -1.
</event>
<event>
 5   0  0.1017456E-05  0.2759599E+04  0.7818609E-02  0.8315922E-01
       -1   -1    0    0    0  501  0.00000000000E+00  0.00000000000E+00  0.78718192025E+03  0.78718192027E+03  0.50400001928E-02 0.  1.
        1   -1    0    0  501    0  0.00000000000E+00  0.00000000000E+00 -0.24185593593E+04  0.24185593593E+04  0.50400001928E-02 0. -1.
    10030    2    1    2    0    0  0.00000000000E+00  0.00000000000E+00 -0.16313774390E+04  0.32057412795E+04  0.27595986670E+04 0.  0.
        5    1    3    3  502    0  0.89314044848E+03  0.11918147565E+03 -0.20295748759E+04  0.22206081040E+04  0.46999998093E+01 0. -1.
       -5    1    3    3    0  502 -0.89314044848E+03 -0.11918147565E+03  0.39819743684E+03  0.98513317554E+03  0.46999998093E+01 0.  1.
</event>
<event>
 5   0  0.1017456E-05  0.2815823E+04  0.7818609E-02  0.8298373E-01
        1   -1    0    0  501    0  0.00000000000E+00  0.00000000000E+00  0.18244794991E+04  0.18244794991E+04  0.50400001928E-02 0.  1.
       -1   -1    0    0    0  501  0.00000000000E+00  0.00000000000E+00 -0.10864549121E+04  0.10864549121E+04  0.50400001928E-02 0. -1.
    10030    2    1    2    0    0  0.00000000000E+00  0.00000000000E+00  0.73802458707E+03  0.29109344112E+04  0.28158229446E+04 0.  0.
        5    1    3    3  502    0 -0.10768169383E+04 -0.44095324696E+03 -0.45036195867E+03  0.12477269206E+04  0.46999998093E+01 0. -1.
       -5    1    3    3    0  502  0.10768169383E+04  0.44095324696E+03  0.11883865457E+04  0.16632074906E+04  0.46999998093E+01 0.  1.
</event>
<event>
 5   0  0.2588048E-05  0.2837160E+04  0.7818609E-02  0.8291824E-01
       -2   -1    0    0    0  501  0.00000000000E+00  0.00000000000E+00  0.11956692155E+04  0.11956692155E+04  0.25500000920E-02 0.  1.
        2   -1    0    0  501    0  0.00000000000E+00  0.00000000000E+00 -0.16830480232E+04  0.16830480232E+04  0.25500000920E-02 0. -1.
    10030    2    1    2    0    0  0.00000000000E+00  0.00000000000E+00 -0.48737880773E+03  0.28787172388E+04  0.28371596428E+04 0.  0.
        2    1    3    3  502    0 -0.70020198258E+03  0.11974780148E+04 -0.54490869357E+03  0.14903562986E+04  0.25500000920E-02 0. -1.
       -2    1    3    3    0  502  0.70020198258E+03 -0.11974780148E+04  0.57529885839E+02  0.13883609402E+04  0.25500000920E-02 0.  1.
</event>
<event>
 5   0  0.2651061E-05  0.2775363E+04  0.7818609E-02  0.8310958E-01
        2   -1    0    0  501    0  0.00000000000E+00  0.00000000000E+00  0.16164219865E+04  0.16164219865E+04  0.25500000920E-02 0.  1.
       -2   -1    0    0    0  501  0.00000000000E+00  0.00000000000E+00 -0.11913099622E+04  0.11913099622E+04  0.25500000920E-02 0. -1.
    10030    2    1    2    0    0  0.00000000000E+00  0.00000000000E+00  0.42511202428E+03  0.28077319487E+04  0.27753627623E+04 0.  0.
        3    1    3    3  502    0 -0.13821486934E+04 -0.89543515776E+02  0.12608069389E+03  0.13907729518E+04  0.10100000352E+00 0. -1.
       -3    1    3    3    0  502  0.13821486934E+04  0.89543515776E+02  0.29903133039E+03  0.14169589969E+04  0.10100000352E+00 0.  1.
</event>
<event>
 5   0  0.2697964E-05  0.2294706E+04  0.7818609E-02  0.8480011E-01
        2   -1    0    0  501    0  0.00000000000E+00  0.00000000000E+00  0.93670245233E+03  0.93670245233E+03  0.25500000920E-02 0.  1.
       -2   -1    0    0    0  501  0.00000000000E+00  0.00000000000E+00 -0.14053756297E+04  0.14053756297E+04  0.25500000920E-02 0. -1.
    10030    2    1    2    0    0  0.00000000000E+00  0.00000000000E+00 -0.46867317739E+03  0.23420780820E+04  0.22947059060E+04 0.  0.
        1    1    3    3  502    0  0.10255955323E+04 -0.28076094293E+03 -0.67421631847E+03  0.12590633610E+04  0.50400001928E-02 0. -1.
       -1    1    3    3    0  502 -0.10255955323E+04  0.28076094293E+03  0.20554314109E+03  0.10830147210E+04  0.50400001928E-02 0.  1.
</event>
<event>
 5   0  0.2588048E-05  0.2789814E+04  0.7818609E-02  0.8306438E-01
        2   -1    0    0  501    0  0.00000000000E+00  0.00000000000E+00  0.24304436600E+04  0.24304436600E+04  0.25500000920E-02 0.  1.
       -2   -1    0    0    0  501  0.00000000000E+00  0.00000000000E+00 -0.80058046165E+03  0.80058046166E+03  0.25500000920E-02 0. -1.
    10030    2    1    2    0    0  0.00000000000E+00  0.00000000000E+00  0.16298631983E+04  0.32310241217E+04  0.27898141209E+04 0.  0.
        2    1    3    3  502    0  0.75731741960E+02  0.13916880417E+04  0.74906139697E+03  0.15822843861E+04  0.25500000920E-02 0.  1.
       -2    1    3    3    0  502 -0.75731741960E+02 -0.13916880417E+04  0.88080180138E+03  0.16487397355E+04  0.25500000920E-02 0. -1.
</event>
<event>
 5   0  0.2651061E-05  0.2826355E+04  0.7818609E-02  0.8295133E-01
        2   -1    0    0  501    0  0.00000000000E+00  0.00000000000E+00  0.12811908762E+04  0.12811908762E+04  0.25500000920E-02 0.  1.
       -2   -1    0    0    0  501  0.00000000000E+00  0.00000000000E+00 -0.15587608259E+04  0.15587608259E+04  0.25500000920E-02 0. -1.
    10030    2    1    2    0    0  0.00000000000E+00  0.00000000000E+00 -0.27756994976E+03  0.28399517021E+04  0.28263546475E+04 0.  0.
        3    1    3    3  502    0 -0.32102737254E+03 -0.95028291245E+02 -0.15183361286E+04  0.15548098146E+04  0.10100000352E+00 0. -1.
       -3    1    3    3    0  502  0.32102737254E+03  0.95028291245E+02  0.12407661789E+04  0.12851418874E+04  0.10100000352E+00 0.  1.
</event>
<event>
 5   0  0.1105862E-05  0.2744549E+04  0.7818609E-02  0.8320694E-01
        1   -1    0    0  501    0  0.00000000000E+00  0.00000000000E+00  0.27634909047E+04  0.27634909047E+04  0.50400001928E-02 0.  1.
       -1   -1    0    0    0  501  0.00000000000E+00  0.00000000000E+00 -0.68143408735E+03  0.68143408737E+03  0.50400001928E-02 0. -1.
    10030    2    1    2    0    0  0.00000000000E+00  0.00000000000E+00  0.20820568173E+04  0.34449249920E+04  0.27445487079E+04 0.  0.
        3    1    3    3  502    0 -0.35923692548E+03 -0.47842392028E+03 -0.50911434941E+03  0.78558134340E+03  0.10100000352E+00 0. -1.
       -3    1    3    3    0  502  0.35923692548E+03  0.47842392028E+03  0.25911711667E+04  0.26593436486E+04  0.10100000352E+00 0.  1.
</event>
<event>
 5   0  0.2518686E-05  0.2275114E+04  0.7818609E-02  0.8487799E-01
       -2   -1    0    0    0  501  0.00000000000E+00  0.00000000000E+00  0.55340846424E+03  0.55340846424E+03  0.25500000920E-02 0. -1.
        2   -1    0    0  501    0  0.00000000000E+00  0.00000000000E+00 -0.23383008794E+04  0.23383008794E+04  0.25500000920E-02 0.  1.
    10030    2    1    2    0    0  0.00000000000E+00  0.00000000000E+00 -0.17848924152E+04  0.28917093437E+04  0.22751136223E+04 0.  0.
        5    1    3    3  502    0 -0.58111136740E+03 -0.43566869298E+03 -0.20052333441E+04  0.21327166913E+04  0.46999998093E+01 0.  1.
       -5    1    3    3    0  502  0.58111136740E+03  0.43566869298E+03  0.22034092887E+03  0.75899265234E+03  0.46999998093E+01 0. -1.
</event>
<event>
 5   0  0.1017456E-05  0.2361693E+04  0.7818609E-02  0.8453986E-01
       -1   -1    0    0    0  501  0.00000000000E+00  0.00000000000E+00  0.11092124924E+04  0.11092124924E+04  0.50400001928E-02 0.  1.
        1   -1    0    0  501    0  0.00000000000E+00  0.00000000000E+00 -0.12571063044E+04  0.12571063044E+04  0.50400001928E-02 0. -1.
    10030    2    1    2    0    0  0.00000000000E+00  0.00000000000E+00 -0.14789381198E+03  0.23663187968E+04  0.23616926279E+04 0.  0.
        5    1    3    3  502    0 -0.64758314406E+03  0.69154040626E+03  0.63226270012E+03  0.11390216301E+04  0.46999998093E+01 0.  1.
       -5    1    3    3    0  502  0.64758314406E+03 -0.69154040626E+03 -0.78015651210E+03  0.12272971667E+04  0.46999998093E+01 0. -1.
</event>
<event>
 5   0  0.1105862E-05  0.2878034E+04  0.7818609E-02  0.8279443E-01
        1   -1    0    0  501    0  0.00000000000E+00  0.00000000000E+00  0.26988040340E+04  0.26988040341E+04  0.50400001928E-02 0. -1.
       -1   -1    0    0    0  501  0.00000000000E+00  0.00000000000E+00 -0.76729185728E+03  0.76729185730E+03  0.50400001928E-02 0.  1.
    10030    2    1    2    0    0  0.00000000000E+00  0.00000000000E+00  0.19315121768E+04  0.34660958914E+04  0.28780343012E+04 0.  0.
        3    1    3    3  502    0 -0.59494176191E+03  0.12662721523E+04  0.56025437263E+03  0.15070785766E+04  0.10100000352E+00 0. -1.
       -3    1    3    3    0  502  0.59494176191E+03 -0.12662721523E+04  0.13712578041E+04  0.19590173147E+04  0.10100000352E+00 0.  1.
</event>
<event>
 5   0  0.2651061E-05  0.2910782E+04  0.7818609E-02  0.8269677E-01
       -2   -1    0    0    0  501  0.00000000000E+00  0.00000000000E+00  0.12288595602E+04  0.12288595602E+04  0.25500000920E-02 0.  1.
        2   -1    0    0  501    0  0.00000000000E+00  0.00000000000E+00 -0.17236821444E+04  0.17236821444E+04  0.25500000920E-02 0. -1.
    10030    2    1    2    0    0  0.00000000000E+00  0.00000000000E+00 -0.49482258417E+03  0.29525417046E+04  0.29107822192E+04 0.  0.
        3    1    3    3  502    0  0.75914087748E+03  0.46677651363E+03 -0.14145658382E+04  0.16718767019E+04  0.10100000352E+00 0. -1.
       -3    1    3    3    0  502 -0.75914087748E+03 -0.46677651363E+03  0.91974325403E+03  0.12806650027E+04  0.10100000352E+00 0.  1.
</event>
<event>
 5   0  0.1078103E-05  0.1463520E+04  0.7818609E-02  0.8909081E-01
        1   -1    0    0  501    0  0.00000000000E+00  0.00000000000E+00  0.17448288313E+04  0.17448288313E+04  0.50400001928E-02 0.  1.
       -1   -1    0    0    0  501  0.00000000000E+00  0.00000000000E+00 -0.30689130522E+03  0.30689130526E+03  0.50400001928E-02 0. -1.
    10030    2    1    2    0    0  0.00000000000E+00  0.00000000000E+00  0.14379375261E+04  0.20517201365E+04  0.14635201365E+04 0.  0.
        1    1    3    3  502    0 -0.51416526535E+03  0.19631348011E+02 -0.10456469395E+02  0.51464613832E+03  0.50400001928E-02 0. -1.
       -1    1    3    3    0  502  0.51416526535E+03 -0.19631348011E+02  0.14483939954E+04  0.15370739982E+04  0.50400001928E-02 0.  1.
</event>
<event>
 5   0  0.1105862E-05  0.2143027E+04  0.7818609E-02  0.8542523E-01
        1   -1    0    0  501    0  0.00000000000E+00  0.00000000000E+00  0.15237199167E+04  0.15237199167E+04  0.50400001928E-02 0.  1.
       -1   -1    0    0    0  501  0.00000000000E+00  0.00000000000E+00 -0.75351180562E+03  0.75351180564E+03  0.50400001928E-02 0. -1.
    10030    2    1    2    0    0  0.00000000000E+00  0.00000000000E+00  0.77020811110E+03  0.22772317224E+04  0.21430267807E+04 0.  0.
        3    1    3    3  502    0 -0.66887737215E+03 -0.62013540217E+02 -0.50197910403E+03  0.83858550502E+03  0.10100000352E+00 0. -1.
       -3    1    3    3    0  502  0.66887737215E+03  0.62013540217E+02  0.12721872151E+04  0.14386462174E+04  0.10100000352E+00 0.  1.
</event>
<event>
 5   0  0.1075146E-05  0.2828635E+04  0.7818609E-02  0.8294433E-01
        1   -1    0    0  501    0  0.00000000000E+00  0.00000000000E+00  0.22637929985E+04  0.22637929985E+04  0.50400001928E-02 0.  1.
       -1   -1    0    0    0  501  0.00000000000E+00  0.00000000000E+00 -0.88360293617E+03  0.88360293619E+03  0.50400001928E-02 0. -1.
    10030    2    1    2    0    0  0.00000000000E+00  0.00000000000E+00  0.13801900624E+04  0.31473959347E+04  0.28286351058E+04 0.  0.
        2    1    3    3  502    0  0.91887930188E+03  0.26349323593E+03 -0.46973559062E+03  0.10650912552E+04  0.25500000920E-02 0. -1.
       -2    1    3    3    0  502 -0.91887930188E+03 -0.26349323593E+03  0.18499256530E+04  0.20823046795E+04  0.25500000920E-02 0.  1.
</event>
<event>
 5   0  0.1017456E-05  0.2658112E+04  0.7818609E-02  0.8348726E-01
        1   -1    0    0  501    0  0.00000000000E+00  0.00000000000E+00  0.18777213302E+04  0.18777213302E+04  0.50400001928E-02 0.  1.
       -1   -1    0    0    0  501  0.00000000000E+00  0.00000000000E+00 -0.94070909859E+03  0.94070909860E+03  0.50400001928E-02 0. -1.
    10030    2    1    2    0    0  0.00000000000E+00  0.00000000000E+00  0.93701223160E+03  0.28184304288E+04  0.26581117659E+04 0.  0.
        5    1    3    3  502    0 -0.57531087910E+03 -0.11794819480E+04  0.24556997936E+03  0.13350981155E+04  0.46999998093E+01 0. -1.
       -5    1    3    3    0  502  0.57531087910E+03  0.11794819480E+04  0.69144225224E+03  0.14833323133E+04  0.46999998093E+01 0.  1.
</event>
<event>
 5   0  0.2624815E-05  0.2775858E+04  0.7818609E-02  0.8310803E-01
       -2   -1    0    0    0  501  0.00000000000E+00  0.00000000000E+00  0.11420944137E+04  0.11420944137E+04  0.25500000920E-02 0.  1.
        2   -1    0    0  501    0  0.00000000000E+00  0.00000000000E+00 -0.16866790597E+04  0.16866790597E+04  0.25500000920E-02 0. -1.
    10030    2    1    2    0    0  0.00000000000E+00  0.00000000000E+00 -0.54458464591E+03  0.28287734734E+04  0.27758578723E+04 0.  0.
        4    1    3    3  502    0 -0.32397876337E+03  0.40491983837E+03  0.10396586317E+04  0.11618149586E+04  0.12699999809E+01 0.  1.
       -4    1    3    3    0  502  0.32397876337E+03 -0.40491983837E+03 -0.15842432776E+04  0.16669585148E+04  0.12699999809E+01 0. -1.
</event>
<event>
 5   0  0.2697964E-05  0.2337281E+04  0.7818609E-02  0.8463365E-01
       -2   -1    0    0    0  501  0.00000000000E+00  0.00000000000E+00  0.94892977120E+03  0.94892977120E+03  0.25500000920E-02 0. -1.
        2   -1    0    0  501    0  0.00000000000E+00  0.00000000000E+00 -0.14392217369E+04  0.14392217369E+04  0.25500000920E-02 0.  1.
    10030    2    1    2    0    0  0.00000000000E+00  0.00000000000E+00 -0.49029196572E+03  0.23881515081E+04  0.23372807735E+04 0.  0.
        1    1    3    3  502    0  0.83551656261E+03 -0.19843428742E+03 -0.10550236098E+04  0.13603451437E+04  0.50400001928E-02 0.  1.
       -1    1    3    3    0  502 -0.83551656261E+03  0.19843428742E+03  0.56473164408E+03  0.10278063644E+04  0.50400001928E-02 0. -1.
</event>
<event>
 5   0  0.1067434E-05  0.2795054E+04  0.7818609E-02  0.8304806E-01
        1   -1    0    0  501    0  0.00000000000E+00  0.00000000000E+00  0.16447652530E+04  0.16447652530E+04  0.50400001928E-02 0.  1.
       -1   -1    0    0    0  501  0.00000000000E+00  0.00000000000E+00 -0.11874530337E+04  0.11874530337E+04  0.50400001928E-02 0. -1.
    10030    2    1    2    0    0  0.00000000000E+00  0.00000000000E+00  0.45731221923E+03  0.28322182867E+04  0.27950538381E+04 0.  0.
        4    1    3    3  502    0 -0.77561781740E+03 -0.26284890078E+03  0.13761477790E+04  0.16013921649E+04  0.12699999809E+01 0.  1.
       -4    1    3    3    0  502  0.77561781740E+03  0.26284890078E+03 -0.91883555977E+03  0.12308261218E+04  0.12699999809E+01 0. -1.
</event>
<event>
 5   0  0.2588048E-05  0.2767200E+04  0.7818609E-02  0.8313524E-01
       -2   -1    0    0    0  501  0.00000000000E+00  0.00000000000E+00  0.67691861141E+03  0.67691861141E+03  0.25500000920E-02 0.  1.
        2   -1    0    0  501    0  0.00000000000E+00  0.00000000000E+00 -0.28280334836E+04  0.28280334836E+04  0.25500000920E-02 0. -1.
    10030    2    1    2    0    0  0.00000000000E+00  0.00000000000E+00 -0.21511148722E+04  0.35049520950E+04  0.27671996666E+04 0.  0.
        2    1    3    3  502    0 -0.11043773371E+04  0.73266071755E+03 -0.57223889846E+03  0.14435713999E+04  0.25500000920E-02 0.  1.
       -2    1    3    3    0  502  0.11043773371E+04 -0.73266071755E+03 -0.15788759737E+04  0.20613806951E+04  0.25500000920E-02 0. -1.
</event>
<event>
 5   0  0.1017456E-05  0.2845286E+04  0.7818609E-02  0.8289345E-01
       -1   -1    0    0    0  501  0.00000000000E+00  0.00000000000E+00  0.18122211608E+04  0.18122211608E+04  0.50400001928E-02 0. -1.
        1   -1    0    0  501    0  0.00000000000E+00  0.00000000000E+00 -0.11168135317E+04  0.11168135317E+04  0.50400001928E-02 0.  1.
    10030    2    1    2    0    0  0.00000000000E+00  0.00000000000E+00  0.69540762908E+03  0.29290346926E+04  0.28452860067E+04 0.  0.
        5    1    3    3  502    0  0.49237644884E+03 -0.97904574178E+03  0.12815577459E+04  0.16862317391E+04  0.46999998093E+01 0. -1.
       -5    1    3    3    0  502 -0.49237644884E+03  0.97904574178E+03 -0.58615011677E+03  0.12428029535E+04  0.46999998093E+01 0.  1.
</event>
<event>
 5   0  0.2588048E-05  0.2843861E+04  0.7818609E-02  0.8289779E-01
       -2   -1    0    0    0  501  0.00000000000E+00  0.00000000000E+00  0.77762545962E+03  0.77762545963E+03  0.25500000920E-02 0. -1.
        2   -1    0    0  501    0  0.00000000000E+00  0.00000000000E+00 -0.26000778600E+04  0.26000778600E+04  0.25500000920E-02 0.  1.
    10030    2    1    2    0    0  0.00000000000E+00  0.00000000000E+00 -0.18224524004E+04  0.33777033196E+04  0.28438612772E+04 0.  0.
        2    1    3    3  502    0  0.77220816872E+03 -0.11103467069E+04 -0.38983117712E+03  0.14075310341E+04  0.25500000920E-02 0. -1.
       -2    1    3    3    0  502 -0.77220816872E+03  0.11103467069E+04 -0.14326212233E+04  0.19701722855E+04  0.25500000920E-02 0.  1.
</event>
<event>
 5   0  0.1067434E-05  0.2804839E+04  0.7818609E-02  0.8301768E-01
       -1   -1    0    0    0  501  0.00000000000E+00  0.00000000000E+00  0.20333354797E+04  0.20333354797E+04  0.50400001928E-02 0.  1.
        1   -1    0    0  501    0  0.00000000000E+00  0.00000000000E+00 -0.96726771425E+03  0.96726771426E+03  0.50400001928E-02 0. -1.
    10030    2    1    2    0    0  0.00000000000E+00  0.00000000000E+00  0.10660677655E+04  0.30006031940E+04  0.28048385064E+04 0.  0.
        4    1    3    3  502    0 -0.12111148456E+02  0.14023485055E+04  0.54060891680E+03  0.15029928891E+04  0.12699999809E+01 0. -1.
       -4    1    3    3    0  502  0.12111148456E+02 -0.14023485055E+04  0.52545884867E+03  0.14976103049E+04  0.12699999809E+01 0.  1.
</event>
<event>
 5   0  0.1067434E-05  0.2521140E+04  0.7818609E-02  0.8395493E-01
       -1   -1    0    0    0  501  0.00000000000E+00  0.00000000000E+00  0.67511426688E+03  0.67511426690E+03  0.50400001928E-02 0.  1.
        1   -1    0    0  501    0  0.00000000000E+00  0.00000000000E+00 -0.23537301782E+04  0.23537301782E+04  0.50400001928E-02 0. -1.
    10030    2    1    2    0    0  0.00000000000E+00  0.00000000000E+00 -0.16786159113E+04  0.30288444451E+04  0.25211400784E+04 0.  0.
        4    1    3    3  502    0  0.11203386936E+04 -0.85876056427E+02 -0.15257798065E+04  0.18948717941E+04  0.12699999809E+01 0. -1.
       -4    1    3    3    0  502 -0.11203386936E+04  0.85876056427E+02 -0.15283610483E+03  0.11339726510E+04  0.12699999809E+01 0.  1.
</event>
<event>
 5   0  0.1075146E-05  0.2841031E+04  0.7818609E-02  0.8290642E-01
       -1   -1    0    0    0  501  0.00000000000E+00  0.00000000000E+00  0.11488349441E+04  0.11488349441E+04  0.50400001928E-02 0. -1.
        1   -1    0    0  501    0  0.00000000000E+00  0.00000000000E+00 -0.17564441257E+04  0.17564441257E+04  0.50400001928E-02 0.  1.
    10030    2    1    2    0    0  0.00000000000E+00  0.00000000000E+00 -0.60760918156E+03  0.29052790699E+04  0.28410310727E+04 0.  0.
        2    1    3    3  502    0 -0.12941335266E+04  0.49297028138E+03 -0.62728565392E+03  0.15202922661E+04  0.25500000920E-02 0.  1.
       -2    1    3    3    0  502  0.12941335266E+04 -0.49297028138E+03  0.19676472358E+02  0.13849868037E+04  0.25500000920E-02 0. -1.
</event>
<event>
 5   0  0.2588048E-05  0.2794702E+04  0.7818609E-02  0.8304915E-01
       -2   -1    0    0    0  501  0.00000000000E+00  0.00000000000E+00  0.90479934355E+03  0.90479934356E+03  0.25500000920E-02 0.  1.
        2   -1    0    0  501    0  0.00000000000E+00  0.00000000000E+00 -0.21580359322E+04  0.21580359322E+04  0.25500000920E-02 0. -1.
    10030    2    1    2    0    0  0.00000000000E+00  0.00000000000E+00 -0.12532365887E+04  0.30628352758E+04  0.27947017693E+04 0.  0.
        2    1    3    3  502    0  0.89921206889E+02  0.13669569392E+04 -0.32462192116E+03  0.14078481768E+04  0.25500000920E-02 0. -1.
       -2    1    3    3    0  502 -0.89921206889E+02 -0.13669569392E+04 -0.92861466751E+03  0.16549870990E+04  0.25500000920E-02 0.  1.
</event>
<event>
 5   0  0.8958000E-06  0.1981247E+04  0.7818609E-02  0.8615439E-01
        3   -1    0    0  501    0  0.00000000000E+00  0.00000000000E+00  0.82428661067E+03  0.82428661686E+03  0.10100000352E+00 0.  1.
       -3   -1    0    0    0  501  0.00000000000E+00  0.00000000000E+00 -0.11905265377E+04  0.11905265420E+04  0.10100000352E+00 0. -1.
    10030    2    1    2    0    0  0.00000000000E+00  0.00000000000E+00 -0.36623992701E+03  0.20148131588E+04  0.19812471781E+04 0.  0.
        2    1    3    3  502    0 -0.36569280184E+03 -0.13679972689E+03  0.74273826418E+03  0.83910995685E+03  0.25500000920E-02 0.  1.
       -2    1    3    3    0  502  0.36569280184E+03  0.13679972689E+03 -0.11089781912E+04  0.11757032020E+04  0.25500000920E-02 0. -1.
</event>
<event>
 5   0  0.2518686E-05  0.2758179E+04  0.7818609E-02  0.8316371E-01
        2   -1    0    0  501    0  0.00000000000E+00  0.00000000000E+00  0.21947589800E+04  0.21947589800E+04  0.25500000920E-02 0. -1.
       -2   -1    0    0    0  501  0.00000000000E+00  0.00000000000E+00 -0.86655890885E+03  0.86655890885E+03  0.25500000920E-02 0.  1.
    10030    2    1    2    0    0  0.00000000000E+00  0.00000000000E+00  0.13282000712E+04  0.30613178889E+04  0.27581790710E+04 0.  0.
        5    1    3    3  502    0  0.56373420220E+03  0.12426281563E+04  0.44227197379E+03  0.14344154120E+04  0.46999998093E+01 0.  1.
       -5    1    3    3    0  502 -0.56373420220E+03 -0.12426281563E+04  0.88592809740E+03  0.16269024769E+04  0.46999998093E+01 0. -1.
</event>
<event>
 5   0  0.2518686E-05  0.2780799E+04  0.7818609E-02  0.8309255E-01
        2   -1    0    0  501    0  0.00000000000E+00  0.00000000000E+00  0.17489755206E+04  0.17489755206E+04  0.25500000920E-02 0. -1.
       -2   -1    0    0    0  501  0.00000000000E+00  0.00000000000E+00 -0.11053386293E+04  0.11053386293E+04  0.25500000920E-02 0.  1.
    10030    2    1    2    0    0  0.00000000000E+00  0.00000000000E+00  0.64363689124E+03  0.28543141499E+04  0.27807985937E+04 0.  0.
        5    1    3    3  502    0 -0.86381438678E+03  0.31453925952E+03  0.13925046943E+04  0.16685927167E+04  0.46999998093E+01 0. -1.
       -5    1    3    3    0  502  0.86381438678E+03 -0.31453925952E+03 -0.74886780310E+03  0.11857214332E+04  0.46999998093E+01 0.  1.
</event>
<event>
 5   0  0.2624815E-05  0.2456063E+04  0.7818609E-02  0.8418808E-01
       -2   -1    0    0    0  501  0.00000000000E+00  0.00000000000E+00  0.10445189493E+04  0.10445189493E+04  0.25500000920E-02 0. -1.
        2   -1    0    0  501    0  0.00000000000E+00  0.00000000000E+00 -0.14437858968E+04  0.14437858968E+04  0.25500000920E-02 0.  1.
    10030    2    1    2    0    0  0.00000000000E+00  0.00000000000E+00 -0.39926694750E+03  0.24883048462E+04  0.24560632956E+04 0.  0.
        4    1    3    3  502    0  0.87787766753E+02  0.12221050447E+04 -0.28325596824E+03  0.12575702719E+04  0.12699999809E+01 0.  1.
       -4    1    3    3    0  502 -0.87787766753E+02 -0.12221050447E+04 -0.11601097926E+03  0.12307345743E+04  0.12699999809E+01 0. -1.
</event>
<event>
 5   0  0.1067434E-05  0.2817892E+04  0.7818609E-02  0.8297735E-01
       -1   -1    0    0    0  501  0.00000000000E+00  0.00000000000E+00  0.84906877038E+03  0.84906877040E+03  0.50400001928E-02 0.  1.
        1   -1    0    0  501    0  0.00000000000E+00  0.00000000000E+00 -0.23380065743E+04  0.23380065743E+04  0.50400001928E-02 0. -1.
    10030    2    1    2    0    0  0.00000000000E+00  0.00000000000E+00 -0.14889378040E+04  0.31870753447E+04  0.28178916709E+04 0.  0.
        4    1    3    3  502    0  0.75381919247E+03  0.75238770331E+02  0.59911807082E+03  0.96584073386E+03  0.12699999809E+01 0.  1.
       -4    1    3    3    0  502 -0.75381919247E+03 -0.75238770331E+02 -0.20880558748E+04  0.22212346109E+04  0.12699999809E+01 0. -1.
</event>
<event>
 5   0  0.1075146E-05  0.1751470E+04  0.7818609E-02  0.8732541E-01
        1   -1    0    0  501    0  0.00000000000E+00  0.00000000000E+00  0.79491593746E+03  0.79491593748E+03  0.50400001928E-02 0. -1.
       -1   -1    0    0    0  501  0.00000000000E+00  0.00000000000E+00 -0.96477109724E+03  0.96477109725E+03  0.50400001928E-02 0.  1.
    10030    2    1    2    0    0  0.00000000000E+00  0.00000000000E+00 -0.16985515978E+03  0.17596870347E+04  0.17514701496E+04 0.  0.
        2    1    3    3  502    0  0.45730370699E+03  0.62494018589E+03 -0.49578987492E+03  0.91950231998E+03  0.25500000920E-02 0.  1.
       -2    1    3    3    0  502 -0.45730370699E+03 -0.62494018589E+03  0.32593471514E+03  0.84018471475E+03  0.25500000920E-02 0. -1.
</event>
<event>
 5   0  0.2588048E-05  0.2690538E+04  0.7818609E-02  0.8338082E-01
       -2   -1    0    0    0  501  0.00000000000E+00  0.00000000000E+00  0.91201557372E+03  0.91201557373E+03  0.25500000920E-02 0.  1.
        2   -1    0    0  501    0  0.00000000000E+00  0.00000000000E+00 -0.19843395362E+04  0.19843395362E+04  0.25500000920E-02 0. -1.
    10030    2    1    2    0    0  0.00000000000E+00  0.00000000000E+00 -0.10723239624E+04  0.28963551099E+04  0.26905379094E+04 0.  0.
        2    1    3    3  502    0  0.15088798114E+03  0.87940878724E+03 -0.16199656393E+04  0.18494365819E+04  0.25500000920E-02 0. -1.
       -2    1    3    3    0  502 -0.15088798114E+03 -0.87940878724E+03  0.54764167689E+03  0.10469185280E+04  0.25500000920E-02 0.  1.
</event>
<event>
 5   0  0.1075146E-05  0.2652898E+04  0.7818609E-02  0.8350452E-01
       -1   -1    0    0    0  501  0.00000000000E+00  0.00000000000E+00  0.11246421357E+04  0.11246421357E+04  0.50400001928E-02 0. -1.
        1   -1    0    0  501    0  0.00000000000E+00  0.00000000000E+00 -0.15644678535E+04  0.15644678535E+04  0.50400001928E-02 0.  1.
    10030    2    1    2    0    0  0.00000000000E+00  0.00000000000E+00 -0.43982571785E+03  0.26891099892E+04  0.26528976369E+04 0.  0.
        2    1    3    3  502    0  0.10740517275E+04  0.49953381286E+03  0.38518219858E+03  0.12455867973E+04  0.25500000920E-02 0. -1.
       -2    1    3    3    0  502 -0.10740517275E+04 -0.49953381286E+03 -0.82500791643E+03  0.14435231919E+04  0.25500000920E-02 0.  1.
</event>
<event>
 5   0  0.2651061E-05  0.2753738E+04  0.7818609E-02  0.8317777E-01
        2   -1    0    0  501    0  0.00000000000E+00  0.00000000000E+00  0.14209331326E+04  0.14209331326E+04  0.25500000920E-02 0.  1.
       -2   -1    0    0    0  501  0.00000000000E+00  0.00000000000E+00 -0.13341711680E+04  0.13341711680E+04  0.25500000920E-02 0. -1.
    10030    2    1    2    0    0  0.00000000000E+00  0.00000000000E+00  0.86761964592E+02  0.27551043006E+04  0.27537378358E+04 0.  0.
        3    1    3    3  502    0  0.62888724123E+03  0.11860340185E+04 -0.26269917014E+03  0.13679132719E+04  0.10100000352E+00 0. -1.
       -3    1    3    3    0  502 -0.62888724123E+03 -0.11860340185E+04  0.34946113473E+03  0.13871910287E+04  0.10100000352E+00 0.  1.
</event>
<event>
 5   0  0.2518686E-05  0.2593681E+04  0.7818609E-02  0.8370351E-01
       -2   -1    0    0    0  501  0.00000000000E+00  0.00000000000E+00  0.70201398675E+03  0.70201398675E+03  0.25500000920E-02 0.  1.
        2   -1    0    0  501    0  0.00000000000E+00  0.00000000000E+00 -0.23956713210E+04  0.23956713210E+04  0.25500000920E-02 0. -1.
    10030    2    1    2    0    0  0.00000000000E+00  0.00000000000E+00 -0.16936573342E+04  0.30976853078E+04  0.25936806087E+04 0.  0.
        5    1    3    3  502    0 -0.54401385170E+03  0.80438358266E+03 -0.18733805713E+04  0.21101092090E+04  0.46999998093E+01 0. -1.
       -5    1    3    3    0  502  0.54401385170E+03 -0.80438358266E+03  0.17972323706E+03  0.98757609876E+03  0.46999998093E+01 0.  1.
</event>
<event>
 5   0  0.1017456E-05  0.2801377E+04  0.7818609E-02  0.8302841E-01
       -1   -1    0    0    0  501  0.00000000000E+00  0.00000000000E+00  0.84902375148E+03  0.84902375149E+03  0.50400001928E-02 0. -1.
        1   -1    0    0  501    0  0.00000000000E+00  0.00000000000E+00 -0.23108044805E+04  0.23108044805E+04  0.50400001928E-02 0.  1.
    10030    2    1    2    0    0  0.00000000000E+00  0.00000000000E+00 -0.14617807290E+04  0.31598282320E+04  0.28013767251E+04 0.  0.
        5    1    3    3  502    0 -0.30018053902E+03  0.13260052693E+04 -0.11109083737E+04  0.17557157615E+04  0.46999998093E+01 0.  1.
       -5    1    3    3    0  502  0.30018053902E+03 -0.13260052693E+04 -0.35087235523E+03  0.14041124705E+04  0.46999998093E+01 0. -1.
</event>
<event>
 5   0  0.1105862E-05  0.2721068E+04  0.7818609E-02  0.8328201E-01
        1   -1    0    0  501    0  0.00000000000E+00  0.00000000000E+00  0.17949727681E+04  0.17949727681E+04  0.50400001928E-02 0.  1.
       -1   -1    0    0    0  501  0.00000000000E+00  0.00000000000E+00 -0.10312430075E+04  0.10312430075E+04  0.50400001928E-02 0. -1.
    10030    2    1    2    0    0  0.00000000000E+00  0.00000000000E+00  0.76372976058E+03  0.28262157756E+04  0.27210682577E+04 0.  0.
        3    1    3    3  502    0 -0.20842701288E+03  0.12905800483E+03  0.17718439332E+04  0.17887226510E+04  0.10100000352E+00 0.  1.
       -3    1    3    3    0  502  0.20842701288E+03 -0.12905800483E+03 -0.10081141726E+04  0.10374931246E+04  0.10100000352E+00 0. -1.
</event>
<event>
 5   0  0.2651061E-05  0.1651386E+04  0.7818609E-02  0.8789587E-01
        2   -1    0    0  501    0  0.00000000000E+00  0.00000000000E+00  0.15678745379E+04  0.15678745379E+04  0.25500000920E-02 0. -1.
       -2   -1    0    0    0  501  0.00000000000E+00  0.00000000000E+00 -0.43483615111E+03  0.43483615112E+03  0.25500000920E-02 0.  1.
    10030    2    1    2    0    0  0.00000000000E+00  0.00000000000E+00  0.11330383868E+04  0.20027106891E+04  0.16513855147E+04 0.  0.
        3    1    3    3  502    0  0.62138887247E+02 -0.40742370317E+03  0.14342158237E+04  0.14922567990E+04  0.10100000352E+00 0. -1.
       -3    1    3    3    0  502 -0.62138887247E+02  0.40742370317E+03 -0.30117743681E+03  0.51045389004E+03  0.10100000352E+00 0.  1.
</event>
<event>
 5   0  0.2697964E-05  0.2770493E+04  0.7818609E-02  0.8312488E-01
       -2   -1    0    0    0  501  0.00000000000E+00  0.00000000000E+00  0.90336906118E+03  0.90336906119E+03  0.25500000920E-02 0. -1.
        2   -1    0    0  501    0  0.00000000000E+00  0.00000000000E+00 -0.21241675249E+04  0.21241675249E+04  0.25500000920E-02 0.  1.
    10030    2    1    2    0    0  0.00000000000E+00  0.00000000000E+00 -0.12207984637E+04  0.30275365861E+04  0.27704925358E+04 0.  0.
        1    1    3    3  502    0  0.11276743167E+04  0.67333741533E+03 -0.12923553335E+03  0.13197478784E+04  0.50400001928E-02 0.  1.
       -1    1    3    3    0  502 -0.11276743167E+04 -0.67333741533E+03 -0.10915629304E+04  0.17077887078E+04  0.50400001928E-02 0. -1.
</event>
<event>
 5   0  0.2697964E-05  0.1879516E+04  0.7818609E-02  0.8665120E-01
       -2   -1    0    0    0  501  0.00000000000E+00  0.00000000000E+00  0.44017841282E+03  0.44017841282E+03  0.25500000920E-02 0. -1.
        2   -1    0    0  501    0  0.00000000000E+00  0.00000000000E+00 -0.20063334838E+04  0.20063334838E+04  0.25500000920E-02 0.  1.
    10030    2    1    2    0    0  0.00000000000E+00  0.00000000000E+00 -0.15661550709E+04  0.24465118966E+04  0.18795155636E+04 0.  0.
        1    1    3    3  502    0 -0.55070487153E+03 -0.48923116296E+03 -0.15426580292E+04  0.17095077600E+04  0.50400001928E-02 0.  1.
       -1    1    3    3    0  502  0.55070487153E+03  0.48923116296E+03 -0.23497041713E+02  0.73700413658E+03  0.50400001928E-02 0. -1.
</event>
<event>
 5   0  0.2588048E-05  0.2830924E+04  0.7818609E-02  0.8293732E-01
        2   -1    0    0  501    0  0.00000000000E+00  0.00000000000E+00  0.12373934775E+04  0.12373934775E+04  0.25500000920E-02 0.  1.
       -2   -1    0    0    0  501  0.00000000000E+00  0.00000000000E+00 -0.16191556030E+04  0.16191556030E+04  0.25500000920E-02 0. -1.
    10030    2    1    2    0    0  0.00000000000E+00  0.00000000000E+00 -0.38176212550E+03  0.28565490804E+04  0.28309239355E+04 0.  0.
        2    1    3    3  502    0 -0.11668902537E+04 -0.17560059626E+03 -0.97966288222E+03  0.15336909064E+04  0.25500000920E-02 0. -1.
       -2    1    3    3    0  502  0.11668902537E+04  0.17560059626E+03  0.59790075672E+03  0.13228581740E+04  0.25500000920E-02 0.  1.
</event>
<event>
 5   0  0.1078103E-05  0.2312280E+04  0.7818609E-02  0.8473095E-01
       -1   -1    0    0    0  501  0.00000000000E+00  0.00000000000E+00  0.68440897599E+03  0.68440897601E+03  0.50400001928E-02 0. -1.
        1   -1    0    0  501    0  0.00000000000E+00  0.00000000000E+00 -0.19530138319E+04  0.19530138319E+04  0.50400001928E-02 0.  1.
    10030    2    1    2    0    0  0.00000000000E+00  0.00000000000E+00 -0.12686048559E+04  0.26374228079E+04  0.23122804301E+04 0.  0.
        1    1    3    3  502    0  0.59482426237E+02  0.13938536603E+03 -0.19416357236E+04  0.19475409425E+04  0.50400001928E-02 0.  1.
       -1    1    3    3    0  502 -0.59482426237E+02 -0.13938536603E+03  0.67303086774E+03  0.68988186543E+03  0.50400001928E-02 0. -1.
</event>
<event>
 5   0  0.2697964E-05  0.2663946E+04  0.7818609E-02  0.8346799E-01
        2   -1    0    0  501    0  0.00000000000E+00  0.00000000000E+00  0.17770222149E+04  0.17770222149E+04  0.25500000920E-02 0. -1.
       -2   -1    0    0    0  501  0.00000000000E+00  0.00000000000E+00 -0.99838486991E+03  0.99838486991E+03  0.25500000920E-02 0.  1.
    10030    2    1    2    0    0  0.00000000000E+00  0.00000000000E+00  0.77863734497E+03  0.27754070848E+04  0.26639460151E+04 0.  0.
        1    1    3    3  502    0 -0.94843177220E+03 -0.89027796979E+03  0.90918353251E+02  0.13039876675E+04  0.50400001928E-02 0.  1.
       -1    1    3    3    0  502  0.94843177220E+03  0.89027796979E+03  0.68771899171E+03  0.14714194173E+04  0.50400001928E-02 0. -1.
</event>
<event>
 5   0  0.2624815E-05  0.2679258E+04  0.7818609E-02  0.8341767E-01
       -2   -1    0    0    0  501  0.00000000000E+00  0.00000000000E+00  0.85181464194E+03  0.85181464194E+03  0.25500000920E-02 0.  1.
        2   -1    0    0  501    0  0.00000000000E+00  0.00000000000E+00 -0.21068028441E+04  0.21068028441E+04  0.25500000920E-02 0. -1.
    10030    2    1    2    0    0  0.00000000000E+00  0.00000000000E+00 -0.12549882022E+04  0.29586174861E+04  0.26792577407E+04 0.  0.
        4    1    3    3  502    0  0.77690311632E+03 -0.82678031825E+03 -0.14141324714E+04  0.18129854954E+04  0.12699999809E+01 0. -1.
       -4    1    3    3    0  502 -0.77690311632E+03  0.82678031825E+03  0.15914426924E+03  0.11456319907E+04  0.12699999809E+01 0.  1.
</event>
<event>
 5   0  0.2651061E-05  0.2736672E+04  0.7818609E-02  0.8323203E-01
       -2   -1    0    0    0  501  0.00000000000E+00  0.00000000000E+00  0.10507795654E+04  0.10507795654E+04  0.25500000920E-02 0. -1.
        2   -1    0    0  501    0  0.00000000000E+00  0.00000000000E+00 -0.17818615556E+04  0.17818615556E+04  0.25500000920E-02 0.  1.
    10030    2    1    2    0    0  0.00000000000E+00  0.00000000000E+00 -0.73108199022E+03  0.28326411209E+04  0.27366722207E+04 0.  0.
        3    1    3    3  502    0 -0.50240183842E+03 -0.97683799634E+03  0.47899031544E+03  0.11983537920E+04  0.10100000352E+00 0. -1.
       -3    1    3    3    0  502  0.50240183842E+03  0.97683799634E+03 -0.12100723057E+04  0.16342873289E+04  0.10100000352E+00 0.  1.
</event>
<event>
 5   0  0.1017456E-05  0.2878378E+04  0.7818609E-02  0.8279340E-01
        1   -1    0    0  501    0  0.00000000000E+00  0.00000000000E+00  0.18483265076E+04  0.18483265076E+04  0.50400001928E-02 0.  1.
       -1   -1    0    0    0  501  0.00000000000E+00  0.00000000000E+00 -0.11206163252E+04  0.11206163252E+04  0.50400001928E-02 0. -1.
    10030    2    1    2    0    0  0.00000000000E+00  0.00000000000E+00  0.72771018240E+03  0.29689428328E+04  0.28783779173E+04 0.  0.
        5    1    3    3  502    0 -0.20472610588E+03  0.11986497334E+04 -0.43015023243E+03  0.12898547493E+04  0.46999998093E+01 0. -1.
       -5    1    3    3    0  502  0.20472610588E+03 -0.11986497334E+04  0.11578604148E+04  0.16790880835E+04  0.46999998093E+01 0.  1.
</event>
<event>
 5   0  0.1075146E-05  0.1663405E+04  0.7818609E-02  0.8782516E-01
       -1   -1    0    0    0  501  0.00000000000E+00  0.00000000000E+00  0.10910136093E+04  0.10910136093E+04  0.50400001928E-02 0. -1.
        1   -1    0    0  501    0  0.00000000000E+00  0.00000000000E+00 -0.63402387717E+03  0.63402387719E+03  0.50400001928E-02 0.  1.
    10030    2    1    2    0    0  0.00000000000E+00  0.00000000000E+00  0.45698973213E+03  0.17250374865E+04  0.16634045553E+04 0.  0.
        2    1    3    3  502    0 -0.31132261013E+03  0.67188650534E+03 -0.16418444909E+03  0.75849177778E+03  0.25500000920E-02 0.  1.
       -2    1    3    3    0  502  0.31132261013E+03 -0.67188650534E+03  0.62117418122E+03  0.96654570872E+03  0.25500000920E-02 0. -1.
</event>
<event>
 5   0  0.2697964E-05  0.2543321E+04  0.7818609E-02  0.8387713E-01
       -2   -1    0    0    0  501  0.00000000000E+00  0.00000000000E+00  0.76796432252E+03  0.76796432253E+03  0.25500000920E-02 0.  1.
        2   -1    0    0  501    0  0.00000000000E+00  0.00000000000E+00 -0.21057226734E+04  0.21057226734E+04  0.25500000920E-02 0. -1.
    10030    2    1    2    0    0  0.00000000000E+00  0.00000000000E+00 -0.13377583509E+04  0.28736869959E+04  0.25433205746E+04 0.  0.
        1    1    3    3  502    0  0.26534688851E+03  0.11966187752E+04 -0.10517361646E+04  0.16150710277E+04  0.50400001928E-02 0. -1.
       -1    1    3    3    0  502 -0.26534688851E+03 -0.11966187752E+04 -0.28602218623E+03  0.12586159682E+04  0.50400001928E-02 0.  1.
</event>
<event>
 5   0  0.2624815E-05  0.1386156E+04  0.7818609E-02  0.8963901E-01
        2   -1    0    0  501    0  0.00000000000E+00  0.00000000000E+00  0.19108613276E+04  0.19108613276E+04  0.25500000920E-02 0. -1.
       -2   -1    0    0    0  501  0.00000000000E+00  0.00000000000E+00 -0.25138263245E+03  0.25138263246E+03  0.25500000920E-02 0.  1.
    10030    2    1    2    0    0  0.00000000000E+00  0.00000000000E+00  0.16594786952E+04  0.21622439601E+04  0.13861563415E+04 0.  0.
        4    1    3    3  502    0  0.67436785603E+03 -0.38201870957E+02  0.10720208645E+04  0.12670681651E+04  0.12699999809E+01 0.  1.
       -4    1    3    3    0  502 -0.67436785603E+03  0.38201870957E+02  0.58745783062E+03  0.89517579494E+03  0.12699999809E+01 0. -1.
</event>
<event>
 5   0  0.2651061E-05  0.2828321E+04  0.7818609E-02  0.8294529E-01
       -2   -1    0    0    0  501  0.00000000000E+00  0.00000000000E+00  0.17957446418E+04  0.17957446418E+04  0.25500000920E-02 0.  1.
        2   -1    0    0  501    0  0.00000000000E+00  0.00000000000E+00 -0.11136608716E+04  0.11136608716E+04  0.25500000920E-02 0. -1.
    10030    2    1    2    0    0  0.00000000000E+00  0.00000000000E+00  0.68208377028E+03  0.29094055134E+04  0.28283214407E+04 0.  0.
        3    1    3    3  502    0  0.12366125923E+04 -0.66174992495E+03  0.52713388457E+03  0.14983303404E+04  0.10100000352E+00 0.  1.
       -3    1    3    3    0  502 -0.12366125923E+04  0.66174992495E+03  0.15494988571E+03  0.14110751730E+04  0.10100000352E+00 0. -1.
</event>
<event>
 5   0  0.1078103E-05  0.1821689E+04  0.7818609E-02  0.8694850E-01
        1   -1    0    0  501    0  0.00000000000E+00  0.00000000000E+00  0.46041053369E+03  0.46041053372E+03  0.50400001928E-02 0.  1.
       -1   -1    0    0    0  501  0.00000000000E+00  0.00000000000E+00 -0.18019523797E+04  0.18019523797E+04  0.50400001928E-02 0. -1.
    10030    2    1    2    0    0  0.00000000000E+00  0.00000000000E+00 -0.13415418460E+04  0.22623629134E+04  0.18216891687E+04 0.  0.
        1    1    3    3  502    0 -0.65553769188E+02  0.24780116203E+03 -0.17562369656E+04  0.17748439345E+04  0.50400001928E-02 0. -1.
       -1    1    3    3    0  502  0.65553769188E+02 -0.24780116203E+03  0.41469511959E+03  0.48751897890E+03  0.50400001928E-02 0.  1.
</event>
<event>
 5   0  0.2588048E-05  0.2740688E+04  0.7818609E-02  0.8321923E-01
        2   -1    0    0  501    0  0.00000000000E+00  0.00000000000E+00  0.88778206411E+03  0.88778206411E+03  0.25500000920E-02 0. -1.
       -2   -1    0    0    0  501  0.00000000000E+00  0.00000000000E+00 -0.21152067853E+04  0.21152067853E+04  0.25500000920E-02 0.  1.
    10030    2    1    2    0    0  0.00000000000E+00  0.00000000000E+00 -0.12274247211E+04  0.30029888494E+04  0.27406879763E+04 0.  0.
        2    1    3    3  502    0  0.12220110615E+04  0.23961749910E+03  0.12965566673E+02  0.12453496241E+04  0.25500000920E-02 0.  1.
       -2    1    3    3    0  502 -0.12220110615E+04 -0.23961749910E+03 -0.12403902878E+04  0.17576392253E+04  0.25500000920E-02 0. -1.
</event>
<event>
 5   0  0.1078103E-05  0.1897291E+04  0.7818609E-02  0.8656206E-01
        1   -1    0    0  501    0  0.00000000000E+00  0.00000000000E+00  0.97115493340E+03  0.97115493342E+03  0.50400001928E-02 0. -1.
       -1   -1    0    0    0  501  0.00000000000E+00  0.00000000000E+00 -0.92665742946E+03  0.92665742947E+03  0.50400001928E-02 0.  1.
    10030    2    1    2    0    0  0.00000000000E+00  0.00000000000E+00  0.44497503944E+02  0.18978123629E+04  0.18972906306E+04 0.  0.
        1    1    3    3  502    0 -0.66544761834E+03 -0.12976954559E+03  0.68595760099E+03  0.96446798708E+03  0.50400001928E-02 0. -1.
       -1    1    3    3    0  502  0.66544761834E+03  0.12976954559E+03 -0.64146009705E+03  0.93334437581E+03  0.50400001928E-02 0.  1.
</event>
<event>
 5   0  0.1075146E-05  0.2596519E+04  0.7818609E-02  0.8369384E-01
       -1   -1    0    0    0  501  0.00000000000E+00  0.00000000000E+00  0.11664112898E+04  0.11664112898E+04  0.50400001928E-02 0. -1.
        1   -1    0    0  501    0  0.00000000000E+00  0.00000000000E+00 -0.14450119243E+04  0.14450119243E+04  0.50400001928E-02 0.  1.
    10030    2    1    2    0    0  0.00000000000E+00  0.00000000000E+00 -0.27860063450E+03  0.26114232141E+04  0.25965193798E+04 0.  0.
        2    1    3    3  502    0  0.30666141698E+03  0.12613520636E+04 -0.11849415283E+03  0.13034918938E+04  0.25500000920E-02 0.  1.
       -2    1    3    3    0  502 -0.30666141698E+03 -0.12613520636E+04 -0.16010648167E+03  0.13079313203E+04  0.25500000920E-02 0. -1.
</event>
<event>
 5   0  0.2518686E-05  0.2001530E+04  0.7818609E-02  0.8605906E-01
       -2   -1    0    0    0  501  0.00000000000E+00  0.00000000000E+00  0.23060153623E+04  0.23060153623E+04  0.25500000920E-02 0.  1.
        2   -1    0    0  501    0  0.00000000000E+00  0.00000000000E+00 -0.43431208388E+03  0.43431208388E+03  0.25500000920E-02 0. -1.
    10030    2    1    2    0    0  0.00000000000E+00  0.00000000000E+00  0.18717032785E+04  0.27403274462E+04  0.20015297524E+04 0.  0.
        5    1    3    3  502    0 -0.32338898227E+03  0.44558659440E+03  0.20800107723E+04  0.21516493092E+04  0.46999998093E+01 0.  1.
       -5    1    3    3    0  502  0.32338898227E+03 -0.44558659440E+03 -0.20830749387E+03  0.58867813698E+03  0.46999998093E+01 0. -1.
</event>
<event>
 5   0  0.1078103E-05  0.2783106E+04  0.7818609E-02  0.8308532E-01
        1   -1    0    0  501    0  0.00000000000E+00  0.00000000000E+00  0.20592901142E+04  0.20592901142E+04  0.50400001928E-02 0. -1.
       -1   -1    0    0    0  501  0.00000000000E+00  0.00000000000E+00 -0.94033377957E+03  0.94033377959E+03  0.50400001928E-02 0.  1.
    10030    2    1    2    0    0  0.00000000000E+00  0.00000000000E+00  0.11189563346E+04  0.29996238938E+04  0.27831062189E+04 0.  0.
        1    1    3    3  502    0  0.10762951341E+04  0.71421869885E+03  0.16200236017E+01  0.12917128899E+04  0.50400001928E-02 0.  1.
       -1    1    3    3    0  502 -0.10762951341E+04 -0.71421869885E+03  0.11173363110E+04  0.17079110039E+04  0.50400001928E-02 0. -1.
</event>
<event>
 5   0  0.2624815E-05  0.2755603E+04  0.7818609E-02  0.8317186E-01
        2   -1    0    0  501    0  0.00000000000E+00  0.00000000000E+00  0.10639635912E+04  0.10639635912E+04  0.25500000920E-02 0. -1.
       -2   -1    0    0    0  501  0.00000000000E+00  0.00000000000E+00 -0.17842126982E+04  0.17842126982E+04  0.25500000920E-02 0.  1.
    10030    2    1    2    0    0  0.00000000000E+00  0.00000000000E+00 -0.72024910697E+03  0.28481762894E+04  0.27556032732E+04 0.  0.
        4    1    3    3  502    0  0.30052777082E+03  0.40362655797E+03  0.96558048353E+03  0.10888427905E+04  0.12699999809E+01 0. -1.
       -4    1    3    3    0  502 -0.30052777082E+03 -0.40362655797E+03 -0.16858295905E+04  0.17593334989E+04  0.12699999809E+01 0.  1.
</event>
<event>
 5   0  0.8958000E-06  0.2809208E+04  0.7818609E-02  0.8300415E-01
        3   -1    0    0  501    0  0.00000000000E+00  0.00000000000E+00  0.71663074992E+03  0.71663075703E+03  0.10100000352E+00 0.  1.
       -3   -1    0    0    0  501  0.00000000000E+00  0.00000000000E+00 -0.27530383424E+04  0.27530383442E+04  0.10100000352E+00 0. -1.
    10030    2    1    2    0    0  0.00000000000E+00  0.00000000000E+00 -0.20364075925E+04  0.34696691013E+04  0.28092076801E+04 0.  0.
        2    1    3    3  502    0  0.13583673951E+04  0.34902929726E+03 -0.92310451252E+03  0.16790191695E+04  0.25500000920E-02 0. -1.
       -2    1    3    3    0  502 -0.13583673951E+04 -0.34902929726E+03 -0.11133030799E+04  0.17906499318E+04  0.25500000920E-02 0.  1.
</event>
<event>
 5   0  0.2651061E-05  0.1975249E+04  0.7818609E-02  0.8618281E-01
        2   -1    0    0  501    0  0.00000000000E+00  0.00000000000E+00  0.14004516210E+04  0.14004516210E+04  0.25500000920E-02 0.  1.
       -2   -1    0    0    0  501  0.00000000000E+00  0.00000000000E+00 -0.69649124461E+03  0.69649124462E+03  0.25500000920E-02 0. -1.
    10030    2    1    2    0    0  0.00000000000E+00  0.00000000000E+00  0.70396037640E+03  0.20969428656E+04  0.19752491413E+04 0.  0.
        3    1    3    3  502    0 -0.57895968260E+03  0.79288123644E+03  0.46605905223E+03  0.10867686136E+04  0.10100000352E+00 0. -1.
       -3    1    3    3    0  502  0.57895968260E+03 -0.79288123644E+03  0.23790132417E+03  0.10101742520E+04  0.10100000352E+00 0.  1.
</event>
<event>
 5   0  0.2651061E-05  0.2834062E+04  0.7818609E-02  0.8292771E-01
       -2   -1    0    0    0  501  0.00000000000E+00  0.00000000000E+00  0.19466983309E+04  0.19466983309E+04  0.25500000920E-02 0. -1.
        2   -1    0    0  501    0  0.00000000000E+00  0.00000000000E+00 -0.10314781348E+04  0.10314781348E+04  0.25500000920E-02 0.  1.
    10030    2    1    2    0    0  0.00000000000E+00  0.00000000000E+00  0.91522019614E+03  0.29781764657E+04  0.28340619354E+04 0.  0.
        3    1    3    3  502    0  0.71109592082E+03  0.55454215123E+03  0.16062638193E+04  0.18420797685E+04  0.10100000352E+00 0. -1.
       -3    1    3    3    0  502 -0.71109592082E+03 -0.55454215123E+03 -0.69104362318E+03  0.11360966972E+04  0.10100000352E+00 0.  1.
</event>
<event>
 5   0  0.1105862E-05  0.1442681E+04  0.7818609E-02  0.8923490E-01
        1   -1    0    0  501    0  0.00000000000E+00  0.00000000000E+00  0.22019140174E+04  0.22019140174E+04  0.50400001928E-02 0.  1.
       -1   -1    0    0    0  501  0.00000000000E+00  0.00000000000E+00 -0.23630904644E+03  0.23630904649E+03  0.50400001928E-02 0. -1.
    10030    2    1    2    0    0  0.00000000000E+00  0.00000000000E+00  0.19656049710E+04  0.24382230639E+04  0.14426811177E+04 0.  0.
        3    1    3    3  502    0 -0.28194790870E+03  0.64175547861E+03  0.12705478092E+04  0.14510811360E+04  0.10100000352E+00 0.  1.
       -3    1    3    3    0  502  0.28194790870E+03 -0.64175547861E+03  0.69505716181E+03  0.98714192796E+03  0.10100000352E+00 0. -1.
</event>
<event>
 5   0  0.2588048E-05  0.2830437E+04  0.7818609E-02  0.8293881E-01
       -2   -1    0    0    0  501  0.00000000000E+00  0.00000000000E+00  0.10138290832E+04  0.10138290832E+04  0.25500000920E-02 0. -1.
        2   -1    0    0  501    0  0.00000000000E+00  0.00000000000E+00 -0.19755233640E+04  0.19755233640E+04  0.25500000920E-02 0.  1.
    10030    2    1    2    0    0  0.00000000000E+00  0.00000000000E+00 -0.96169428077E+03  0.29893524473E+04  0.28304367444E+04 0.  0.
        2    1    3    3  502    0 -0.36914389367E+03  0.60955625171E+02 -0.19223443457E+04  0.19584153252E+04  0.25500000920E-02 0.  1.
       -2    1    3    3    0  502  0.36914389367E+03 -0.60955625171E+02  0.96065006492E+03  0.10309371221E+04  0.25500000920E-02 0. -1.
</event>
<event>
 5   0  0.2624815E-05  0.2854639E+04  0.7818609E-02  0.8286503E-01
        2   -1    0    0  501    0  0.00000000000E+00  0.00000000000E+00  0.19574655926E+04  0.19574655926E+04  0.25500000920E-02 0. -1.
       -2   -1    0    0    0  501  0.00000000000E+00  0.00000000000E+00 -0.10407540508E+04  0.10407540508E+04  0.25500000920E-02 0.  1.
    10030    2    1    2    0    0  0.00000000000E+00  0.00000000000E+00  0.91671154179E+03  0.29982196433E+04  0.28546385023E+04 0.  0.
        4    1    3    3  502    0 -0.25706638027E+03  0.99475209660E+03 -0.58224671768E+03  0.11809435680E+04  0.12699999809E+01 0.  1.
       -4    1    3    3    0  502  0.25706638027E+03 -0.99475209660E+03  0.14989582595E+04  0.18172760754E+04  0.12699999809E+01 0. -1.
</event>
<event>
 5   0  0.2624815E-05  0.2776054E+04  0.7818609E-02  0.8310741E-01
        2   -1    0    0  501    0  0.00000000000E+00  0.00000000000E+00  0.18205080421E+04  0.18205080421E+04  0.25500000920E-02 0. -1.
       -2   -1    0    0    0  501  0.00000000000E+00  0.00000000000E+00 -0.10582863640E+04  0.10582863640E+04  0.25500000920E-02 0.  1.
    10030    2    1    2    0    0  0.00000000000E+00  0.00000000000E+00  0.76222167810E+03  0.28787944061E+04  0.27760539163E+04 0.  0.
        4    1    3    3  502    0 -0.10970458821E+04 -0.79963015610E+03  0.81095590728E+02  0.13599618236E+04  0.12699999809E+01 0.  1.
       -4    1    3    3    0  502  0.10970458821E+04  0.79963015610E+03  0.68112608737E+03  0.15188325825E+04  0.12699999809E+01 0. -1.
</event>
<event>
 5   0  0.1067434E-05  0.2632216E+04  0.7818609E-02  0.8357340E-01
       -1   -1    0    0    0  501  0.00000000000E+00  0.00000000000E+00  0.92331282490E+03  0.92331282491E+03  0.50400001928E-02 0.  1.
        1   -1    0    0  501    0  0.00000000000E+00  0.00000000000E+00 -0.18760051878E+04  0.18760051878E+04  0.50400001928E-02 0. -1.
    10030    2    1    2    0    0  0.00000000000E+00  0.00000000000E+00 -0.95269236290E+03  0.27993180127E+04  0.26322155303E+04 0.  0.
        4    1    3    3  502    0 -0.35791988490E+03  0.97020957045E+03  0.38941358017E+03  0.11050148433E+04  0.12699999809E+01 0.  1.
       -4    1    3    3    0  502  0.35791988490E+03 -0.97020957045E+03 -0.13421059431E+04  0.16943031694E+04  0.12699999809E+01 0. -1.
</event>
<event>
 5   0  0.1105862E-05  0.2629509E+04  0.7818609E-02  0.8358246E-01
        1   -1    0    0  501    0  0.00000000000E+00  0.00000000000E+00  0.14526411657E+04  0.14526411657E+04  0.50400001928E-02 0. -1.
       -1   -1    0    0    0  501  0.00000000000E+00  0.00000000000E+00 -0.11899562888E+04  0.11899562888E+04  0.50400001928E-02 0.  1.
    10030    2    1    2    0    0  0.00000000000E+00  0.00000000000E+00  0.26268487690E+03  0.26425974546E+04  0.26295090725E+04 0.  0.
        3    1    3    3  502    0 -0.25629871850E+03 -0.11951192755E+04  0.61808818744E+03  0.13696832237E+04  0.10100000352E+00 0. -1.
       -3    1    3    3    0  502  0.25629871850E+03  0.11951192755E+04 -0.35540331054E+03  0.12729142308E+04  0.10100000352E+00 0.  1.
</event>
<event>
 5   0  0.1078103E-05  0.1615016E+04  0.7818609E-02  0.8811376E-01
       -1   -1    0    0    0  501  0.00000000000E+00  0.00000000000E+00  0.37109645784E+03  0.37109645787E+03  0.50400001928E-02 0.  1.
        1   -1    0    0  501    0  0.00000000000E+00  0.00000000000E+00 -0.17571413712E+04  0.17571413712E+04  0.50400001928E-02 0. -1.
    10030    2    1    2    0    0  0.00000000000E+00  0.00000000000E+00 -0.13860449133E+04  0.21282378290E+04  0.16150157136E+04 0.  0.
        1    1    3    3  502    0 -0.26943579204E+03 -0.60088601478E+03 -0.77166764671E+02  0.66303420604E+03  0.50400001928E-02 0.  1.
       -1    1    3    3    0  502  0.26943579204E+03  0.60088601478E+03 -0.13088781487E+04  0.14652036230E+04  0.50400001928E-02 0. -1.
</event>
<event>
 5   0  0.1067434E-05  0.2939192E+04  0.7818609E-02  0.8261311E-01
       -1   -1    0    0    0  501  0.00000000000E+00  0.00000000000E+00  0.10610039893E+04  0.10610039893E+04  0.50400001928E-02 0. -1.
        1   -1    0    0  501    0  0.00000000000E+00  0.00000000000E+00 -0.20355358660E+04  0.20355358660E+04  0.50400001928E-02 0.  1.
    10030    2    1    2    0    0  0.00000000000E+00  0.00000000000E+00 -0.97453187673E+03  0.30965398553E+04  0.29391915039E+04 0.  0.
        4    1    3    3  502    0 -0.78967369155E+03  0.58367633031E+03 -0.16391639750E+04  0.19107911313E+04  0.12699999809E+01 0.  1.
       -4    1    3    3    0  502  0.78967369155E+03 -0.58367633031E+03  0.66463209822E+03  0.11857487240E+04  0.12699999809E+01 0. -1.
</event>
<event>
 5   0  0.1078103E-05  0.2868923E+04  0.7818609E-02  0.8282184E-01
       -1   -1    0    0    0  501  0.00000000000E+00  0.00000000000E+00  0.10925855753E+04  0.10925855753E+04  0.50400001928E-02 0.  1.
        1   -1    0    0  501    0  0.00000000000E+00  0.00000000000E+00 -0.18833116316E+04  0.18833116316E+04  0.50400001928E-02 0. -1.
    10030    2    1    2    0    0  0.00000000000E+00  0.00000000000E+00 -0.79072605633E+03  0.29758972069E+04  0.28689225312E+04 0.  0.
        1    1    3    3  502    0 -0.10025733761E+04 -0.79081222234E+03 -0.10732934601E+04  0.16680815918E+04  0.50400001928E-02 0. -1.
       -1    1    3    3    0  502  0.10025733761E+04  0.79081222234E+03  0.28256740374E+03  0.13078156151E+04  0.50400001928E-02 0.  1.
</event>
<event>
 5   0  0.2588048E-05  0.2756291E+04  0.7818609E-02  0.8316968E-01
        2   -1    0    0  501    0  0.00000000000E+00  0.00000000000E+00  0.21795699786E+04  0.21795699786E+04  0.25500000920E-02 0. -1.
       -2   -1    0    0    0  501  0.00000000000E+00  0.00000000000E+00 -0.87140346541E+03  0.87140346541E+03  0.25500000920E-02 0.  1.
    10030    2    1    2    0    0  0.00000000000E+00  0.00000000000E+00  0.13081665132E+04  0.30509734440E+04  0.27562908645E+04 0.  0.
        2    1    3    3  502    0 -0.74829326578E+03  0.10542312577E+04  0.11825555242E+04  0.17520798852E+04  0.25500000920E-02 0. -1.
       -2    1    3    3    0  502  0.74829326578E+03 -0.10542312577E+04  0.12561098892E+03  0.12988935587E+04  0.25500000920E-02 0.  1.
</event>
<event>
 5   0  0.1067434E-05  0.2768578E+04  0.7818609E-02  0.8313091E-01
        1   -1    0    0  501    0  0.00000000000E+00  0.00000000000E+00  0.21216718083E+04  0.21216718083E+04  0.50400001928E-02 0. -1.
       -1   -1    0    0    0  501  0.00000000000E+00  0.00000000000E+00 -0.90318197412E+03  0.90318197413E+03  0.50400001928E-02 0.  1.
    10030    2    1    2    0    0  0.00000000000E+00  0.00000000000E+00  0.12184898342E+04  0.30248537824E+04  0.27685777809E+04 0.  0.
        4    1    3    3  502    0  0.68275217846E+02  0.38737991226E+03  0.20593270693E+04  0.20965577247E+04  0.12699999809E+01 0. -1.
       -4    1    3    3    0  502 -0.68275217846E+02 -0.38737991226E+03 -0.84083723516E+03  0.92829605769E+03  0.12699999809E+01 0.  1.
</event>
<event>
 5   0  0.2588048E-05  0.2781095E+04  0.7818609E-02  0.8309162E-01
       -2   -1    0    0    0  501  0.00000000000E+00  0.00000000000E+00  0.10674511473E+04  0.10674511473E+04  0.25500000920E-02 0.  1.
        2   -1    0    0  501    0  0.00000000000E+00  0.00000000000E+00 -0.18114391072E+04  0.18114391072E+04  0.25500000920E-02 0. -1.
    10030    2    1    2    0    0  0.00000000000E+00  0.00000000000E+00 -0.74398795990E+03  0.28788902545E+04  0.27810952902E+04 0.  0.
        2    1    3    3  502    0  0.13746450604E+03 -0.10049335250E+04  0.61268327242E+03  0.11849762329E+04  0.25500000920E-02 0.  1.
       -2    1    3    3    0  502 -0.13746450604E+03  0.10049335250E+04 -0.13566712323E+04  0.16939140217E+04  0.25500000920E-02 0. -1.
</event>
<event>
 5   0  0.1078103E-05  0.2765367E+04  0.7818609E-02  0.8314102E-01
       -1   -1    0    0    0  501  0.00000000000E+00  0.00000000000E+00  0.12822010109E+04  0.12822010109E+04  0.50400001928E-02 0.  1.
        1   -1    0    0  501    0  0.00000000000E+00  0.00000000000E+00 -0.14910401553E+04  0.14910401553E+04  0.50400001928E-02 0. -1.
    10030    2    1    2    0    0  0.00000000000E+00  0.00000000000E+00 -0.20883914445E+03  0.27732411662E+04  0.27653666625E+04 0.  0.
        1    1    3    3  502    0 -0.92228684946E+03  0.72445611350E+03  0.63003429838E+03  0.13313124766E+04  0.50400001928E-02 0.  1.
       -1    1    3    3    0  502  0.92228684946E+03 -0.72445611350E+03 -0.83887344283E+03  0.14419286897E+04  0.50400001928E-02 0. -1.
</event>
<event>
 5   0  0.1105862E-05  0.1459527E+04  0.7818609E-02  0.8911822E-01
       -1   -1    0    0    0  501  0.00000000000E+00  0.00000000000E+00  0.10656374772E+04  0.10656374772E+04  0.50400001928E-02 0. -1.
        1   -1    0    0  501    0  0.00000000000E+00  0.00000000000E+00 -0.49975199681E+03  0.49975199684E+03  0.50400001928E-02 0.  1.
    10030    2    1    2    0    0  0.00000000000E+00  0.00000000000E+00  0.56588548042E+03  0.15653894741E+04  0.14595265769E+04 0.  0.
        3    1    3    3  502    0  0.39666796228E+03 -0.44522480695E+03 -0.16826570095E+03  0.61958369680E+03  0.10100000352E+00 0.  1.
       -3    1    3    3    0  502 -0.39666796228E+03  0.44522480695E+03  0.73415118137E+03  0.94580577728E+03  0.10100000352E+00 0. -1.
</event>
<event>
 5   0  0.2588048E-05  0.2785282E+04  0.7818609E-02  0.8307852E-01
       -2   -1    0    0    0  501  0.00000000000E+00  0.00000000000E+00  0.77606828979E+03  0.77606828980E+03  0.25500000920E-02 0.  1.
        2   -1    0    0  501    0  0.00000000000E+00  0.00000000000E+00 -0.24990704094E+04  0.24990704094E+04  0.25500000920E-02 0. -1.
    10030    2    1    2    0    0  0.00000000000E+00  0.00000000000E+00 -0.17230021196E+04  0.32751386992E+04  0.27852822469E+04 0.  0.
        2    1    3    3  502    0 -0.51903214165E+03 -0.83580986184E+02 -0.23779075685E+04  0.24353284275E+04  0.25500000920E-02 0. -1.
       -2    1    3    3    0  502  0.51903214165E+03  0.83580986184E+02  0.65490544895E+03  0.83981027166E+03  0.25500000920E-02 0.  1.
</event>
<event>
 5   0  0.2697964E-05  0.2891487E+04  0.7818609E-02  0.8275415E-01
       -2   -1    0    0    0  501  0.00000000000E+00  0.00000000000E+00  0.11499397295E+04  0.11499397295E+04  0.25500000920E-02 0.  1.
        2   -1    0    0  501    0  0.00000000000E+00  0.00000000000E+00 -0.18176386188E+04  0.18176386188E+04  0.25500000920E-02 0. -1.
    10030    2    1    2    0    0  0.00000000000E+00  0.00000000000E+00 -0.66769888927E+03  0.29675783483E+04  0.28914874108E+04 0.  0.
        1    1    3    3  502    0 -0.61184789792E+03 -0.12591068316E+04 -0.70455681700E+03  0.15671975536E+04  0.50400001928E-02 0.  1.
       -1    1    3    3    0  502  0.61184789792E+03  0.12591068316E+04  0.36857927730E+02  0.14003807948E+04  0.50400001928E-02 0. -1.
</event>
<event>
 5   0  0.2518686E-05  0.2954557E+04  0.7818609E-02  0.8256828E-01
       -2   -1    0    0    0  501  0.00000000000E+00  0.00000000000E+00  0.17606346541E+04  0.17606346541E+04  0.25500000920E-02 0.  1.
        2   -1    0    0  501    0  0.00000000000E+00  0.00000000000E+00 -0.12395255032E+04  0.12395255032E+04  0.25500000920E-02 0. -1.
    10030    2    1    2    0    0  0.00000000000E+00  0.00000000000E+00  0.52110915090E+03  0.30001601572E+04  0.29545568571E+04 0.  0.
        5    1    3    3  502    0 -0.83979196567E+03  0.11732210150E+04 -0.61566232540E+02  0.14441296986E+04  0.46999998093E+01 0. -1.
       -5    1    3    3    0  502  0.83979196567E+03 -0.11732210150E+04  0.58267538344E+03  0.15560304586E+04  0.46999998093E+01 0.  1.
</event>
<event>
 5   0  0.1067434E-05  0.2402258E+04  0.7818609E-02  0.8438659E-01
       -1   -1    0    0    0  501  0.00000000000E+00  0.00000000000E+00  0.72926951372E+03  0.72926951373E+03  0.50400001928E-02 0.  1.
        1   -1    0    0  501    0  0.00000000000E+00  0.00000000000E+00 -0.19782953218E+04  0.19782953218E+04  0.50400001928E-02 0. -1.
    10030    2    1    2    0    0  0.00000000000E+00  0.00000000000E+00 -0.12490258081E+04  0.27075648355E+04  0.24022576609E+04 0.  0.
        4    1    3    3  502    0  0.76793214385E+03  0.87380049586E+03 -0.28739794671E+03  0.11982680321E+04  0.12699999809E+01 0. -1.
       -4    1    3    3    0  502 -0.76793214385E+03 -0.87380049586E+03 -0.96162786134E+03  0.15092968034E+04  0.12699999809E+01 0.  1.
</event>
<event>
 5   0  0.1078103E-05  0.1449137E+04  0.7818609E-02  0.8918999E-01
       -1   -1    0    0    0  501  0.00000000000E+00  0.00000000000E+00  0.18112368528E+04  0.18112368528E+04  0.50400001928E-02 0. -1.
        1   -1    0    0  501    0  0.00000000000E+00  0.00000000000E+00 -0.28985700026E+03  0.28985700030E+03  0.50400001928E-02 0.  1.
    10030    2    1    2    0    0  0.00000000000E+00  0.00000000000E+00  0.15213798525E+04  0.21010938531E+04  0.14491372343E+04 0.  0.
        1    1    3    3  502    0 -0.10282915137E+03 -0.63462986570E+03  0.27617661645E+03  0.69971595974E+03  0.50400001928E-02 0.  1.
       -1    1    3    3    0  502  0.10282915137E+03  0.63462986570E+03  0.12452032361E+04  0.14013778934E+04  0.50400001928E-02 0. -1.
</event>
<event>
 5   0  0.1105862E-05  0.2948415E+04  0.7818609E-02  0.8258617E-01
       -1   -1    0    0    0  501  0.00000000000E+00  0.00000000000E+00  0.15401947001E+04  0.15401947001E+04  0.50400001928E-02 0.  1.
        1   -1    0    0  501    0  0.00000000000E+00  0.00000000000E+00 -0.14110472226E+04  0.14110472226E+04  0.50400001928E-02 0. -1.
    10030    2    1    2    0    0  0.00000000000E+00  0.00000000000E+00  0.12914747755E+03  0.29512419227E+04  0.29484147971E+04 0.  0.
        3    1    3    3  502    0  0.10107005368E+03  0.18035654966E+03  0.15256115756E+04  0.15395565370E+04  0.10100000352E+00 0.  1.
       -3    1    3    3    0  502 -0.10107005368E+03 -0.18035654966E+03 -0.13964640981E+04  0.14116853857E+04  0.10100000352E+00 0. -1.
</event>
<event>
 5   0  0.2651061E-05  0.2873098E+04  0.7818609E-02  0.8280927E-01
       -2   -1    0    0    0  501  0.00000000000E+00  0.00000000000E+00  0.81548026411E+03  0.81548026412E+03  0.25500000920E-02 0. -1.
        2   -1    0    0  501    0  0.00000000000E+00  0.00000000000E+00 -0.25306234432E+04  0.25306234432E+04  0.25500000920E-02 0.  1.
    10030    2    1    2    0    0  0.00000000000E+00  0.00000000000E+00 -0.17151431791E+04  0.33461037073E+04  0.28730983094E+04 0.  0.
        3    1    3    3  502    0  0.13764102159E+03 -0.71530390626E+02 -0.25208412673E+04  0.25256093032E+04  0.10100000352E+00 0.  1.
       -3    1    3    3    0  502 -0.13764102159E+03  0.71530390626E+02  0.80569808819E+03  0.82049440408E+03  0.10100000352E+00 0. -1.
</event>
<event>
 5   0  0.2588048E-05  0.2772719E+04  0.7818609E-02  0.8311788E-01
       -2   -1    0    0    0  501  0.00000000000E+00  0.00000000000E+00  0.12884021745E+04  0.12884021745E+04  0.25500000920E-02 0. -1.
        2   -1    0    0  501    0  0.00000000000E+00  0.00000000000E+00 -0.14917647523E+04  0.14917647523E+04  0.25500000920E-02 0.  1.
    10030    2    1    2    0    0  0.00000000000E+00  0.00000000000E+00 -0.20336257781E+03  0.27801669268E+04  0.27727192074E+04 0.  0.
        2    1    3    3  502    0 -0.81592858828E+03 -0.10389236528E+04 -0.52339528396E+03  0.14209308360E+04  0.25500000920E-02 0.  1.
       -2    1    3    3    0  502  0.81592858828E+03  0.10389236528E+04  0.32003270615E+03  0.13592360908E+04  0.25500000920E-02 0. -1.
</event>
<event>
 5   0  0.1075146E-05  0.2720999E+04  0.7818609E-02  0.8328224E-01
        1   -1    0    0  501    0  0.00000000000E+00  0.00000000000E+00  0.13145012949E+04  0.13145012949E+04  0.50400001928E-02 0. -1.
       -1   -1    0    0    0  501  0.00000000000E+00  0.00000000000E+00 -0.14081074315E+04  0.14081074315E+04  0.50400001928E-02 0.  1.
    10030    2    1    2    0    0  0.00000000000E+00  0.00000000000E+00 -0.93606136573E+02  0.27226087264E+04  0.27209991122E+04 0.  0.
        2    1    3    3  502    0  0.42230590013E+03  0.10481589228E+04 -0.80486567821E+03  0.13873673489E+04  0.25500000920E-02 0.  1.
       -2    1    3    3    0  502 -0.42230590013E+03 -0.10481589228E+04  0.71125954164E+03  0.13352413775E+04  0.25500000920E-02 0. -1.
</event>
<event>
 5   0  0.1075146E-05  0.2765830E+04  0.7818609E-02  0.8313956E-01
        1   -1    0    0  501    0  0.00000000000E+00  0.00000000000E+00  0.18882646538E+04  0.18882646538E+04  0.50400001928E-02 0.  1.
       -1   -1    0    0    0  501  0.00000000000E+00  0.00000000000E+00 -0.10128105604E+04  0.10128105604E+04  0.50400001928E-02 0. -1.
    10030    2    1    2    0    0  0.00000000000E+00  0.00000000000E+00  0.87545409336E+03  0.29010752142E+04  0.27658303507E+04 0.  0.
        2    1    3    3  502    0  0.32315776517E+03 -0.16544949037E+03  0.18373875943E+04  0.18729115427E+04  0.25500000920E-02 0.  1.
       -2    1    3    3    0  502 -0.32315776517E+03  0.16544949037E+03 -0.96193350098E+03  0.10281636715E+04  0.25500000920E-02 0. -1.
</event>
<event>
 5   0  0.2624815E-05  0.2710603E+04  0.7818609E-02  0.8331573E-01
       -2   -1    0    0    0  501  0.00000000000E+00  0.00000000000E+00  0.11403913062E+04  0.11403913062E+04  0.25500000920E-02 0.  1.
        2   -1    0    0  501    0  0.00000000000E+00  0.00000000000E+00 -0.16107120594E+04  0.16107120594E+04  0.25500000920E-02 0. -1.
    10030    2    1    2    0    0  0.00000000000E+00  0.00000000000E+00 -0.47032075320E+03  0.27511033656E+04  0.27106029067E+04 0.  0.
        4    1    3    3  502    0  0.47442282000E+03  0.89144714287E+03  0.68227341554E+03  0.12187098289E+04  0.12699999809E+01 0.  1.
       -4    1    3    3    0  502 -0.47442282000E+03 -0.89144714287E+03 -0.11525941687E+04  0.15323935367E+04  0.12699999809E+01 0. -1.
</event>
<event>
 5   0  0.1105862E-05  0.1611904E+04  0.7818609E-02  0.8813268E-01
        1   -1    0    0  501    0  0.00000000000E+00  0.00000000000E+00  0.12072360229E+04  0.12072360229E+04  0.50400001928E-02 0.  1.
       -1   -1    0    0    0  501  0.00000000000E+00  0.00000000000E+00 -0.53805405786E+03  0.53805405788E+03  0.50400001928E-02 0. -1.
    10030    2    1    2    0    0  0.00000000000E+00  0.00000000000E+00  0.66918196508E+03  0.17452900808E+04  0.16119035219E+04 0.  0.
        3    1    3    3  502    0 -0.40256586806E+03 -0.69102793086E+03  0.44275423399E+03  0.91411717043E+03  0.10100000352E+00 0.  1.
       -3    1    3    3    0  502  0.40256586806E+03  0.69102793086E+03  0.22642773109E+03  0.83117291039E+03  0.10100000352E+00 0. -1.
</event>
<event>
 5   0  0.2697964E-05  0.2788702E+04  0.7818609E-02  0.8306784E-01
       -2   -1    0    0    0  501  0.00000000000E+00  0.00000000000E+00  0.12125199134E+04  0.12125199134E+04  0.25500000920E-02 0.  1.
        2   -1    0    0  501    0  0.00000000000E+00  0.00000000000E+00 -0.16034498492E+04  0.16034498492E+04  0.25500000920E-02 0. -1.
    10030    2    1    2    0    0  0.00000000000E+00  0.00000000000E+00 -0.39092993583E+03  0.28159697626E+04  0.27887021155E+04 0.  0.
        1    1    3    3  502    0 -0.10051316454E+04 -0.73746026773E+03 -0.82613379871E+03  0.14955381387E+04  0.50400001928E-02 0. -1.
       -1    1    3    3    0  502  0.10051316454E+04  0.73746026773E+03  0.43520386289E+03  0.13204316239E+04  0.50400001928E-02 0.  1.
</event>
<event>
 5   0  0.1075146E-05  0.1486891E+04  0.7818609E-02  0.8893218E-01
       -1   -1    0    0    0  501  0.00000000000E+00  0.00000000000E+00  0.44944748568E+03  0.44944748571E+03  0.50400001928E-02 0.  1.
        1   -1    0    0  501    0  0.00000000000E+00  0.00000000000E+00 -0.12297564791E+04  0.12297564791E+04  0.50400001928E-02 0. -1.
    10030    2    1    2    0    0  0.00000000000E+00  0.00000000000E+00 -0.78030899342E+03  0.16792039648E+04  0.14868906585E+04 0.  0.
        2    1    3    3  502    0 -0.50681379758E+02  0.41743371141E+03  0.30224324513E+03  0.51785179821E+03  0.25500000920E-02 0.  1.
       -2    1    3    3    0  502  0.50681379758E+02 -0.41743371141E+03 -0.10825522385E+04  0.11613521666E+04  0.25500000920E-02 0. -1.
</event>
<event>
 5   0  0.1067434E-05  0.2601507E+04  0.7818609E-02  0.8367690E-01
       -1   -1    0    0    0  501  0.00000000000E+00  0.00000000000E+00  0.90510919434E+03  0.90510919436E+03  0.50400001928E-02 0. -1.
        1   -1    0    0  501    0  0.00000000000E+00  0.00000000000E+00 -0.18693426175E+04  0.18693426175E+04  0.50400001928E-02 0.  1.
    10030    2    1    2    0    0  0.00000000000E+00  0.00000000000E+00 -0.96423342317E+03  0.27744518119E+04  0.26015066331E+04 0.  0.
        4    1    3    3  502    0  0.68422126553E+03 -0.17288279609E+03 -0.16474176922E+04  0.17922147938E+04  0.12699999809E+01 0.  1.
       -4    1    3    3    0  502 -0.68422126553E+03  0.17288279609E+03  0.68318426905E+03  0.98223701812E+03  0.12699999809E+01 0. -1.
</event>
<event>
 5   0  0.2624815E-05  0.2223458E+04  0.7818609E-02  0.8508727E-01
       -2   -1    0    0    0  501  0.00000000000E+00  0.00000000000E+00  0.69351243915E+03  0.69351243916E+03  0.25500000920E-02 0.  1.
        2   -1    0    0  501    0  0.00000000000E+00  0.00000000000E+00 -0.17821469058E+04  0.17821469058E+04  0.25500000920E-02 0. -1.
    10030    2    1    2    0    0  0.00000000000E+00  0.00000000000E+00 -0.10886344666E+04  0.24756593449E+04  0.22234577105E+04 0.  0.
        4    1    3    3  502    0 -0.89175857764E+03  0.29352663743E+03 -0.12072960399E+04  0.15293647663E+04  0.12699999809E+01 0. -1.
       -4    1    3    3    0  502  0.89175857764E+03 -0.29352663743E+03  0.11866157323E+03  0.94629457862E+03  0.12699999809E+01 0.  1.
</event>
<event>
 5   0  0.2588048E-05  0.2851766E+04  0.7818609E-02  0.8287375E-01
        2   -1    0    0  501    0  0.00000000000E+00  0.00000000000E+00  0.20269540335E+04  0.20269540335E+04  0.25500000920E-02 0. -1.
       -2   -1    0    0    0  501  0.00000000000E+00  0.00000000000E+00 -0.10030529024E+04  0.10030529024E+04  0.25500000920E-02 0.  1.
    10030    2    1    2    0    0  0.00000000000E+00  0.00000000000E+00  0.10239011311E+04  0.30300069359E+04  0.28517658573E+04 0.  0.
        2    1    3    3  502    0  0.12359990656E+04  0.56901756397E+03  0.96481510471E+03  0.16680356305E+04  0.25500000920E-02 0. -1.
       -2    1    3    3    0  502 -0.12359990656E+04 -0.56901756397E+03  0.59086026426E+02  0.13619713054E+04  0.25500000920E-02 0.  1.
</event>
<event>
 5   0  0.1017456E-05  0.2075318E+04  0.7818609E-02  0.8572195E-01
        1   -1    0    0  501    0  0.00000000000E+00  0.00000000000E+00  0.85896897420E+03  0.85896897422E+03  0.50400001928E-02 0.  1.
       -1   -1    0    0    0  501  0.00000000000E+00  0.00000000000E+00 -0.12535212289E+04  0.12535212289E+04  0.50400001928E-02 0. -1.
    10030    2    1    2    0    0  0.00000000000E+00  0.00000000000E+00 -0.39455225467E+03  0.21124902031E+04  0.20753176568E+04 0.  0.
        5    1    3    3  502    0 -0.61287842215E+03 -0.82442249932E+03 -0.34625799125E+03  0.10840706177E+04  0.46999998093E+01 0. -1.
       -5    1    3    3    0  502  0.61287842215E+03  0.82442249932E+03 -0.48294263419E+02  0.10284195854E+04  0.46999998093E+01 0.  1.
</event>
<event>
 5   0  0.2518686E-05  0.2468215E+04  0.7818609E-02  0.8414397E-01
        2   -1    0    0  501    0  0.00000000000E+00  0.00000000000E+00  0.21486302625E+04  0.21486302625E+04  0.25500000920E-02 0. -1.
       -2   -1    0    0    0  501  0.00000000000E+00  0.00000000000E+00 -0.70883362041E+03  0.70883362041E+03  0.25500000920E-02 0.  1.
    10030    2    1    2    0    0  0.00000000000E+00  0.00000000000E+00  0.14397966421E+04  0.28574638829E+04  0.24682150375E+04 0.  0.
        5    1    3    3  502    0 -0.49911085733E+03  0.27611334008E+03 -0.54706062864E+03  0.79034653531E+03  0.46999998093E+01 0.  1.
       -5    1    3    3    0  502  0.49911085733E+03 -0.27611334008E+03  0.19868572707E+04  0.20671173476E+04  0.46999998093E+01 0. -1.
</event>
<event>
 5   0  0.2588048E-05  0.1472759E+04  0.7818609E-02  0.8902773E-01
        2   -1    0    0  501    0  0.00000000000E+00  0.00000000000E+00  0.78956815999E+03  0.78956815999E+03  0.25500000920E-02 0. -1.
       -2   -1    0    0    0  501  0.00000000000E+00  0.00000000000E+00 -0.68677383626E+03  0.68677383627E+03  0.25500000920E-02 0.  1.
    10030    2    1    2    0    0  0.00000000000E+00  0.00000000000E+00  0.10279432373E+03  0.14763419963E+04  0.14727589813E+04 0.  0.
        2    1    3    3  502    0  0.12586884356E+03 -0.14710096580E+03  0.76359949654E+03  0.78776002123E+03  0.25500000920E-02 0. -1.
       -2    1    3    3    0  502 -0.12586884356E+03  0.14710096580E+03 -0.66080517281E+03  0.68858197503E+03  0.25500000920E-02 0.  1.
</event>
<event>
 5   0  0.2518686E-05  0.2784623E+04  0.7818609E-02  0.8308058E-01
        2   -1    0    0  501    0  0.00000000000E+00  0.00000000000E+00  0.19878630125E+04  0.19878630125E+04  0.25500000920E-02 0.  1.
       -2   -1    0    0    0  501  0.00000000000E+00  0.00000000000E+00 -0.97518335284E+03  0.97518335284E+03  0.25500000920E-02 0. -1.
    10030    2    1    2    0    0  0.00000000000E+00  0.00000000000E+00  0.10126796597E+04  0.29630463653E+04  0.27846227159E+04 0.  0.
        5    1    3    3  502    0  0.22696781034E+03 -0.93276548225E+03  0.15793908960E+04  0.18482595933E+04  0.46999998093E+01 0.  1.
       -5    1    3    3    0  502 -0.22696781034E+03  0.93276548225E+03 -0.56671123632E+03  0.11147867721E+04  0.46999998093E+01 0. -1.
</event>
<event>
 5   0  0.1105862E-05  0.2787751E+04  0.7818609E-02  0.8307081E-01
       -1   -1    0    0    0  501  0.00000000000E+00  0.00000000000E+00  0.11686109397E+04  0.11686109397E+04  0.50400001928E-02 0.  1.
        1   -1    0    0  501    0  0.00000000000E+00  0.00000000000E+00 -0.16625630454E+04  0.16625630454E+04  0.50400001928E-02 0. -1.
    10030    2    1    2    0    0  0.00000000000E+00  0.00000000000E+00 -0.49395210567E+03  0.28311739851E+04  0.27877513252E+04 0.  0.
        3    1    3    3  502    0  0.12857810430E+03  0.36277140082E+03  0.11135754461E+04  0.11782129275E+04  0.10100000352E+00 0.  1.
       -3    1    3    3    0  502 -0.12857810430E+03 -0.36277140082E+03 -0.16075275518E+04  0.16529610576E+04  0.10100000352E+00 0. -1.
</event>
<event>
 5   0  0.2697964E-05  0.2856794E+04  0.7818609E-02  0.8285850E-01
       -2   -1    0    0    0  501  0.00000000000E+00  0.00000000000E+00  0.90124687842E+03  0.90124687843E+03  0.25500000920E-02 0. -1.
        2   -1    0    0  501    0  0.00000000000E+00  0.00000000000E+00 -0.22638841271E+04  0.22638841271E+04  0.25500000920E-02 0.  1.
    10030    2    1    2    0    0  0.00000000000E+00  0.00000000000E+00 -0.13626372486E+04  0.31651310055E+04  0.28567943592E+04 0.  0.
        1    1    3    3  502    0  0.45911978878E+03  0.73819298157E+02 -0.21776729419E+04  0.22267688949E+04  0.50400001928E-02 0.  1.
       -1    1    3    3    0  502 -0.45911978878E+03 -0.73819298157E+02  0.81503569329E+03  0.93836211059E+03  0.50400001928E-02 0. -1.
</event>
<event>
 5   0  0.1105862E-05  0.2795410E+04  0.7818609E-02  0.8304695E-01
       -1   -1    0    0    0  501  0.00000000000E+00  0.00000000000E+00  0.15859604446E+04  0.15859604446E+04  0.50400001928E-02 0.  1.
        1   -1    0    0  501    0  0.00000000000E+00  0.00000000000E+00 -0.12317954786E+04  0.12317954786E+04  0.50400001928E-02 0. -1.
    10030    2    1    2    0    0  0.00000000000E+00  0.00000000000E+00  0.35416496602E+03  0.28177559232E+04  0.27954097409E+04 0.  0.
        3    1    3    3  502    0  0.50513928507E+03  0.68732573403E+03 -0.93901600083E+03  0.12685950583E+04  0.10100000352E+00 0. -1.
       -3    1    3    3    0  502 -0.50513928507E+03 -0.68732573403E+03  0.12931809668E+04  0.15491608649E+04  0.10100000352E+00 0.  1.
</event>
<event>
 5   0  0.2588048E-05  0.2905018E+04  0.7818609E-02  0.8271386E-01
        2   -1    0    0  501    0  0.00000000000E+00  0.00000000000E+00  0.68265295927E+03  0.68265295928E+03  0.25500000920E-02 0. -1.
       -2   -1    0    0    0  501  0.00000000000E+00  0.00000000000E+00 -0.30905629405E+04  0.30905629405E+04  0.25500000920E-02 0.  1.
    10030    2    1    2    0    0  0.00000000000E+00  0.00000000000E+00 -0.24079099812E+04  0.37732158998E+04  0.29050176847E+04 0.  0.
        2    1    3    3  502    0 -0.55018226943E+03 -0.49022213679E+03 -0.28297456375E+04  0.29241201490E+04  0.25500000920E-02 0.  1.
       -2    1    3    3    0  502  0.55018226943E+03  0.49022213679E+03  0.42183565629E+03  0.84909575073E+03  0.25500000920E-02 0. -1.
</event>
<event>
 5   0  0.2651061E-05  0.2828446E+04  0.7818609E-02  0.8294491E-01
       -2   -1    0    0    0  501  0.00000000000E+00  0.00000000000E+00  0.10067500856E+04  0.10067500856E+04  0.25500000920E-02 0. -1.
        2   -1    0    0  501    0  0.00000000000E+00  0.00000000000E+00 -0.19866162511E+04  0.19866162511E+04  0.25500000920E-02 0.  1.
    10030    2    1    2    0    0  0.00000000000E+00  0.00000000000E+00 -0.97986616551E+03  0.29933663368E+04  0.28284455667E+04 0.  0.
        3    1    3    3  502    0 -0.12587881714E+04 -0.14151174996E+03  0.17558428216E+03  0.12788287947E+04  0.10100000352E+00 0. -1.
       -3    1    3    3    0  502  0.12587881714E+04  0.14151174996E+03 -0.11554504477E+04  0.17145375421E+04  0.10100000352E+00 0.  1.
</event>
<event>
 5   0  0.2697964E-05  0.2743394E+04  0.7818609E-02  0.8321061E-01
        2   -1    0    0  501    0  0.00000000000E+00  0.00000000000E+00  0.11244706525E+04  0.11244706525E+04  0.25500000920E-02 0. -1.
       -2   -1    0    0    0  501  0.00000000000E+00  0.00000000000E+00 -0.16732789765E+04  0.16732789765E+04  0.25500000920E-02 0.  1.
    10030    2    1    2    0    0  0.00000000000E+00  0.00000000000E+00 -0.54880832393E+03  0.27977496290E+04  0.27433943228E+04 0.  0.
        1    1    3    3  502    0  0.58480572285E+03 -0.12192861426E+04 -0.39854514996E+02  0.13528654085E+04  0.50400001928E-02 0.  1.
       -1    1    3    3    0  502 -0.58480572285E+03  0.12192861426E+04 -0.50895380893E+03  0.14448842205E+04  0.50400001928E-02 0. -1.
</event>
<event>
 5   0  0.2518686E-05  0.2818519E+04  0.7818609E-02  0.8297542E-01
       -2   -1    0    0    0  501  0.00000000000E+00  0.00000000000E+00  0.10038293776E+04  0.10038293776E+04  0.25500000920E-02 0. -1.
        2   -1    0    0  501    0  0.00000000000E+00  0.00000000000E+00 -0.19784364043E+04  0.19784364043E+04  0.25500000920E-02 0.  1.
    10030    2    1    2    0    0  0.00000000000E+00  0.00000000000E+00 -0.97460702671E+03  0.29822657820E+04  0.28185191746E+04 0.  0.
        5    1    3    3  502    0 -0.22138804927E+03 -0.91087981813E+03 -0.16007087322E+04  0.18549946757E+04  0.46999998093E+01 0.  1.
       -5    1    3    3    0  502  0.22138804927E+03  0.91087981813E+03  0.62610170551E+03  0.11272711063E+04  0.46999998093E+01 0. -1.
</event>
<event>
 5   0  0.1067434E-05  0.2905252E+04  0.7818609E-02  0.8271317E-01
        1   -1    0    0  501    0  0.00000000000E+00  0.00000000000E+00  0.17012201286E+04  0.17012201286E+04  0.50400001928E-02 0. -1.
       -1   -1    0    0    0  501  0.00000000000E+00  0.00000000000E+00 -0.12403582174E+04  0.12403582174E+04  0.50400001928E-02 0.  1.
    10030    2    1    2    0    0  0.00000000000E+00  0.00000000000E+00  0.46086191121E+03  0.29415783460E+04  0.29052520484E+04 0.  0.
        4    1    3    3  502    0 -0.88041026416E+03  0.86393383185E+03 -0.54637572248E+03  0.13490855948E+04  0.12699999809E+01 0.  1.
       -4    1    3    3    0  502  0.88041026416E+03 -0.86393383185E+03  0.10072376337E+04  0.15924927512E+04  0.12699999809E+01 0. -1.
</event>
<event>
 5   0  0.1017456E-05  0.2237554E+04  0.7818609E-02  0.8502958E-01
        1   -1    0    0  501    0  0.00000000000E+00  0.00000000000E+00  0.85647392234E+03  0.85647392236E+03  0.50400001928E-02 0. -1.
       -1   -1    0    0    0  501  0.00000000000E+00  0.00000000000E+00 -0.14614133093E+04  0.14614133094E+04  0.50400001928E-02 0.  1.
    10030    2    1    2    0    0  0.00000000000E+00  0.00000000000E+00 -0.60493938700E+03  0.23178872317E+04  0.22375543696E+04 0.  0.
        5    1    3    3  502    0  0.10795846143E+04  0.21981937239E+03 -0.50391683693E+03  0.12115187842E+04  0.46999998093E+01 0.  1.
       -5    1    3    3    0  502 -0.10795846143E+04 -0.21981937239E+03 -0.10102255007E+03  0.11063684475E+04  0.46999998093E+01 0. -1.
</event>
<event>
 5   0  0.2624815E-05  0.2891442E+04  0.7818609E-02  0.8275428E-01
       -2   -1    0    0    0  501  0.00000000000E+00  0.00000000000E+00  0.12140467711E+04  0.12140467711E+04  0.25500000920E-02 0.  1.
        2   -1    0    0  501    0  0.00000000000E+00  0.00000000000E+00 -0.17216048848E+04  0.17216048848E+04  0.25500000920E-02 0. -1.
    10030    2    1    2    0    0  0.00000000000E+00  0.00000000000E+00 -0.50755811369E+03  0.29356516559E+04  0.28914417521E+04 0.  0.
        4    1    3    3  502    0 -0.49708118513E+03  0.10172249599E+04 -0.11665641706E+04  0.16256413813E+04  0.12699999809E+01 0. -1.
       -4    1    3    3    0  502  0.49708118513E+03 -0.10172249599E+04  0.65900605691E+03  0.13100102746E+04  0.12699999809E+01 0.  1.
</event>
<event>
 5   0  0.1067434E-05  0.3269877E+04  0.7818609E-02  0.8170603E-01
       -1   -1    0    0    0  501  0.00000000000E+00  0.00000000000E+00  0.13360420819E+04  0.13360420819E+04  0.50400001928E-02 0.  1.
        1   -1    0    0  501    0  0.00000000000E+00  0.00000000000E+00 -0.20007039349E+04  0.20007039349E+04  0.50400001928E-02 0. -1.
    10030    2    1    2    0    0  0.00000000000E+00  0.00000000000E+00 -0.66466185302E+03  0.33367460168E+04  0.32698774597E+04 0.  0.
        4    1    3    3  502    0  0.14128672213E+04  0.74886469810E+03 -0.67992993935E+03  0.17376128615E+04  0.12699999809E+01 0. -1.
       -4    1    3    3    0  502 -0.14128672213E+04 -0.74886469810E+03  0.15268086330E+02  0.15991331553E+04  0.12699999809E+01 0.  1.
</event>
<event>
 5   0  0.1078103E-05  0.2784937E+04  0.7818609E-02  0.8307960E-01
       -1   -1    0    0    0  501  0.00000000000E+00  0.00000000000E+00  0.13594025558E+04  0.13594025558E+04  0.50400001928E-02 0. -1.
        1   -1    0    0  501    0  0.00000000000E+00  0.00000000000E+00 -0.14263390799E+04  0.14263390799E+04  0.50400001928E-02 0.  1.
    10030    2    1    2    0    0  0.00000000000E+00  0.00000000000E+00 -0.66936524181E+02  0.27857416357E+04  0.27849373355E+04 0.  0.
        1    1    3    3  502    0 -0.43297224089E+03 -0.72301803805E+03  0.10753413622E+04  0.13662280520E+04  0.50400001928E-02 0. -1.
       -1    1    3    3    0  502  0.43297224089E+03  0.72301803805E+03 -0.11422778864E+04  0.14195135837E+04  0.50400001928E-02 0.  1.
</event>
<event>
 5   0  0.2697964E-05  0.2580777E+04  0.7818609E-02  0.8374760E-01
        2   -1    0    0  501    0  0.00000000000E+00  0.00000000000E+00  0.24154538867E+04  0.24154538867E+04  0.25500000920E-02 0.  1.
       -2   -1    0    0    0  501  0.00000000000E+00  0.00000000000E+00 -0.68935412805E+03  0.68935412806E+03  0.25500000920E-02 0. -1.
    10030    2    1    2    0    0  0.00000000000E+00  0.00000000000E+00  0.17260997587E+04  0.31048080148E+04  0.25807774859E+04 0.  0.
        1    1    3    3  502    0  0.45713487044E+03  0.10737859410E+03 -0.58291616080E+03  0.74852769006E+03  0.50400001928E-02 0. -1.
       -1    1    3    3    0  502 -0.45713487044E+03 -0.10737859410E+03  0.23090159195E+04  0.23562803247E+04  0.50400001928E-02 0.  1.
</event>
<event>
 5   0  0.1017456E-05  0.2882093E+04  0.7818609E-02  0.8278225E-01
       -1   -1    0    0    0  501  0.00000000000E+00  0.00000000000E+00  0.76841065638E+03  0.76841065639E+03  0.50400001928E-02 0.  1.
        1   -1    0    0  501    0  0.00000000000E+00  0.00000000000E+00 -0.27024798714E+04  0.27024798714E+04  0.50400001928E-02 0. -1.
    10030    2    1    2    0    0  0.00000000000E+00  0.00000000000E+00 -0.19340692150E+04  0.34708905278E+04  0.28820925258E+04 0.  0.
        5    1    3    3  502    0  0.30442882720E+03  0.60996812373E+02  0.72764243472E+03  0.79112775502E+03  0.46999998093E+01 0.  1.
       -5    1    3    3    0  502 -0.30442882720E+03 -0.60996812373E+02 -0.26617116497E+04  0.26797627728E+04  0.46999998093E+01 0. -1.
</event>
<event>
 5   0  0.2624815E-05  0.2787283E+04  0.7818609E-02  0.8307227E-01
       -2   -1    0    0    0  501  0.00000000000E+00  0.00000000000E+00  0.94671878441E+03  0.94671878441E+03  0.25500000920E-02 0.  1.
        2   -1    0    0  501    0  0.00000000000E+00  0.00000000000E+00 -0.20515456830E+04  0.20515456830E+04  0.25500000920E-02 0. -1.
    10030    2    1    2    0    0  0.00000000000E+00  0.00000000000E+00 -0.11048268986E+04  0.29982644674E+04  0.27872831469E+04 0.  0.
        4    1    3    3  502    0 -0.85751361239E+03 -0.10172882914E+04 -0.10625292217E+03  0.13347270731E+04  0.12699999809E+01 0.  1.
       -4    1    3    3    0  502  0.85751361239E+03  0.10172882914E+04 -0.99857397644E+03  0.16635373944E+04  0.12699999809E+01 0. -1.
</event>
<event>
 5   0  0.2697964E-05  0.2854647E+04  0.7818609E-02  0.8286501E-01
       -2   -1    0    0    0  501  0.00000000000E+00  0.00000000000E+00  0.13805678650E+04  0.13805678650E+04  0.25500000920E-02 0. -1.
        2   -1    0    0  501    0  0.00000000000E+00  0.00000000000E+00 -0.14756621575E+04  0.14756621575E+04  0.25500000920E-02 0.  1.
    10030    2    1    2    0    0  0.00000000000E+00  0.00000000000E+00 -0.95094292509E+02  0.28562300225E+04  0.28546465661E+04 0.  0.
        1    1    3    3  502    0 -0.13207529839E+04  0.52903130412E+03 -0.16158048774E+03  0.14319115962E+04  0.50400001928E-02 0.  1.
       -1    1    3    3    0  502  0.13207529839E+04 -0.52903130412E+03  0.66486195228E+02  0.14243184263E+04  0.50400001928E-02 0. -1.
</event>
<event>
 5   0  0.2651061E-05  0.2950345E+04  0.7818609E-02  0.8258054E-01
        2   -1    0    0  501    0  0.00000000000E+00  0.00000000000E+00  0.11850344097E+04  0.11850344097E+04  0.25500000920E-02 0.  1.
       -2   -1    0    0    0  501  0.00000000000E+00  0.00000000000E+00 -0.18363464212E+04  0.18363464212E+04  0.25500000920E-02 0. -1.
    10030    2    1    2    0    0  0.00000000000E+00  0.00000000000E+00 -0.65131201149E+03  0.30213808309E+04  0.29503448593E+04 0.  0.
        3    1    3    3  502    0 -0.79238085451E+03  0.25565096592E+02  0.94832756832E+03  0.12360607509E+04  0.10100000352E+00 0.  1.
       -3    1    3    3    0  502  0.79238085451E+03 -0.25565096592E+02 -0.15996395798E+04  0.17853200801E+04  0.10100000352E+00 0. -1.
</event>
<event>
 5   0  0.2588048E-05  0.2729602E+04  0.7818609E-02  0.8325464E-01
        2   -1    0    0  501    0  0.00000000000E+00  0.00000000000E+00  0.24192130984E+04  0.24192130984E+04  0.25500000920E-02 0.  1.
       -2   -1    0    0    0  501  0.00000000000E+00  0.00000000000E+00 -0.76995345643E+03  0.76995345643E+03  0.25500000920E-02 0. -1.
    10030    2    1    2    0    0  0.00000000000E+00  0.00000000000E+00  0.16492596420E+04  0.31891665549E+04  0.27296017929E+04 0.  0.
        2    1    3    3  502    0 -0.35068431279E+02  0.12148270583E+04  0.15501889895E+04  0.19698021422E+04  0.25500000920E-02 0.  1.
       -2    1    3    3    0  502  0.35068431279E+02 -0.12148270583E+04  0.99070652529E+02  0.12193644126E+04  0.25500000920E-02 0. -1.
</event>
<event>
 5   0  0.2697964E-05  0.2718382E+04  0.7818609E-02  0.8329065E-01
       -2   -1    0    0    0  501  0.00000000000E+00  0.00000000000E+00  0.11974607200E+04  0.11974607200E+04  0.25500000920E-02 0. -1.
        2   -1    0    0  501    0  0.00000000000E+00  0.00000000000E+00 -0.15427647851E+04  0.15427647851E+04  0.25500000920E-02 0.  1.
    10030    2    1    2    0    0  0.00000000000E+00  0.00000000000E+00 -0.34530406515E+03  0.27402255051E+04  0.27183820411E+04 0.  0.
        1    1    3    3  502    0 -0.91812773161E+03 -0.98189393208E+03  0.29774954600E+02  0.13446043185E+04  0.50400001928E-02 0. -1.
       -1    1    3    3    0  502  0.91812773161E+03  0.98189393208E+03 -0.37507901975E+03  0.13956211866E+04  0.50400001928E-02 0.  1.
</event>
<event>
 5   0  0.2518686E-05  0.2831231E+04  0.7818609E-02  0.8293638E-01
       -2   -1    0    0    0  501  0.00000000000E+00  0.00000000000E+00  0.17430237504E+04  0.17430237504E+04  0.25500000920E-02 0.  1.
        2   -1    0    0  501    0  0.00000000000E+00  0.00000000000E+00 -0.11497072628E+04  0.11497072628E+04  0.25500000920E-02 0. -1.
    10030    2    1    2    0    0  0.00000000000E+00  0.00000000000E+00  0.59331648761E+03  0.28927310132E+04  0.28312308737E+04 0.  0.
        5    1    3    3  502    0  0.53206201264E+03  0.65557236119E+03  0.14575970301E+04  0.16844810175E+04  0.46999998093E+01 0.  1.
       -5    1    3    3    0  502 -0.53206201264E+03 -0.65557236119E+03 -0.86428054248E+03  0.12082499957E+04  0.46999998093E+01 0. -1.
</event>
<event>
 5   0  0.2588048E-05  0.2666410E+04  0.7818609E-02  0.8345987E-01
       -2   -1    0    0    0  501  0.00000000000E+00  0.00000000000E+00  0.55809956361E+03  0.55809956362E+03  0.25500000920E-02 0. -1.
        2   -1    0    0  501    0  0.00000000000E+00  0.00000000000E+00 -0.31847991329E+04  0.31847991329E+04  0.25500000920E-02 0.  1.
    10030    2    1    2    0    0  0.00000000000E+00  0.00000000000E+00 -0.26266995693E+04  0.37428986965E+04  0.26664095756E+04 0.  0.
        2    1    3    3  502    0  0.84205062211E+03  0.48276752006E+03 -0.25962946253E+04  0.27717971625E+04  0.25500000920E-02 0.  1.
       -2    1    3    3    0  502 -0.84205062211E+03 -0.48276752006E+03 -0.30404943909E+02  0.97110153395E+03  0.25500000920E-02 0. -1.
</event>
<event>
 5   0  0.1105862E-05  0.2929939E+04  0.7818609E-02  0.8264025E-01
       -1   -1    0    0    0  501  0.00000000000E+00  0.00000000000E+00  0.13881799949E+04  0.13881799949E+04  0.50400001928E-02 0.  1.
        1   -1    0    0  501    0  0.00000000000E+00  0.00000000000E+00 -0.15460068830E+04  0.15460068830E+04  0.50400001928E-02 0. -1.
    10030    2    1    2    0    0  0.00000000000E+00  0.00000000000E+00 -0.15782688804E+03  0.29341868779E+04  0.29299391304E+04 0.  0.
        3    1    3    3  502    0  0.20173405573E+03 -0.12060043496E+03 -0.15270024482E+04  0.15449846540E+04  0.10100000352E+00 0. -1.
       -3    1    3    3    0  502 -0.20173405573E+03  0.12060043496E+03  0.13691755601E+04  0.13892022239E+04  0.10100000352E+00 0.  1.
</event>
<event>
 5   0  0.1078103E-05  0.2802213E+04  0.7818609E-02  0.8302582E-01
        1   -1    0    0  501    0  0.00000000000E+00  0.00000000000E+00  0.27691996990E+04  0.27691996990E+04  0.50400001928E-02 0. -1.
       -1   -1    0    0    0  501  0.00000000000E+00  0.00000000000E+00 -0.70890518779E+03  0.70890518781E+03  0.50400001928E-02 0.  1.
    10030    2    1    2    0    0  0.00000000000E+00  0.00000000000E+00  0.20602945112E+04  0.34781048868E+04  0.28022134342E+04 0.  0.
        1    1    3    3  502    0 -0.13961713907E+04  0.81320497887E+02  0.11354113126E+04  0.18014067903E+04  0.50400001928E-02 0. -1.
       -1    1    3    3    0  502  0.13961713907E+04 -0.81320497887E+02  0.92488319864E+03  0.16766980965E+04  0.50400001928E-02 0.  1.
</event>
<event>
 5   0  0.2588048E-05  0.2759718E+04  0.7818609E-02  0.8315884E-01
       -2   -1    0    0    0  501  0.00000000000E+00  0.00000000000E+00  0.10444562423E+04  0.10444562423E+04  0.25500000920E-02 0.  1.
        2   -1    0    0  501    0  0.00000000000E+00  0.00000000000E+00 -0.18229691857E+04  0.18229691857E+04  0.25500000920E-02 0. -1.
    10030    2    1    2    0    0  0.00000000000E+00  0.00000000000E+00 -0.77851294340E+03  0.28674254279E+04  0.27597184968E+04 0.  0.
        2    1    3    3  502    0 -0.12115379760E+03  0.73868165880E+03 -0.15936702417E+04  0.17607139674E+04  0.25500000920E-02 0. -1.
       -2    1    3    3    0  502  0.12115379760E+03 -0.73868165880E+03  0.81515729833E+03  0.11067114605E+04  0.25500000920E-02 0.  1.
</event>
<event>
 5   0  0.2518686E-05  0.2817297E+04  0.7818609E-02  0.8297919E-01
       -2   -1    0    0    0  501  0.00000000000E+00  0.00000000000E+00  0.99203905924E+03  0.99203905924E+03  0.25500000920E-02 0.  1.
        2   -1    0    0  501    0  0.00000000000E+00  0.00000000000E+00 -0.20002135995E+04  0.20002135995E+04  0.25500000920E-02 0. -1.
    10030    2    1    2    0    0  0.00000000000E+00  0.00000000000E+00 -0.10081745402E+04  0.29922526587E+04  0.28172965889E+04 0.  0.
        5    1    3    3  502    0  0.23823560786E+03 -0.74321411832E+03 -0.17495761653E+04  0.19157667600E+04  0.46999998093E+01 0. -1.
       -5    1    3    3    0  502 -0.23823560786E+03  0.74321411832E+03  0.74140162506E+03  0.10764858987E+04  0.46999998093E+01 0.  1.
</event>
<event>
 5   0  0.2518686E-05  0.2516794E+04  0.7818609E-02  0.8397027E-01
        2   -1    0    0  501    0  0.00000000000E+00  0.00000000000E+00  0.20842237959E+04  0.20842237959E+04  0.25500000920E-02 0.  1.
       -2   -1    0    0    0  501  0.00000000000E+00  0.00000000000E+00 -0.75978543593E+03  0.75978543594E+03  0.25500000920E-02 0. -1.
    10030    2    1    2    0    0  0.00000000000E+00  0.00000000000E+00  0.13244383599E+04  0.28440092318E+04  0.25167939012E+04 0.  0.
        5    1    3    3  502    0  0.23576252407E+03  0.11005848059E+04  0.26322218122E+02  0.11258711435E+04  0.46999998093E+01 0. -1.
       -5    1    3    3    0  502 -0.23576252407E+03 -0.11005848059E+04  0.12981161418E+04  0.17181380883E+04  0.46999998093E+01 0.  1.
</event>
<event>
 5   0  0.1067434E-05  0.2260035E+04  0.7818609E-02  0.8493848E-01
       -1   -1    0    0    0  501  0.00000000000E+00  0.00000000000E+00  0.94358684032E+03  0.94358684033E+03  0.50400001928E-02 0.  1.
        1   -1    0    0  501    0  0.00000000000E+00  0.00000000000E+00 -0.13532819825E+04  0.13532819825E+04  0.50400001928E-02 0. -1.
    10030    2    1    2    0    0  0.00000000000E+00  0.00000000000E+00 -0.40969514217E+03  0.22968688228E+04  0.22600345749E+04 0.  0.
        4    1    3    3  502    0  0.12905031569E+03 -0.73876464939E+03  0.65421608518E+03  0.99520223582E+03  0.12699999809E+01 0.  1.
       -4    1    3    3    0  502 -0.12905031569E+03  0.73876464939E+03 -0.10639112274E+04  0.13016665870E+04  0.12699999809E+01 0. -1.
</event>
<event>
 5   0  0.1017456E-05  0.2805760E+04  0.7818609E-02  0.8301482E-01
        1   -1    0    0  501    0  0.00000000000E+00  0.00000000000E+00  0.13915353680E+04  0.13915353680E+04  0.50400001928E-02 0.  1.
       -1   -1    0    0    0  501  0.00000000000E+00  0.00000000000E+00 -0.14143169746E+04  0.14143169746E+04  0.50400001928E-02 0. -1.
    10030    2    1    2    0    0  0.00000000000E+00  0.00000000000E+00 -0.22781606584E+02  0.28058523426E+04  0.28057598556E+04 0.  0.
        5    1    3    3  502    0  0.49246541348E+03  0.68652250013E+03  0.11085633755E+04  0.13938329075E+04  0.46999998093E+01 0.  1.
       -5    1    3    3    0  502 -0.49246541348E+03 -0.68652250013E+03 -0.11313449821E+04  0.14120194351E+04  0.46999998093E+01 0. -1.
</event>
<event>
 5   0  0.2697964E-05  0.1847021E+04  0.7818609E-02  0.8681686E-01
        2   -1    0    0  501    0  0.00000000000E+00  0.00000000000E+00  0.12779592226E+04  0.12779592226E+04  0.25500000920E-02 0.  1.
       -2   -1    0    0    0  501  0.00000000000E+00  0.00000000000E+00 -0.66737016026E+03  0.66737016026E+03  0.25500000920E-02 0. -1.
    10030    2    1    2    0    0  0.00000000000E+00  0.00000000000E+00  0.61058906233E+03  0.19453293829E+04  0.18470212248E+04 0.  0.
        1    1    3    3  502    0 -0.82117228057E+03  0.37820511859E+03  0.10682702548E+03  0.91037082527E+03  0.50400001928E-02 0. -1.
       -1    1    3    3    0  502  0.82117228057E+03 -0.37820511859E+03  0.50376203686E+03  0.10349585576E+04  0.50400001928E-02 0.  1.
</event>
<event>
 5   0  0.2624815E-05  0.2783714E+04  0.7818609E-02  0.8308343E-01
       -2   -1    0    0    0  501  0.00000000000E+00  0.00000000000E+00  0.11219459501E+04  0.11219459501E+04  0.25500000920E-02 0.  1.
        2   -1    0    0  501    0  0.00000000000E+00  0.00000000000E+00 -0.17267011008E+04  0.17267011008E+04  0.25500000920E-02 0. -1.
    10030    2    1    2    0    0  0.00000000000E+00  0.00000000000E+00 -0.60475515076E+03  0.28486470509E+04  0.27837135679E+04 0.  0.
        4    1    3    3  502    0  0.48588137529E+03 -0.12853801175E+04 -0.52885642026E+03  0.14724039810E+04  0.12699999809E+01 0.  1.
       -4    1    3    3    0  502 -0.48588137529E+03  0.12853801175E+04 -0.75898730505E+02  0.13762430699E+04  0.12699999809E+01 0. -1.
</event>
<event>
 5   0  0.2588048E-05  0.2885964E+04  0.7818609E-02  0.8277066E-01
       -2   -1    0    0    0  501  0.00000000000E+00  0.00000000000E+00  0.11869732463E+04  0.11869732463E+04  0.25500000920E-02 0.  1.
        2   -1    0    0  501    0  0.00000000000E+00  0.00000000000E+00 -0.17542075066E+04  0.17542075066E+04  0.25500000920E-02 0. -1.
    10030    2    1    2    0    0  0.00000000000E+00  0.00000000000E+00 -0.56723426030E+03  0.29411807530E+04  0.28859642263E+04 0.  0.
        2    1    3    3  502    0 -0.98488522249E+03 -0.49758966474E+03  0.66401361300E+03  0.12878309106E+04  0.25500000920E-02 0.  1.
       -2    1    3    3    0  502  0.98488522249E+03  0.49758966474E+03 -0.12312478733E+04  0.16533498424E+04  0.25500000920E-02 0. -1.
</event>
<event>
 5   0  0.2588048E-05  0.1600698E+04  0.7818609E-02  0.8820120E-01
        2   -1    0    0  501    0  0.00000000000E+00  0.00000000000E+00  0.10685774682E+04  0.10685774682E+04  0.25500000920E-02 0. -1.
       -2   -1    0    0    0  501  0.00000000000E+00  0.00000000000E+00 -0.59944946418E+03  0.59944946418E+03  0.25500000920E-02 0.  1.
    10030    2    1    2    0    0  0.00000000000E+00  0.00000000000E+00  0.46912800398E+03  0.16680269323E+04  0.16006975863E+04 0.  0.
        2    1    3    3  502    0  0.78147097827E+03  0.23288736644E+02  0.56134004987E+02  0.78383051845E+03  0.25500000920E-02 0. -1.
       -2    1    3    3    0  502 -0.78147097827E+03 -0.23288736644E+02  0.41299399900E+03  0.88419641390E+03  0.25500000920E-02 0.  1.
</event>
<event>
 5   0  0.8958000E-06  0.2433274E+04  0.7818609E-02  0.8427150E-01
        4   -1    0    0  501    0  0.00000000000E+00  0.00000000000E+00  0.12551434243E+04  0.12551440668E+04  0.12699999809E+01 0. -1.
       -4   -1    0    0    0  501  0.00000000000E+00  0.00000000000E+00 -0.11793109947E+04  0.11793116785E+04  0.12699999809E+01 0.  1.
    10030    2    1    2    0    0  0.00000000000E+00  0.00000000000E+00  0.75832429640E+02  0.24344557453E+04  0.24332743821E+04 0.  0.
        5    1    3    3  502    0 -0.39958761387E+03  0.36607008093E+03  0.11277138038E+04  0.12511746795E+04  0.46999998093E+01 0. -1.
       -5    1    3    3    0  502  0.39958761387E+03 -0.36607008093E+03 -0.10518813742E+04  0.11832810658E+04  0.46999998093E+01 0.  1.
</event>
<event>
 5   0  0.1105862E-05  0.2772521E+04  0.7818609E-02  0.8311851E-01
        1   -1    0    0  501    0  0.00000000000E+00  0.00000000000E+00  0.95583177967E+03  0.95583177968E+03  0.50400001928E-02 0.  1.
       -1   -1    0    0    0  501  0.00000000000E+00  0.00000000000E+00 -0.20105189710E+04  0.20105189710E+04  0.50400001928E-02 0. -1.
    10030    2    1    2    0    0  0.00000000000E+00  0.00000000000E+00 -0.10546871913E+04  0.29663507507E+04  0.27725208213E+04 0.  0.
        3    1    3    3  502    0  0.73318221619E+02  0.65424440098E+03 -0.18325941677E+04  0.19472577363E+04  0.10100000352E+00 0. -1.
       -3    1    3    3    0  502 -0.73318221619E+02 -0.65424440098E+03  0.77790697640E+03  0.10190930144E+04  0.10100000352E+00 0.  1.
</event>
<event>
 5   0  0.2518686E-05  0.2655920E+04  0.7818609E-02  0.8349451E-01
        2   -1    0    0  501    0  0.00000000000E+00  0.00000000000E+00  0.11886210887E+04  0.11886210887E+04  0.25500000920E-02 0. -1.
       -2   -1    0    0    0  501  0.00000000000E+00  0.00000000000E+00 -0.14836328521E+04  0.14836328521E+04  0.25500000920E-02 0.  1.
    10030    2    1    2    0    0  0.00000000000E+00  0.00000000000E+00 -0.29501176339E+03  0.26722539408E+04  0.26559196493E+04 0.  0.
        5    1    3    3  502    0  0.43610721572E+03  0.51942635925E+03  0.10012082789E+04  0.12093111072E+04  0.46999998093E+01 0. -1.
       -5    1    3    3    0  502 -0.43610721572E+03 -0.51942635925E+03 -0.12962200423E+04  0.14629428336E+04  0.46999998093E+01 0.  1.
</event>
<event>
 5   0  0.2697964E-05  0.2780911E+04  0.7818609E-02  0.8309219E-01
        2   -1    0    0  501    0  0.00000000000E+00  0.00000000000E+00  0.13988321143E+04  0.13988321143E+04  0.25500000920E-02 0.  1.
       -2   -1    0    0    0  501  0.00000000000E+00  0.00000000000E+00 -0.13821293017E+04  0.13821293017E+04  0.25500000920E-02 0. -1.
    10030    2    1    2    0    0  0.00000000000E+00  0.00000000000E+00  0.16702812623E+02  0.27809614159E+04  0.27809112559E+04 0.  0.
        1    1    3    3  502    0  0.48534205559E+03 -0.98511053788E+03 -0.84452221278E+03  0.13853582391E+04  0.50400001928E-02 0. -1.
       -1    1    3    3    0  502 -0.48534205559E+03  0.98511053788E+03  0.86122502540E+03  0.13956031768E+04  0.50400001928E-02 0.  1.
</event>
<event>
 5   0  0.1067434E-05  0.2782717E+04  0.7818609E-02  0.8308654E-01
       -1   -1    0    0    0  501  0.00000000000E+00  0.00000000000E+00  0.10403321295E+04  0.10403321295E+04  0.50400001928E-02 0. -1.
        1   -1    0    0  501    0  0.00000000000E+00  0.00000000000E+00 -0.18608276815E+04  0.18608276815E+04  0.50400001928E-02 0.  1.
    10030    2    1    2    0    0  0.00000000000E+00  0.00000000000E+00 -0.82049555197E+03  0.29011598110E+04  0.27827172509E+04 0.  0.
        4    1    3    3  502    0 -0.58928423603E+03  0.12822648182E+03 -0.17174825893E+04  0.18202873396E+04  0.12699999809E+01 0.  1.
       -4    1    3    3    0  502  0.58928423603E+03 -0.12822648182E+03  0.89698703730E+03  0.10808724714E+04  0.12699999809E+01 0. -1.
</event>
<event>
 5   0  0.1105862E-05  0.2812091E+04  0.7818609E-02  0.8299524E-01
        1   -1    0    0  501    0  0.00000000000E+00  0.00000000000E+00  0.11567054304E+04  0.11567054304E+04  0.50400001928E-02 0.  1.
       -1   -1    0    0    0  501  0.00000000000E+00  0.00000000000E+00 -0.17091333288E+04  0.17091333288E+04  0.50400001928E-02 0. -1.
    10030    2    1    2    0    0  0.00000000000E+00  0.00000000000E+00 -0.55242789844E+03  0.28658387592E+04  0.28120908966E+04 0.  0.
        3    1    3    3  502    0  0.42678072546E+03  0.13061299448E+04  0.27554550445E+02  0.13743640288E+04  0.10100000352E+00 0.  1.
       -3    1    3    3    0  502 -0.42678072546E+03 -0.13061299448E+04 -0.57998244888E+03  0.14914747304E+04  0.10100000352E+00 0. -1.
</event>
<event>
 5   0  0.2535092E-05  0.1439697E+04  0.7818609E-02  0.8925575E-01
       -2   -1    0    0    0  501  0.00000000000E+00  0.00000000000E+00  0.49323835714E+03  0.49323835714E+03  0.25500000920E-02 0.  1.
        2   -1    0    0  501    0  0.00000000000E+00  0.00000000000E+00 -0.10505703904E+04  0.10505703904E+04  0.25500000920E-02 0. -1.
    10030    2    1    2    0    0  0.00000000000E+00  0.00000000000E+00 -0.55733203325E+03  0.15438087475E+04  0.14396966534E+04 0.  0.
        5    1    3    3  502    0  0.69511406735E+03 -0.15136181253E+03 -0.39645270656E+03  0.81442667162E+03  0.46999998093E+01 0. -1.
       -5    1    3    3    0  502 -0.69511406735E+03  0.15136181253E+03 -0.16087932669E+03  0.72938207592E+03  0.46999998093E+01 0.  1.
</event>
<event>
 5   0  0.2518686E-05  0.2122157E+04  0.7818609E-02  0.8551546E-01
        2   -1    0    0  501    0  0.00000000000E+00  0.00000000000E+00  0.23041140428E+04  0.23041140428E+04  0.25500000920E-02 0.  1.
       -2   -1    0    0    0  501  0.00000000000E+00  0.00000000000E+00 -0.48864209276E+03  0.48864209277E+03  0.25500000920E-02 0. -1.
    10030    2    1    2    0    0  0.00000000000E+00  0.00000000000E+00  0.18154719500E+04  0.27927561356E+04  0.21221565521E+04 0.  0.
        5    1    3    3  502    0 -0.21100031944E+03 -0.81956699595E+03  0.17500307401E+04  0.19439240924E+04  0.46999998093E+01 0. -1.
       -5    1    3    3    0  502  0.21100031944E+03  0.81956699595E+03  0.65441209983E+02  0.84883204323E+03  0.46999998093E+01 0.  1.
</event>
<event>
 5   0  0.2588048E-05  0.2649372E+04  0.7818609E-02  0.8351622E-01
        2   -1    0    0  501    0  0.00000000000E+00  0.00000000000E+00  0.20975597753E+04  0.20975597753E+04  0.25500000920E-02 0. -1.
       -2   -1    0    0    0  501  0.00000000000E+00  0.00000000000E+00 -0.83658764751E+03  0.83658764751E+03  0.25500000920E-02 0.  1.
    10030    2    1    2    0    0  0.00000000000E+00  0.00000000000E+00  0.12609721277E+04  0.29341474228E+04  0.26493716975E+04 0.  0.
        2    1    3    3  502    0 -0.10278305702E+04 -0.69440647691E+03  0.11558563934E+03  0.12457913454E+04  0.25500000920E-02 0.  1.
       -2    1    3    3    0  502  0.10278305702E+04  0.69440647691E+03  0.11453864884E+04  0.16883560774E+04  0.25500000920E-02 0. -1.
</event>
<event>
 5   0  0.2624815E-05  0.2626793E+04  0.7818609E-02  0.8359157E-01
       -2   -1    0    0    0  501  0.00000000000E+00  0.00000000000E+00  0.91256508761E+03  0.91256508762E+03  0.25500000920E-02 0. -1.
        2   -1    0    0  501    0  0.00000000000E+00  0.00000000000E+00 -0.18902872339E+04  0.18902872340E+04  0.25500000920E-02 0.  1.
    10030    2    1    2    0    0  0.00000000000E+00  0.00000000000E+00 -0.97772214633E+03  0.28028523216E+04  0.26267928242E+04 0.  0.
        4    1    3    3  502    0  0.71891959306E+03 -0.78690828603E+02  0.68096519872E+03  0.99335433888E+03  0.12699999809E+01 0. -1.
       -4    1    3    3    0  502 -0.71891959306E+03  0.78690828603E+02 -0.16586873451E+04  0.18094979827E+04  0.12699999809E+01 0.  1.
</event>
<event>
 5   0  0.1078103E-05  0.2878201E+04  0.7818609E-02  0.8279393E-01
        1   -1    0    0  501    0  0.00000000000E+00  0.00000000000E+00  0.16940623772E+04  0.16940623772E+04  0.50400001928E-02 0. -1.
       -1   -1    0    0    0  501  0.00000000000E+00  0.00000000000E+00 -0.12225115754E+04  0.12225115754E+04  0.50400001928E-02 0.  1.
    10030    2    1    2    0    0  0.00000000000E+00  0.00000000000E+00  0.47155080174E+03  0.29165739526E+04  0.28782014284E+04 0.  0.
        1    1    3    3  502    0 -0.13854572861E+04 -0.11554495532E+03  0.61244110091E+03  0.15191861737E+04  0.50400001928E-02 0. -1.
       -1    1    3    3    0  502  0.13854572861E+04  0.11554495532E+03 -0.14089029918E+03  0.13973877789E+04  0.50400001928E-02 0.  1.
</event>
<event>
 5   0  0.1078103E-05  0.2743007E+04  0.7818609E-02  0.8321184E-01
        1   -1    0    0  501    0  0.00000000000E+00  0.00000000000E+00  0.15299464989E+04  0.15299464989E+04  0.50400001928E-02 0.  1.
       -1   -1    0    0    0  501  0.00000000000E+00  0.00000000000E+00 -0.12294693001E+04  0.12294693001E+04  0.50400001928E-02 0. -1.
    10030    2    1    2    0    0  0.00000000000E+00  0.00000000000E+00  0.30047719881E+03  0.27594157991E+04  0.27430072922E+04 0.  0.
        1    1    3    3  502    0  0.50062317928E+03 -0.42359428553E+03  0.13620049455E+04  0.15116590746E+04  0.50400001928E-02 0.  1.
       -1    1    3    3    0  502 -0.50062317928E+03  0.42359428553E+03 -0.10615277467E+04  0.12477567244E+04  0.50400001928E-02 0. -1.
</event>
<event>
 5   0  0.1017456E-05  0.2283643E+04  0.7818609E-02  0.8484399E-01
       -1   -1    0    0    0  501  0.00000000000E+00  0.00000000000E+00  0.60262304379E+03  0.60262304381E+03  0.50400001928E-02 0. -1.
        1   -1    0    0  501    0  0.00000000000E+00  0.00000000000E+00 -0.21634687215E+04  0.21634687215E+04  0.50400001928E-02 0.  1.
    10030    2    1    2    0    0  0.00000000000E+00  0.00000000000E+00 -0.15608456777E+04  0.27660917653E+04  0.22836427971E+04 0.  0.
        5    1    3    3  502    0  0.89066931937E+03 -0.53163334572E+03 -0.13585495742E+04  0.17092702789E+04  0.46999998093E+01 0.  1.
       -5    1    3    3    0  502 -0.89066931937E+03  0.53163334572E+03 -0.20229610356E+03  0.10568214865E+04  0.46999998093E+01 0. -1.
</event>
<event>
 5   0  0.2697964E-05  0.2807541E+04  0.7818609E-02  0.8300931E-01
       -2   -1    0    0    0  501  0.00000000000E+00  0.00000000000E+00  0.74815519839E+03  0.74815519839E+03  0.25500000920E-02 0.  1.
        2   -1    0    0  501    0  0.00000000000E+00  0.00000000000E+00 -0.26339070827E+04  0.26339070827E+04  0.25500000920E-02 0. -1.
    10030    2    1    2    0    0  0.00000000000E+00  0.00000000000E+00 -0.18857518843E+04  0.33820622811E+04  0.28075407573E+04 0.  0.
        1    1    3    3  502    0  0.72945556366E+03  0.73963888573E+00  0.50191572321E+03  0.88545206513E+03  0.50400001928E-02 0.  1.
       -1    1    3    3    0  502 -0.72945556366E+03 -0.73963888573E+00 -0.23876676075E+04  0.24966102160E+04  0.50400001928E-02 0. -1.
</event>
<event>
 5   0  0.8958000E-06  0.1549476E+04  0.7818609E-02  0.8852202E-01
       -3   -1    0    0    0  501  0.00000000000E+00  0.00000000000E+00  0.73049468959E+03  0.73049469658E+03  0.10100000352E+00 0. -1.
        3   -1    0    0  501    0  0.00000000000E+00  0.00000000000E+00 -0.82166107992E+03  0.82166108613E+03  0.10100000352E+00 0.  1.
    10030    2    1    2    0    0  0.00000000000E+00  0.00000000000E+00 -0.91166390325E+02  0.15521557827E+04  0.15494761254E+04 0.  0.
        5    1    3    3  502    0 -0.12123925176E+03 -0.75919839982E+03 -0.14122505974E+03  0.78169544834E+03  0.46999998093E+01 0.  1.
       -5    1    3    3    0  502  0.12123925176E+03  0.75919839982E+03  0.50058669413E+02  0.77046033437E+03  0.46999998093E+01 0. -1.
</event>
<event>
 5   0  0.2624815E-05  0.2849399E+04  0.7818609E-02  0.8288094E-01
       -2   -1    0    0    0  501  0.00000000000E+00  0.00000000000E+00  0.13484947410E+04  0.13484947410E+04  0.25500000920E-02 0. -1.
        2   -1    0    0  501    0  0.00000000000E+00  0.00000000000E+00 -0.15052108700E+04  0.15052108700E+04  0.25500000920E-02 0.  1.
    10030    2    1    2    0    0  0.00000000000E+00  0.00000000000E+00 -0.15671612896E+03  0.28537056110E+04  0.28493991944E+04 0.  0.
        4    1    3    3  502    0  0.11001964358E+04 -0.64924196038E+02  0.82584638846E+03  0.13771968700E+04  0.12699999809E+01 0. -1.
       -4    1    3    3    0  502 -0.11001964358E+04  0.64924196038E+02 -0.98256251742E+03  0.14765087410E+04  0.12699999809E+01 0.  1.
</event>
<event>
 5   0  0.1067434E-05  0.1840113E+04  0.7818609E-02  0.8685254E-01
        1   -1    0    0  501    0  0.00000000000E+00  0.00000000000E+00  0.79840565657E+03  0.79840565658E+03  0.50400001928E-02 0.  1.
       -1   -1    0    0    0  501  0.00000000000E+00  0.00000000000E+00 -0.10602428702E+04  0.10602428702E+04  0.50400001928E-02 0. -1.
    10030    2    1    2    0    0  0.00000000000E+00  0.00000000000E+00 -0.26183721359E+03  0.18586485268E+04  0.18401129366E+04 0.  0.
        4    1    3    3  502    0  0.13085265467E+03  0.89754022765E+03 -0.28674972144E+03  0.95127698024E+03  0.12699999809E+01 0.  1.
       -4    1    3    3    0  502 -0.13085265467E+03 -0.89754022765E+03  0.24912507853E+02  0.90737154652E+03  0.12699999809E+01 0. -1.
</event>
<event>
 5   0  0.1017456E-05  0.2768190E+04  0.7818609E-02  0.8313213E-01
        1   -1    0    0  501    0  0.00000000000E+00  0.00000000000E+00  0.14184089779E+04  0.14184089779E+04  0.50400001928E-02 0. -1.
       -1   -1    0    0    0  501  0.00000000000E+00  0.00000000000E+00 -0.13506112951E+04  0.13506112951E+04  0.50400001928E-02 0.  1.
    10030    2    1    2    0    0  0.00000000000E+00  0.00000000000E+00  0.67797682785E+02  0.27690202730E+04  0.27681901572E+04 0.  0.
        5    1    3    3  502    0 -0.48982300887E+03  0.30737933600E+03  0.12917688608E+04  0.14153082760E+04  0.46999998093E+01 0. -1.
       -5    1    3    3    0  502  0.48982300887E+03 -0.30737933600E+03 -0.12239711781E+04  0.13537119970E+04  0.46999998093E+01 0.  1.
</event>
<event>
 5   0  0.2697964E-05  0.2620532E+04  0.7818609E-02  0.8361260E-01
        2   -1    0    0  501    0  0.00000000000E+00  0.00000000000E+00  0.19647738559E+04  0.19647738559E+04  0.25500000920E-02 0.  1.
       -2   -1    0    0    0  501  0.00000000000E+00  0.00000000000E+00 -0.87378835359E+03  0.87378835359E+03  0.25500000920E-02 0. -1.
    10030    2    1    2    0    0  0.00000000000E+00  0.00000000000E+00  0.10909855023E+04  0.28385622095E+04  0.26205316352E+04 0.  0.
        1    1    3    3  502    0  0.10280391264E+04  0.58829525277E+03  0.11523180594E+04  0.16525110165E+04  0.50400001928E-02 0.  1.
       -1    1    3    3    0  502 -0.10280391264E+04 -0.58829525277E+03 -0.61332557081E+02  0.11860511930E+04  0.50400001928E-02 0. -1.
</event>
<event>
 5   0  0.1105862E-05  0.2792968E+04  0.7818609E-02  0.8305455E-01
        1   -1    0    0  501    0  0.00000000000E+00  0.00000000000E+00  0.23196856688E+04  0.23196856688E+04  0.50400001928E-02 0. -1.
       -1   -1    0    0    0  501  0.00000000000E+00  0.00000000000E+00 -0.84070310639E+03  0.84070310641E+03  0.50400001928E-02 0.  1.
    10030    2    1    2    0    0  0.00000000000E+00  0.00000000000E+00  0.14789825624E+04  0.31603887753E+04  0.27929675599E+04 0.  0.
        3    1    3    3  502    0  0.16867797461E+02 -0.13671950416E+04  0.10608603588E+04  0.17305870436E+04  0.10100000352E+00 0.  1.
       -3    1    3    3    0  502 -0.16867797461E+02  0.13671950416E+04  0.41812220367E+03  0.14298017317E+04  0.10100000352E+00 0. -1.
</event>
<event>
 5   0  0.2588048E-05  0.2856146E+04  0.7818609E-02  0.8286046E-01
       -2   -1    0    0    0  501  0.00000000000E+00  0.00000000000E+00  0.13003655397E+04  0.13003655397E+04  0.25500000920E-02 0.  1.
        2   -1    0    0  501    0  0.00000000000E+00  0.00000000000E+00 -0.15683219671E+04  0.15683219671E+04  0.25500000920E-02 0. -1.
    10030    2    1    2    0    0  0.00000000000E+00  0.00000000000E+00 -0.26795642740E+03  0.28686875067E+04  0.28561455433E+04 0.  0.
        2    1    3    3  502    0 -0.11668036674E+04  0.63613913420E+03  0.39108697307E+03  0.13852988186E+04  0.25500000920E-02 0.  1.
       -2    1    3    3    0  502  0.11668036674E+04 -0.63613913420E+03 -0.65904340047E+03  0.14833886881E+04  0.25500000920E-02 0. -1.
</event>
<event>
 5   0  0.2588048E-05  0.2785891E+04  0.7818609E-02  0.8307662E-01
       -2   -1    0    0    0  501  0.00000000000E+00  0.00000000000E+00  0.10259150399E+04  0.10259150399E+04  0.25500000920E-02 0.  1.
        2   -1    0    0  501    0  0.00000000000E+00  0.00000000000E+00 -0.18912842424E+04  0.18912842424E+04  0.25500000920E-02 0. -1.
    10030    2    1    2    0    0  0.00000000000E+00  0.00000000000E+00 -0.86536920250E+03  0.29171992823E+04  0.27858908443E+04 0.  0.
        2    1    3    3  502    0 -0.63548046546E+03 -0.11749995498E+04 -0.84605379384E+03  0.15812230665E+04  0.25500000920E-02 0. -1.
       -2    1    3    3    0  502  0.63548046546E+03  0.11749995498E+04 -0.19315408657E+02  0.13359762158E+04  0.25500000920E-02 0.  1.
</event>
<event>
 5   0  0.2624815E-05  0.2734319E+04  0.7818609E-02  0.8323955E-01
        2   -1    0    0  501    0  0.00000000000E+00  0.00000000000E+00  0.23658338872E+04  0.23658338872E+04  0.25500000920E-02 0.  1.
       -2   -1    0    0    0  501  0.00000000000E+00  0.00000000000E+00 -0.79004942298E+03  0.79004942298E+03  0.25500000920E-02 0. -1.
    10030    2    1    2    0    0  0.00000000000E+00  0.00000000000E+00  0.15757844642E+04  0.31558833102E+04  0.27343194381E+04 0.  0.
        4    1    3    3  502    0 -0.11016645923E+04 -0.75417482389E+03  0.11276974158E+04  0.17476119745E+04  0.12699999809E+01 0.  1.
       -4    1    3    3    0  502  0.11016645923E+04  0.75417482389E+03  0.44808704838E+03  0.14082713356E+04  0.12699999809E+01 0. -1.
</event>
<event>
 5   0  0.2651061E-05  0.2766680E+04  0.7818609E-02  0.8313688E-01
        2   -1    0    0  501    0  0.00000000000E+00  0.00000000000E+00  0.12260338214E+04  0.12260338214E+04  0.25500000920E-02 0. -1.
       -2   -1    0    0    0  501  0.00000000000E+00  0.00000000000E+00 -0.15608292303E+04  0.15608292303E+04  0.25500000920E-02 0.  1.
    10030    2    1    2    0    0  0.00000000000E+00  0.00000000000E+00 -0.33479540884E+03  0.27868630517E+04  0.27666799062E+04 0.  0.
        3    1    3    3  502    0 -0.68908820174E+02  0.11117196697E+04  0.65892836708E+03  0.12941621431E+04  0.10100000352E+00 0. -1.
       -3    1    3    3    0  502  0.68908820174E+02 -0.11117196697E+04 -0.99372377592E+03  0.14927009086E+04  0.10100000352E+00 0.  1.
</event>
<event>
 5   0  0.2697964E-05  0.2800186E+04  0.7818609E-02  0.8303211E-01
       -2   -1    0    0    0  501  0.00000000000E+00  0.00000000000E+00  0.16056805997E+04  0.16056805997E+04  0.25500000920E-02 0. -1.
        2   -1    0    0  501    0  0.00000000000E+00  0.00000000000E+00 -0.12208284068E+04  0.12208284068E+04  0.25500000920E-02 0.  1.
    10030    2    1    2    0    0  0.00000000000E+00  0.00000000000E+00  0.38485219299E+03  0.28265090065E+04  0.28001860569E+04 0.  0.
        1    1    3    3  502    0  0.83346175547E+03 -0.10720424701E+04 -0.15184742616E+03  0.13663788627E+04  0.50400001928E-02 0.  1.
       -1    1    3    3    0  502 -0.83346175547E+03  0.10720424701E+04  0.53669961915E+03  0.14601301438E+04  0.50400001928E-02 0. -1.
</event>
<event>
 5   0  0.2518686E-05  0.2784433E+04  0.7818609E-02  0.8308118E-01
       -2   -1    0    0    0  501  0.00000000000E+00  0.00000000000E+00  0.19759886941E+04  0.19759886941E+04  0.25500000920E-02 0. -1.
        2   -1    0    0  501    0  0.00000000000E+00  0.00000000000E+00 -0.98090957766E+03  0.98090957766E+03  0.25500000920E-02 0.  1.
    10030    2    1    2    0    0  0.00000000000E+00  0.00000000000E+00  0.99507911641E+03  0.29568982717E+04  0.27844326067E+04 0.  0.
        5    1    3    3  502    0  0.95711735675E+03  0.70538958771E+02 -0.57349067665E+03  0.11180174531E+04  0.46999998093E+01 0.  1.
       -5    1    3    3    0  502 -0.95711735675E+03 -0.70538958771E+02  0.15685697931E+04  0.18388808186E+04  0.46999998093E+01 0. -1.
</event>
<event>
 5   0  0.1067434E-05  0.2793302E+04  0.7818609E-02  0.8305351E-01
        1   -1    0    0  501    0  0.00000000000E+00  0.00000000000E+00  0.17424043098E+04  0.17424043098E+04  0.50400001928E-02 0. -1.
       -1   -1    0    0    0  501  0.00000000000E+00  0.00000000000E+00 -0.11195074161E+04  0.11195074161E+04  0.50400001928E-02 0.  1.
    10030    2    1    2    0    0  0.00000000000E+00  0.00000000000E+00  0.62289689373E+03  0.28619117260E+04  0.27933023801E+04 0.  0.
        4    1    3    3  502    0 -0.65566979322E+03 -0.70910223179E+03  0.13451417684E+04  0.16559398669E+04  0.12699999809E+01 0. -1.
       -4    1    3    3    0  502  0.65566979322E+03  0.70910223179E+03 -0.72224487467E+03  0.12059718590E+04  0.12699999809E+01 0.  1.
</event>
<event>
 5   0  0.1017456E-05  0.2790917E+04  0.7818609E-02  0.8306094E-01
       -1   -1    0    0    0  501  0.00000000000E+00  0.00000000000E+00  0.98347706601E+03  0.98347706603E+03  0.50400001928E-02 0. -1.
        1   -1    0    0  501    0  0.00000000000E+00  0.00000000000E+00 -0.19800204600E+04  0.19800204600E+04  0.50400001928E-02 0.  1.
    10030    2    1    2    0    0  0.00000000000E+00  0.00000000000E+00 -0.99654339396E+03  0.29634975260E+04  0.27909172060E+04 0.  0.
        5    1    3    3  502    0 -0.32284485956E+03  0.13380697208E+04 -0.74185438236E+03  0.15636589768E+04  0.46999998093E+01 0. -1.
       -5    1    3    3    0  502  0.32284485956E+03 -0.13380697208E+04 -0.25468901160E+03  0.13998385492E+04  0.46999998093E+01 0.  1.
</event>
<event>
 5   0  0.2624815E-05  0.2987717E+04  0.7818609E-02  0.8247247E-01
        2   -1    0    0  501    0  0.00000000000E+00  0.00000000000E+00  0.23299250755E+04  0.23299250755E+04  0.25500000920E-02 0. -1.
       -2   -1    0    0    0  501  0.00000000000E+00  0.00000000000E+00 -0.95780474125E+03  0.95780474126E+03  0.25500000920E-02 0.  1.
    10030    2    1    2    0    0  0.00000000000E+00  0.00000000000E+00  0.13721203342E+04  0.32877298167E+04  0.29877170442E+04 0.  0.
        4    1    3    3  502    0 -0.30545650215E+03 -0.88366317288E+03  0.19681491245E+04  0.21789393904E+04  0.12699999809E+01 0. -1.
       -4    1    3    3    0  502  0.30545650215E+03  0.88366317288E+03 -0.59602879029E+03  0.11087904263E+04  0.12699999809E+01 0.  1.
</event>
<event>
 5   0  0.2588048E-05  0.2739247E+04  0.7818609E-02  0.8322382E-01
        2   -1    0    0  501    0  0.00000000000E+00  0.00000000000E+00  0.18285622911E+04  0.18285622911E+04  0.25500000920E-02 0. -1.
       -2   -1    0    0    0  501  0.00000000000E+00  0.00000000000E+00 -0.10258708413E+04  0.10258708413E+04  0.25500000920E-02 0.  1.
    10030    2    1    2    0    0  0.00000000000E+00  0.00000000000E+00  0.80269144980E+03  0.28544331323E+04  0.27392471490E+04 0.  0.
        2    1    3    3  502    0  0.89695659461E+03 -0.84950302291E+03 -0.21485957464E+03  0.12539342707E+04  0.25500000920E-02 0.  1.
       -2    1    3    3    0  502 -0.89695659461E+03  0.84950302291E+03  0.10175510244E+04  0.16004988616E+04  0.25500000920E-02 0. -1.
</event>
<event>
 5   0  0.1017456E-05  0.2814419E+04  0.7818609E-02  0.8298806E-01
        1   -1    0    0  501    0  0.00000000000E+00  0.00000000000E+00  0.25027577253E+04  0.25027577253E+04  0.50400001928E-02 0. -1.
       -1   -1    0    0    0  501  0.00000000000E+00  0.00000000000E+00 -0.79122238855E+03  0.79122238857E+03  0.50400001928E-02 0.  1.
    10030    2    1    2    0    0  0.00000000000E+00  0.00000000000E+00  0.17115353367E+04  0.32939801138E+04  0.28144185512E+04 0.  0.
        5    1    3    3  502    0 -0.65377431208E+03  0.12083229491E+04  0.12122112349E+04  0.18321963237E+04  0.46999998093E+01 0. -1.
       -5    1    3    3    0  502  0.65377431208E+03 -0.12083229491E+04  0.49932410181E+03  0.14617837902E+04  0.46999998093E+01 0.  1.
</event>
<event>
 5   0  0.1075146E-05  0.2561416E+04  0.7818609E-02  0.8381426E-01
        1   -1    0    0  501    0  0.00000000000E+00  0.00000000000E+00  0.14645834871E+04  0.14645834871E+04  0.50400001928E-02 0. -1.
       -1   -1    0    0    0  501  0.00000000000E+00  0.00000000000E+00 -0.11199181382E+04  0.11199181382E+04  0.50400001928E-02 0.  1.
    10030    2    1    2    0    0  0.00000000000E+00  0.00000000000E+00  0.34466534894E+03  0.25845016253E+04  0.25614164926E+04 0.  0.
        2    1    3    3  502    0  0.10662569790E+04 -0.11623144286E+03  0.87849730648E+03  0.13864238930E+04  0.25500000920E-02 0. -1.
       -2    1    3    3    0  502 -0.10662569790E+04  0.11623144286E+03 -0.53383195754E+03  0.11980777323E+04  0.25500000920E-02 0.  1.
</event>
<event>
 5   0  0.2518686E-05  0.2513674E+04  0.7818609E-02  0.8398130E-01
        2   -1    0    0  501    0  0.00000000000E+00  0.00000000000E+00  0.15279680497E+04  0.15279680497E+04  0.25500000920E-02 0. -1.
       -2   -1    0    0    0  501  0.00000000000E+00  0.00000000000E+00 -0.10338173256E+04  0.10338173256E+04  0.25500000920E-02 0.  1.
    10030    2    1    2    0    0  0.00000000000E+00  0.00000000000E+00  0.49415072402E+03  0.25617853753E+04  0.25136744759E+04 0.  0.
        5    1    3    3  502    0  0.49667186441E+03  0.10952650069E+04 -0.12505630721E+03  0.12091110561E+04  0.46999998093E+01 0.  1.
       -5    1    3    3    0  502 -0.49667186441E+03 -0.10952650069E+04  0.61920703123E+03  0.13526743191E+04  0.46999998093E+01 0. -1.
</event>
<event>
 5   0  0.1075146E-05  0.2590126E+04  0.7818609E-02  0.8371563E-01
       -1   -1    0    0    0  501  0.00000000000E+00  0.00000000000E+00  0.16274543039E+04  0.16274543039E+04  0.50400001928E-02 0.  1.
        1   -1    0    0  501    0  0.00000000000E+00  0.00000000000E+00 -0.10305590503E+04  0.10305590503E+04  0.50400001928E-02 0. -1.
    10030    2    1    2    0    0  0.00000000000E+00  0.00000000000E+00  0.59689525368E+03  0.26580133542E+04  0.25901256817E+04 0.  0.
        2    1    3    3  502    0  0.76649130243E+03 -0.74577626338E+03 -0.45110503817E+03  0.11606838102E+04  0.25500000920E-02 0. -1.
       -2    1    3    3    0  502 -0.76649130243E+03  0.74577626338E+03  0.10480002918E+04  0.14973295440E+04  0.25500000920E-02 0.  1.
</event>
<event>
 5   0  0.1105862E-05  0.2820223E+04  0.7818609E-02  0.8297017E-01
       -1   -1    0    0    0  501  0.00000000000E+00  0.00000000000E+00  0.86721799492E+03  0.86721799493E+03  0.50400001928E-02 0.  1.
        1   -1    0    0  501    0  0.00000000000E+00  0.00000000000E+00 -0.22928657223E+04  0.22928657223E+04  0.50400001928E-02 0. -1.
    10030    2    1    2    0    0  0.00000000000E+00  0.00000000000E+00 -0.14256477274E+04  0.31600837173E+04  0.28202229801E+04 0.  0.
        3    1    3    3  502    0  0.40670444438E+02 -0.11758372773E+04  0.15812698578E+03  0.11871190090E+04  0.10100000352E+00 0. -1.
       -3    1    3    3    0  502 -0.40670444438E+02  0.11758372773E+04 -0.15837747132E+04  0.19729647083E+04  0.10100000352E+00 0.  1.
</event>
<event>
 5   0  0.1078103E-05  0.2751647E+04  0.7818609E-02  0.8318439E-01
        1   -1    0    0  501    0  0.00000000000E+00  0.00000000000E+00  0.14096586398E+04  0.14096586398E+04  0.50400001928E-02 0.  1.
       -1   -1    0    0    0  501  0.00000000000E+00  0.00000000000E+00 -0.13428006356E+04  0.13428006356E+04  0.50400001928E-02 0. -1.
    10030    2    1    2    0    0  0.00000000000E+00  0.00000000000E+00  0.66858004149E+02  0.27524592754E+04  0.27516471558E+04 0.  0.
        1    1    3    3  502    0 -0.41930252792E+03  0.10953286676E+04  0.75289855120E+03  0.13937057539E+04  0.50400001928E-02 0.  1.
       -1    1    3    3    0  502  0.41930252792E+03 -0.10953286676E+04 -0.68604054705E+03  0.13587535215E+04  0.50400001928E-02 0. -1.
</event>
<event>
 5   0  0.2697964E-05  0.2780250E+04  0.7818609E-02  0.8309426E-01
        2   -1    0    0  501    0  0.00000000000E+00  0.00000000000E+00  0.15352545542E+04  0.15352545542E+04  0.25500000920E-02 0. -1.
       -2   -1    0    0    0  501  0.00000000000E+00  0.00000000000E+00 -0.12587148823E+04  0.12587148823E+04  0.25500000920E-02 0.  1.
    10030    2    1    2    0    0  0.00000000000E+00  0.00000000000E+00  0.27653967188E+03  0.27939694364E+04  0.27802501725E+04 0.  0.
        1    1    3    3  502    0 -0.24477837673E+03  0.58862117385E+03  0.13797022168E+04  0.15198583971E+04  0.50400001928E-02 0. -1.
       -1    1    3    3    0  502  0.24477837673E+03 -0.58862117385E+03 -0.11031625449E+04  0.12741110394E+04  0.50400001928E-02 0.  1.
</event>
<event>
 5   0  0.2651061E-05  0.2785554E+04  0.7818609E-02  0.8307767E-01
       -2   -1    0    0    0  501  0.00000000000E+00  0.00000000000E+00  0.11235126385E+04  0.11235126385E+04  0.25500000920E-02 0.  1.
        2   -1    0    0  501    0  0.00000000000E+00  0.00000000000E+00 -0.17265742480E+04  0.17265742480E+04  0.25500000920E-02 0. -1.
    10030    2    1    2    0    0  0.00000000000E+00  0.00000000000E+00 -0.60306160951E+03  0.28500868865E+04  0.27855541559E+04 0.  0.
        3    1    3    3  502    0 -0.53366012185E+02 -0.10982946599E+04  0.57309972327E+03  0.12399767716E+04  0.10100000352E+00 0.  1.
       -3    1    3    3    0  502  0.53366012185E+02  0.10982946599E+04 -0.11761613328E+04  0.16101101149E+04  0.10100000352E+00 0. -1.
</event>
<event>
 5   0  0.3147670E-05  0.1466994E+04  0.7818609E-02  0.8906703E-01
        2   -1    0    0  501    0  0.00000000000E+00  0.00000000000E+00  0.82938809605E+03  0.82938809606E+03  0.25500000920E-02 0.  1.
       -2   -1    0    0    0  501  0.00000000000E+00  0.00000000000E+00 -0.64869268341E+03  0.64869268341E+03  0.25500000920E-02 0. -1.
    10030    2    1    2    0    0  0.00000000000E+00  0.00000000000E+00  0.18069541265E+03  0.14780807795E+04  0.14669941917E+04 0.  0.
        5    1    3    3  502    0 -0.23091685409E+03  0.40735914238E+03 -0.47848229892E+03  0.66950090722E+03  0.46999998093E+01 0. -1.
       -5    1    3    3    0  502  0.23091685409E+03 -0.40735914238E+03  0.65917771157E+03  0.80857987225E+03  0.46999998093E+01 0.  1.
</event>
<event>
 5   0  0.2624815E-05  0.2853015E+04  0.7818609E-02  0.8286996E-01
        2   -1    0    0  501    0  0.00000000000E+00  0.00000000000E+00  0.19308360510E+04  0.19308360510E+04  0.25500000920E-02 0.  1.
       -2   -1    0    0    0  501  0.00000000000E+00  0.00000000000E+00 -0.10539079020E+04  0.10539079020E+04  0.25500000920E-02 0. -1.
    10030    2    1    2    0    0  0.00000000000E+00  0.00000000000E+00  0.87692814895E+03  0.29847439530E+04  0.28530148066E+04 0.  0.
        4    1    3    3  502    0  0.68930738144E+03  0.12855287207E+03 -0.86117085289E+03  0.11105347171E+04  0.12699999809E+01 0. -1.
       -4    1    3    3    0  502 -0.68930738144E+03 -0.12855287207E+03  0.17380990018E+04  0.18742092360E+04  0.12699999809E+01 0.  1.
</event>
<event>
 5   0  0.2697964E-05  0.2768692E+04  0.7818609E-02  0.8313055E-01
       -2   -1    0    0    0  501  0.00000000000E+00  0.00000000000E+00  0.86740823607E+03  0.86740823608E+03  0.25500000920E-02 0. -1.
        2   -1    0    0  501    0  0.00000000000E+00  0.00000000000E+00 -0.22093557405E+04  0.22093557405E+04  0.25500000920E-02 0.  1.
    10030    2    1    2    0    0  0.00000000000E+00  0.00000000000E+00 -0.13419475044E+04  0.30767639765E+04  0.27686916518E+04 0.  0.
        1    1    3    3  502    0  0.36223487385E+03  0.22376694482E+03  0.79283824387E+03  0.89993234768E+03  0.50400001928E-02 0. -1.
       -1    1    3    3    0  502 -0.36223487385E+03 -0.22376694482E+03 -0.21347857482E+04  0.21768316289E+04  0.50400001928E-02 0.  1.
</event>
<event>
 5   0  0.1075146E-05  0.2756243E+04  0.7818609E-02  0.8316983E-01
        1   -1    0    0  501    0  0.00000000000E+00  0.00000000000E+00  0.12278097349E+04  0.12278097349E+04  0.50400001928E-02 0.  1.
       -1   -1    0    0    0  501  0.00000000000E+00  0.00000000000E+00 -0.15468351848E+04  0.15468351849E+04  0.50400001928E-02 0. -1.
    10030    2    1    2    0    0  0.00000000000E+00  0.00000000000E+00 -0.31902544994E+03  0.27746449198E+04  0.27562433117E+04 0.  0.
        2    1    3    3  502    0  0.79896855189E+03 -0.10517702031E+04 -0.55539130303E+03  0.14328401189E+04  0.25500000920E-02 0. -1.
       -2    1    3    3    0  502 -0.79896855189E+03  0.10517702031E+04  0.23636585309E+03  0.13418048008E+04  0.25500000920E-02 0.  1.
</event>
<event>
 5   0  0.1105862E-05  0.1502805E+04  0.7818609E-02  0.8882589E-01
        1   -1    0    0  501    0  0.00000000000E+00  0.00000000000E+00  0.73492509186E+03  0.73492509187E+03  0.50400001928E-02 0.  1.
       -1   -1    0    0    0  501  0.00000000000E+00  0.00000000000E+00 -0.76824979960E+03  0.76824979962E+03  0.50400001928E-02 0. -1.
    10030    2    1    2    0    0  0.00000000000E+00  0.00000000000E+00 -0.33324707747E+02  0.15031748915E+04  0.15028054492E+04 0.  0.
        3    1    3    3  502    0 -0.28174164406E+03  0.75910307104E+02  0.67594221107E+03  0.73623271568E+03  0.10100000352E+00 0.  1.
       -3    1    3    3    0  502  0.28174164406E+03 -0.75910307104E+02 -0.70926691882E+03  0.76694217582E+03  0.10100000352E+00 0. -1.
</event>
<event>
 5   0  0.2651061E-05  0.2221195E+04  0.7818609E-02  0.8509658E-01
        2   -1    0    0  501    0  0.00000000000E+00  0.00000000000E+00  0.16244678205E+04  0.16244678205E+04  0.25500000920E-02 0. -1.
       -2   -1    0    0    0  501  0.00000000000E+00  0.00000000000E+00 -0.75928027111E+03  0.75928027112E+03  0.25500000920E-02 0.  1.
    10030    2    1    2    0    0  0.00000000000E+00  0.00000000000E+00  0.86518754934E+03  0.23837480916E+04  0.22211946039E+04 0.  0.
        3    1    3    3  502    0  0.68957392686E+03 -0.64951433104E+03 -0.18952406474E+03  0.96607476323E+03  0.10100000352E+00 0.  1.
       -3    1    3    3    0  502 -0.68957392686E+03  0.64951433104E+03  0.10547116141E+04  0.14176733283E+04  0.10100000352E+00 0. -1.
</event>
<event>
 5   0  0.2651061E-05  0.2807709E+04  0.7818609E-02  0.8300879E-01
       -2   -1    0    0    0  501  0.00000000000E+00  0.00000000000E+00  0.14173004483E+04  0.14173004483E+04  0.25500000920E-02 0.  1.
        2   -1    0    0  501    0  0.00000000000E+00  0.00000000000E+00 -0.13905359895E+04  0.13905359895E+04  0.25500000920E-02 0. -1.
    10030    2    1    2    0    0  0.00000000000E+00  0.00000000000E+00  0.26764458730E+02  0.28078364378E+04  0.28077088747E+04 0.  0.
        3    1    3    3  502    0 -0.72124277400E+03  0.11367405888E+04 -0.38467726698E+03  0.14001238928E+04  0.10100000352E+00 0.  1.
       -3    1    3    3    0  502  0.72124277400E+03 -0.11367405888E+04  0.41144172571E+03  0.14077125449E+04  0.10100000352E+00 0. -1.
</event>
<event>
 5   0  0.1075146E-05  0.2205087E+04  0.7818609E-02  0.8516314E-01
       -1   -1    0    0    0  501  0.00000000000E+00  0.00000000000E+00  0.13142655446E+04  0.13142655446E+04  0.50400001928E-02 0. -1.
        1   -1    0    0  501    0  0.00000000000E+00  0.00000000000E+00 -0.92492850644E+03  0.92492850645E+03  0.50400001928E-02 0.  1.
    10030    2    1    2    0    0  0.00000000000E+00  0.00000000000E+00  0.38933703818E+03  0.22391940511E+04  0.22050865446E+04 0.  0.
        2    1    3    3  502    0 -0.97821354061E+03  0.26215778631E+03 -0.24793238568E+03  0.10426403521E+04  0.25500000920E-02 0.  1.
       -2    1    3    3    0  502  0.97821354061E+03 -0.26215778631E+03  0.63726942386E+03  0.11965536990E+04  0.25500000920E-02 0. -1.
</event>
<event>
 5   0  0.1078103E-05  0.2719163E+04  0.7818609E-02  0.8328814E-01
       -1   -1    0    0    0  501  0.00000000000E+00  0.00000000000E+00  0.18863663470E+04  0.18863663470E+04  0.50400001928E-02 0.  1.
        1   -1    0    0  501    0  0.00000000000E+00  0.00000000000E+00 -0.97990637626E+03  0.97990637627E+03  0.50400001928E-02 0. -1.
    10030    2    1    2    0    0  0.00000000000E+00  0.00000000000E+00  0.90645997070E+03  0.28662727232E+04  0.27191634091E+04 0.  0.
        1    1    3    3  502    0  0.61632543563E+03  0.12116161423E+04  0.42758926733E+03  0.14250274736E+04  0.50400001928E-02 0.  1.
       -1    1    3    3    0  502 -0.61632543563E+03 -0.12116161423E+04  0.47887070338E+03  0.14412452496E+04  0.50400001928E-02 0. -1.
</event>
<event>
 5   0  0.2518686E-05  0.2492420E+04  0.7818609E-02  0.8405691E-01
       -2   -1    0    0    0  501  0.00000000000E+00  0.00000000000E+00  0.71674753472E+03  0.71674753473E+03  0.25500000920E-02 0. -1.
        2   -1    0    0  501    0  0.00000000000E+00  0.00000000000E+00 -0.21667867753E+04  0.21667867753E+04  0.25500000920E-02 0.  1.
    10030    2    1    2    0    0  0.00000000000E+00  0.00000000000E+00 -0.14500392406E+04  0.28835343100E+04  0.24924197716E+04 0.  0.
        5    1    3    3  502    0 -0.10931189866E+04 -0.59012777935E+03 -0.83988203863E+03  0.14995278736E+04  0.46999998093E+01 0.  1.
       -5    1    3    3    0  502  0.10931189866E+04  0.59012777935E+03 -0.61015720192E+03  0.13840064364E+04  0.46999998093E+01 0. -1.
</event>
<event>
 5   0  0.1067434E-05  0.2831699E+04  0.7818609E-02  0.8293494E-01
       -1   -1    0    0    0  501  0.00000000000E+00  0.00000000000E+00  0.12493137833E+04  0.12493137833E+04  0.50400001928E-02 0. -1.
        1   -1    0    0  501    0  0.00000000000E+00  0.00000000000E+00 -0.16045842356E+04  0.16045842356E+04  0.50400001928E-02 0.  1.
    10030    2    1    2    0    0  0.00000000000E+00  0.00000000000E+00 -0.35527045230E+03  0.28538980188E+04  0.28316985729E+04 0.  0.
        4    1    3    3  502    0  0.99504406106E+02 -0.39252377046E+03  0.11897069775E+04  0.12567339983E+04  0.12699999809E+01 0. -1.
       -4    1    3    3    0  502 -0.99504406106E+02  0.39252377046E+03 -0.15449774298E+04  0.15971640206E+04  0.12699999809E+01 0.  1.
</event>
<event>
 5   0  0.1078103E-05  0.2810543E+04  0.7818609E-02  0.8300002E-01
       -1   -1    0    0    0  501  0.00000000000E+00  0.00000000000E+00  0.10491296609E+04  0.10491296610E+04  0.50400001928E-02 0.  1.
        1   -1    0    0  501    0  0.00000000000E+00  0.00000000000E+00 -0.18823113603E+04  0.18823113603E+04  0.50400001928E-02 0. -1.
    10030    2    1    2    0    0  0.00000000000E+00  0.00000000000E+00 -0.83318169934E+03  0.29314410213E+04  0.28105434914E+04 0.  0.
        1    1    3    3  502    0 -0.45995548748E+03  0.10555525320E+04  0.42369311142E+03  0.12268928441E+04  0.50400001928E-02 0.  1.
       -1    1    3    3    0  502  0.45995548748E+03 -0.10555525320E+04 -0.12568748108E+04  0.17045481771E+04  0.50400001928E-02 0. -1.
</event>
<event>
 5   0  0.2624815E-05  0.2633685E+04  0.7818609E-02  0.8356848E-01
       -2   -1    0    0    0  501  0.00000000000E+00  0.00000000000E+00  0.11298769231E+04  0.11298769231E+04  0.25500000920E-02 0. -1.
        2   -1    0    0  501    0  0.00000000000E+00  0.00000000000E+00 -0.15347459808E+04  0.15347459808E+04  0.25500000920E-02 0.  1.
    10030    2    1    2    0    0  0.00000000000E+00  0.00000000000E+00 -0.40486905771E+03  0.26646229039E+04  0.26336849216E+04 0.  0.
        4    1    3    3  502    0 -0.80249000760E+03 -0.10426397970E+04 -0.25770680681E+03  0.13407096516E+04  0.12699999809E+01 0. -1.
       -4    1    3    3    0  502  0.80249000760E+03  0.10426397970E+04 -0.14716225090E+03  0.13239132523E+04  0.12699999809E+01 0.  1.
</event>
<event>
 5   0  0.1105862E-05  0.2779030E+04  0.7818609E-02  0.8309809E-01
       -1   -1    0    0    0  501  0.00000000000E+00  0.00000000000E+00  0.85665436195E+03  0.85665436197E+03  0.50400001928E-02 0.  1.
        1   -1    0    0  501    0  0.00000000000E+00  0.00000000000E+00 -0.22538278788E+04  0.22538278788E+04  0.50400001928E-02 0. -1.
    10030    2    1    2    0    0  0.00000000000E+00  0.00000000000E+00 -0.13971735168E+04  0.31104822408E+04  0.27790296749E+04 0.  0.
        3    1    3    3  502    0 -0.80474063376E+03  0.45138843284E+03 -0.18614381944E+04  0.20775733842E+04  0.10100000352E+00 0. -1.
       -3    1    3    3    0  502  0.80474063376E+03 -0.45138843284E+03  0.46426467757E+03  0.10329088566E+04  0.10100000352E+00 0.  1.
</event>
<event>
 5   0  0.1078103E-05  0.2795657E+04  0.7818609E-02  0.8304618E-01
        1   -1    0    0  501    0  0.00000000000E+00  0.00000000000E+00  0.24655993216E+04  0.24655993216E+04  0.50400001928E-02 0. -1.
       -1   -1    0    0    0  501  0.00000000000E+00  0.00000000000E+00 -0.79247451589E+03  0.79247451591E+03  0.50400001928E-02 0.  1.
    10030    2    1    2    0    0  0.00000000000E+00  0.00000000000E+00  0.16731248057E+04  0.32580738376E+04  0.27956570811E+04 0.  0.
        1    1    3    3  502    0 -0.26658992174E+03  0.72169253127E+02 -0.76036026722E+03  0.80896620663E+03  0.50400001928E-02 0.  1.
       -1    1    3    3    0  502  0.26658992174E+03 -0.72169253127E+02  0.24334850730E+04  0.24491076309E+04  0.50400001928E-02 0. -1.
</event>
<event>
 5   0  0.1078103E-05  0.2816680E+04  0.7818609E-02  0.8298108E-01
       -1   -1    0    0    0  501  0.00000000000E+00  0.00000000000E+00  0.19296831811E+04  0.19296831811E+04  0.50400001928E-02 0.  1.
        1   -1    0    0  501    0  0.00000000000E+00  0.00000000000E+00 -0.10278486429E+04  0.10278486429E+04  0.50400001928E-02 0. -1.
    10030    2    1    2    0    0  0.00000000000E+00  0.00000000000E+00  0.90183453817E+03  0.29575318241E+04  0.28166804853E+04 0.  0.
        1    1    3    3  502    0  0.74815982316E+03 -0.10541354674E+04  0.10378674505E+04  0.16577435113E+04  0.50400001928E-02 0.  1.
       -1    1    3    3    0  502 -0.74815982316E+03  0.10541354674E+04 -0.13603291228E+03  0.12997883127E+04  0.50400001928E-02 0. -1.
</event>
<event>
 5   0  0.1017456E-05  0.2830296E+04  0.7818609E-02  0.8293924E-01
        1   -1    0    0  501    0  0.00000000000E+00  0.00000000000E+00  0.16183971901E+04  0.16183971901E+04  0.50400001928E-02 0.  1.
       -1   -1    0    0    0  501  0.00000000000E+00  0.00000000000E+00 -0.12374243438E+04  0.12374243438E+04  0.50400001928E-02 0. -1.
    10030    2    1    2    0    0  0.00000000000E+00  0.00000000000E+00  0.38097284626E+03  0.28558215339E+04  0.28302961548E+04 0.  0.
        5    1    3    3  502    0 -0.41242092849E+03  0.11269820082E+04  0.94721172650E+03  0.15288595795E+04  0.46999998093E+01 0.  1.
       -5    1    3    3    0  502  0.41242092849E+03 -0.11269820082E+04 -0.56623888024E+03  0.13269619544E+04  0.46999998093E+01 0. -1.
</event>
<event>
 5   0  0.1017456E-05  0.2763562E+04  0.7818609E-02  0.8314671E-01
       -1   -1    0    0    0  501  0.00000000000E+00  0.00000000000E+00  0.16338505478E+04  0.16338505478E+04  0.50400001928E-02 0.  1.
        1   -1    0    0  501    0  0.00000000000E+00  0.00000000000E+00 -0.11686006777E+04  0.11686006777E+04  0.50400001928E-02 0. -1.
    10030    2    1    2    0    0  0.00000000000E+00  0.00000000000E+00  0.46524987013E+03  0.28024512256E+04  0.27635620909E+04 0.  0.
        5    1    3    3  502    0 -0.51174549972E+03  0.30729913868E+03  0.14963478032E+04  0.16110229841E+04  0.46999998093E+01 0.  1.
       -5    1    3    3    0  502  0.51174549972E+03 -0.30729913868E+03 -0.10310979330E+04  0.11914282415E+04  0.46999998093E+01 0. -1.
</event>
<event>
 5   0  0.1075146E-05  0.2713525E+04  0.7818609E-02  0.8330630E-01
        1   -1    0    0  501    0  0.00000000000E+00  0.00000000000E+00  0.11385814838E+04  0.11385814838E+04  0.50400001928E-02 0.  1.
       -1   -1    0    0    0  501  0.00000000000E+00  0.00000000000E+00 -0.16167526219E+04  0.16167526219E+04  0.50400001928E-02 0. -1.
    10030    2    1    2    0    0  0.00000000000E+00  0.00000000000E+00 -0.47817113814E+03  0.27553341057E+04  0.27135250868E+04 0.  0.
        2    1    3    3  502    0  0.10615921817E+04  0.91492303544E+02  0.61376968698E+03  0.12296593148E+04  0.25500000920E-02 0.  1.
       -2    1    3    3    0  502 -0.10615921817E+04 -0.91492303544E+02 -0.10919408251E+04  0.15256747909E+04  0.25500000920E-02 0. -1.
</event>
<event>
 5   0  0.1075146E-05  0.2732020E+04  0.7818609E-02  0.8324690E-01
       -1   -1    0    0    0  501  0.00000000000E+00  0.00000000000E+00  0.13815456105E+04  0.13815456105E+04  0.50400001928E-02 0. -1.
        1   -1    0    0  501    0  0.00000000000E+00  0.00000000000E+00 -0.13506495775E+04  0.13506495775E+04  0.50400001928E-02 0.  1.
    10030    2    1    2    0    0  0.00000000000E+00  0.00000000000E+00  0.30896033042E+02  0.27321951880E+04  0.27320204941E+04 0.  0.
        2    1    3    3  502    0 -0.91825679451E+03 -0.28325468089E+03 -0.95546690450E+03  0.13551183566E+04  0.25500000920E-02 0.  1.
       -2    1    3    3    0  502  0.91825679451E+03  0.28325468089E+03  0.98636293754E+03  0.13770768314E+04  0.25500000920E-02 0. -1.
</event>
<event>
 5   0  0.1075146E-05  0.2042689E+04  0.7818609E-02  0.8586918E-01
       -1   -1    0    0    0  501  0.00000000000E+00  0.00000000000E+00  0.89027010299E+03  0.89027010300E+03  0.50400001928E-02 0. -1.
        1   -1    0    0  501    0  0.00000000000E+00  0.00000000000E+00 -0.11717175191E+04  0.11717175191E+04  0.50400001928E-02 0.  1.
    10030    2    1    2    0    0  0.00000000000E+00  0.00000000000E+00 -0.28144741612E+03  0.20619876221E+04  0.20426894785E+04 0.  0.
        2    1    3    3  502    0 -0.86143036004E+03 -0.13142584735E+03  0.39704755753E+03  0.95759165697E+03  0.25500000920E-02 0. -1.
       -2    1    3    3    0  502  0.86143036004E+03  0.13142584735E+03 -0.67849497365E+03  0.11043959651E+04  0.25500000920E-02 0.  1.
</event>
<event>
 5   0  0.2518686E-05  0.2803379E+04  0.7818609E-02  0.8302220E-01
        2   -1    0    0  501    0  0.00000000000E+00  0.00000000000E+00  0.17226481644E+04  0.17226481644E+04  0.25500000920E-02 0. -1.
       -2   -1    0    0    0  501  0.00000000000E+00  0.00000000000E+00 -0.11405309585E+04  0.11405309585E+04  0.25500000920E-02 0.  1.
    10030    2    1    2    0    0  0.00000000000E+00  0.00000000000E+00  0.58211720588E+03  0.28631791229E+04  0.28033790768E+04 0.  0.
        5    1    3    3  502    0  0.68663797730E+02 -0.28443524103E+03  0.16910999724E+04  0.17162340545E+04  0.46999998093E+01 0. -1.
       -5    1    3    3    0  502 -0.68663797730E+02  0.28443524103E+03 -0.11089827665E+04  0.11469450684E+04  0.46999998093E+01 0.  1.
</event>
<event>
 5   0  0.1078103E-05  0.2813170E+04  0.7818609E-02  0.8299191E-01
       -1   -1    0    0    0  501  0.00000000000E+00  0.00000000000E+00  0.99783052721E+03  0.99783052722E+03  0.50400001928E-02 0.  1.
        1   -1    0    0  501    0  0.00000000000E+00  0.00000000000E+00 -0.19827830481E+04  0.19827830481E+04  0.50400001928E-02 0. -1.
    10030    2    1    2    0    0  0.00000000000E+00  0.00000000000E+00 -0.98495252086E+03  0.29806135753E+04  0.28131700654E+04 0.  0.
        1    1    3    3  502    0  0.79051419995E+03  0.26566250857E+03  0.70763550440E+03  0.10937263259E+04  0.50400001928E-02 0.  1.
       -1    1    3    3    0  502 -0.79051419995E+03 -0.26566250857E+03 -0.16925880253E+04  0.18868872494E+04  0.50400001928E-02 0. -1.
</event>
<event>
 5   0  0.8958000E-06  0.2625130E+04  0.7818609E-02  0.8359715E-01
        3   -1    0    0  501    0  0.00000000000E+00  0.00000000000E+00  0.10230781076E+04  0.10230781126E+04  0.10100000352E+00 0. -1.
       -3   -1    0    0    0  501  0.00000000000E+00  0.00000000000E+00 -0.16839640053E+04  0.16839640084E+04  0.10100000352E+00 0.  1.
    10030    2    1    2    0    0  0.00000000000E+00  0.00000000000E+00 -0.66088589769E+03  0.27070421210E+04  0.26251298777E+04 0.  0.
        4    1    3    3  502    0  0.10507705102E+03 -0.40975873734E+03 -0.16117441334E+04  0.16663325521E+04  0.12699999809E+01 0.  1.
       -4    1    3    3    0  502 -0.10507705102E+03  0.40975873734E+03  0.95085823575E+03  0.10407095689E+04  0.12699999809E+01 0. -1.
</event>
<event>
 5   0  0.2651061E-05  0.2770448E+04  0.7818609E-02  0.8312502E-01
        2   -1    0    0  501    0  0.00000000000E+00  0.00000000000E+00  0.27728303386E+04  0.27728303386E+04  0.25500000920E-02 0.  1.
       -2   -1    0    0    0  501  0.00000000000E+00  0.00000000000E+00 -0.69201672072E+03  0.69201672073E+03  0.25500000920E-02 0. -1.
    10030    2    1    2    0    0  0.00000000000E+00  0.00000000000E+00  0.20808136179E+04  0.34648470594E+04  0.27704475870E+04 0.  0.
        3    1    3    3  502    0  0.48238092934E+02  0.13838359129E+04  0.10891049579E+04  0.17616691990E+04  0.10100000352E+00 0.  1.
       -3    1    3    3    0  502 -0.48238092934E+02 -0.13838359129E+04  0.99170866006E+03  0.17031778603E+04  0.10100000352E+00 0. -1.
</event>
<event>
 5   0  0.1067434E-05  0.2746529E+04  0.7818609E-02  0.8320064E-01
        1   -1    0    0  501    0  0.00000000000E+00  0.00000000000E+00  0.97053173390E+03  0.97053173392E+03  0.50400001928E-02 0. -1.
       -1   -1    0    0    0  501  0.00000000000E+00  0.00000000000E+00 -0.19431159045E+04  0.19431159045E+04  0.50400001928E-02 0.  1.
    10030    2    1    2    0    0  0.00000000000E+00  0.00000000000E+00 -0.97258417062E+03  0.29136476384E+04  0.27465291901E+04 0.  0.
        4    1    3    3  502    0 -0.11986883824E+04  0.33094508257E+03 -0.11043896894E+04  0.16631466215E+04  0.12699999809E+01 0.  1.
       -4    1    3    3    0  502  0.11986883824E+04 -0.33094508257E+03  0.13180551877E+03  0.12505010169E+04  0.12699999809E+01 0. -1.
</event>
<event>
 5   0  0.2624815E-05  0.2806635E+04  0.7818609E-02  0.8301212E-01
        2   -1    0    0  501    0  0.00000000000E+00  0.00000000000E+00  0.12824088817E+04  0.12824088817E+04  0.25500000920E-02 0. -1.
       -2   -1    0    0    0  501  0.00000000000E+00  0.00000000000E+00 -0.15356251517E+04  0.15356251517E+04  0.25500000920E-02 0.  1.
    10030    2    1    2    0    0  0.00000000000E+00  0.00000000000E+00 -0.25321627000E+03  0.28180340333E+04  0.28066345209E+04 0.  0.
        4    1    3    3  502    0  0.17028708430E+03  0.12975125274E+03  0.12659151784E+04  0.12838909340E+04  0.12699999809E+01 0. -1.
       -4    1    3    3    0  502 -0.17028708430E+03 -0.12975125274E+03 -0.15191314484E+04  0.15341430993E+04  0.12699999809E+01 0.  1.
</event>
<event>
 5   0  0.2697964E-05  0.2753104E+04  0.7818609E-02  0.8317977E-01
        2   -1    0    0  501    0  0.00000000000E+00  0.00000000000E+00  0.12785165243E+04  0.12785165243E+04  0.25500000920E-02 0.  1.
       -2   -1    0    0    0  501  0.00000000000E+00  0.00000000000E+00 -0.14821045053E+04  0.14821045053E+04  0.25500000920E-02 0. -1.
    10030    2    1    2    0    0  0.00000000000E+00  0.00000000000E+00 -0.20358798103E+03  0.27606210296E+04  0.27531037763E+04 0.  0.
        1    1    3    3  502    0 -0.78270186844E+02  0.57815173499E+02 -0.14786514710E+04  0.14818498538E+04  0.50400001928E-02 0. -1.
       -1    1    3    3    0  502  0.78270186844E+02 -0.57815173499E+02  0.12750634900E+04  0.12787711758E+04  0.50400001928E-02 0.  1.
</event>
<event>
 5   0  0.1105862E-05  0.2203229E+04  0.7818609E-02  0.8517085E-01
       -1   -1    0    0    0  501  0.00000000000E+00  0.00000000000E+00  0.50686252675E+03  0.50686252677E+03  0.50400001928E-02 0.  1.
        1   -1    0    0  501    0  0.00000000000E+00  0.00000000000E+00 -0.23942477664E+04  0.23942477664E+04  0.50400001928E-02 0. -1.
    10030    2    1    2    0    0  0.00000000000E+00  0.00000000000E+00 -0.18873852397E+04  0.29011102932E+04  0.22032289691E+04 0.  0.
        3    1    3    3  502    0 -0.26265731966E+03  0.41011322524E+03  0.35741262895E+03  0.60409065761E+03  0.10100000352E+00 0.  1.
       -3    1    3    3    0  502  0.26265731966E+03 -0.41011322524E+03 -0.22447978686E+04  0.22970196356E+04  0.10100000352E+00 0. -1.
</event>
<event>
 5   0  0.2651061E-05  0.2864253E+04  0.7818609E-02  0.8283594E-01
       -2   -1    0    0    0  501  0.00000000000E+00  0.00000000000E+00  0.28770783385E+04  0.28770783385E+04  0.25500000920E-02 0.  1.
        2   -1    0    0  501    0  0.00000000000E+00  0.00000000000E+00 -0.71287100709E+03  0.71287100709E+03  0.25500000920E-02 0. -1.
    10030    2    1    2    0    0  0.00000000000E+00  0.00000000000E+00  0.21642073314E+04  0.35899493456E+04  0.28642525955E+04 0.  0.
        3    1    3    3  502    0  0.47193776784E+03 -0.13471378989E+04  0.12276231335E+04  0.18827013421E+04  0.10100000352E+00 0.  1.
       -3    1    3    3    0  502 -0.47193776784E+03  0.13471378989E+04  0.93658419787E+03  0.17072480035E+04  0.10100000352E+00 0. -1.
</event>
<event>
 5   0  0.1067434E-05  0.1615568E+04  0.7818609E-02  0.8811041E-01
        1   -1    0    0  501    0  0.00000000000E+00  0.00000000000E+00  0.80322985264E+03  0.80322985265E+03  0.50400001928E-02 0.  1.
       -1   -1    0    0    0  501  0.00000000000E+00  0.00000000000E+00 -0.81236359542E+03  0.81236359544E+03  0.50400001928E-02 0. -1.
    10030    2    1    2    0    0  0.00000000000E+00  0.00000000000E+00 -0.91337427890E+01  0.16155934481E+04  0.16155676291E+04 0.  0.
        4    1    3    3  502    0  0.29223340237E+03  0.14253319786E+03  0.73490218237E+03  0.80361614251E+03  0.12699999809E+01 0.  1.
       -4    1    3    3    0  502 -0.29223340237E+03 -0.14253319786E+03 -0.74403592516E+03  0.81197730558E+03  0.12699999809E+01 0. -1.
</event>
<event>
 5   0  0.2588048E-05  0.2640186E+04  0.7818609E-02  0.8354678E-01
       -2   -1    0    0    0  501  0.00000000000E+00  0.00000000000E+00  0.15182984115E+04  0.15182984116E+04  0.25500000920E-02 0.  1.
        2   -1    0    0  501    0  0.00000000000E+00  0.00000000000E+00 -0.11477620760E+04  0.11477620760E+04  0.25500000920E-02 0. -1.
    10030    2    1    2    0    0  0.00000000000E+00  0.00000000000E+00  0.37053633553E+03  0.26660604876E+04  0.26401858547E+04 0.  0.
        2    1    3    3  502    0  0.95738091891E+03 -0.52507530541E+03  0.93440323612E+03  0.14371470725E+04  0.25500000920E-02 0.  1.
       -2    1    3    3    0  502 -0.95738091891E+03  0.52507530541E+03 -0.56386690059E+03  0.12289134151E+04  0.25500000920E-02 0. -1.
</event>
<event>
 5   0  0.1067434E-05  0.2810552E+04  0.7818609E-02  0.8300000E-01
       -1   -1    0    0    0  501  0.00000000000E+00  0.00000000000E+00  0.11901739617E+04  0.11901739617E+04  0.50400001928E-02 0.  1.
        1   -1    0    0  501    0  0.00000000000E+00  0.00000000000E+00 -0.16592537922E+04  0.16592537922E+04  0.50400001928E-02 0. -1.
    10030    2    1    2    0    0  0.00000000000E+00  0.00000000000E+00 -0.46907983053E+03  0.28494277539E+04  0.28105520165E+04 0.  0.
        4    1    3    3  502    0  0.63280861628E+03  0.52387397253E+03  0.92136574787E+03  0.12344258334E+04  0.12699999809E+01 0.  1.
       -4    1    3    3    0  502 -0.63280861628E+03 -0.52387397253E+03 -0.13904455784E+04  0.16150019205E+04  0.12699999809E+01 0. -1.
</event>
<event>
 5   0  0.1067434E-05  0.2802161E+04  0.7818609E-02  0.8302598E-01
       -1   -1    0    0    0  501  0.00000000000E+00  0.00000000000E+00  0.12861272703E+04  0.12861272703E+04  0.50400001928E-02 0.  1.
        1   -1    0    0  501    0  0.00000000000E+00  0.00000000000E+00 -0.15263083552E+04  0.15263083552E+04  0.50400001928E-02 0. -1.
    10030    2    1    2    0    0  0.00000000000E+00  0.00000000000E+00 -0.24018108489E+03  0.28124356254E+04  0.28021611648E+04 0.  0.
        4    1    3    3  502    0 -0.89732740792E+03  0.79933595064E+03 -0.84307247383E+03  0.14679602338E+04  0.12699999809E+01 0. -1.
       -4    1    3    3    0  502  0.89732740792E+03 -0.79933595064E+03  0.60289138894E+03  0.13444753916E+04  0.12699999809E+01 0.  1.
</event>
<event>
 5   0  0.1075146E-05  0.2792150E+04  0.7818609E-02  0.8305710E-01
       -1   -1    0    0    0  501  0.00000000000E+00  0.00000000000E+00  0.12367252904E+04  0.12367252904E+04  0.50400001928E-02 0.  1.
        1   -1    0    0  501    0  0.00000000000E+00  0.00000000000E+00 -0.15759563042E+04  0.15759563043E+04  0.50400001928E-02 0. -1.
    10030    2    1    2    0    0  0.00000000000E+00  0.00000000000E+00 -0.33923101384E+03  0.28126815947E+04  0.27921497224E+04 0.  0.
        2    1    3    3  502    0 -0.46406252204E+03 -0.35636300792E+03  0.11072527074E+04  0.12523406788E+04  0.25500000920E-02 0.  1.
       -2    1    3    3    0  502  0.46406252204E+03  0.35636300792E+03 -0.14464837213E+04  0.15603409158E+04  0.25500000920E-02 0. -1.
</event>
<event>
 5   0  0.2588048E-05  0.2759633E+04  0.7818609E-02  0.8315911E-01
        2   -1    0    0  501    0  0.00000000000E+00  0.00000000000E+00  0.26488551019E+04  0.26488551019E+04  0.25500000920E-02 0. -1.
       -2   -1    0    0    0  501  0.00000000000E+00  0.00000000000E+00 -0.71876099846E+03  0.71876099846E+03  0.25500000920E-02 0.  1.
    10030    2    1    2    0    0  0.00000000000E+00  0.00000000000E+00  0.19300941034E+04  0.33676161003E+04  0.27596331189E+04 0.  0.
        2    1    3    3  502    0 -0.10256052347E+04 -0.64302106929E+03  0.15691645238E+03  0.12206412111E+04  0.25500000920E-02 0.  1.
       -2    1    3    3    0  502  0.10256052347E+04  0.64302106929E+03  0.17731776510E+04  0.21469748893E+04  0.25500000920E-02 0. -1.
</event>
<event>
 5   0  0.2697964E-05  0.2477935E+04  0.7818609E-02  0.8410889E-01
       -2   -1    0    0    0  501  0.00000000000E+00  0.00000000000E+00  0.14694996392E+04  0.14694996392E+04  0.25500000920E-02 0.  1.
        2   -1    0    0  501    0  0.00000000000E+00  0.00000000000E+00 -0.10446006423E+04  0.10446006423E+04  0.25500000920E-02 0. -1.
    10030    2    1    2    0    0  0.00000000000E+00  0.00000000000E+00  0.42489899682E+03  0.25141002815E+04  0.24779348393E+04 0.  0.
        1    1    3    3  502    0 -0.11612857104E+04  0.18458074242E+02  0.65015648552E+03  0.13310254158E+04  0.50400001928E-02 0.  1.
       -1    1    3    3    0  502  0.11612857104E+04 -0.18458074242E+02 -0.22525748870E+03  0.11830748657E+04  0.50400001928E-02 0. -1.
</event>
<event>
 5   0  0.2518686E-05  0.2791091E+04  0.7818609E-02  0.8306039E-01
        2   -1    0    0  501    0  0.00000000000E+00  0.00000000000E+00  0.23750510716E+04  0.23750510716E+04  0.25500000920E-02 0.  1.
       -2   -1    0    0    0  501  0.00000000000E+00  0.00000000000E+00 -0.82000243487E+03  0.82000243488E+03  0.25500000920E-02 0. -1.
    10030    2    1    2    0    0  0.00000000000E+00  0.00000000000E+00  0.15550486367E+04  0.31950535064E+04  0.27910913003E+04 0.  0.
        5    1    3    3  502    0  0.27737383325E+03 -0.97354531078E+03  0.18771822631E+04  0.21327358144E+04  0.46999998093E+01 0.  1.
       -5    1    3    3    0  502 -0.27737383325E+03  0.97354531078E+03 -0.32213362636E+03  0.10623176920E+04  0.46999998093E+01 0. -1.
</event>
<event>
 5   0  0.2697964E-05  0.2757684E+04  0.7818609E-02  0.8316528E-01
        2   -1    0    0  501    0  0.00000000000E+00  0.00000000000E+00  0.28847586049E+04  0.28847586049E+04  0.25500000920E-02 0.  1.
       -2   -1    0    0    0  501  0.00000000000E+00  0.00000000000E+00 -0.65905157937E+03  0.65905157938E+03  0.25500000920E-02 0. -1.
    10030    2    1    2    0    0  0.00000000000E+00  0.00000000000E+00  0.22257070256E+04  0.35438101843E+04  0.27576836038E+04 0.  0.
        1    1    3    3  502    0 -0.12278611827E+04  0.38380623800E+03  0.17505558615E+04  0.21724171185E+04  0.50400001928E-02 0.  1.
       -1    1    3    3    0  502  0.12278611827E+04 -0.38380623800E+03  0.47515116403E+03  0.13713930658E+04  0.50400001928E-02 0. -1.
</event>
<event>
 5   0  0.1078103E-05  0.2817651E+04  0.7818609E-02  0.8297809E-01
        1   -1    0    0  501    0  0.00000000000E+00  0.00000000000E+00  0.27054499041E+04  0.27054499041E+04  0.50400001928E-02 0.  1.
       -1   -1    0    0    0  501  0.00000000000E+00  0.00000000000E+00 -0.73362643418E+03  0.73362643420E+03  0.50400001928E-02 0. -1.
    10030    2    1    2    0    0  0.00000000000E+00  0.00000000000E+00  0.19718234699E+04  0.34390763383E+04  0.28176511963E+04 0.  0.
        1    1    3    3  502    0 -0.79995131713E+03 -0.80427483345E+03 -0.33818360891E+02  0.11348673046E+04  0.50400001928E-02 0. -1.
       -1    1    3    3    0  502  0.79995131713E+03  0.80427483345E+03  0.20056418308E+04  0.23042090337E+04  0.50400001928E-02 0.  1.
</event>
<event>
 5   0  0.2518686E-05  0.2574261E+04  0.7818609E-02  0.8376997E-01
       -2   -1    0    0    0  501  0.00000000000E+00  0.00000000000E+00  0.11021618030E+04  0.11021618030E+04  0.25500000920E-02 0.  1.
        2   -1    0    0  501    0  0.00000000000E+00  0.00000000000E+00 -0.15031414132E+04  0.15031414132E+04  0.25500000920E-02 0. -1.
    10030    2    1    2    0    0  0.00000000000E+00  0.00000000000E+00 -0.40097961026E+03  0.26053032162E+04  0.25742610980E+04 0.  0.
        5    1    3    3  502    0  0.11446970495E+04 -0.58601218505E+03 -0.14560165537E+03  0.12942038279E+04  0.46999998093E+01 0. -1.
       -5    1    3    3    0  502 -0.11446970495E+04  0.58601218505E+03 -0.25537795489E+03  0.13110993883E+04  0.46999998093E+01 0.  1.
</event>
<event>
 5   0  0.8958000E-06  0.2773223E+04  0.7818609E-02  0.8311630E-01
       -3   -1    0    0    0  501  0.00000000000E+00  0.00000000000E+00  0.17570369077E+04  0.17570369106E+04  0.10100000352E+00 0. -1.
        3   -1    0    0  501    0  0.00000000000E+00  0.00000000000E+00 -0.10942809869E+04  0.10942809916E+04  0.10100000352E+00 0.  1.
    10030    2    1    2    0    0  0.00000000000E+00  0.00000000000E+00  0.66275592081E+03  0.28513179022E+04  0.27732234618E+04 0.  0.
        5    1    3    3  502    0 -0.46748363662E+03  0.77143174375E+03  0.14141346576E+04  0.16773332422E+04  0.46999998093E+01 0. -1.
       -5    1    3    3    0  502  0.46748363662E+03 -0.77143174375E+03 -0.75137873676E+03  0.11739846600E+04  0.46999998093E+01 0.  1.
</event>
<event>
 5   0  0.2624815E-05  0.2698338E+04  0.7818609E-02  0.8335544E-01
        2   -1    0    0  501    0  0.00000000000E+00  0.00000000000E+00  0.13248742103E+04  0.13248742103E+04  0.25500000920E-02 0.  1.
       -2   -1    0    0    0  501  0.00000000000E+00  0.00000000000E+00 -0.13739095265E+04  0.13739095265E+04  0.25500000920E-02 0. -1.
    10030    2    1    2    0    0  0.00000000000E+00  0.00000000000E+00 -0.49035316257E+02  0.26987837368E+04  0.26983382286E+04 0.  0.
        4    1    3    3  502    0  0.12578218893E+04  0.44700990197E+03 -0.22030985328E+03  0.13529492977E+04  0.12699999809E+01 0.  1.
       -4    1    3    3    0  502 -0.12578218893E+04 -0.44700990197E+03  0.17127453703E+03  0.13458344392E+04  0.12699999809E+01 0. -1.
</event>
<event>
 5   0  0.2624815E-05  0.1678881E+04  0.7818609E-02  0.8773502E-01
        2   -1    0    0  501    0  0.00000000000E+00  0.00000000000E+00  0.60342903462E+03  0.60342903462E+03  0.25500000920E-02 0.  1.
       -2   -1    0    0    0  501  0.00000000000E+00  0.00000000000E+00 -0.11677600877E+04  0.11677600877E+04  0.25500000920E-02 0. -1.
    10030    2    1    2    0    0  0.00000000000E+00  0.00000000000E+00 -0.56433105305E+03  0.17711891223E+04  0.16788809873E+04 0.  0.
        4    1    3    3  502    0 -0.66057979091E+03  0.51637832069E+03 -0.32497361078E+03  0.89923394666E+03  0.12699999809E+01 0.  1.
       -4    1    3    3    0  502  0.66057979091E+03 -0.51637832069E+03 -0.23935744227E+03  0.87195517563E+03  0.12699999809E+01 0. -1.
</event>
<event>
 5   0  0.1075146E-05  0.2656795E+04  0.7818609E-02  0.8349161E-01
       -1   -1    0    0    0  501  0.00000000000E+00  0.00000000000E+00  0.75480017474E+03  0.75480017475E+03  0.50400001928E-02 0. -1.
        1   -1    0    0  501    0  0.00000000000E+00  0.00000000000E+00 -0.23378903827E+04  0.23378903828E+04  0.50400001928E-02 0.  1.
    10030    2    1    2    0    0  0.00000000000E+00  0.00000000000E+00 -0.15830902080E+04  0.30926905575E+04  0.26567951140E+04 0.  0.
        2    1    3    3  502    0 -0.10610637725E+04 -0.45681713522E+03 -0.28124182994E+02  0.11555644482E+04  0.25500000920E-02 0. -1.
       -2    1    3    3    0  502  0.10610637725E+04  0.45681713522E+03 -0.15549660250E+04  0.19371261093E+04  0.25500000920E-02 0.  1.
</event>
<event>
 5   0  0.1105862E-05  0.2782689E+04  0.7818609E-02  0.8308663E-01
       -1   -1    0    0    0  501  0.00000000000E+00  0.00000000000E+00  0.62886643387E+03  0.62886643389E+03  0.50400001928E-02 0. -1.
        1   -1    0    0  501    0  0.00000000000E+00  0.00000000000E+00 -0.30783007824E+04  0.30783007824E+04  0.50400001928E-02 0.  1.
    10030    2    1    2    0    0  0.00000000000E+00  0.00000000000E+00 -0.24494343485E+04  0.37071672163E+04  0.27826893721E+04 0.  0.
        3    1    3    3  502    0 -0.36118622437E+03 -0.12555018479E+04 -0.18623778808E+04  0.22749047804E+04  0.10100000352E+00 0.  1.
       -3    1    3    3    0  502  0.36118622437E+03  0.12555018479E+04 -0.58705646771E+03  0.14322624359E+04  0.10100000352E+00 0. -1.
</event>
<event>
 5   0  0.1017456E-05  0.2842441E+04  0.7818609E-02  0.8290212E-01
       -1   -1    0    0    0  501  0.00000000000E+00  0.00000000000E+00  0.14230467163E+04  0.14230467163E+04  0.50400001928E-02 0. -1.
        1   -1    0    0  501    0  0.00000000000E+00  0.00000000000E+00 -0.14193962657E+04  0.14193962657E+04  0.50400001928E-02 0.  1.
    10030    2    1    2    0    0  0.00000000000E+00  0.00000000000E+00  0.36504505863E+01  0.28424429819E+04  0.28424406379E+04 0.  0.
        5    1    3    3  502    0 -0.31935077137E+02 -0.12345072486E+04 -0.70160773185E+03  0.14203180965E+04  0.46999998093E+01 0. -1.
       -5    1    3    3    0  502  0.31935077137E+02  0.12345072486E+04  0.70525818244E+03  0.14221248854E+04  0.46999998093E+01 0.  1.
</event>
<event>
 5   0  0.2624815E-05  0.2786208E+04  0.7818609E-02  0.8307563E-01
       -2   -1    0    0    0  501  0.00000000000E+00  0.00000000000E+00  0.24349712960E+04  0.24349712960E+04  0.25500000920E-02 0.  1.
        2   -1    0    0  501    0  0.00000000000E+00  0.00000000000E+00 -0.79702711467E+03  0.79702711467E+03  0.25500000920E-02 0. -1.
    10030    2    1    2    0    0  0.00000000000E+00  0.00000000000E+00  0.16379441813E+04  0.32319984107E+04  0.27862075632E+04 0.  0.
        4    1    3    3  502    0  0.80844300728E+03  0.90883024217E+03  0.31210501559E+02  0.12167695811E+04  0.12699999809E+01 0. -1.
       -4    1    3    3    0  502 -0.80844300728E+03 -0.90883024217E+03  0.16067336798E+04  0.20152288296E+04  0.12699999809E+01 0.  1.
</event>
<event>
 5   0  0.2518686E-05  0.2885072E+04  0.7818609E-02  0.8277333E-01
       -2   -1    0    0    0  501  0.00000000000E+00  0.00000000000E+00  0.18728689196E+04  0.18728689196E+04  0.25500000920E-02 0. -1.
        2   -1    0    0  501    0  0.00000000000E+00  0.00000000000E+00 -0.11110814266E+04  0.11110814266E+04  0.25500000920E-02 0.  1.
    10030    2    1    2    0    0  0.00000000000E+00  0.00000000000E+00  0.76178749305E+03  0.29839503462E+04  0.28850718335E+04 0.  0.
        5    1    3    3  502    0  0.81603280642E+03 -0.73178630635E+03  0.13508334691E+04  0.17395958986E+04  0.46999998093E+01 0. -1.
       -5    1    3    3    0  502 -0.81603280642E+03  0.73178630635E+03 -0.58904597606E+03  0.12443544476E+04  0.46999998093E+01 0.  1.
</event>
<event>
 5   0  0.2697964E-05  0.2764114E+04  0.7818609E-02  0.8314497E-01
        2   -1    0    0  501    0  0.00000000000E+00  0.00000000000E+00  0.14341472121E+04  0.14341472121E+04  0.25500000920E-02 0.  1.
       -2   -1    0    0    0  501  0.00000000000E+00  0.00000000000E+00 -0.13318588343E+04  0.13318588343E+04  0.25500000920E-02 0. -1.
    10030    2    1    2    0    0  0.00000000000E+00  0.00000000000E+00  0.10228837778E+03  0.27660060464E+04  0.27641140600E+04 0.  0.
        1    1    3    3  502    0  0.14057693782E+03  0.12377344579E+04  0.65016329003E+03  0.14051550688E+04  0.50400001928E-02 0.  1.
       -1    1    3    3    0  502 -0.14057693782E+03 -0.12377344579E+04 -0.54787491225E+03  0.13608509776E+04  0.50400001928E-02 0. -1.
</event>
<event>
 5   0  0.2697964E-05  0.2882843E+04  0.7818609E-02  0.8278001E-01
        2   -1    0    0  501    0  0.00000000000E+00  0.00000000000E+00  0.11900107445E+04  0.11900107445E+04  0.25500000920E-02 0.  1.
       -2   -1    0    0    0  501  0.00000000000E+00  0.00000000000E+00 -0.17459469536E+04  0.17459469536E+04  0.25500000920E-02 0. -1.
    10030    2    1    2    0    0  0.00000000000E+00  0.00000000000E+00 -0.55593620913E+03  0.29359576981E+04  0.28828427873E+04 0.  0.
        1    1    3    3  502    0 -0.60591074999E+03 -0.11259757216E+03 -0.16050067080E+04  0.17192593123E+04  0.50400001928E-02 0. -1.
       -1    1    3    3    0  502  0.60591074999E+03  0.11259757216E+03  0.10490704989E+04  0.12166983857E+04  0.50400001928E-02 0.  1.
</event>
<event>
 5   0  0.1017456E-05  0.2846019E+04  0.7818609E-02  0.8289122E-01
       -1   -1    0    0    0  501  0.00000000000E+00  0.00000000000E+00  0.18370542694E+04  0.18370542694E+04  0.50400001928E-02 0. -1.
        1   -1    0    0  501    0  0.00000000000E+00  0.00000000000E+00 -0.11022845448E+04  0.11022845448E+04  0.50400001928E-02 0.  1.
    10030    2    1    2    0    0  0.00000000000E+00  0.00000000000E+00  0.73476972457E+03  0.29393388142E+04  0.28460193458E+04 0.  0.
        5    1    3    3  502    0 -0.12545465020E+04 -0.63713061389E+03  0.58674529636E+03  0.15245046663E+04  0.46999998093E+01 0.  1.
       -5    1    3    3    0  502  0.12545465020E+04  0.63713061389E+03  0.14802442821E+03  0.14148341479E+04  0.46999998093E+01 0. -1.
</event>
<event>
 5   0  0.1017456E-05  0.2858121E+04  0.7818609E-02  0.8285448E-01
        1   -1    0    0  501    0  0.00000000000E+00  0.00000000000E+00  0.17206183381E+04  0.17206183381E+04  0.50400001928E-02 0. -1.
       -1   -1    0    0    0  501  0.00000000000E+00  0.00000000000E+00 -0.11869069719E+04  0.11869069719E+04  0.50400001928E-02 0.  1.
    10030    2    1    2    0    0  0.00000000000E+00  0.00000000000E+00  0.53371136624E+03  0.29075253100E+04  0.28581209922E+04 0.  0.
        5    1    3    3  502    0  0.27211338173E+03 -0.14028116622E+04  0.28343335967E+03  0.14568056877E+04  0.46999998093E+01 0.  1.
       -5    1    3    3    0  502 -0.27211338173E+03  0.14028116622E+04  0.25027800657E+03  0.14507196224E+04  0.46999998093E+01 0. -1.
</event>
<event>
 5   0  0.2624815E-05  0.2675450E+04  0.7818609E-02  0.8343015E-01
        2   -1    0    0  501    0  0.00000000000E+00  0.00000000000E+00  0.13951005489E+04  0.13951005489E+04  0.25500000920E-02 0. -1.
       -2   -1    0    0    0  501  0.00000000000E+00  0.00000000000E+00 -0.12827094804E+04  0.12827094804E+04  0.25500000920E-02 0.  1.
    10030    2    1    2    0    0  0.00000000000E+00  0.00000000000E+00  0.11239106857E+03  0.26778100293E+04  0.26754503921E+04 0.  0.
        4    1    3    3  502    0  0.12385742369E+04  0.65955415891E+02  0.55772711738E+03  0.13599549285E+04  0.12699999809E+01 0. -1.
       -4    1    3    3    0  502 -0.12385742369E+04 -0.65955415891E+02 -0.44533604881E+03  0.13178551008E+04  0.12699999809E+01 0.  1.
</event>
<event>
 5   0  0.1067434E-05  0.2602423E+04  0.7818609E-02  0.8367379E-01
       -1   -1    0    0    0  501  0.00000000000E+00  0.00000000000E+00  0.16034540166E+04  0.16034540166E+04  0.50400001928E-02 0. -1.
        1   -1    0    0  501    0  0.00000000000E+00  0.00000000000E+00 -0.10559403911E+04  0.10559403911E+04  0.50400001928E-02 0.  1.
    10030    2    1    2    0    0  0.00000000000E+00  0.00000000000E+00  0.54751362547E+03  0.26593944077E+04  0.26024233794E+04 0.  0.
        4    1    3    3  502    0  0.12152957729E+04  0.23262348526E+03 -0.13766431523E+03  0.12449942081E+04  0.12699999809E+01 0. -1.
       -4    1    3    3    0  502 -0.12152957729E+04 -0.23262348526E+03  0.68517794071E+03  0.14144001997E+04  0.12699999809E+01 0.  1.
</event>
<event>
 5   0  0.2624815E-05  0.2737015E+04  0.7818609E-02  0.8323094E-01
       -2   -1    0    0    0  501  0.00000000000E+00  0.00000000000E+00  0.58046975463E+03  0.58046975464E+03  0.25500000920E-02 0.  1.
        2   -1    0    0  501    0  0.00000000000E+00  0.00000000000E+00 -0.32263746062E+04  0.32263746062E+04  0.25500000920E-02 0. -1.
    10030    2    1    2    0    0  0.00000000000E+00  0.00000000000E+00 -0.26459048516E+04  0.38068443609E+04  0.27370150720E+04 0.  0.
        4    1    3    3  502    0 -0.87504288159E+03  0.10235347205E+04 -0.16621886580E+04  0.21392045523E+04  0.12699999809E+01 0. -1.
       -4    1    3    3    0  502  0.87504288159E+03 -0.10235347205E+04 -0.98371619363E+03  0.16676398086E+04  0.12699999809E+01 0.  1.
</event>
<event>
 5   0  0.1105862E-05  0.2794590E+04  0.7818609E-02  0.8304950E-01
       -1   -1    0    0    0  501  0.00000000000E+00  0.00000000000E+00  0.97131301106E+03  0.97131301107E+03  0.50400001928E-02 0.  1.
        1   -1    0    0  501    0  0.00000000000E+00  0.00000000000E+00 -0.20100971666E+04  0.20100971666E+04  0.50400001928E-02 0. -1.
    10030    2    1    2    0    0  0.00000000000E+00  0.00000000000E+00 -0.10387841555E+04  0.29814101776E+04  0.27945901534E+04 0.  0.
        3    1    3    3  502    0 -0.79297009845E+02  0.66585181686E+03 -0.18272251038E+04  0.19463808076E+04  0.10100000352E+00 0. -1.
       -3    1    3    3    0  502  0.79297009845E+02 -0.66585181686E+03  0.78844094831E+03  0.10350293701E+04  0.10100000352E+00 0.  1.
</event>
<event>
 5   0  0.1067434E-05  0.2786897E+04  0.7818609E-02  0.8307348E-01
       -1   -1    0    0    0  501  0.00000000000E+00  0.00000000000E+00  0.11857067652E+04  0.11857067652E+04  0.50400001928E-02 0. -1.
        1   -1    0    0  501    0  0.00000000000E+00  0.00000000000E+00 -0.16375878723E+04  0.16375878723E+04  0.50400001928E-02 0.  1.
    10030    2    1    2    0    0  0.00000000000E+00  0.00000000000E+00 -0.45188110712E+03  0.28232946375E+04  0.27868972129E+04 0.  0.
        4    1    3    3  502    0 -0.77501888315E+03  0.10614592246E+04  0.24308274199E+03  0.13365780138E+04  0.12699999809E+01 0. -1.
       -4    1    3    3    0  502  0.77501888315E+03 -0.10614592246E+04 -0.69496384911E+03  0.14867166237E+04  0.12699999809E+01 0.  1.
</event>
<event>
 5   0  0.1075146E-05  0.2802037E+04  0.7818609E-02  0.8302636E-01
       -1   -1    0    0    0  501  0.00000000000E+00  0.00000000000E+00  0.10344806576E+04  0.10344806577E+04  0.50400001928E-02 0. -1.
        1   -1    0    0  501    0  0.00000000000E+00  0.00000000000E+00 -0.18974281465E+04  0.18974281465E+04  0.50400001928E-02 0.  1.
    10030    2    1    2    0    0  0.00000000000E+00  0.00000000000E+00 -0.86294748887E+03  0.29319088042E+04  0.28020369140E+04 0.  0.
        2    1    3    3  502    0 -0.12159166250E+04  0.64790553170E+03 -0.69745622058E+03  0.15442409128E+04  0.25500000920E-02 0.  1.
       -2    1    3    3    0  502  0.12159166250E+04 -0.64790553170E+03 -0.16549126829E+03  0.13876678914E+04  0.25500000920E-02 0. -1.
</event>
<event>
 5   0  0.2697964E-05  0.2534613E+04  0.7818609E-02  0.8390757E-01
       -2   -1    0    0    0  501  0.00000000000E+00  0.00000000000E+00  0.16742340528E+04  0.16742340528E+04  0.25500000920E-02 0. -1.
        2   -1    0    0  501    0  0.00000000000E+00  0.00000000000E+00 -0.95928426693E+03  0.95928426693E+03  0.25500000920E-02 0.  1.
    10030    2    1    2    0    0  0.00000000000E+00  0.00000000000E+00  0.71494978588E+03  0.26335183197E+04  0.25346134901E+04 0.  0.
        1    1    3    3  502    0 -0.78654452995E+03 -0.32299845765E+03  0.13338711873E+04  0.15818320536E+04  0.50400001928E-02 0. -1.
       -1    1    3    3    0  502  0.78654452995E+03  0.32299845765E+03 -0.61892140147E+03  0.10516862662E+04  0.50400001928E-02 0.  1.
</event>
<event>
 5   0  0.1078103E-05  0.2771740E+04  0.7818609E-02  0.8312096E-01
        1   -1    0    0  501    0  0.00000000000E+00  0.00000000000E+00  0.14443769409E+04  0.14443769409E+04  0.50400001928E-02 0.  1.
       -1   -1    0    0    0  501  0.00000000000E+00  0.00000000000E+00 -0.13297333327E+04  0.13297333327E+04  0.50400001928E-02 0. -1.
    10030    2    1    2    0    0  0.00000000000E+00  0.00000000000E+00  0.11464360825E+03  0.27741102736E+04  0.27717403654E+04 0.  0.
        1    1    3    3  502    0 -0.64610878413E+02 -0.15333276078E+03  0.14343436222E+04  0.14439623014E+04  0.50400001928E-02 0.  1.
       -1    1    3    3    0  502  0.64610878413E+02  0.15333276078E+03 -0.13197000140E+04  0.13301479722E+04  0.50400001928E-02 0. -1.
</event>
<event>
 5   0  0.2697964E-05  0.2797561E+04  0.7818609E-02  0.8304026E-01
        2   -1    0    0  501    0  0.00000000000E+00  0.00000000000E+00  0.13167615816E+04  0.13167615816E+04  0.25500000920E-02 0. -1.
       -2   -1    0    0    0  501  0.00000000000E+00  0.00000000000E+00 -0.14859081051E+04  0.14859081051E+04  0.25500000920E-02 0.  1.
    10030    2    1    2    0    0  0.00000000000E+00  0.00000000000E+00 -0.16914652350E+03  0.28026696867E+04  0.27975608709E+04 0.  0.
        1    1    3    3  502    0  0.45452418568E+03 -0.72688055911E+03 -0.11918695339E+04  0.14681623100E+04  0.50400001928E-02 0.  1.
       -1    1    3    3    0  502 -0.45452418568E+03  0.72688055911E+03  0.10227230104E+04  0.13345073767E+04  0.50400001928E-02 0. -1.
</event>
<event>
 5   0  0.2588048E-05  0.2755254E+04  0.7818609E-02  0.8317296E-01
       -2   -1    0    0    0  501  0.00000000000E+00  0.00000000000E+00  0.13015548625E+04  0.13015548625E+04  0.25500000920E-02 0. -1.
        2   -1    0    0  501    0  0.00000000000E+00  0.00000000000E+00 -0.14581449938E+04  0.14581449938E+04  0.25500000920E-02 0.  1.
    10030    2    1    2    0    0  0.00000000000E+00  0.00000000000E+00 -0.15659013128E+03  0.27596998563E+04  0.27552536775E+04 0.  0.
        2    1    3    3  502    0 -0.65709846690E+02  0.13704211339E+04  0.46339808904E+02  0.13727779303E+04  0.25500000920E-02 0. -1.
       -2    1    3    3    0  502  0.65709846690E+02 -0.13704211339E+04 -0.20292994018E+03  0.13869219260E+04  0.25500000920E-02 0.  1.
</event>
<event>
 5   0  0.2624815E-05  0.2713989E+04  0.7818609E-02  0.8330480E-01
       -2   -1    0    0    0  501  0.00000000000E+00  0.00000000000E+00  0.10031041543E+04  0.10031041543E+04  0.25500000920E-02 0. -1.
        2   -1    0    0  501    0  0.00000000000E+00  0.00000000000E+00 -0.18357357966E+04  0.18357357966E+04  0.25500000920E-02 0.  1.
    10030    2    1    2    0    0  0.00000000000E+00  0.00000000000E+00 -0.83263164229E+03  0.28388399509E+04  0.27139890963E+04 0.  0.
        4    1    3    3  502    0  0.12613561863E+04 -0.69673155919E+02 -0.93465086652E+03  0.15714476232E+04  0.12699999809E+01 0.  1.
       -4    1    3    3    0  502 -0.12613561863E+04  0.69673155919E+02  0.10201922423E+03  0.12673923277E+04  0.12699999809E+01 0. -1.
</event>
<event>
 5   0  0.1067434E-05  0.2645489E+04  0.7818609E-02  0.8352912E-01
        1   -1    0    0  501    0  0.00000000000E+00  0.00000000000E+00  0.32293841054E+04  0.32293841054E+04  0.50400001928E-02 0. -1.
       -1   -1    0    0    0  501  0.00000000000E+00  0.00000000000E+00 -0.54179151865E+03  0.54179151868E+03  0.50400001928E-02 0.  1.
    10030    2    1    2    0    0  0.00000000000E+00  0.00000000000E+00  0.26875925867E+04  0.37711756241E+04  0.26454889293E+04 0.  0.
        4    1    3    3  502    0 -0.41464220428E+03  0.12558895282E+04  0.13745239698E+04  0.19074864144E+04  0.12699999809E+01 0.  1.
       -4    1    3    3    0  502  0.41464220428E+03 -0.12558895282E+04  0.13130686170E+04  0.18636892097E+04  0.12699999809E+01 0. -1.
</event>
<event>
 5   0  0.1078103E-05  0.2897229E+04  0.7818609E-02  0.8273702E-01
        1   -1    0    0  501    0  0.00000000000E+00  0.00000000000E+00  0.23569607928E+04  0.23569607928E+04  0.50400001928E-02 0.  1.
       -1   -1    0    0    0  501  0.00000000000E+00  0.00000000000E+00 -0.89033456859E+03  0.89033456860E+03  0.50400001928E-02 0. -1.
    10030    2    1    2    0    0  0.00000000000E+00  0.00000000000E+00  0.14666262242E+04  0.32472953614E+04  0.28972287937E+04 0.  0.
        1    1    3    3  502    0 -0.61976977519E+03 -0.37216531934E+03  0.21403260823E+04  0.22591187082E+04  0.50400001928E-02 0.  1.
       -1    1    3    3    0  502  0.61976977519E+03  0.37216531934E+03 -0.67369985808E+03  0.98817665321E+03  0.50400001928E-02 0. -1.
</event>
<event>
 5   0  0.2624815E-05  0.2746873E+04  0.7818609E-02  0.8319955E-01
       -2   -1    0    0    0  501  0.00000000000E+00  0.00000000000E+00  0.14434522302E+04  0.14434522302E+04  0.25500000920E-02 0.  1.
        2   -1    0    0  501    0  0.00000000000E+00  0.00000000000E+00 -0.13068169654E+04  0.13068169654E+04  0.25500000920E-02 0. -1.
    10030    2    1    2    0    0  0.00000000000E+00  0.00000000000E+00  0.13663526480E+03  0.27502691957E+04  0.27468730318E+04 0.  0.
        4    1    3    3  502    0  0.11448135120E+04  0.74174534735E+03 -0.91698963749E+02  0.13671848633E+04  0.12699999809E+01 0. -1.
       -4    1    3    3    0  502 -0.11448135120E+04 -0.74174534735E+03  0.22833422855E+03  0.13830843324E+04  0.12699999809E+01 0.  1.
</event>
<event>
 5   0  0.2518686E-05  0.2411032E+04  0.7818609E-02  0.8435385E-01
        2   -1    0    0  501    0  0.00000000000E+00  0.00000000000E+00  0.10590556129E+04  0.10590556129E+04  0.25500000920E-02 0. -1.
       -2   -1    0    0    0  501  0.00000000000E+00  0.00000000000E+00 -0.13722312046E+04  0.13722312046E+04  0.25500000920E-02 0.  1.
    10030    2    1    2    0    0  0.00000000000E+00  0.00000000000E+00 -0.31317559164E+03  0.24312868175E+04  0.24110322764E+04 0.  0.
        5    1    3    3  502    0 -0.64342790089E+03  0.10190358199E+04 -0.18535115305E+03  0.12193484350E+04  0.46999998093E+01 0.  1.
       -5    1    3    3    0  502  0.64342790089E+03 -0.10190358199E+04 -0.12782443859E+03  0.12119383825E+04  0.46999998093E+01 0. -1.
</event>
<event>
 5   0  0.1075146E-05  0.2792263E+04  0.7818609E-02  0.8305674E-01
       -1   -1    0    0    0  501  0.00000000000E+00  0.00000000000E+00  0.10790161174E+04  0.10790161174E+04  0.50400001928E-02 0.  1.
        1   -1    0    0  501    0  0.00000000000E+00  0.00000000000E+00 -0.18064448772E+04  0.18064448772E+04  0.50400001928E-02 0. -1.
    10030    2    1    2    0    0  0.00000000000E+00  0.00000000000E+00 -0.72742875982E+03  0.28854609947E+04  0.27922629803E+04 0.  0.
        2    1    3    3  502    0  0.44845024879E+03  0.10537694255E+04 -0.11888940930E+04  0.16507594592E+04  0.25500000920E-02 0. -1.
       -2    1    3    3    0  502 -0.44845024879E+03 -0.10537694255E+04  0.46146533322E+03  0.12347015354E+04  0.25500000920E-02 0.  1.
</event>
<event>
 5   0  0.1105862E-05  0.2677315E+04  0.7818609E-02  0.8342403E-01
       -1   -1    0    0    0  501  0.00000000000E+00  0.00000000000E+00  0.12662470852E+04  0.12662470852E+04  0.50400001928E-02 0.  1.
        1   -1    0    0  501    0  0.00000000000E+00  0.00000000000E+00 -0.14152083892E+04  0.14152083893E+04  0.50400001928E-02 0. -1.
    10030    2    1    2    0    0  0.00000000000E+00  0.00000000000E+00 -0.14896130403E+03  0.26814554745E+04  0.26773146979E+04 0.  0.
        3    1    3    3  502    0  0.11762651888E+04  0.59998028127E+03  0.14592186224E+03  0.13284838472E+04  0.10100000352E+00 0.  1.
       -3    1    3    3    0  502 -0.11762651888E+04 -0.59998028127E+03 -0.29488316627E+03  0.13529716273E+04  0.10100000352E+00 0. -1.
</event>
<event>
 5   0  0.2588048E-05  0.2988508E+04  0.7818609E-02  0.8247020E-01
        2   -1    0    0  501    0  0.00000000000E+00  0.00000000000E+00  0.16544208599E+04  0.16544208599E+04  0.25500000920E-02 0.  1.
       -2   -1    0    0    0  501  0.00000000000E+00  0.00000000000E+00 -0.13495929273E+04  0.13495929273E+04  0.25500000920E-02 0. -1.
    10030    2    1    2    0    0  0.00000000000E+00  0.00000000000E+00  0.30482793263E+03  0.30040137872E+04  0.29885077823E+04 0.  0.
        2    1    3    3  502    0 -0.46557938095E+03  0.49114384075E+03  0.14915455435E+04  0.16378933239E+04  0.25500000920E-02 0.  1.
       -2    1    3    3    0  502  0.46557938095E+03 -0.49114384075E+03 -0.11867176108E+04  0.13661204633E+04  0.25500000920E-02 0. -1.
</event>
<event>
 5   0  0.2624815E-05  0.1473506E+04  0.7818609E-02  0.8902265E-01
        2   -1    0    0  501    0  0.00000000000E+00  0.00000000000E+00  0.76987189196E+03  0.76987189197E+03  0.25500000920E-02 0. -1.
       -2   -1    0    0    0  501  0.00000000000E+00  0.00000000000E+00 -0.70505907168E+03  0.70505907168E+03  0.25500000920E-02 0.  1.
    10030    2    1    2    0    0  0.00000000000E+00  0.00000000000E+00  0.64812820286E+02  0.14749309637E+04  0.14735062422E+04 0.  0.
        4    1    3    3  502    0  0.70414044947E+03 -0.25979508962E+02  0.24782332522E+03  0.74693153695E+03  0.12699999809E+01 0.  1.
       -4    1    3    3    0  502 -0.70414044947E+03  0.25979508962E+02 -0.18301050493E+03  0.72799942670E+03  0.12699999809E+01 0. -1.
</event>
<event>
 5   0  0.1078103E-05  0.2537452E+04  0.7818609E-02  0.8389763E-01
       -1   -1    0    0    0  501  0.00000000000E+00  0.00000000000E+00  0.93328468807E+03  0.93328468808E+03  0.50400001928E-02 0. -1.
        1   -1    0    0  501    0  0.00000000000E+00  0.00000000000E+00 -0.17247322354E+04  0.17247322354E+04  0.50400001928E-02 0.  1.
    10030    2    1    2    0    0  0.00000000000E+00  0.00000000000E+00 -0.79144754737E+03  0.26580169235E+04  0.25374524125E+04 0.  0.
        1    1    3    3  502    0  0.93222955752E+03  0.67843516774E+03  0.15890492804E+03  0.11638629648E+04  0.50400001928E-02 0. -1.
       -1    1    3    3    0  502 -0.93222955752E+03 -0.67843516774E+03 -0.95035247541E+03  0.14941539587E+04  0.50400001928E-02 0.  1.
</event>
<event>
 5   0  0.1078103E-05  0.2396376E+04  0.7818609E-02  0.8440862E-01
        1   -1    0    0  501    0  0.00000000000E+00  0.00000000000E+00  0.25826191518E+04  0.25826191518E+04  0.50400001928E-02 0.  1.
       -1   -1    0    0    0  501  0.00000000000E+00  0.00000000000E+00 -0.55589092359E+03  0.55589092362E+03  0.50400001928E-02 0. -1.
    10030    2    1    2    0    0  0.00000000000E+00  0.00000000000E+00  0.20267282282E+04  0.31385100755E+04  0.23963760520E+04 0.  0.
        1    1    3    3  502    0 -0.24645725214E+03  0.11299928292E+04  0.60330439035E+03  0.13044543529E+04  0.50400001928E-02 0. -1.
       -1    1    3    3    0  502  0.24645725214E+03 -0.11299928292E+04  0.14234238379E+04  0.18340557226E+04  0.50400001928E-02 0.  1.
</event>
<event>
 5   0  0.2651061E-05  0.2785585E+04  0.7818609E-02  0.8307758E-01
       -2   -1    0    0    0  501  0.00000000000E+00  0.00000000000E+00  0.10952476317E+04  0.10952476317E+04  0.25500000920E-02 0.  1.
        2   -1    0    0  501    0  0.00000000000E+00  0.00000000000E+00 -0.17711707991E+04  0.17711707991E+04  0.25500000920E-02 0. -1.
    10030    2    1    2    0    0  0.00000000000E+00  0.00000000000E+00 -0.67592316734E+03  0.28664184308E+04  0.27855847666E+04 0.  0.
        3    1    3    3  502    0  0.24648898454E+03 -0.12015489804E+03  0.10671957960E+04  0.11018624670E+04  0.10100000352E+00 0.  1.
       -3    1    3    3    0  502 -0.24648898454E+03  0.12015489804E+03 -0.17431189633E+04  0.17645559638E+04  0.10100000352E+00 0. -1.
</event>
<event>
 5   0  0.1067434E-05  0.2751568E+04  0.7818609E-02  0.8318464E-01
        1   -1    0    0  501    0  0.00000000000E+00  0.00000000000E+00  0.29752773474E+04  0.29752773474E+04  0.50400001928E-02 0.  1.
       -1   -1    0    0    0  501  0.00000000000E+00  0.00000000000E+00 -0.63616957755E+03  0.63616957757E+03  0.50400001928E-02 0. -1.
    10030    2    1    2    0    0  0.00000000000E+00  0.00000000000E+00  0.23391077698E+04  0.36114469249E+04  0.27515675047E+04 0.  0.
        4    1    3    3  502    0  0.20220765161E+03 -0.10082961495E+04  0.23690647196E+04  0.25826378604E+04  0.12699999809E+01 0.  1.
       -4    1    3    3    0  502 -0.20220765161E+03  0.10082961495E+04 -0.29956949819E+02  0.10288090645E+04  0.12699999809E+01 0. -1.
</event>
<event>
 5   0  0.1078103E-05  0.2846675E+04  0.7818609E-02  0.8288923E-01
       -1   -1    0    0    0  501  0.00000000000E+00  0.00000000000E+00  0.12450094337E+04  0.12450094337E+04  0.50400001928E-02 0.  1.
        1   -1    0    0  501    0  0.00000000000E+00  0.00000000000E+00 -0.16272078114E+04  0.16272078114E+04  0.50400001928E-02 0. -1.
    10030    2    1    2    0    0  0.00000000000E+00  0.00000000000E+00 -0.38219837770E+03  0.28722172451E+04  0.28466746044E+04 0.  0.
        1    1    3    3  502    0  0.28000365770E+03 -0.12989686489E+04  0.32354368166E+03  0.13676264524E+04  0.50400001928E-02 0.  1.
       -1    1    3    3    0  502 -0.28000365770E+03  0.12989686489E+04 -0.70574205936E+03  0.15045907927E+04  0.50400001928E-02 0. -1.
</event>
<event>
 5   0  0.1078103E-05  0.2761166E+04  0.7818609E-02  0.8315427E-01
        1   -1    0    0  501    0  0.00000000000E+00  0.00000000000E+00  0.19235343395E+04  0.19235343395E+04  0.50400001928E-02 0. -1.
       -1   -1    0    0    0  501  0.00000000000E+00  0.00000000000E+00 -0.99088943816E+03  0.99088943818E+03  0.50400001928E-02 0.  1.
    10030    2    1    2    0    0  0.00000000000E+00  0.00000000000E+00  0.93264490137E+03  0.29144237777E+04  0.27611663195E+04 0.  0.
        1    1    3    3  502    0 -0.64927861490E+03 -0.12104329282E+04  0.61295505535E+03  0.15041357961E+04  0.50400001928E-02 0.  1.
       -1    1    3    3    0  502  0.64927861490E+03  0.12104329282E+04  0.31968984602E+03  0.14102879816E+04  0.50400001928E-02 0. -1.
</event>
<event>
 5   0  0.1105862E-05  0.2658698E+04  0.7818609E-02  0.8348532E-01
        1   -1    0    0  501    0  0.00000000000E+00  0.00000000000E+00  0.11098560423E+04  0.11098560423E+04  0.50400001928E-02 0. -1.
       -1   -1    0    0    0  501  0.00000000000E+00  0.00000000000E+00 -0.15922503400E+04  0.15922503400E+04  0.50400001928E-02 0.  1.
    10030    2    1    2    0    0  0.00000000000E+00  0.00000000000E+00 -0.48239429771E+03  0.27021063822E+04  0.26586979224E+04 0.  0.
        3    1    3    3  502    0  0.10000513054E+04  0.42797509650E+03  0.53541455614E+03  0.12124083693E+04  0.10100000352E+00 0. -1.
       -3    1    3    3    0  502 -0.10000513054E+04 -0.42797509650E+03 -0.10178088539E+04  0.14896980130E+04  0.10100000352E+00 0.  1.
</event>
<event>
 5   0  0.2518686E-05  0.2791133E+04  0.7818609E-02  0.8306026E-01
        2   -1    0    0  501    0  0.00000000000E+00  0.00000000000E+00  0.27982591135E+04  0.27982591135E+04  0.25500000920E-02 0. -1.
       -2   -1    0    0    0  501  0.00000000000E+00  0.00000000000E+00 -0.69600650492E+03  0.69600650492E+03  0.25500000920E-02 0.  1.
    10030    2    1    2    0    0  0.00000000000E+00  0.00000000000E+00  0.21022526086E+04  0.34942656184E+04  0.27911334941E+04 0.  0.
        5    1    3    3  502    0  0.32634317009E+03  0.13547631011E+04  0.11456566047E+04  0.18040050085E+04  0.46999998093E+01 0.  1.
       -5    1    3    3    0  502 -0.32634317009E+03 -0.13547631011E+04  0.95659600387E+03  0.16902606099E+04  0.46999998093E+01 0. -1.
</event>
<event>
 5   0  0.1067434E-05  0.2850058E+04  0.7818609E-02  0.8287894E-01
        1   -1    0    0  501    0  0.00000000000E+00  0.00000000000E+00  0.16946572086E+04  0.16946572086E+04  0.50400001928E-02 0. -1.
       -1   -1    0    0    0  501  0.00000000000E+00  0.00000000000E+00 -0.11982997449E+04  0.11982997449E+04  0.50400001928E-02 0.  1.
    10030    2    1    2    0    0  0.00000000000E+00  0.00000000000E+00  0.49635746369E+03  0.28929569535E+04  0.28500577544E+04 0.  0.
        4    1    3    3  502    0 -0.40915740595E+03  0.43426330039E+03 -0.10654065839E+04  0.12211008144E+04  0.12699999809E+01 0.  1.
       -4    1    3    3    0  502  0.40915740595E+03 -0.43426330039E+03  0.15617640476E+04  0.16718561392E+04  0.12699999809E+01 0. -1.
</event>
<event>
 5   0  0.1078103E-05  0.2601604E+04  0.7818609E-02  0.8367656E-01
       -1   -1    0    0    0  501  0.00000000000E+00  0.00000000000E+00  0.11569233239E+04  0.11569233239E+04  0.50400001928E-02 0.  1.
        1   -1    0    0  501    0  0.00000000000E+00  0.00000000000E+00 -0.14625742248E+04  0.14625742248E+04  0.50400001928E-02 0. -1.
    10030    2    1    2    0    0  0.00000000000E+00  0.00000000000E+00 -0.30565090092E+03  0.26194975487E+04  0.26016043001E+04 0.  0.
        1    1    3    3  502    0  0.10738177963E+02  0.74455399090E+03 -0.12267493527E+04  0.14350574651E+04  0.50400001928E-02 0. -1.
       -1    1    3    3    0  502 -0.10738177963E+02 -0.74455399090E+03  0.92109845173E+03  0.11844400836E+04  0.50400001928E-02 0.  1.
</event>
<event>
 5   0  0.1078103E-05  0.2421902E+04  0.7818609E-02  0.8431349E-01
        1   -1    0    0  501    0  0.00000000000E+00  0.00000000000E+00  0.15387367182E+04  0.15387367182E+04  0.50400001928E-02 0.  1.
       -1   -1    0    0    0  501  0.00000000000E+00  0.00000000000E+00 -0.95299120489E+03  0.95299120491E+03  0.50400001928E-02 0. -1.
    10030    2    1    2    0    0  0.00000000000E+00  0.00000000000E+00  0.58574551333E+03  0.24917279231E+04  0.24219021938E+04 0.  0.
        1    1    3    3  502    0  0.88604050448E+03 -0.57107498694E+03  0.90604921829E+03  0.13900070512E+04  0.50400001928E-02 0.  1.
       -1    1    3    3    0  502 -0.88604050448E+03  0.57107498694E+03 -0.32030370496E+03  0.11017208720E+04  0.50400001928E-02 0. -1.
</event>
<event>
 5   0  0.2518686E-05  0.2776555E+04  0.7818609E-02  0.8310584E-01
       -2   -1    0    0    0  501  0.00000000000E+00  0.00000000000E+00  0.13736229651E+04  0.13736229651E+04  0.25500000920E-02 0.  1.
        2   -1    0    0  501    0  0.00000000000E+00  0.00000000000E+00 -0.14030881592E+04  0.14030881592E+04  0.25500000920E-02 0. -1.
    10030    2    1    2    0    0  0.00000000000E+00  0.00000000000E+00 -0.29465194163E+02  0.27767111243E+04  0.27765547843E+04 0.  0.
        5    1    3    3  502    0 -0.83537486921E+03 -0.44348755342E+03 -0.10310376459E+04  0.13991401286E+04  0.46999998093E+01 0. -1.
       -5    1    3    3    0  502  0.83537486921E+03  0.44348755342E+03  0.10015724518E+04  0.13775709957E+04  0.46999998093E+01 0.  1.
</event>
<event>
 5   0  0.2624815E-05  0.2780516E+04  0.7818609E-02  0.8309343E-01
       -2   -1    0    0    0  501  0.00000000000E+00  0.00000000000E+00  0.13099626767E+04  0.13099626767E+04  0.25500000920E-02 0. -1.
        2   -1    0    0  501    0  0.00000000000E+00  0.00000000000E+00 -0.14754752257E+04  0.14754752257E+04  0.25500000920E-02 0.  1.
    10030    2    1    2    0    0  0.00000000000E+00  0.00000000000E+00 -0.16551254896E+03  0.27854379025E+04  0.27805161220E+04 0.  0.
        4    1    3    3  502    0 -0.10161419905E+04 -0.90059580079E+03 -0.38194614948E+03  0.14104970100E+04  0.12699999809E+01 0.  1.
       -4    1    3    3    0  502  0.10161419905E+04  0.90059580079E+03  0.21643360053E+03  0.13749408924E+04  0.12699999809E+01 0. -1.
</event>
<event>
 5   0  0.1017456E-05  0.2956191E+04  0.7818609E-02  0.8256353E-01
       -1   -1    0    0    0  501  0.00000000000E+00  0.00000000000E+00  0.29887888770E+04  0.29887888770E+04  0.50400001928E-02 0. -1.
        1   -1    0    0  501    0  0.00000000000E+00  0.00000000000E+00 -0.73098699544E+03  0.73098699545E+03  0.50400001928E-02 0.  1.
    10030    2    1    2    0    0  0.00000000000E+00  0.00000000000E+00  0.22578018815E+04  0.37197758724E+04  0.29561906577E+04 0.  0.
        5    1    3    3  502    0  0.10736810799E+04 -0.83953871132E+03  0.40921537021E+03  0.14230585435E+04  0.46999998093E+01 0.  1.
       -5    1    3    3    0  502 -0.10736810799E+04  0.83953871132E+03  0.18485865113E+04  0.22967173289E+04  0.46999998093E+01 0. -1.
</event>
<event>
 5   0  0.2624815E-05  0.2871188E+04  0.7818609E-02  0.8281502E-01
        2   -1    0    0  501    0  0.00000000000E+00  0.00000000000E+00  0.13221857709E+04  0.13221857709E+04  0.25500000920E-02 0. -1.
       -2   -1    0    0    0  501  0.00000000000E+00  0.00000000000E+00 -0.15587291182E+04  0.15587291182E+04  0.25500000920E-02 0.  1.
    10030    2    1    2    0    0  0.00000000000E+00  0.00000000000E+00 -0.23654334734E+03  0.28809148891E+04  0.28711875318E+04 0.  0.
        4    1    3    3  502    0  0.67747242802E+03 -0.11957328973E+03  0.11460214691E+04  0.13366500974E+04  0.12699999809E+01 0. -1.
       -4    1    3    3    0  502 -0.67747242802E+03  0.11957328973E+03 -0.13825648164E+04  0.15442647917E+04  0.12699999809E+01 0.  1.
</event>
<event>
 5   0  0.1105862E-05  0.2424659E+04  0.7818609E-02  0.8430329E-01
        1   -1    0    0  501    0  0.00000000000E+00  0.00000000000E+00  0.14068848265E+04  0.14068848265E+04  0.50400001928E-02 0.  1.
       -1   -1    0    0    0  501  0.00000000000E+00  0.00000000000E+00 -0.10446787265E+04  0.10446787265E+04  0.50400001928E-02 0. -1.
    10030    2    1    2    0    0  0.00000000000E+00  0.00000000000E+00  0.36220609994E+03  0.24515635530E+04  0.24246588617E+04 0.  0.
        3    1    3    3  502    0 -0.26060135001E+03  0.47531112749E+02  0.13772647199E+04  0.14025086057E+04  0.10100000352E+00 0.  1.
       -3    1    3    3    0  502  0.26060135001E+03 -0.47531112749E+02 -0.10150586199E+04  0.10490549473E+04  0.10100000352E+00 0. -1.
</event>
<event>
 5   0  0.2588048E-05  0.2748032E+04  0.7818609E-02  0.8319586E-01
       -2   -1    0    0    0  501  0.00000000000E+00  0.00000000000E+00  0.91687985176E+03  0.91687985176E+03  0.25500000920E-02 0.  1.
        2   -1    0    0  501    0  0.00000000000E+00  0.00000000000E+00 -0.20590699538E+04  0.20590699538E+04  0.25500000920E-02 0. -1.
    10030    2    1    2    0    0  0.00000000000E+00  0.00000000000E+00 -0.11421901020E+04  0.29759498055E+04  0.27480318441E+04 0.  0.
        2    1    3    3  502    0 -0.12161421884E+04  0.44766078238E+03 -0.10656053736E+04  0.16777713821E+04  0.25500000920E-02 0. -1.
       -2    1    3    3    0  502  0.12161421884E+04 -0.44766078238E+03 -0.76584728424E+02  0.12981784234E+04  0.25500000920E-02 0.  1.
</event>
<event>
 5   0  0.2697964E-05  0.2841620E+04  0.7818609E-02  0.8290462E-01
        2   -1    0    0  501    0  0.00000000000E+00  0.00000000000E+00  0.11038402287E+04  0.11038402287E+04  0.25500000920E-02 0.  1.
       -2   -1    0    0    0  501  0.00000000000E+00  0.00000000000E+00 -0.18287988159E+04  0.18287988159E+04  0.25500000920E-02 0. -1.
    10030    2    1    2    0    0  0.00000000000E+00  0.00000000000E+00 -0.72495858722E+03  0.29326390445E+04  0.28416204554E+04 0.  0.
        1    1    3    3  502    0  0.75079150470E+03 -0.87808415495E+03  0.49104304081E+03  0.12553258281E+04  0.50400001928E-02 0. -1.
       -1    1    3    3    0  502 -0.75079150470E+03  0.87808415495E+03 -0.12160016280E+04  0.16773132165E+04  0.50400001928E-02 0.  1.
</event>
<event>
 5   0  0.1067434E-05  0.2755408E+04  0.7818609E-02  0.8317248E-01
        1   -1    0    0  501    0  0.00000000000E+00  0.00000000000E+00  0.24085607583E+04  0.24085607583E+04  0.50400001928E-02 0.  1.
       -1   -1    0    0    0  501  0.00000000000E+00  0.00000000000E+00 -0.78805066806E+03  0.78805066808E+03  0.50400001928E-02 0. -1.
    10030    2    1    2    0    0  0.00000000000E+00  0.00000000000E+00  0.16205100902E+04  0.31966114264E+04  0.27554077119E+04 0.  0.
        4    1    3    3  502    0  0.14795198298E+03 -0.54373527457E+03  0.22687506968E+04  0.23376845756E+04  0.12699999809E+01 0.  1.
       -4    1    3    3    0  502 -0.14795198298E+03  0.54373527457E+03 -0.64824060654E+03  0.85892685076E+03  0.12699999809E+01 0. -1.
</event>
<event>
 5   0  0.2697964E-05  0.2729394E+04  0.7818609E-02  0.8325530E-01
       -2   -1    0    0    0  501  0.00000000000E+00  0.00000000000E+00  0.20081120849E+04  0.20081120849E+04  0.25500000920E-02 0. -1.
        2   -1    0    0  501    0  0.00000000000E+00  0.00000000000E+00 -0.92743708439E+03  0.92743708439E+03  0.25500000920E-02 0.  1.
    10030    2    1    2    0    0  0.00000000000E+00  0.00000000000E+00  0.10806750005E+04  0.29355491693E+04  0.27293937914E+04 0.  0.
        1    1    3    3  502    0 -0.11551216774E+04  0.71947327285E+03  0.43039240953E+03  0.14273000757E+04  0.50400001928E-02 0. -1.
       -1    1    3    3    0  502  0.11551216774E+04 -0.71947327285E+03  0.65028259099E+03  0.15082490935E+04  0.50400001928E-02 0.  1.
</event>
<event>
 5   0  0.1075146E-05  0.2300318E+04  0.7818609E-02  0.8477796E-01
       -1   -1    0    0    0  501  0.00000000000E+00  0.00000000000E+00  0.67746485965E+03  0.67746485967E+03  0.50400001928E-02 0.  1.
        1   -1    0    0  501    0  0.00000000000E+00  0.00000000000E+00 -0.19526700957E+04  0.19526700957E+04  0.50400001928E-02 0. -1.
    10030    2    1    2    0    0  0.00000000000E+00  0.00000000000E+00 -0.12752052360E+04  0.26301349554E+04  0.23003176931E+04 0.  0.
        2    1    3    3  502    0  0.25024538852E+03  0.89621018128E+03  0.13538410809E+03  0.94028947683E+03  0.25500000920E-02 0.  1.
       -2    1    3    3    0  502 -0.25024538852E+03 -0.89621018128E+03 -0.14105893441E+04  0.16898454785E+04  0.25500000920E-02 0. -1.
</event>
<event>
 5   0  0.2624815E-05  0.2679665E+04  0.7818609E-02  0.8341633E-01
       -2   -1    0    0    0  501  0.00000000000E+00  0.00000000000E+00  0.94766692105E+03  0.94766692105E+03  0.25500000920E-02 0. -1.
        2   -1    0    0  501    0  0.00000000000E+00  0.00000000000E+00 -0.18942849426E+04  0.18942849426E+04  0.25500000920E-02 0.  1.
    10030    2    1    2    0    0  0.00000000000E+00  0.00000000000E+00 -0.94661802160E+03  0.28419518637E+04  0.26796650382E+04 0.  0.
        4    1    3    3  502    0  0.19888400288E+03  0.60845227308E+03  0.77499610654E+03  0.10051813733E+04  0.12699999809E+01 0. -1.
       -4    1    3    3    0  502 -0.19888400288E+03 -0.60845227308E+03 -0.17216141281E+04  0.18367704904E+04  0.12699999809E+01 0.  1.
</event>
<event>
 5   0  0.2651061E-05  0.2805344E+04  0.7818609E-02  0.8301611E-01
       -2   -1    0    0    0  501  0.00000000000E+00  0.00000000000E+00  0.16356130722E+04  0.16356130722E+04  0.25500000920E-02 0. -1.
        2   -1    0    0  501    0  0.00000000000E+00  0.00000000000E+00 -0.12029063068E+04  0.12029063068E+04  0.25500000920E-02 0.  1.
    10030    2    1    2    0    0  0.00000000000E+00  0.00000000000E+00  0.43270676542E+03  0.28385193790E+04  0.28053443853E+04 0.  0.
        3    1    3    3  502    0 -0.34300750847E+03 -0.13586019290E+04  0.15207324104E+03  0.14094607597E+04  0.10100000352E+00 0. -1.
       -3    1    3    3    0  502  0.34300750847E+03  0.13586019290E+04  0.28063352438E+03  0.14290586193E+04  0.10100000352E+00 0.  1.
</event>
<event>
 5   0  0.1075146E-05  0.2681229E+04  0.7818609E-02  0.8341121E-01
        1   -1    0    0  501    0  0.00000000000E+00  0.00000000000E+00  0.15038214922E+04  0.15038214923E+04  0.50400001928E-02 0.  1.
       -1   -1    0    0    0  501  0.00000000000E+00  0.00000000000E+00 -0.11951204575E+04  0.11951204575E+04  0.50400001928E-02 0. -1.
    10030    2    1    2    0    0  0.00000000000E+00  0.00000000000E+00  0.30870103479E+03  0.26989419497E+04  0.26812294417E+04 0.  0.
        2    1    3    3  502    0  0.36894683560E+03  0.46909355578E+03 -0.10540285748E+04  0.12112583408E+04  0.25500000920E-02 0. -1.
       -2    1    3    3    0  502 -0.36894683560E+03 -0.46909355578E+03  0.13627296096E+04  0.14876836090E+04  0.25500000920E-02 0.  1.
</event>
<event>
 5   0  0.1067434E-05  0.2866440E+04  0.7818609E-02  0.8282933E-01
       -1   -1    0    0    0  501  0.00000000000E+00  0.00000000000E+00  0.10056920235E+04  0.10056920236E+04  0.50400001928E-02 0.  1.
        1   -1    0    0  501    0  0.00000000000E+00  0.00000000000E+00 -0.20424936025E+04  0.20424936025E+04  0.50400001928E-02 0. -1.
    10030    2    1    2    0    0  0.00000000000E+00  0.00000000000E+00 -0.10368015789E+04  0.30481856260E+04  0.28664399691E+04 0.  0.
        4    1    3    3  502    0 -0.92822812015E+03  0.10900092017E+04 -0.58886214945E+03  0.15480593486E+04  0.12699999809E+01 0. -1.
       -4    1    3    3    0  502  0.92822812015E+03 -0.10900092017E+04 -0.44793942946E+03  0.15001262774E+04  0.12699999809E+01 0.  1.
</event>
<event>
 5   0  0.1105862E-05  0.2605913E+04  0.7818609E-02  0.8366195E-01
        1   -1    0    0  501    0  0.00000000000E+00  0.00000000000E+00  0.14970140533E+04  0.14970140533E+04  0.50400001928E-02 0. -1.
       -1   -1    0    0    0  501  0.00000000000E+00  0.00000000000E+00 -0.11340549649E+04  0.11340549649E+04  0.50400001928E-02 0.  1.
    10030    2    1    2    0    0  0.00000000000E+00  0.00000000000E+00  0.36295908846E+03  0.26310690182E+04  0.26059134442E+04 0.  0.
        3    1    3    3  502    0 -0.77996136651E+03 -0.85150243916E+03 -0.42791966017E+03  0.12314671668E+04  0.10100000352E+00 0.  1.
       -3    1    3    3    0  502  0.77996136651E+03  0.85150243916E+03  0.79087874863E+03  0.13996018514E+04  0.10100000352E+00 0. -1.
</event>
<event>
 5   0  0.1105862E-05  0.2798326E+04  0.7818609E-02  0.8303788E-01
        1   -1    0    0  501    0  0.00000000000E+00  0.00000000000E+00  0.15953837475E+04  0.15953837475E+04  0.50400001928E-02 0. -1.
       -1   -1    0    0    0  501  0.00000000000E+00  0.00000000000E+00 -0.12270762855E+04  0.12270762855E+04  0.50400001928E-02 0.  1.
    10030    2    1    2    0    0  0.00000000000E+00  0.00000000000E+00  0.36830746200E+03  0.28224600329E+04  0.27983263303E+04 0.  0.
        3    1    3    3  502    0 -0.12950398391E+04  0.31362226798E+03 -0.24634155136E+03  0.13550539775E+04  0.10100000352E+00 0.  1.
       -3    1    3    3    0  502  0.12950398391E+04 -0.31362226798E+03  0.61464901336E+03  0.14674060555E+04  0.10100000352E+00 0. -1.
</event>
<event>
 5   0  0.2697964E-05  0.2392763E+04  0.7818609E-02  0.8442218E-01
        2   -1    0    0  501    0  0.00000000000E+00  0.00000000000E+00  0.21625477375E+04  0.21625477375E+04  0.25500000920E-02 0.  1.
       -2   -1    0    0    0  501  0.00000000000E+00  0.00000000000E+00 -0.66187147229E+03  0.66187147229E+03  0.25500000920E-02 0. -1.
    10030    2    1    2    0    0  0.00000000000E+00  0.00000000000E+00  0.15006762653E+04  0.28244192098E+04  0.23927629677E+04 0.  0.
        1    1    3    3  502    0  0.59011876518E+03  0.31087368746E+03  0.19227120470E+04  0.20351177416E+04  0.50400001928E-02 0.  1.
       -1    1    3    3    0  502 -0.59011876518E+03 -0.31087368746E+03 -0.42203578176E+03  0.78930146819E+03  0.50400001928E-02 0. -1.
</event>
<event>
 5   0  0.2518686E-05  0.2831445E+04  0.7818609E-02  0.8293572E-01
        2   -1    0    0  501    0  0.00000000000E+00  0.00000000000E+00  0.17804546810E+04  0.17804546810E+04  0.25500000920E-02 0. -1.
       -2   -1    0    0    0  501  0.00000000000E+00  0.00000000000E+00 -0.11257070299E+04  0.11257070299E+04  0.25500000920E-02 0.  1.
    10030    2    1    2    0    0  0.00000000000E+00  0.00000000000E+00  0.65474765115E+03  0.29061617109E+04  0.28314451086E+04 0.  0.
        5    1    3    3  502    0 -0.52084280854E+03 -0.12728915055E+04 -0.17220989614E+02  0.13754448984E+04  0.46999998093E+01 0. -1.
       -5    1    3    3    0  502  0.52084280854E+03  0.12728915055E+04  0.67196864076E+03  0.15307168125E+04  0.46999998093E+01 0.  1.
</event>
<event>
 5   0  0.2588048E-05  0.2764841E+04  0.7818609E-02  0.8314268E-01
       -2   -1    0    0    0  501  0.00000000000E+00  0.00000000000E+00  0.10514001186E+04  0.10514001186E+04  0.25500000920E-02 0. -1.
        2   -1    0    0  501    0  0.00000000000E+00  0.00000000000E+00 -0.18176585163E+04  0.18176585163E+04  0.25500000920E-02 0.  1.
    10030    2    1    2    0    0  0.00000000000E+00  0.00000000000E+00 -0.76625839771E+03  0.28690586349E+04  0.27648409571E+04 0.  0.
        2    1    3    3  502    0 -0.15540766909E+03 -0.28951243342E+03  0.10102883323E+04  0.10623801143E+04  0.25500000920E-02 0. -1.
       -2    1    3    3    0  502  0.15540766909E+03  0.28951243342E+03 -0.17765467301E+04  0.18066785206E+04  0.25500000920E-02 0.  1.
</event>
<event>
 5   0  0.1078103E-05  0.2822385E+04  0.7818609E-02  0.8296352E-01
        1   -1    0    0  501    0  0.00000000000E+00  0.00000000000E+00  0.23251595114E+04  0.23251595114E+04  0.50400001928E-02 0. -1.
       -1   -1    0    0    0  501  0.00000000000E+00  0.00000000000E+00 -0.85648500444E+03  0.85648500445E+03  0.50400001928E-02 0.  1.
    10030    2    1    2    0    0  0.00000000000E+00  0.00000000000E+00  0.14686745070E+04  0.31816445159E+04  0.28223849875E+04 0.  0.
        1    1    3    3  502    0 -0.97471431322E+03  0.34402581363E+03  0.18173816266E+04  0.20907648671E+04  0.50400001928E-02 0. -1.
       -1    1    3    3    0  502  0.97471431322E+03 -0.34402581363E+03 -0.34870711959E+03  0.10908796488E+04  0.50400001928E-02 0.  1.
</event>
<event>
 5   0  0.2588048E-05  0.2799334E+04  0.7818609E-02  0.8303475E-01
        2   -1    0    0  501    0  0.00000000000E+00  0.00000000000E+00  0.21304404879E+04  0.21304404879E+04  0.25500000920E-02 0. -1.
       -2   -1    0    0    0  501  0.00000000000E+00  0.00000000000E+00 -0.91955971836E+03  0.91955971836E+03  0.25500000920E-02 0.  1.
    10030    2    1    2    0    0  0.00000000000E+00  0.00000000000E+00  0.12108807696E+04  0.30500002063E+04  0.27993336743E+04 0.  0.
        2    1    3    3  502    0 -0.98923453377E+03  0.92812472899E+03  0.98139940064E+03  0.16742596152E+04  0.25500000920E-02 0. -1.
       -2    1    3    3    0  502  0.98923453377E+03 -0.92812472899E+03  0.22948136892E+03  0.13757405911E+04  0.25500000920E-02 0.  1.
</event>
<event>
 5   0  0.1078103E-05  0.2766914E+04  0.7818609E-02  0.8313614E-01
        1   -1    0    0  501    0  0.00000000000E+00  0.00000000000E+00  0.82892709035E+03  0.82892709037E+03  0.50400001928E-02 0.  1.
       -1   -1    0    0    0  501  0.00000000000E+00  0.00000000000E+00 -0.23089524778E+04  0.23089524778E+04  0.50400001928E-02 0. -1.
    10030    2    1    2    0    0  0.00000000000E+00  0.00000000000E+00 -0.14800253875E+04  0.31378795682E+04  0.27669139916E+04 0.  0.
        1    1    3    3  502    0  0.98641342532E+03 -0.62875304029E+03  0.97675396445E+02  0.11738323196E+04  0.50400001928E-02 0.  1.
       -1    1    3    3    0  502 -0.98641342532E+03  0.62875304029E+03 -0.15777007839E+04  0.19640472487E+04  0.50400001928E-02 0. -1.
</event>
<event>
 5   0  0.1017456E-05  0.2737002E+04  0.7818609E-02  0.8323098E-01
        1   -1    0    0  501    0  0.00000000000E+00  0.00000000000E+00  0.10045958503E+04  0.10045958503E+04  0.50400001928E-02 0.  1.
       -1   -1    0    0    0  501  0.00000000000E+00  0.00000000000E+00 -0.18642266496E+04  0.18642266496E+04  0.50400001928E-02 0. -1.
    10030    2    1    2    0    0  0.00000000000E+00  0.00000000000E+00 -0.85963079924E+03  0.28688224999E+04  0.27370015391E+04 0.  0.
        5    1    3    3  502    0  0.48672547001E+03 -0.10839341817E+04  0.28182234154E+03  0.12211719435E+04  0.46999998093E+01 0.  1.
       -5    1    3    3    0  502 -0.48672547001E+03  0.10839341817E+04 -0.11414531408E+04  0.16476505564E+04  0.46999998093E+01 0. -1.
</event>
<event>
 5   0  0.2624815E-05  0.2725410E+04  0.7818609E-02  0.8326807E-01
       -2   -1    0    0    0  501  0.00000000000E+00  0.00000000000E+00  0.10507346803E+04  0.10507346803E+04  0.25500000920E-02 0.  1.
        2   -1    0    0  501    0  0.00000000000E+00  0.00000000000E+00 -0.17673009816E+04  0.17673009816E+04  0.25500000920E-02 0. -1.
    10030    2    1    2    0    0  0.00000000000E+00  0.00000000000E+00 -0.71656630139E+03  0.28180356619E+04  0.27254096440E+04 0.  0.
        4    1    3    3  502    0 -0.44131462231E+03  0.11946738584E+04 -0.85948234584E+03  0.15364620853E+04  0.12699999809E+01 0. -1.
       -4    1    3    3    0  502  0.44131462231E+03 -0.11946738584E+04  0.14291604444E+03  0.12815735767E+04  0.12699999809E+01 0.  1.
</event>
<event>
 5   0  0.1105862E-05  0.2687013E+04  0.7818609E-02  0.8339231E-01
        1   -1    0    0  501    0  0.00000000000E+00  0.00000000000E+00  0.12082034989E+04  0.12082034989E+04  0.50400001928E-02 0.  1.
       -1   -1    0    0    0  501  0.00000000000E+00  0.00000000000E+00 -0.14939621779E+04  0.14939621780E+04  0.50400001928E-02 0. -1.
    10030    2    1    2    0    0  0.00000000000E+00  0.00000000000E+00 -0.28575867906E+03  0.27021656768E+04  0.26870134578E+04 0.  0.
        3    1    3    3  502    0  0.10995082380E+04 -0.68586492201E+03  0.21363532711E+03  0.13133807978E+04  0.10100000352E+00 0. -1.
       -3    1    3    3    0  502 -0.10995082380E+04  0.68586492201E+03 -0.49939400617E+03  0.13887848791E+04  0.10100000352E+00 0.  1.
</event>
<event>
 5   0  0.8958000E-06  0.2758788E+04  0.7818609E-02  0.8316179E-01
       -3   -1    0    0    0  501  0.00000000000E+00  0.00000000000E+00  0.12288192437E+04  0.12288192478E+04  0.10100000352E+00 0. -1.
        3   -1    0    0  501    0  0.00000000000E+00  0.00000000000E+00 -0.15484193760E+04  0.15484193793E+04  0.10100000352E+00 0.  1.
    10030    2    1    2    0    0  0.00000000000E+00  0.00000000000E+00 -0.31960013234E+03  0.27772386272E+04  0.27587878040E+04 0.  0.
        4    1    3    3  502    0  0.57632346528E+03  0.96937940182E+03  0.63979212104E+03  0.12966035371E+04  0.12699999809E+01 0. -1.
       -4    1    3    3    0  502 -0.57632346528E+03 -0.96937940182E+03 -0.95939225338E+03  0.14806350901E+04  0.12699999809E+01 0.  1.
</event>
<event>
 5   0  0.1078103E-05  0.2821502E+04  0.7818609E-02  0.8296624E-01
       -1   -1    0    0    0  501  0.00000000000E+00  0.00000000000E+00  0.15312859527E+04  0.15312859527E+04  0.50400001928E-02 0.  1.
        1   -1    0    0  501    0  0.00000000000E+00  0.00000000000E+00 -0.12997037055E+04  0.12997037055E+04  0.50400001928E-02 0. -1.
    10030    2    1    2    0    0  0.00000000000E+00  0.00000000000E+00  0.23158224723E+03  0.28309896582E+04  0.28215017468E+04 0.  0.
        1    1    3    3  502    0  0.69952067979E+03 -0.30909882796E+03  0.13052507563E+04  0.15127956913E+04  0.50400001928E-02 0. -1.
       -1    1    3    3    0  502 -0.69952067979E+03  0.30909882796E+03 -0.10736685090E+04  0.13181939668E+04  0.50400001928E-02 0.  1.
</event>
<event>
 5   0  0.1075146E-05  0.2156646E+04  0.7818609E-02  0.8536693E-01
        1   -1    0    0  501    0  0.00000000000E+00  0.00000000000E+00  0.63315671863E+03  0.63315671865E+03  0.50400001928E-02 0. -1.
       -1   -1    0    0    0  501  0.00000000000E+00  0.00000000000E+00 -0.18364821441E+04  0.18364821441E+04  0.50400001928E-02 0.  1.
    10030    2    1    2    0    0  0.00000000000E+00  0.00000000000E+00 -0.12033254255E+04  0.24696388627E+04  0.21566464784E+04 0.  0.
        2    1    3    3  502    0 -0.30240742973E+03 -0.10348986959E+04 -0.62200105211E+03  0.12447292369E+04  0.25500000920E-02 0.  1.
       -2    1    3    3    0  502  0.30240742973E+03  0.10348986959E+04 -0.58132437335E+03  0.12249096258E+04  0.25500000920E-02 0. -1.
</event>
<event>
 5   0  0.1067434E-05  0.2647940E+04  0.7818609E-02  0.8352097E-01
       -1   -1    0    0    0  501  0.00000000000E+00  0.00000000000E+00  0.12989526287E+04  0.12989526287E+04  0.50400001928E-02 0.  1.
        1   -1    0    0  501    0  0.00000000000E+00  0.00000000000E+00 -0.13494693808E+04  0.13494693808E+04  0.50400001928E-02 0. -1.
    10030    2    1    2    0    0  0.00000000000E+00  0.00000000000E+00 -0.50516752137E+02  0.26484220095E+04  0.26479401803E+04 0.  0.
        4    1    3    3  502    0 -0.68526973697E+03 -0.22767122321E+03 -0.11351748566E+04  0.13453818663E+04  0.12699999809E+01 0. -1.
       -4    1    3    3    0  502  0.68526973697E+03  0.22767122321E+03  0.10846581045E+04  0.13030401432E+04  0.12699999809E+01 0.  1.
</event>
<event>
 5   0  0.1017456E-05  0.2775486E+04  0.7818609E-02  0.8310920E-01
        1   -1    0    0  501    0  0.00000000000E+00  0.00000000000E+00  0.16461171327E+04  0.16461171327E+04  0.50400001928E-02 0. -1.
       -1   -1    0    0    0  501  0.00000000000E+00  0.00000000000E+00 -0.11699227955E+04  0.11699227955E+04  0.50400001928E-02 0.  1.
    10030    2    1    2    0    0  0.00000000000E+00  0.00000000000E+00  0.47619433714E+03  0.28160399282E+04  0.27754855126E+04 0.  0.
        5    1    3    3  502    0 -0.55070757959E+03 -0.56518931734E+03 -0.92011216488E+03  0.12121659493E+04  0.46999998093E+01 0.  1.
       -5    1    3    3    0  502  0.55070757959E+03  0.56518931734E+03  0.13963065020E+04  0.16038739789E+04  0.46999998093E+01 0. -1.
</event>
<event>
 5   0  0.2697964E-05  0.2789510E+04  0.7818609E-02  0.8306532E-01
       -2   -1    0    0    0  501  0.00000000000E+00  0.00000000000E+00  0.17301908229E+04  0.17301908229E+04  0.25500000920E-02 0.  1.
        2   -1    0    0  501    0  0.00000000000E+00  0.00000000000E+00 -0.11243510416E+04  0.11243510416E+04  0.25500000920E-02 0. -1.
    10030    2    1    2    0    0  0.00000000000E+00  0.00000000000E+00  0.60583978123E+03  0.28545418645E+04  0.27895102466E+04 0.  0.
        1    1    3    3  502    0  0.77536516620E+03 -0.10276599376E+04 -0.24631014586E+03  0.13107039240E+04  0.50400001928E-02 0. -1.
       -1    1    3    3    0  502 -0.77536516620E+03  0.10276599376E+04  0.85214992709E+03  0.15438379405E+04  0.50400001928E-02 0.  1.
</event>
<event>
 5   0  0.1075146E-05  0.2835134E+04  0.7818609E-02  0.8292443E-01
        1   -1    0    0  501    0  0.00000000000E+00  0.00000000000E+00  0.12065072982E+04  0.12065072983E+04  0.50400001928E-02 0. -1.
       -1   -1    0    0    0  501  0.00000000000E+00  0.00000000000E+00 -0.16655482177E+04  0.16655482177E+04  0.50400001928E-02 0.  1.
    10030    2    1    2    0    0  0.00000000000E+00  0.00000000000E+00 -0.45904091948E+03  0.28720555160E+04  0.28351339159E+04 0.  0.
        2    1    3    3  502    0  0.63433788491E+03 -0.11472011860E+04  0.31698727815E+03  0.13486793718E+04  0.25500000920E-02 0.  1.
       -2    1    3    3    0  502 -0.63433788491E+03  0.11472011860E+04 -0.77602819762E+03  0.15233761442E+04  0.25500000920E-02 0. -1.
</event>
<event>
 5   0  0.2651061E-05  0.2714036E+04  0.7818609E-02  0.8330465E-01
        2   -1    0    0  501    0  0.00000000000E+00  0.00000000000E+00  0.22962583432E+04  0.22962583432E+04  0.25500000920E-02 0.  1.
       -2   -1    0    0    0  501  0.00000000000E+00  0.00000000000E+00 -0.80195593163E+03  0.80195593163E+03  0.25500000920E-02 0. -1.
    10030    2    1    2    0    0  0.00000000000E+00  0.00000000000E+00  0.14943024116E+04  0.30982142748E+04  0.27140361080E+04 0.  0.
        3    1    3    3  502    0 -0.91890058191E+03  0.25752307234E+03  0.18484987415E+04  0.20802990217E+04  0.10100000352E+00 0.  1.
       -3    1    3    3    0  502  0.91890058191E+03 -0.25752307234E+03 -0.35419632991E+03  0.10179152531E+04  0.10100000352E+00 0. -1.
</event>
<event>
 5   0  0.1067434E-05  0.2783967E+04  0.7818609E-02  0.8308263E-01
       -1   -1    0    0    0  501  0.00000000000E+00  0.00000000000E+00  0.98297484953E+03  0.98297484954E+03  0.50400001928E-02 0. -1.
        1   -1    0    0  501    0  0.00000000000E+00  0.00000000000E+00 -0.19711773880E+04  0.19711773880E+04  0.50400001928E-02 0.  1.
    10030    2    1    2    0    0  0.00000000000E+00  0.00000000000E+00 -0.98820253843E+03  0.29541522375E+04  0.27839668075E+04 0.  0.
        4    1    3    3  502    0 -0.12685983934E+04  0.25286090320E+03 -0.10396665188E+04  0.16595748261E+04  0.12699999809E+01 0.  1.
       -4    1    3    3    0  502  0.12685983934E+04 -0.25286090320E+03  0.51463980345E+02  0.12945774115E+04  0.12699999809E+01 0. -1.
</event>
<event>
 5   0  0.2697964E-05  0.2676663E+04  0.7818609E-02  0.8342617E-01
        2   -1    0    0  501    0  0.00000000000E+00  0.00000000000E+00  0.18419483220E+04  0.18419483220E+04  0.25500000920E-02 0.  1.
       -2   -1    0    0    0  501  0.00000000000E+00  0.00000000000E+00 -0.97241144054E+03  0.97241144054E+03  0.25500000920E-02 0. -1.
    10030    2    1    2    0    0  0.00000000000E+00  0.00000000000E+00  0.86953688149E+03  0.28143597626E+04  0.26766633118E+04 0.  0.
        1    1    3    3  502    0 -0.36867539128E+03 -0.12846643487E+04  0.50797478676E+03  0.14297980336E+04  0.50400001928E-02 0. -1.
       -1    1    3    3    0  502  0.36867539128E+03  0.12846643487E+04  0.36156209474E+03  0.13845617290E+04  0.50400001928E-02 0.  1.
</event>
<event>
 5   0  0.1105862E-05  0.2712472E+04  0.7818609E-02  0.8330970E-01
       -1   -1    0    0    0  501  0.00000000000E+00  0.00000000000E+00  0.14788873271E+04  0.14788873271E+04  0.50400001928E-02 0. -1.
        1   -1    0    0  501    0  0.00000000000E+00  0.00000000000E+00 -0.12437563613E+04  0.12437563614E+04  0.50400001928E-02 0.  1.
    10030    2    1    2    0    0  0.00000000000E+00  0.00000000000E+00  0.23513096578E+03  0.27226436885E+04  0.27124715820E+04 0.  0.
        3    1    3    3  502    0  0.54588660584E+03  0.12331332132E+04 -0.27078367589E+02  0.13488302177E+04  0.10100000352E+00 0.  1.
       -3    1    3    3    0  502 -0.54588660584E+03 -0.12331332132E+04  0.26220933337E+03  0.13738134708E+04  0.10100000352E+00 0. -1.
</event>
<event>
 5   0  0.2624815E-05  0.2891922E+04  0.7818609E-02  0.8275285E-01
        2   -1    0    0  501    0  0.00000000000E+00  0.00000000000E+00  0.11717046198E+04  0.11717046198E+04  0.25500000920E-02 0. -1.
       -2   -1    0    0    0  501  0.00000000000E+00  0.00000000000E+00 -0.17844109197E+04  0.17844109197E+04  0.25500000920E-02 0.  1.
    10030    2    1    2    0    0  0.00000000000E+00  0.00000000000E+00 -0.61270629988E+03  0.29561155395E+04  0.28919215192E+04 0.  0.
        4    1    3    3  502    0 -0.11219090731E+03 -0.13946005193E+04  0.66858913628E+02  0.14007030861E+04  0.12699999809E+01 0. -1.
       -4    1    3    3    0  502  0.11219090731E+03  0.13946005193E+04 -0.67956521351E+03  0.15554124535E+04  0.12699999809E+01 0.  1.
</event>
<event>
 5   0  0.2588048E-05  0.2885025E+04  0.7818609E-02  0.8277347E-01
       -2   -1    0    0    0  501  0.00000000000E+00  0.00000000000E+00  0.11518791137E+04  0.11518791137E+04  0.25500000920E-02 0. -1.
        2   -1    0    0  501    0  0.00000000000E+00  0.00000000000E+00 -0.18064760599E+04  0.18064760599E+04  0.25500000920E-02 0.  1.
    10030    2    1    2    0    0  0.00000000000E+00  0.00000000000E+00 -0.65459694613E+03  0.29583551736E+04  0.28850248129E+04 0.  0.
        2    1    3    3  502    0 -0.10774460631E+04 -0.28930457251E+03 -0.12650118149E+04  0.16866659558E+04  0.25500000920E-02 0.  1.
       -2    1    3    3    0  502  0.10774460631E+04  0.28930457251E+03  0.61041486874E+03  0.12716892178E+04  0.25500000920E-02 0. -1.
</event>
<event>
 5   0  0.2518686E-05  0.2360744E+04  0.7818609E-02  0.8454348E-01
       -2   -1    0    0    0  501  0.00000000000E+00  0.00000000000E+00  0.11128712660E+04  0.11128712660E+04  0.25500000920E-02 0.  1.
        2   -1    0    0  501    0  0.00000000000E+00  0.00000000000E+00 -0.12519673517E+04  0.12519673517E+04  0.25500000920E-02 0. -1.
    10030    2    1    2    0    0  0.00000000000E+00  0.00000000000E+00 -0.13909608573E+03  0.23648386177E+04  0.23607443671E+04 0.  0.
        5    1    3    3  502    0 -0.69115311721E+03 -0.10521147378E+03  0.88315042703E+03  0.11263830842E+04  0.46999998093E+01 0.  1.
       -5    1    3    3    0  502  0.69115311721E+03  0.10521147378E+03 -0.10222465128E+04  0.12384555335E+04  0.46999998093E+01 0. -1.
</event>
<event>
 5   0  0.2588048E-05  0.2602386E+04  0.7818609E-02  0.8367391E-01
       -2   -1    0    0    0  501  0.00000000000E+00  0.00000000000E+00  0.99563103537E+03  0.99563103538E+03  0.25500000920E-02 0.  1.
        2   -1    0    0  501    0  0.00000000000E+00  0.00000000000E+00 -0.17005328806E+04  0.17005328806E+04  0.25500000920E-02 0. -1.
    10030    2    1    2    0    0  0.00000000000E+00  0.00000000000E+00 -0.70490184520E+03  0.26961639160E+04  0.26023860687E+04 0.  0.
        2    1    3    3  502    0 -0.62089639357E+03 -0.89037140075E+03  0.39092139454E+03  0.11537300809E+04  0.25500000920E-02 0.  1.
       -2    1    3    3    0  502  0.62089639357E+03  0.89037140075E+03 -0.10958232397E+04  0.15424338351E+04  0.25500000920E-02 0. -1.
</event>
<event>
 5   0  0.2651061E-05  0.2915708E+04  0.7818609E-02  0.8268219E-01
       -2   -1    0    0    0  501  0.00000000000E+00  0.00000000000E+00  0.11475551499E+04  0.11475551499E+04  0.25500000920E-02 0. -1.
        2   -1    0    0  501    0  0.00000000000E+00  0.00000000000E+00 -0.18520574839E+04  0.18520574839E+04  0.25500000920E-02 0.  1.
    10030    2    1    2    0    0  0.00000000000E+00  0.00000000000E+00 -0.70450233399E+03  0.29996126339E+04  0.29157078754E+04 0.  0.
        3    1    3    3  502    0 -0.62410357022E+03 -0.11515494781E+04  0.30629989806E+03  0.13451360915E+04  0.10100000352E+00 0. -1.
       -3    1    3    3    0  502  0.62410357022E+03  0.11515494781E+04 -0.10108022321E+04  0.16544765424E+04  0.10100000352E+00 0.  1.
</event>
<event>
 5   0  0.2651061E-05  0.2829385E+04  0.7818609E-02  0.8294203E-01
        2   -1    0    0  501    0  0.00000000000E+00  0.00000000000E+00  0.15953380565E+04  0.15953380565E+04  0.25500000920E-02 0.  1.
       -2   -1    0    0    0  501  0.00000000000E+00  0.00000000000E+00 -0.12545022461E+04  0.12545022461E+04  0.25500000920E-02 0. -1.
    10030    2    1    2    0    0  0.00000000000E+00  0.00000000000E+00  0.34083581040E+03  0.28498403026E+04  0.28293852161E+04 0.  0.
        3    1    3    3  502    0 -0.10925111884E+04 -0.79309593369E+03 -0.25545477662E+03  0.13739865392E+04  0.10100000352E+00 0. -1.
       -3    1    3    3    0  502  0.10925111884E+04  0.79309593369E+03  0.59629058702E+03  0.14758537635E+04  0.10100000352E+00 0.  1.
</event>
<event>
 5   0  0.2588048E-05  0.2629457E+04  0.7818609E-02  0.8358264E-01
       -2   -1    0    0    0  501  0.00000000000E+00  0.00000000000E+00  0.12141466671E+04  0.12141466671E+04  0.25500000920E-02 0.  1.
        2   -1    0    0  501    0  0.00000000000E+00  0.00000000000E+00 -0.14236423484E+04  0.14236423484E+04  0.25500000920E-02 0. -1.
    10030    2    1    2    0    0  0.00000000000E+00  0.00000000000E+00 -0.20949568128E+03  0.26377890155E+04  0.26294566834E+04 0.  0.
        2    1    3    3  502    0 -0.47983230244E+02 -0.11482115892E+04 -0.74537806735E+03  0.13697739621E+04  0.25500000920E-02 0. -1.
       -2    1    3    3    0  502  0.47983230244E+02  0.11482115892E+04  0.53588238607E+03  0.12680150534E+04  0.25500000920E-02 0.  1.
</event>
<event>
 5   0  0.8958000E-06  0.2209679E+04  0.7818609E-02  0.8514410E-01
       -3   -1    0    0    0  501  0.00000000000E+00  0.00000000000E+00  0.89840771656E+03  0.89840772223E+03  0.10100000352E+00 0.  1.
        3   -1    0    0  501    0  0.00000000000E+00  0.00000000000E+00 -0.13587037355E+04  0.13587037392E+04  0.10100000352E+00 0. -1.
    10030    2    1    2    0    0  0.00000000000E+00  0.00000000000E+00 -0.46029601891E+03  0.22571114615E+04  0.22096786473E+04 0.  0.
        5    1    3    3  502    0 -0.91705578521E+02 -0.97720543846E+03 -0.74829153416E+03  0.12342214924E+04  0.46999998093E+01 0. -1.
       -5    1    3    3    0  502  0.91705578521E+02  0.97720543846E+03  0.28799551525E+03  0.10228899691E+04  0.46999998093E+01 0.  1.
</event>
<event>
 5   0  0.2518686E-05  0.2736703E+04  0.7818609E-02  0.8323194E-01
       -2   -1    0    0    0  501  0.00000000000E+00  0.00000000000E+00  0.22307615958E+04  0.22307615958E+04  0.25500000920E-02 0. -1.
        2   -1    0    0  501    0  0.00000000000E+00  0.00000000000E+00 -0.83934799892E+03  0.83934799893E+03  0.25500000920E-02 0.  1.
    10030    2    1    2    0    0  0.00000000000E+00  0.00000000000E+00  0.13914135969E+04  0.30701095947E+04  0.27367026009E+04 0.  0.
        5    1    3    3  502    0  0.70149145346E+02 -0.16170317546E+03 -0.82654987564E+03  0.84514827484E+03  0.46999998093E+01 0.  1.
       -5    1    3    3    0  502 -0.70149145346E+02  0.16170317546E+03  0.22179634725E+04  0.22249613199E+04  0.46999998093E+01 0. -1.
</event>
<event>
 5   0  0.2651061E-05  0.2839704E+04  0.7818609E-02  0.8291047E-01
        2   -1    0    0  501    0  0.00000000000E+00  0.00000000000E+00  0.64493209459E+03  0.64493209459E+03  0.25500000920E-02 0.  1.
       -2   -1    0    0    0  501  0.00000000000E+00  0.00000000000E+00 -0.31258785652E+04  0.31258785652E+04  0.25500000920E-02 0. -1.
    10030    2    1    2    0    0  0.00000000000E+00  0.00000000000E+00 -0.24809464706E+04  0.37708106598E+04  0.28397037948E+04 0.  0.
        3    1    3    3  502    0  0.11075436191E+04  0.73038546954E+03 -0.19121586775E+04  0.23273303634E+04  0.10100000352E+00 0. -1.
       -3    1    3    3    0  502 -0.11075436191E+04 -0.73038546954E+03 -0.56878779312E+03  0.14434802964E+04  0.10100000352E+00 0.  1.
</event>
<event>
 5   0  0.1067434E-05  0.2847917E+04  0.7818609E-02  0.8288544E-01
       -1   -1    0    0    0  501  0.00000000000E+00  0.00000000000E+00  0.17982987802E+04  0.17982987802E+04  0.50400001928E-02 0. -1.
        1   -1    0    0  501    0  0.00000000000E+00  0.00000000000E+00 -0.11275424045E+04  0.11275424045E+04  0.50400001928E-02 0.  1.
    10030    2    1    2    0    0  0.00000000000E+00  0.00000000000E+00  0.67075637568E+03  0.29258411847E+04  0.28479172254E+04 0.  0.
        4    1    3    3  502    0  0.18053249085E+03 -0.10597922725E+04 -0.62392953291E+03  0.12429969091E+04  0.12699999809E+01 0.  1.
       -4    1    3    3    0  502 -0.18053249085E+03  0.10597922725E+04  0.12946859086E+04  0.16828442756E+04  0.12699999809E+01 0. -1.
</event>
<event>
 5   0  0.2697964E-05  0.2790703E+04  0.7818609E-02  0.8306161E-01
        2   -1    0    0  501    0  0.00000000000E+00  0.00000000000E+00  0.34363383051E+04  0.34363383051E+04  0.25500000920E-02 0.  1.
       -2   -1    0    0    0  501  0.00000000000E+00  0.00000000000E+00 -0.56659299557E+03  0.56659299557E+03  0.25500000920E-02 0. -1.
    10030    2    1    2    0    0  0.00000000000E+00  0.00000000000E+00  0.28697453096E+04  0.40029313007E+04  0.27907025740E+04 0.  0.
        1    1    3    3  502    0 -0.35662794252E+03 -0.10669030038E+04  0.25071326035E+03  0.11525288057E+04  0.50400001928E-02 0. -1.
       -1    1    3    3    0  502  0.35662794252E+03  0.10669030038E+04  0.26190320492E+04  0.28504024950E+04  0.50400001928E-02 0.  1.
</event>
<event>
 5   0  0.2588048E-05  0.2496735E+04  0.7818609E-02  0.8404150E-01
       -2   -1    0    0    0  501  0.00000000000E+00  0.00000000000E+00  0.62248426730E+03  0.62248426730E+03  0.25500000920E-02 0.  1.
        2   -1    0    0  501    0  0.00000000000E+00  0.00000000000E+00 -0.25035516989E+04  0.25035516989E+04  0.25500000920E-02 0. -1.
    10030    2    1    2    0    0  0.00000000000E+00  0.00000000000E+00 -0.18810674316E+04  0.31260359662E+04  0.24967351040E+04 0.  0.
        2    1    3    3  502    0  0.59333336643E+03  0.35887028255E+03 -0.22402486652E+04  0.23451111798E+04  0.25500000920E-02 0. -1.
       -2    1    3    3    0  502 -0.59333336643E+03 -0.35887028255E+03  0.35918123365E+03  0.78092478641E+03  0.25500000920E-02 0.  1.
</event>
<event>
 5   0  0.1075146E-05  0.2810556E+04  0.7818609E-02  0.8299999E-01
        1   -1    0    0  501    0  0.00000000000E+00  0.00000000000E+00  0.11274842340E+04  0.11274842340E+04  0.50400001928E-02 0.  1.
       -1   -1    0    0    0  501  0.00000000000E+00  0.00000000000E+00 -0.17515152542E+04  0.17515152542E+04  0.50400001928E-02 0. -1.
    10030    2    1    2    0    0  0.00000000000E+00  0.00000000000E+00 -0.62403102015E+03  0.28789994882E+04  0.28105556993E+04 0.  0.
        2    1    3    3  502    0 -0.76142437573E+03 -0.10714197406E+04 -0.82121087376E+03  0.15498692331E+04  0.25500000920E-02 0. -1.
       -2    1    3    3    0  502  0.76142437573E+03  0.10714197406E+04  0.19717985361E+03  0.13291302551E+04  0.25500000920E-02 0.  1.
</event>
<event>
 5   0  0.2518686E-05  0.2779317E+04  0.7818609E-02  0.8309718E-01
        2   -1    0    0  501    0  0.00000000000E+00  0.00000000000E+00  0.12072316720E+04  0.12072316720E+04  0.25500000920E-02 0. -1.
       -2   -1    0    0    0  501  0.00000000000E+00  0.00000000000E+00 -0.15996526608E+04  0.15996526608E+04  0.25500000920E-02 0.  1.
    10030    2    1    2    0    0  0.00000000000E+00  0.00000000000E+00 -0.39242098879E+03  0.28068843327E+04  0.27793174387E+04 0.  0.
        5    1    3    3  502    0 -0.82430107186E+03  0.93129089373E+03 -0.82232277915E+03  0.14909768036E+04  0.46999998093E+01 0. -1.
       -5    1    3    3    0  502  0.82430107186E+03 -0.93129089373E+03  0.42990179036E+03  0.13159075291E+04  0.46999998093E+01 0.  1.
</event>
<event>
 5   0  0.1105862E-05  0.2780683E+04  0.7818609E-02  0.8309291E-01
        1   -1    0    0  501    0  0.00000000000E+00  0.00000000000E+00  0.21035407233E+04  0.21035407233E+04  0.50400001928E-02 0.  1.
       -1   -1    0    0    0  501  0.00000000000E+00  0.00000000000E+00 -0.91895006832E+03  0.91895006833E+03  0.50400001928E-02 0. -1.
    10030    2    1    2    0    0  0.00000000000E+00  0.00000000000E+00  0.11845906550E+04  0.30224907917E+04  0.27806825719E+04 0.  0.
        3    1    3    3  502    0 -0.16640844827E+03 -0.91560935323E+02  0.20893726332E+04  0.20979878902E+04  0.10100000352E+00 0.  1.
       -3    1    3    3    0  502  0.16640844827E+03  0.91560935323E+02 -0.90478197824E+03  0.92450290150E+03  0.10100000352E+00 0. -1.
</event>
<event>
 5   0  0.1105862E-05  0.1650518E+04  0.7818609E-02  0.8790100E-01
       -1   -1    0    0    0  501  0.00000000000E+00  0.00000000000E+00  0.66537697450E+03  0.66537697452E+03  0.50400001928E-02 0. -1.
        1   -1    0    0  501    0  0.00000000000E+00  0.00000000000E+00 -0.10235587804E+04  0.10235587804E+04  0.50400001928E-02 0.  1.
    10030    2    1    2    0    0  0.00000000000E+00  0.00000000000E+00 -0.35818180587E+03  0.16889357549E+04  0.16505180333E+04 0.  0.
        3    1    3    3  502    0  0.32449710223E+03  0.56142045288E+03 -0.70142416082E+03  0.95524193682E+03  0.10100000352E+00 0.  1.
       -3    1    3    3    0  502 -0.32449710223E+03 -0.56142045288E+03  0.34324235495E+03  0.73369381809E+03  0.10100000352E+00 0. -1.
</event>
<event>
 5   0  0.1067434E-05  0.2706863E+04  0.7818609E-02  0.8332781E-01
       -1   -1    0    0    0  501  0.00000000000E+00  0.00000000000E+00  0.93839422053E+03  0.93839422054E+03  0.50400001928E-02 0. -1.
        1   -1    0    0  501    0  0.00000000000E+00  0.00000000000E+00 -0.19520339085E+04  0.19520339085E+04  0.50400001928E-02 0.  1.
    10030    2    1    2    0    0  0.00000000000E+00  0.00000000000E+00 -0.10136396880E+04  0.28904281290E+04  0.27068633789E+04 0.  0.
        4    1    3    3  502    0  0.11122769194E+04 -0.40993719263E+03 -0.12042321513E+04  0.16897884881E+04  0.12699999809E+01 0.  1.
       -4    1    3    3    0  502 -0.11122769194E+04  0.40993719263E+03  0.19059246335E+03  0.12006396409E+04  0.12699999809E+01 0. -1.
</event>
<event>
 5   0  0.2624815E-05  0.1864094E+04  0.7818609E-02  0.8672938E-01
       -2   -1    0    0    0  501  0.00000000000E+00  0.00000000000E+00  0.35515453753E+03  0.35515453754E+03  0.25500000920E-02 0. -1.
        2   -1    0    0  501    0  0.00000000000E+00  0.00000000000E+00 -0.24460104257E+04  0.24460104257E+04  0.25500000920E-02 0.  1.
    10030    2    1    2    0    0  0.00000000000E+00  0.00000000000E+00 -0.20908558882E+04  0.28011649632E+04  0.18640940980E+04 0.  0.
        4    1    3    3  502    0  0.26599028992E+03  0.20482759364E+03  0.26114350116E+03  0.42532660221E+03  0.12699999809E+01 0. -1.
       -4    1    3    3    0  502 -0.26599028992E+03 -0.20482759364E+03 -0.23519993893E+04  0.23758383610E+04  0.12699999809E+01 0.  1.
</event>
<event>
 5   0  0.2588048E-05  0.2918413E+04  0.7818609E-02  0.8267420E-01
       -2   -1    0    0    0  501  0.00000000000E+00  0.00000000000E+00  0.13681761637E+04  0.13681761637E+04  0.25500000920E-02 0. -1.
        2   -1    0    0  501    0  0.00000000000E+00  0.00000000000E+00 -0.15562938605E+04  0.15562938605E+04  0.25500000920E-02 0.  1.
    10030    2    1    2    0    0  0.00000000000E+00  0.00000000000E+00 -0.18811769680E+03  0.29244700241E+04  0.29184133796E+04 0.  0.
        2    1    3    3  502    0 -0.48639033742E+02 -0.13528455440E+04 -0.63991618238E+03  0.14973475021E+04  0.25500000920E-02 0.  1.
       -2    1    3    3    0  502  0.48639033742E+02  0.13528455440E+04  0.45179848558E+03  0.14271225221E+04  0.25500000920E-02 0. -1.
</event>
<event>
 5   0  0.2624815E-05  0.2813574E+04  0.7818609E-02  0.8299066E-01
       -2   -1    0    0    0  501  0.00000000000E+00  0.00000000000E+00  0.14683261960E+04  0.14683261960E+04  0.25500000920E-02 0.  1.
        2   -1    0    0  501    0  0.00000000000E+00  0.00000000000E+00 -0.13478272484E+04  0.13478272484E+04  0.25500000920E-02 0. -1.
    10030    2    1    2    0    0  0.00000000000E+00  0.00000000000E+00  0.12049894765E+03  0.28161534444E+04  0.28135742794E+04 0.  0.
        4    1    3    3  502    0  0.55159341327E+03  0.91800719575E+03 -0.85275770373E+03  0.13690105256E+04  0.12699999809E+01 0. -1.
       -4    1    3    3    0  502 -0.55159341327E+03 -0.91800719575E+03  0.97325665138E+03  0.14471429188E+04  0.12699999809E+01 0.  1.
</event>
<event>
 5   0  0.2697964E-05  0.1537988E+04  0.7818609E-02  0.8859577E-01
        2   -1    0    0  501    0  0.00000000000E+00  0.00000000000E+00  0.22097689868E+04  0.22097689868E+04  0.25500000920E-02 0. -1.
       -2   -1    0    0    0  501  0.00000000000E+00  0.00000000000E+00 -0.26760798897E+03  0.26760798898E+03  0.25500000920E-02 0.  1.
    10030    2    1    2    0    0  0.00000000000E+00  0.00000000000E+00  0.19421609978E+04  0.24773769757E+04  0.15379880814E+04 0.  0.
        1    1    3    3  502    0  0.38768708149E+03  0.33825508982E+03  0.18916781422E+04  0.19603989320E+04  0.50400001928E-02 0. -1.
       -1    1    3    3    0  502 -0.38768708149E+03 -0.33825508982E+03  0.50482855566E+02  0.51697804371E+03  0.50400001928E-02 0.  1.
</event>
<event>
 5   0  0.2651061E-05  0.2729491E+04  0.7818609E-02  0.8325499E-01
        2   -1    0    0  501    0  0.00000000000E+00  0.00000000000E+00  0.15448667926E+04  0.15448667926E+04  0.25500000920E-02 0. -1.
       -2   -1    0    0    0  501  0.00000000000E+00  0.00000000000E+00 -0.12056252988E+04  0.12056252988E+04  0.25500000920E-02 0.  1.
    10030    2    1    2    0    0  0.00000000000E+00  0.00000000000E+00  0.33924149387E+03  0.27504920914E+04  0.27294911529E+04 0.  0.
        3    1    3    3  502    0 -0.84576089223E+03 -0.43257082930E+03 -0.81776596139E+03  0.12534632771E+04  0.10100000352E+00 0.  1.
       -3    1    3    3    0  502  0.84576089223E+03  0.43257082930E+03  0.11570074553E+04  0.14970288143E+04  0.10100000352E+00 0. -1.
</event>
<event>
 5   0  0.1078103E-05  0.1542128E+04  0.7818609E-02  0.8856911E-01
        1   -1    0    0  501    0  0.00000000000E+00  0.00000000000E+00  0.17260597707E+04  0.17260597707E+04  0.50400001928E-02 0.  1.
       -1   -1    0    0    0  501  0.00000000000E+00  0.00000000000E+00 -0.34444927663E+03  0.34444927667E+03  0.50400001928E-02 0. -1.
    10030    2    1    2    0    0  0.00000000000E+00  0.00000000000E+00  0.13816104940E+04  0.20705090473E+04  0.15421284505E+04 0.  0.
        1    1    3    3  502    0  0.21085392540E+03  0.48295554635E+03 -0.64935582035E+02  0.53096333908E+03  0.50400001928E-02 0. -1.
       -1    1    3    3    0  502 -0.21085392540E+03 -0.48295554635E+03  0.14465460761E+04  0.15395457082E+04  0.50400001928E-02 0.  1.
</event>
<event>
 5   0  0.2588048E-05  0.2736831E+04  0.7818609E-02  0.8323153E-01
        2   -1    0    0  501    0  0.00000000000E+00  0.00000000000E+00  0.16126268429E+04  0.16126268429E+04  0.25500000920E-02 0. -1.
       -2   -1    0    0    0  501  0.00000000000E+00  0.00000000000E+00 -0.11611868749E+04  0.11611868749E+04  0.25500000920E-02 0.  1.
    10030    2    1    2    0    0  0.00000000000E+00  0.00000000000E+00  0.45143996804E+03  0.27738137178E+04  0.27368311049E+04 0.  0.
        2    1    3    3  502    0 -0.87265434096E+03  0.91593762204E+03 -0.30295482344E+03  0.13008646937E+04  0.25500000920E-02 0.  1.
       -2    1    3    3    0  502  0.87265434096E+03 -0.91593762204E+03  0.75439479148E+03  0.14729490241E+04  0.25500000920E-02 0. -1.
</event>
<event>
 5   0  0.1075146E-05  0.2763497E+04  0.7818609E-02  0.8314691E-01
        1   -1    0    0  501    0  0.00000000000E+00  0.00000000000E+00  0.23200320396E+04  0.23200320396E+04  0.50400001928E-02 0.  1.
       -1   -1    0    0    0  501  0.00000000000E+00  0.00000000000E+00 -0.82293238911E+03  0.82293238913E+03  0.50400001928E-02 0. -1.
    10030    2    1    2    0    0  0.00000000000E+00  0.00000000000E+00  0.14970996505E+04  0.31429644287E+04  0.27634974284E+04 0.  0.
        2    1    3    3  502    0  0.51708985297E+03 -0.40813677946E+03 -0.63284061242E+03  0.91347949486E+03  0.25500000920E-02 0. -1.
       -2    1    3    3    0  502 -0.51708985297E+03  0.40813677946E+03  0.21299402629E+04  0.22294849339E+04  0.25500000920E-02 0.  1.
</event>
<event>
 5   0  0.2588048E-05  0.2885622E+04  0.7818609E-02  0.8277168E-01
       -2   -1    0    0    0  501  0.00000000000E+00  0.00000000000E+00  0.84809204078E+03  0.84809204079E+03  0.25500000920E-02 0. -1.
        2   -1    0    0  501    0  0.00000000000E+00  0.00000000000E+00 -0.24545729191E+04  0.24545729191E+04  0.25500000920E-02 0.  1.
    10030    2    1    2    0    0  0.00000000000E+00  0.00000000000E+00 -0.16064808783E+04  0.33026649599E+04  0.28856221210E+04 0.  0.
        2    1    3    3  502    0  0.50682822025E+03 -0.73570919951E+03  0.49344100850E+03  0.10206012443E+04  0.25500000920E-02 0. -1.
       -2    1    3    3    0  502 -0.50682822025E+03  0.73570919951E+03 -0.20999218868E+04  0.22820637156E+04  0.25500000920E-02 0.  1.
</event>
<event>
 5   0  0.2624815E-05  0.2796948E+04  0.7818609E-02  0.8304217E-01
        2   -1    0    0  501    0  0.00000000000E+00  0.00000000000E+00  0.17102601693E+04  0.17102601693E+04  0.25500000920E-02 0.  1.
       -2   -1    0    0    0  501  0.00000000000E+00  0.00000000000E+00 -0.11435273375E+04  0.11435273375E+04  0.25500000920E-02 0. -1.
    10030    2    1    2    0    0  0.00000000000E+00  0.00000000000E+00  0.56673283179E+03  0.28537875068E+04  0.27969478064E+04 0.  0.
        4    1    3    3  502    0  0.12238817656E+04 -0.14165949751E+03 -0.39172421659E+03  0.12928277009E+04  0.12699999809E+01 0. -1.
       -4    1    3    3    0  502 -0.12238817656E+04  0.14165949751E+03  0.95845704837E+03  0.15609598060E+04  0.12699999809E+01 0.  1.
</event>
<event>
 5   0  0.1078103E-05  0.2686241E+04  0.7818609E-02  0.8339483E-01
        1   -1    0    0  501    0  0.00000000000E+00  0.00000000000E+00  0.10429316375E+04  0.10429316375E+04  0.50400001928E-02 0. -1.
       -1   -1    0    0    0  501  0.00000000000E+00  0.00000000000E+00 -0.17297126323E+04  0.17297126323E+04  0.50400001928E-02 0.  1.
    10030    2    1    2    0    0  0.00000000000E+00  0.00000000000E+00 -0.68678099482E+03  0.27726442698E+04  0.26862405165E+04 0.  0.
        1    1    3    3  502    0 -0.15094311255E+03 -0.98872201877E+03  0.58189085282E+03  0.11571309426E+04  0.50400001928E-02 0. -1.
       -1    1    3    3    0  502  0.15094311255E+03  0.98872201877E+03 -0.12686718476E+04  0.16155133273E+04  0.50400001928E-02 0.  1.
</event>
<event>
 5   0  0.1105862E-05  0.2807249E+04  0.7818609E-02  0.8301021E-01
       -1   -1    0    0    0  501  0.00000000000E+00  0.00000000000E+00  0.86464263274E+03  0.86464263276E+03  0.50400001928E-02 0. -1.
        1   -1    0    0  501    0  0.00000000000E+00  0.00000000000E+00 -0.22785853495E+04  0.22785853495E+04  0.50400001928E-02 0.  1.
    10030    2    1    2    0    0  0.00000000000E+00  0.00000000000E+00 -0.14139427167E+04  0.31432279822E+04  0.28072492127E+04 0.  0.
        3    1    3    3  502    0 -0.16348439509E+03  0.91152943246E+03 -0.18879838241E+04  0.21028780241E+04  0.10100000352E+00 0.  1.
       -3    1    3    3    0  502  0.16348439509E+03 -0.91152943246E+03  0.47404110743E+03  0.10403499581E+04  0.10100000352E+00 0. -1.
</event>
<event>
 5   0  0.2651061E-05  0.2790700E+04  0.7818609E-02  0.8306161E-01
       -2   -1    0    0    0  501  0.00000000000E+00  0.00000000000E+00  0.11843587920E+04  0.11843587920E+04  0.25500000920E-02 0. -1.
        2   -1    0    0  501    0  0.00000000000E+00  0.00000000000E+00 -0.16439288454E+04  0.16439288454E+04  0.25500000920E-02 0.  1.
    10030    2    1    2    0    0  0.00000000000E+00  0.00000000000E+00 -0.45957005341E+03  0.28282876374E+04  0.27906999706E+04 0.  0.
        3    1    3    3  502    0  0.36718770859E+03 -0.91138428306E+03 -0.12338629159E+04  0.15772970012E+04  0.10100000352E+00 0.  1.
       -3    1    3    3    0  502 -0.36718770859E+03  0.91138428306E+03  0.77429286247E+03  0.12509906362E+04  0.10100000352E+00 0. -1.
</event>
<event>
 5   0  0.1017456E-05  0.2707068E+04  0.7818609E-02  0.8332715E-01
       -1   -1    0    0    0  501  0.00000000000E+00  0.00000000000E+00  0.11837566492E+04  0.11837566492E+04  0.50400001928E-02 0. -1.
        1   -1    0    0  501    0  0.00000000000E+00  0.00000000000E+00 -0.15476610691E+04  0.15476610691E+04  0.50400001928E-02 0.  1.
    10030    2    1    2    0    0  0.00000000000E+00  0.00000000000E+00 -0.36390441993E+03  0.27314177184E+04  0.27070678465E+04 0.  0.
        5    1    3    3  502    0  0.11002657950E+04  0.59979488831E+03  0.33420886889E+03  0.12969411651E+04  0.46999998093E+01 0.  1.
       -5    1    3    3    0  502 -0.11002657950E+04 -0.59979488831E+03 -0.69811328882E+03  0.14344765532E+04  0.46999998093E+01 0. -1.
</event>
<event>
 5   0  0.1067434E-05  0.2112981E+04  0.7818609E-02  0.8555547E-01
        1   -1    0    0  501    0  0.00000000000E+00  0.00000000000E+00  0.77770323141E+03  0.77770323142E+03  0.50400001928E-02 0. -1.
       -1   -1    0    0    0  501  0.00000000000E+00  0.00000000000E+00 -0.14352159280E+04  0.14352159280E+04  0.50400001928E-02 0.  1.
    10030    2    1    2    0    0  0.00000000000E+00  0.00000000000E+00 -0.65751269661E+03  0.22129191594E+04  0.21129808944E+04 0.  0.
        4    1    3    3  502    0  0.81580455571E+03 -0.23269808190E+03 -0.98820859089E+03  0.13023990565E+04  0.12699999809E+01 0.  1.
       -4    1    3    3    0  502 -0.81580455571E+03  0.23269808190E+03  0.33069589428E+03  0.91052010292E+03  0.12699999809E+01 0. -1.
</event>
<event>
 5   0  0.2624815E-05  0.2689797E+04  0.7818609E-02  0.8338323E-01
        2   -1    0    0  501    0  0.00000000000E+00  0.00000000000E+00  0.18091925628E+04  0.18091925628E+04  0.25500000920E-02 0.  1.
       -2   -1    0    0    0  501  0.00000000000E+00  0.00000000000E+00 -0.99975622902E+03  0.99975622902E+03  0.25500000920E-02 0. -1.
    10030    2    1    2    0    0  0.00000000000E+00  0.00000000000E+00  0.80943633381E+03  0.28089487919E+04  0.26897966720E+04 0.  0.
        4    1    3    3  502    0 -0.28752464180E+03  0.42604926366E+03 -0.89313922935E+03  0.10304793499E+04  0.12699999809E+01 0. -1.
       -4    1    3    3    0  502  0.28752464180E+03 -0.42604926366E+03  0.17025755632E+04  0.17784694419E+04  0.12699999809E+01 0.  1.
</event>
<event>
 5   0  0.2697964E-05  0.2795128E+04  0.7818609E-02  0.8304782E-01
       -2   -1    0    0    0  501  0.00000000000E+00  0.00000000000E+00  0.21615424798E+04  0.21615424798E+04  0.25500000920E-02 0. -1.
        2   -1    0    0  501    0  0.00000000000E+00  0.00000000000E+00 -0.90360714028E+03  0.90360714028E+03  0.25500000920E-02 0.  1.
    10030    2    1    2    0    0  0.00000000000E+00  0.00000000000E+00  0.12579353395E+04  0.30651496201E+04  0.27951280606E+04 0.  0.
        1    1    3    3  502    0  0.10163234870E+04  0.37464567152E+03  0.15974080373E+04  0.19300220846E+04  0.50400001928E-02 0. -1.
       -1    1    3    3    0  502 -0.10163234870E+04 -0.37464567152E+03 -0.33947269774E+03  0.11351275355E+04  0.50400001928E-02 0.  1.
</event>
<event>
 5   0  0.1075146E-05  0.2694673E+04  0.7818609E-02  0.8336736E-01
        1   -1    0    0  501    0  0.00000000000E+00  0.00000000000E+00  0.23916566581E+04  0.23916566581E+04  0.50400001928E-02 0. -1.
       -1   -1    0    0    0  501  0.00000000000E+00  0.00000000000E+00 -0.75902004996E+03  0.75902004997E+03  0.50400001928E-02 0.  1.
    10030    2    1    2    0    0  0.00000000000E+00  0.00000000000E+00  0.16326366081E+04  0.31506767081E+04  0.26946727862E+04 0.  0.
        2    1    3    3  502    0 -0.13244385542E+04  0.17505939250E+02  0.52784574804E+03  0.14258559098E+04  0.25500000920E-02 0.  1.
       -2    1    3    3    0  502  0.13244385542E+04 -0.17505939250E+02  0.11047908601E+04  0.17248207983E+04  0.25500000920E-02 0. -1.
</event>
<event>
 5   0  0.2588048E-05  0.2723821E+04  0.7818609E-02  0.8327317E-01
       -2   -1    0    0    0  501  0.00000000000E+00  0.00000000000E+00  0.15095073576E+04  0.15095073576E+04  0.25500000920E-02 0. -1.
        2   -1    0    0  501    0  0.00000000000E+00  0.00000000000E+00 -0.12287456966E+04  0.12287456966E+04  0.25500000920E-02 0.  1.
    10030    2    1    2    0    0  0.00000000000E+00  0.00000000000E+00  0.28076166100E+03  0.27382530542E+04  0.27238213375E+04 0.  0.
        2    1    3    3  502    0  0.34628190383E+02  0.32179471352E+03  0.14702844158E+04  0.15054857065E+04  0.25500000920E-02 0. -1.
       -2    1    3    3    0  502 -0.34628190383E+02 -0.32179471352E+03 -0.11895227548E+04  0.12327673476E+04  0.25500000920E-02 0.  1.
</event>
<event>
 5   0  0.2697964E-05  0.2839421E+04  0.7818609E-02  0.8291133E-01
        2   -1    0    0  501    0  0.00000000000E+00  0.00000000000E+00  0.14078982597E+04  0.14078982597E+04  0.25500000920E-02 0. -1.
       -2   -1    0    0    0  501  0.00000000000E+00  0.00000000000E+00 -0.14316217778E+04  0.14316217778E+04  0.25500000920E-02 0.  1.
    10030    2    1    2    0    0  0.00000000000E+00  0.00000000000E+00 -0.23723518036E+02  0.28395200375E+04  0.28394209336E+04 0.  0.
        1    1    3    3  502    0  0.19932471250E+03 -0.80307048854E+03  0.11418358472E+04  0.14101211482E+04  0.50400001928E-02 0. -1.
       -1    1    3    3    0  502 -0.19932471250E+03  0.80307048854E+03 -0.11655593653E+04  0.14293988893E+04  0.50400001928E-02 0.  1.
</event>
<event>
 5   0  0.2651061E-05  0.2808601E+04  0.7818609E-02  0.8300603E-01
       -2   -1    0    0    0  501  0.00000000000E+00  0.00000000000E+00  0.89964269110E+03  0.89964269111E+03  0.25500000920E-02 0. -1.
        2   -1    0    0  501    0  0.00000000000E+00  0.00000000000E+00 -0.21920483826E+04  0.21920483826E+04  0.25500000920E-02 0.  1.
    10030    2    1    2    0    0  0.00000000000E+00  0.00000000000E+00 -0.12924056914E+04  0.30916910737E+04  0.28086012931E+04 0.  0.
        3    1    3    3  502    0  0.11024946274E+04  0.34707606373E+02  0.31051386217E+03  0.11459135614E+04  0.10100000352E+00 0.  1.
       -3    1    3    3    0  502 -0.11024946274E+04 -0.34707606373E+02 -0.16029195536E+04  0.19457775122E+04  0.10100000352E+00 0. -1.
</event>
<event>
 5   0  0.2588048E-05  0.2705968E+04  0.7818609E-02  0.8333071E-01
        2   -1    0    0  501    0  0.00000000000E+00  0.00000000000E+00  0.23092419368E+04  0.23092419368E+04  0.25500000920E-02 0.  1.
       -2   -1    0    0    0  501  0.00000000000E+00  0.00000000000E+00 -0.79271310059E+03  0.79271310060E+03  0.25500000920E-02 0. -1.
    10030    2    1    2    0    0  0.00000000000E+00  0.00000000000E+00  0.15165288362E+04  0.31019550374E+04  0.27059684667E+04 0.  0.
        2    1    3    3  502    0  0.31438889839E+03 -0.79188326935E+03 -0.44656203736E+03  0.96194446041E+03  0.25500000920E-02 0. -1.
       -2    1    3    3    0  502 -0.31438889839E+03  0.79188326935E+03  0.19630908736E+04  0.21400105770E+04  0.25500000920E-02 0.  1.
</event>
<event>
 5   0  0.1017456E-05  0.2840355E+04  0.7818609E-02  0.8290848E-01
        1   -1    0    0  501    0  0.00000000000E+00  0.00000000000E+00  0.15504516023E+04  0.15504516023E+04  0.50400001928E-02 0. -1.
       -1   -1    0    0    0  501  0.00000000000E+00  0.00000000000E+00 -0.13008496551E+04  0.13008496551E+04  0.50400001928E-02 0.  1.
    10030    2    1    2    0    0  0.00000000000E+00  0.00000000000E+00  0.24960194718E+03  0.28513012574E+04  0.28403552117E+04 0.  0.
        5    1    3    3  502    0  0.76714331902E+03 -0.11794231657E+04 -0.69164943305E+02  0.14086709180E+04  0.46999998093E+01 0.  1.
       -5    1    3    3    0  502 -0.76714331902E+03  0.11794231657E+04  0.31876689049E+03  0.14426303394E+04  0.46999998093E+01 0. -1.
</event>
<event>
 5   0  0.2624815E-05  0.2777866E+04  0.7818609E-02  0.8310173E-01
        2   -1    0    0  501    0  0.00000000000E+00  0.00000000000E+00  0.14234148149E+04  0.14234148149E+04  0.25500000920E-02 0. -1.
       -2   -1    0    0    0  501  0.00000000000E+00  0.00000000000E+00 -0.13552865637E+04  0.13552865637E+04  0.25500000920E-02 0.  1.
    10030    2    1    2    0    0  0.00000000000E+00  0.00000000000E+00  0.68128251151E+02  0.27787013786E+04  0.27778660682E+04 0.  0.
        4    1    3    3  502    0  0.77208009037E+03  0.47561137638E+03  0.10864353810E+04  0.14151527470E+04  0.12699999809E+01 0. -1.
       -4    1    3    3    0  502 -0.77208009037E+03 -0.47561137638E+03 -0.10183071298E+04  0.13635486316E+04  0.12699999809E+01 0.  1.
</event>
<event>
 5   0  0.1105862E-05  0.1663970E+04  0.7818609E-02  0.8782184E-01
        1   -1    0    0  501    0  0.00000000000E+00  0.00000000000E+00  0.11356845041E+04  0.11356845041E+04  0.50400001928E-02 0.  1.
       -1   -1    0    0    0  501  0.00000000000E+00  0.00000000000E+00 -0.60949969394E+03  0.60949969396E+03  0.50400001928E-02 0. -1.
    10030    2    1    2    0    0  0.00000000000E+00  0.00000000000E+00  0.52618481015E+03  0.17451841981E+04  0.16639703816E+04 0.  0.
        3    1    3    3  502    0  0.31324131322E+03 -0.34853043159E+03  0.98410887958E+03  0.10899834307E+04  0.10100000352E+00 0.  1.
       -3    1    3    3    0  502 -0.31324131322E+03  0.34853043159E+03 -0.45792406943E+03  0.65520076741E+03  0.10100000352E+00 0. -1.
</event>
<event>
 5   0  0.1078103E-05  0.2862802E+04  0.7818609E-02  0.8284032E-01
       -1   -1    0    0    0  501  0.00000000000E+00  0.00000000000E+00  0.10722212605E+04  0.10722212605E+04  0.50400001928E-02 0. -1.
        1   -1    0    0  501    0  0.00000000000E+00  0.00000000000E+00 -0.19109016197E+04  0.19109016197E+04  0.50400001928E-02 0.  1.
    10030    2    1    2    0    0  0.00000000000E+00  0.00000000000E+00 -0.83868035922E+03  0.29831228803E+04  0.28628023638E+04 0.  0.
        1    1    3    3  502    0 -0.29266585976E+02 -0.11173307141E+04 -0.13511406531E+04  0.17535294472E+04  0.50400001928E-02 0.  1.
       -1    1    3    3    0  502  0.29266585976E+02  0.11173307141E+04  0.51246029390E+03  0.12295934331E+04  0.50400001928E-02 0. -1.
</event>
<event>
 5   0  0.2651061E-05  0.2823940E+04  0.7818609E-02  0.8295874E-01
        2   -1    0    0  501    0  0.00000000000E+00  0.00000000000E+00  0.61115681521E+03  0.61115681521E+03  0.25500000920E-02 0. -1.
       -2   -1    0    0    0  501  0.00000000000E+00  0.00000000000E+00 -0.32621078977E+04  0.32621078977E+04  0.25500000920E-02 0.  1.
    10030    2    1    2    0    0  0.00000000000E+00  0.00000000000E+00 -0.26509510825E+04  0.38732647130E+04  0.28239401365E+04 0.  0.
        3    1    3    3  502    0 -0.52177555170E+03 -0.94747202433E+03 -0.25702995039E+04  0.27886183878E+04  0.10100000352E+00 0.  1.
       -3    1    3    3    0  502  0.52177555170E+03  0.94747202433E+03 -0.80651578673E+02  0.10846463251E+04  0.10100000352E+00 0. -1.
</event>
<event>
 5   0  0.8958000E-06  0.2216227E+04  0.7818609E-02  0.8511704E-01
        3   -1    0    0  501    0  0.00000000000E+00  0.00000000000E+00  0.10667991788E+04  0.10667991836E+04  0.10100000352E+00 0. -1.
       -3   -1    0    0    0  501  0.00000000000E+00  0.00000000000E+00 -0.11510281803E+04  0.11510281848E+04  0.10100000352E+00 0.  1.
    10030    2    1    2    0    0  0.00000000000E+00  0.00000000000E+00 -0.84229001555E+02  0.22178273683E+04  0.22162273600E+04 0.  0.
        4    1    3    3  502    0  0.57879626396E+03 -0.59195037912E+03  0.69496592499E+03  0.10809207262E+04  0.12699999809E+01 0. -1.
       -4    1    3    3    0  502 -0.57879626396E+03  0.59195037912E+03 -0.77919492654E+03  0.11369066421E+04  0.12699999809E+01 0.  1.
</event>
<event>
 5   0  0.1105862E-05  0.2414872E+04  0.7818609E-02  0.8433957E-01
        1   -1    0    0  501    0  0.00000000000E+00  0.00000000000E+00  0.12609323192E+04  0.12609323192E+04  0.50400001928E-02 0. -1.
       -1   -1    0    0    0  501  0.00000000000E+00  0.00000000000E+00 -0.11562092578E+04  0.11562092578E+04  0.50400001928E-02 0.  1.
    10030    2    1    2    0    0  0.00000000000E+00  0.00000000000E+00  0.10472306144E+03  0.24171415770E+04  0.24148719394E+04 0.  0.
        3    1    3    3  502    0 -0.32270424222E+03  0.84023626088E+03  0.85795745833E+03  0.12434733662E+04  0.10100000352E+00 0. -1.
       -3    1    3    3    0  502  0.32270424222E+03 -0.84023626088E+03 -0.75323439688E+03  0.11736682107E+04  0.10100000352E+00 0.  1.
</event>
<event>
 5   0  0.1067434E-05  0.2870354E+04  0.7818609E-02  0.8281753E-01
       -1   -1    0    0    0  501  0.00000000000E+00  0.00000000000E+00  0.14128975597E+04  0.14128975597E+04  0.50400001928E-02 0. -1.
        1   -1    0    0  501    0  0.00000000000E+00  0.00000000000E+00 -0.14578077083E+04  0.14578077083E+04  0.50400001928E-02 0.  1.
    10030    2    1    2    0    0  0.00000000000E+00  0.00000000000E+00 -0.44910148635E+02  0.28707052680E+04  0.28703539527E+04 0.  0.
        4    1    3    3  502    0 -0.12173960956E+04 -0.68135185022E+03 -0.35930149819E+03  0.14406223575E+04  0.12699999809E+01 0. -1.
       -4    1    3    3    0  502  0.12173960956E+04  0.68135185022E+03  0.31439134955E+03  0.14300829105E+04  0.12699999809E+01 0.  1.
</event>
<event>
 5   0  0.1017456E-05  0.1611701E+04  0.7818609E-02  0.8813392E-01
        1   -1    0    0  501    0  0.00000000000E+00  0.00000000000E+00  0.66352554557E+03  0.66352554559E+03  0.50400001928E-02 0. -1.
       -1   -1    0    0    0  501  0.00000000000E+00  0.00000000000E+00 -0.97870358986E+03  0.97870358987E+03  0.50400001928E-02 0.  1.
    10030    2    1    2    0    0  0.00000000000E+00  0.00000000000E+00 -0.31517804429E+03  0.16422291355E+04  0.16117007581E+04 0.  0.
        5    1    3    3  502    0 -0.57136178744E+03  0.74657009231E+01  0.42138394913E+03  0.70999757142E+03  0.46999998093E+01 0. -1.
       -5    1    3    3    0  502  0.57136178744E+03 -0.74657009231E+01 -0.73656199342E+03  0.93223156404E+03  0.46999998093E+01 0.  1.
</event>
<event>
 5   0  0.1067434E-05  0.2896925E+04  0.7818609E-02  0.8273793E-01
       -1   -1    0    0    0  501  0.00000000000E+00  0.00000000000E+00  0.85007641648E+03  0.85007641649E+03  0.50400001928E-02 0. -1.
        1   -1    0    0  501    0  0.00000000000E+00  0.00000000000E+00 -0.24680654942E+04  0.24680654942E+04  0.50400001928E-02 0.  1.
    10030    2    1    2    0    0  0.00000000000E+00  0.00000000000E+00 -0.16179890778E+04  0.33181419107E+04  0.28969254537E+04 0.  0.
        4    1    3    3  502    0 -0.43955924651E+03  0.96571940101E+03 -0.19383719577E+04  0.22097768557E+04  0.12699999809E+01 0.  1.
       -4    1    3    3    0  502  0.43955924651E+03 -0.96571940101E+03  0.32038287989E+03  0.11083650551E+04  0.12699999809E+01 0. -1.
</event>
<event>
 5   0  0.2651061E-05  0.2780301E+04  0.7818609E-02  0.8309410E-01
       -2   -1    0    0    0  501  0.00000000000E+00  0.00000000000E+00  0.81498444706E+03  0.81498444707E+03  0.25500000920E-02 0. -1.
        2   -1    0    0  501    0  0.00000000000E+00  0.00000000000E+00 -0.23712336266E+04  0.23712336266E+04  0.25500000920E-02 0.  1.
    10030    2    1    2    0    0  0.00000000000E+00  0.00000000000E+00 -0.15562491795E+04  0.31862180737E+04  0.27803010816E+04 0.  0.
        3    1    3    3  502    0  0.10515230454E+04  0.33020914411E+03  0.19278605060E+03  0.11188857249E+04  0.10100000352E+00 0. -1.
       -3    1    3    3    0  502 -0.10515230454E+04 -0.33020914411E+03 -0.17490352301E+04  0.20673323488E+04  0.10100000352E+00 0.  1.
</event>
<event>
 5   0  0.1078103E-05  0.2121958E+04  0.7818609E-02  0.8551632E-01
        1   -1    0    0  501    0  0.00000000000E+00  0.00000000000E+00  0.14659001538E+04  0.14659001538E+04  0.50400001928E-02 0.  1.
       -1   -1    0    0    0  501  0.00000000000E+00  0.00000000000E+00 -0.76790805185E+03  0.76790805187E+03  0.50400001928E-02 0. -1.
    10030    2    1    2    0    0  0.00000000000E+00  0.00000000000E+00  0.69799210194E+03  0.22338082057E+04  0.21219580876E+04 0.  0.
        1    1    3    3  502    0  0.95814761480E+03 -0.27715668657E+03  0.72974257331E+03  0.12358749548E+04  0.50400001928E-02 0.  1.
       -1    1    3    3    0  502 -0.95814761480E+03  0.27715668657E+03 -0.31750471374E+02  0.99793325083E+03  0.50400001928E-02 0. -1.
</event>
<event>
 5   0  0.2651061E-05  0.3072414E+04  0.7818609E-02  0.8223350E-01
       -2   -1    0    0    0  501  0.00000000000E+00  0.00000000000E+00  0.77918407229E+03  0.77918407229E+03  0.25500000920E-02 0. -1.
        2   -1    0    0  501    0  0.00000000000E+00  0.00000000000E+00 -0.30287216772E+04  0.30287216772E+04  0.25500000920E-02 0.  1.
    10030    2    1    2    0    0  0.00000000000E+00  0.00000000000E+00 -0.22495376049E+04  0.38079057495E+04  0.30724138330E+04 0.  0.
        3    1    3    3  502    0 -0.74105080519E+03 -0.60589124505E+03 -0.26139262664E+04  0.27836794056E+04  0.10100000352E+00 0.  1.
       -3    1    3    3    0  502  0.74105080519E+03  0.60589124505E+03  0.36438866150E+03  0.10242263439E+04  0.10100000352E+00 0. -1.
</event>
<event>
 5   0  0.2624815E-05  0.2776088E+04  0.7818609E-02  0.8310731E-01
       -2   -1    0    0    0  501  0.00000000000E+00  0.00000000000E+00  0.25220474280E+04  0.25220474280E+04  0.25500000920E-02 0. -1.
        2   -1    0    0  501    0  0.00000000000E+00  0.00000000000E+00 -0.76392954305E+03  0.76392954305E+03  0.25500000920E-02 0.  1.
    10030    2    1    2    0    0  0.00000000000E+00  0.00000000000E+00  0.17581178850E+04  0.32859769711E+04  0.27760882834E+04 0.  0.
        4    1    3    3  502    0 -0.94672661896E+03 -0.48711120114E+03  0.19331890262E+04  0.22069866418E+04  0.12699999809E+01 0. -1.
       -4    1    3    3    0  502  0.94672661896E+03  0.48711120114E+03 -0.17507114118E+03  0.10789903293E+04  0.12699999809E+01 0.  1.
</event>
<event>
 5   0  0.1067434E-05  0.2850683E+04  0.7818609E-02  0.8287704E-01
       -1   -1    0    0    0  501  0.00000000000E+00  0.00000000000E+00  0.96686895546E+03  0.96686895547E+03  0.50400001928E-02 0.  1.
        1   -1    0    0  501    0  0.00000000000E+00  0.00000000000E+00 -0.21012134573E+04  0.21012134573E+04  0.50400001928E-02 0. -1.
    10030    2    1    2    0    0  0.00000000000E+00  0.00000000000E+00 -0.11343445018E+04  0.30680824128E+04  0.28506827678E+04 0.  0.
        4    1    3    3  502    0  0.14233437334E+04  0.73101212577E+02 -0.58717096635E+03  0.15414352167E+04  0.12699999809E+01 0. -1.
       -4    1    3    3    0  502 -0.14233437334E+04 -0.73101212577E+02 -0.54717353549E+03  0.15266471961E+04  0.12699999809E+01 0.  1.
</event>
<event>
 5   0  0.1078103E-05  0.2863384E+04  0.7818609E-02  0.8283856E-01
       -1   -1    0    0    0  501  0.00000000000E+00  0.00000000000E+00  0.21458603722E+04  0.21458603722E+04  0.50400001928E-02 0.  1.
        1   -1    0    0  501    0  0.00000000000E+00  0.00000000000E+00 -0.95520724632E+03  0.95520724633E+03  0.50400001928E-02 0. -1.
    10030    2    1    2    0    0  0.00000000000E+00  0.00000000000E+00  0.11906531259E+04  0.31010676185E+04  0.28633835769E+04 0.  0.
        1    1    3    3  502    0 -0.68976691319E+03 -0.97838986606E+03 -0.25517360409E+03  0.12239847600E+04  0.50400001928E-02 0. -1.
       -1    1    3    3    0  502  0.68976691319E+03  0.97838986606E+03  0.14458267299E+04  0.18770828585E+04  0.50400001928E-02 0.  1.
</event>
<event>
 5   0  0.2588048E-05  0.2844769E+04  0.7818609E-02  0.8289503E-01
        2   -1    0    0  501    0  0.00000000000E+00  0.00000000000E+00  0.14861953229E+04  0.14861953229E+04  0.25500000920E-02 0. -1.
       -2   -1    0    0    0  501  0.00000000000E+00  0.00000000000E+00 -0.13613134533E+04  0.13613134533E+04  0.25500000920E-02 0.  1.
    10030    2    1    2    0    0  0.00000000000E+00  0.00000000000E+00  0.12488186963E+03  0.28475087763E+04  0.28447690152E+04 0.  0.
        2    1    3    3  502    0  0.61227982803E+03  0.48681662171E+03 -0.11266849614E+04  0.13716034461E+04  0.25500000920E-02 0.  1.
       -2    1    3    3    0  502 -0.61227982803E+03 -0.48681662171E+03  0.12515668311E+04  0.14759053302E+04  0.25500000920E-02 0. -1.
</event>
<event>
 5   0  0.2651061E-05  0.2736993E+04  0.7818609E-02  0.8323101E-01
        2   -1    0    0  501    0  0.00000000000E+00  0.00000000000E+00  0.24183782356E+04  0.24183782356E+04  0.25500000920E-02 0.  1.
       -2   -1    0    0    0  501  0.00000000000E+00  0.00000000000E+00 -0.77439609378E+03  0.77439609379E+03  0.25500000920E-02 0. -1.
    10030    2    1    2    0    0  0.00000000000E+00  0.00000000000E+00  0.16439821418E+04  0.31927743294E+04  0.27369929915E+04 0.  0.
        3    1    3    3  502    0 -0.11085196851E+04 -0.37022842205E+03  0.16525198499E+04  0.20240323222E+04  0.10100000352E+00 0.  1.
       -3    1    3    3    0  502  0.11085196851E+04  0.37022842205E+03 -0.85377080282E+01  0.11687420072E+04  0.10100000352E+00 0. -1.
</event>
<event>
 5   0  0.1067434E-05  0.2558896E+04  0.7818609E-02  0.8382299E-01
       -1   -1    0    0    0  501  0.00000000000E+00  0.00000000000E+00  0.90915044291E+03  0.90915044292E+03  0.50400001928E-02 0. -1.
        1   -1    0    0  501    0  0.00000000000E+00  0.00000000000E+00 -0.18005677978E+04  0.18005677978E+04  0.50400001928E-02 0.  1.
    10030    2    1    2    0    0  0.00000000000E+00  0.00000000000E+00 -0.89141735490E+03  0.27097182407E+04  0.25588958642E+04 0.  0.
        4    1    3    3  502    0 -0.20248789196E+03 -0.10709579938E+04 -0.11553038709E+04  0.15882950034E+04  0.12699999809E+01 0.  1.
       -4    1    3    3    0  502  0.20248789196E+03  0.10709579938E+04  0.26388651599E+03  0.11214232373E+04  0.12699999809E+01 0. -1.
</event>
<event>
 5   0  0.1075146E-05  0.2789282E+04  0.7818609E-02  0.8306604E-01
       -1   -1    0    0    0  501  0.00000000000E+00  0.00000000000E+00  0.17440117559E+04  0.17440117559E+04  0.50400001928E-02 0.  1.
        1   -1    0    0  501    0  0.00000000000E+00  0.00000000000E+00 -0.11152580919E+04  0.11152580919E+04  0.50400001928E-02 0. -1.
    10030    2    1    2    0    0  0.00000000000E+00  0.00000000000E+00  0.62875366402E+03  0.28592698479E+04  0.27892817880E+04 0.  0.
        2    1    3    3  502    0 -0.50192368970E+03  0.63239676473E+03  0.14800870182E+04  0.16859746854E+04  0.25500000920E-02 0.  1.
       -2    1    3    3    0  502  0.50192368970E+03 -0.63239676473E+03 -0.85133335420E+03  0.11732951625E+04  0.25500000920E-02 0. -1.
</event>
<event>
 5   0  0.1078103E-05  0.2752824E+04  0.7818609E-02  0.8318066E-01
       -1   -1    0    0    0  501  0.00000000000E+00  0.00000000000E+00  0.11725030464E+04  0.11725030464E+04  0.50400001928E-02 0.  1.
        1   -1    0    0  501    0  0.00000000000E+00  0.00000000000E+00 -0.16157822572E+04  0.16157822572E+04  0.50400001928E-02 0. -1.
    10030    2    1    2    0    0  0.00000000000E+00  0.00000000000E+00 -0.44327921085E+03  0.27882853036E+04  0.27528237276E+04 0.  0.
        1    1    3    3  502    0 -0.11948567532E+04 -0.30373701546E+03 -0.84154548638E+03  0.14926947581E+04  0.50400001928E-02 0. -1.
       -1    1    3    3    0  502  0.11948567532E+04  0.30373701546E+03  0.39826627553E+03  0.12955905455E+04  0.50400001928E-02 0.  1.
</event>
<event>
 5   0  0.2588048E-05  0.2696233E+04  0.7818609E-02  0.8336228E-01
        2   -1    0    0  501    0  0.00000000000E+00  0.00000000000E+00  0.11237363057E+04  0.11237363057E+04  0.25500000920E-02 0.  1.
       -2   -1    0    0    0  501  0.00000000000E+00  0.00000000000E+00 -0.16172989613E+04  0.16172989613E+04  0.25500000920E-02 0. -1.
    10030    2    1    2    0    0  0.00000000000E+00  0.00000000000E+00 -0.49356265565E+03  0.27410352670E+04  0.26962326013E+04 0.  0.
        2    1    3    3  502    0  0.56228830799E+03  0.10699716075E+04  0.36013988422E+03  0.12612327772E+04  0.25500000920E-02 0.  1.
       -2    1    3    3    0  502 -0.56228830799E+03 -0.10699716075E+04 -0.85370253987E+03  0.14798024898E+04  0.25500000920E-02 0. -1.
</event>
<event>
 5   0  0.1017456E-05  0.1888187E+04  0.7818609E-02  0.8660759E-01
        1   -1    0    0  501    0  0.00000000000E+00  0.00000000000E+00  0.34152295236E+03  0.34152295240E+03  0.50400001928E-02 0. -1.
       -1   -1    0    0    0  501  0.00000000000E+00  0.00000000000E+00 -0.26098182429E+04  0.26098182429E+04  0.50400001928E-02 0.  1.
    10030    2    1    2    0    0  0.00000000000E+00  0.00000000000E+00 -0.22682952905E+04  0.29513411953E+04  0.18881873122E+04 0.  0.
        5    1    3    3  502    0 -0.93455577026E+03 -0.22542301373E+02 -0.92803701584E+03  0.13172613392E+04  0.46999998093E+01 0. -1.
       -5    1    3    3    0  502  0.93455577026E+03  0.22542301373E+02 -0.13402582747E+04  0.16340798560E+04  0.46999998093E+01 0.  1.
</event>
<event>
 5   0  0.1105862E-05  0.2821347E+04  0.7818609E-02  0.8296671E-01
       -1   -1    0    0    0  501  0.00000000000E+00  0.00000000000E+00  0.15794489354E+04  0.15794489354E+04  0.50400001928E-02 0.  1.
        1   -1    0    0  501    0  0.00000000000E+00  0.00000000000E+00 -0.12599329577E+04  0.12599329577E+04  0.50400001928E-02 0. -1.
    10030    2    1    2    0    0  0.00000000000E+00  0.00000000000E+00  0.31951597768E+03  0.28393818931E+04  0.28213470320E+04 0.  0.
        3    1    3    3  502    0 -0.68278148547E+03  0.18548833382E+03 -0.10684543406E+04  0.12814800689E+04  0.10100000352E+00 0. -1.
       -3    1    3    3    0  502  0.68278148547E+03 -0.18548833382E+03  0.13879703183E+04  0.15579018241E+04  0.10100000352E+00 0.  1.
</event>
<event>
 5   0  0.2651061E-05  0.2708009E+04  0.7818609E-02  0.8332411E-01
       -2   -1    0    0    0  501  0.00000000000E+00  0.00000000000E+00  0.16990021512E+04  0.16990021512E+04  0.25500000920E-02 0.  1.
        2   -1    0    0  501    0  0.00000000000E+00  0.00000000000E+00 -0.10790617027E+04  0.10790617027E+04  0.25500000920E-02 0. -1.
    10030    2    1    2    0    0  0.00000000000E+00  0.00000000000E+00  0.61994044844E+03  0.27780638539E+04  0.27080089765E+04 0.  0.
        3    1    3    3  502    0 -0.35232945078E+03 -0.11154754583E+04  0.10094497097E+04  0.15451246767E+04  0.10100000352E+00 0.  1.
       -3    1    3    3    0  502  0.35232945078E+03  0.11154754583E+04 -0.38950926122E+03  0.12329391772E+04  0.10100000352E+00 0. -1.
</event>
<event>
 5   0  0.2651061E-05  0.2797185E+04  0.7818609E-02  0.8304143E-01
       -2   -1    0    0    0  501  0.00000000000E+00  0.00000000000E+00  0.88804430899E+03  0.88804430899E+03  0.25500000920E-02 0.  1.
        2   -1    0    0  501    0  0.00000000000E+00  0.00000000000E+00 -0.22026611895E+04  0.22026611895E+04  0.25500000920E-02 0. -1.
    10030    2    1    2    0    0  0.00000000000E+00  0.00000000000E+00 -0.13146168805E+04  0.30907054985E+04  0.27971848234E+04 0.  0.
        3    1    3    3  502    0 -0.27143550281E+03  0.45149931522E+03 -0.20888410846E+04  0.21542483494E+04  0.10100000352E+00 0. -1.
       -3    1    3    3    0  502  0.27143550281E+03 -0.45149931522E+03  0.77422420407E+03  0.93645714915E+03  0.10100000352E+00 0.  1.
</event>
<event>
 5   0  0.1078103E-05  0.1418796E+04  0.7818609E-02  0.8940324E-01
       -1   -1    0    0    0  501  0.00000000000E+00  0.00000000000E+00  0.38035686138E+03  0.38035686142E+03  0.50400001928E-02 0. -1.
        1   -1    0    0  501    0  0.00000000000E+00  0.00000000000E+00 -0.13230879197E+04  0.13230879197E+04  0.50400001928E-02 0.  1.
    10030    2    1    2    0    0  0.00000000000E+00  0.00000000000E+00 -0.94273105828E+03  0.17034447811E+04  0.14187960650E+04 0.  0.
        1    1    3    3  502    0 -0.24658729993E+03  0.66335103718E+03 -0.41247758102E+03  0.81913225421E+03  0.50400001928E-02 0. -1.
       -1    1    3    3    0  502  0.24658729993E+03 -0.66335103718E+03 -0.53025347726E+03  0.88431252687E+03  0.50400001928E-02 0.  1.
</event>
<event>
 5   0  0.2697964E-05  0.2816729E+04  0.7818609E-02  0.8298093E-01
       -2   -1    0    0    0  501  0.00000000000E+00  0.00000000000E+00  0.83259081407E+03  0.83259081407E+03  0.25500000920E-02 0.  1.
        2   -1    0    0  501    0  0.00000000000E+00  0.00000000000E+00 -0.23823119877E+04  0.23823119877E+04  0.25500000920E-02 0. -1.
    10030    2    1    2    0    0  0.00000000000E+00  0.00000000000E+00 -0.15497211736E+04  0.32149028018E+04  0.28167293638E+04 0.  0.
        1    1    3    3  502    0  0.10607323623E+04 -0.84543012957E+03 -0.12073530219E+04  0.18159313225E+04  0.50400001928E-02 0. -1.
       -1    1    3    3    0  502 -0.10607323623E+04  0.84543012957E+03 -0.34236815175E+03  0.13989714793E+04  0.50400001928E-02 0.  1.
</event>
<event>
 5   0  0.1075146E-05  0.2778977E+04  0.7818609E-02  0.8309825E-01
       -1   -1    0    0    0  501  0.00000000000E+00  0.00000000000E+00  0.12075007547E+04  0.12075007547E+04  0.50400001928E-02 0.  1.
        1   -1    0    0  501    0  0.00000000000E+00  0.00000000000E+00 -0.15989041092E+04  0.15989041092E+04  0.50400001928E-02 0. -1.
    10030    2    1    2    0    0  0.00000000000E+00  0.00000000000E+00 -0.39140335456E+03  0.28064048639E+04  0.27789767315E+04 0.  0.
        2    1    3    3  502    0 -0.10537661413E+04  0.62080643264E+03 -0.86164497749E+03  0.14960801364E+04  0.25500000920E-02 0. -1.
       -2    1    3    3    0  502  0.10537661413E+04 -0.62080643264E+03  0.47024162294E+03  0.13103247274E+04  0.25500000920E-02 0.  1.
</event>
<event>
 5   0  0.1078103E-05  0.1542090E+04  0.7818609E-02  0.8856936E-01
        1   -1    0    0  501    0  0.00000000000E+00  0.00000000000E+00  0.56923517212E+03  0.56923517215E+03  0.50400001928E-02 0. -1.
       -1   -1    0    0    0  501  0.00000000000E+00  0.00000000000E+00 -0.10444025911E+04  0.10444025911E+04  0.50400001928E-02 0.  1.
    10030    2    1    2    0    0  0.00000000000E+00  0.00000000000E+00 -0.47516741898E+03  0.16136377633E+04  0.15420903848E+04 0.  0.
        1    1    3    3  502    0 -0.44702727407E+02 -0.25665318051E+02 -0.10425976172E+04  0.10438710810E+04  0.50400001928E-02 0.  1.
       -1    1    3    3    0  502  0.44702727407E+02  0.25665318051E+02  0.56743019818E+03  0.56976668227E+03  0.50400001928E-02 0. -1.
</event>
<event>
 5   0  0.2518686E-05  0.1495625E+04  0.7818609E-02  0.8887367E-01
       -2   -1    0    0    0  501  0.00000000000E+00  0.00000000000E+00  0.83615183684E+03  0.83615183684E+03  0.25500000920E-02 0.  1.
        2   -1    0    0  501    0  0.00000000000E+00  0.00000000000E+00 -0.66880615331E+03  0.66880615331E+03  0.25500000920E-02 0. -1.
    10030    2    1    2    0    0  0.00000000000E+00  0.00000000000E+00  0.16734568353E+03  0.15049579902E+04  0.14956249444E+04 0.  0.
        5    1    3    3  502    0 -0.30444335630E+03  0.67694924133E+03  0.17509889587E+03  0.76264522936E+03  0.46999998093E+01 0.  1.
       -5    1    3    3    0  502  0.30444335630E+03 -0.67694924133E+03 -0.77532123388E+01  0.74231276079E+03  0.46999998093E+01 0. -1.
</event>
<event>
 5   0  0.2697964E-05  0.2238771E+04  0.7818609E-02  0.8502462E-01
        2   -1    0    0  501    0  0.00000000000E+00  0.00000000000E+00  0.15559847968E+04  0.15559847968E+04  0.25500000920E-02 0. -1.
       -2   -1    0    0    0  501  0.00000000000E+00  0.00000000000E+00 -0.80529280497E+03  0.80529280497E+03  0.25500000920E-02 0.  1.
    10030    2    1    2    0    0  0.00000000000E+00  0.00000000000E+00  0.75069199184E+03  0.23612776018E+04  0.22387705211E+04 0.  0.
        1    1    3    3  502    0  0.85374975005E+03  0.20795127077E+03  0.11067558213E+04  0.14131669451E+04  0.50400001928E-02 0. -1.
       -1    1    3    3    0  502 -0.85374975005E+03 -0.20795127077E+03 -0.35606382941E+03  0.94811065671E+03  0.50400001928E-02 0.  1.
</event>
<event>
 5   0  0.1075146E-05  0.2805896E+04  0.7818609E-02  0.8301440E-01
       -1   -1    0    0    0  501  0.00000000000E+00  0.00000000000E+00  0.19340022925E+04  0.19340022925E+04  0.50400001928E-02 0. -1.
        1   -1    0    0  501    0  0.00000000000E+00  0.00000000000E+00 -0.10177149697E+04  0.10177149697E+04  0.50400001928E-02 0.  1.
    10030    2    1    2    0    0  0.00000000000E+00  0.00000000000E+00  0.91628732280E+03  0.29517172621E+04  0.28058959955E+04 0.  0.
        2    1    3    3  502    0  0.13075842540E+04 -0.48237158463E+03  0.62712861151E+03  0.15283158124E+04  0.25500000920E-02 0.  1.
       -2    1    3    3    0  502 -0.13075842540E+04  0.48237158463E+03  0.28915871129E+03  0.14234014498E+04  0.25500000920E-02 0. -1.
</event>
<event>
 5   0  0.1075146E-05  0.2733887E+04  0.7818609E-02  0.8324093E-01
        1   -1    0    0  501    0  0.00000000000E+00  0.00000000000E+00  0.11998990485E+04  0.11998990485E+04  0.50400001928E-02 0.  1.
       -1   -1    0    0    0  501  0.00000000000E+00  0.00000000000E+00 -0.15572436017E+04  0.15572436017E+04  0.50400001928E-02 0. -1.
    10030    2    1    2    0    0  0.00000000000E+00  0.00000000000E+00 -0.35734455315E+03  0.27571426502E+04  0.27338874271E+04 0.  0.
        2    1    3    3  502    0 -0.80818968783E+02  0.10723340480E+04  0.67236786805E+03  0.12682706991E+04  0.25500000920E-02 0.  1.
       -2    1    3    3    0  502  0.80818968783E+02 -0.10723340480E+04 -0.10297124212E+04  0.14888719511E+04  0.25500000920E-02 0. -1.
</event>
<event>
 5   0  0.2588048E-05  0.2776298E+04  0.7818609E-02  0.8310665E-01
       -2   -1    0    0    0  501  0.00000000000E+00  0.00000000000E+00  0.70221191843E+03  0.70221191844E+03  0.25500000920E-02 0. -1.
        2   -1    0    0  501    0  0.00000000000E+00  0.00000000000E+00 -0.27441248534E+04  0.27441248534E+04  0.25500000920E-02 0.  1.
    10030    2    1    2    0    0  0.00000000000E+00  0.00000000000E+00 -0.20419129350E+04  0.34463367719E+04  0.27762976625E+04 0.  0.
        2    1    3    3  502    0  0.58268877812E+02 -0.54785522603E+03 -0.26025929475E+04  0.26602689076E+04  0.25500000920E-02 0.  1.
       -2    1    3    3    0  502 -0.58268877812E+02  0.54785522603E+03  0.56068001245E+03  0.78606786423E+03  0.25500000920E-02 0. -1.
</event>
<event>
 5   0  0.1105862E-05  0.2811289E+04  0.7818609E-02  0.8299772E-01
        1   -1    0    0  501    0  0.00000000000E+00  0.00000000000E+00  0.15816267938E+04  0.15816267938E+04  0.50400001928E-02 0.  1.
       -1   -1    0    0    0  501  0.00000000000E+00  0.00000000000E+00 -0.12492433054E+04  0.12492433054E+04  0.50400001928E-02 0. -1.
    10030    2    1    2    0    0  0.00000000000E+00  0.00000000000E+00  0.33238348843E+03  0.28308700992E+04  0.28112891589E+04 0.  0.
        3    1    3    3  502    0  0.85248597416E+03  0.11113341734E+04  0.28551049169E+03  0.14294447286E+04  0.10100000352E+00 0. -1.
       -3    1    3    3    0  502 -0.85248597416E+03 -0.11113341734E+04  0.46872996744E+02  0.14014253705E+04  0.10100000352E+00 0.  1.
</event>
<event>
 5   0  0.2518686E-05  0.2797747E+04  0.7818609E-02  0.8303968E-01
        2   -1    0    0  501    0  0.00000000000E+00  0.00000000000E+00  0.14365405438E+04  0.14365405438E+04  0.25500000920E-02 0. -1.
       -2   -1    0    0    0  501  0.00000000000E+00  0.00000000000E+00 -0.13621938877E+04  0.13621938877E+04  0.25500000920E-02 0.  1.
    10030    2    1    2    0    0  0.00000000000E+00  0.00000000000E+00  0.74346656128E+02  0.27987344315E+04  0.27977467706E+04 0.  0.
        5    1    3    3  502    0  0.57912689003E+01  0.12942216229E+04  0.56819168407E+03  0.14134733912E+04  0.46999998093E+01 0. -1.
       -5    1    3    3    0  502 -0.57912689003E+01 -0.12942216229E+04 -0.49384502794E+03  0.13852610402E+04  0.46999998093E+01 0.  1.
</event>
<event>
 5   0  0.1105862E-05  0.2815336E+04  0.7818609E-02  0.8298523E-01
       -1   -1    0    0    0  501  0.00000000000E+00  0.00000000000E+00  0.13091959731E+04  0.13091959731E+04  0.50400001928E-02 0. -1.
        1   -1    0    0  501    0  0.00000000000E+00  0.00000000000E+00 -0.15135464429E+04  0.15135464429E+04  0.50400001928E-02 0.  1.
    10030    2    1    2    0    0  0.00000000000E+00  0.00000000000E+00 -0.20435046979E+03  0.28227424160E+04  0.28153357939E+04 0.  0.
        3    1    3    3  502    0 -0.27686185367E+03  0.13776304299E+04 -0.18224372257E+02  0.14052936438E+04  0.10100000352E+00 0.  1.
       -3    1    3    3    0  502  0.27686185367E+03 -0.13776304299E+04 -0.18612609753E+03  0.14174487722E+04  0.10100000352E+00 0. -1.
</event>
<event>
 5   0  0.2588048E-05  0.2772523E+04  0.7818609E-02  0.8311850E-01
        2   -1    0    0  501    0  0.00000000000E+00  0.00000000000E+00  0.14546114085E+04  0.14546114085E+04  0.25500000920E-02 0. -1.
       -2   -1    0    0    0  501  0.00000000000E+00  0.00000000000E+00 -0.13211231861E+04  0.13211231861E+04  0.25500000920E-02 0.  1.
    10030    2    1    2    0    0  0.00000000000E+00  0.00000000000E+00  0.13348822246E+03  0.27757345946E+04  0.27725229366E+04 0.  0.
        2    1    3    3  502    0 -0.36332401543E+03  0.12443048485E+04 -0.42517214884E+03  0.13642104868E+04  0.25500000920E-02 0.  1.
       -2    1    3    3    0  502  0.36332401543E+03 -0.12443048485E+04  0.55866037129E+03  0.14115241077E+04  0.25500000920E-02 0. -1.
</event>
<event>
 5   0  0.2588048E-05  0.2796814E+04  0.7818609E-02  0.8304258E-01
        2   -1    0    0  501    0  0.00000000000E+00  0.00000000000E+00  0.16229930416E+04  0.16229930416E+04  0.25500000920E-02 0.  1.
       -2   -1    0    0    0  501  0.00000000000E+00  0.00000000000E+00 -0.12048985226E+04  0.12048985226E+04  0.25500000920E-02 0. -1.
    10030    2    1    2    0    0  0.00000000000E+00  0.00000000000E+00  0.41809451899E+03  0.28278915642E+04  0.27968138429E+04 0.  0.
        2    1    3    3  502    0  0.10860856301E+04 -0.43570128447E+03 -0.56504738017E+03  0.12994984213E+04  0.25500000920E-02 0. -1.
       -2    1    3    3    0  502 -0.10860856301E+04  0.43570128447E+03  0.98314189916E+03  0.15283931429E+04  0.25500000920E-02 0.  1.
</event>
<event>
 5   0  0.1078103E-05  0.2711780E+04  0.7818609E-02  0.8331193E-01
       -1   -1    0    0    0  501  0.00000000000E+00  0.00000000000E+00  0.14878421394E+04  0.14878421394E+04  0.50400001928E-02 0.  1.
        1   -1    0    0  501    0  0.00000000000E+00  0.00000000000E+00 -0.12356403517E+04  0.12356403517E+04  0.50400001928E-02 0. -1.
    10030    2    1    2    0    0  0.00000000000E+00  0.00000000000E+00  0.25220178766E+03  0.27234824911E+04  0.27117800681E+04 0.  0.
        1    1    3    3  502    0 -0.34214340075E+03  0.12043041798E+03 -0.11860102526E+04  0.12402362321E+04  0.50400001928E-02 0. -1.
       -1    1    3    3    0  502  0.34214340075E+03 -0.12043041798E+03  0.14382120402E+04  0.14832462590E+04  0.50400001928E-02 0.  1.
</event>
<event>
 5   0  0.2651061E-05  0.2820346E+04  0.7818609E-02  0.8296979E-01
        2   -1    0    0  501    0  0.00000000000E+00  0.00000000000E+00  0.23345184461E+04  0.23345184461E+04  0.25500000920E-02 0.  1.
       -2   -1    0    0    0  501  0.00000000000E+00  0.00000000000E+00 -0.85181935361E+03  0.85181935362E+03  0.25500000920E-02 0. -1.
    10030    2    1    2    0    0  0.00000000000E+00  0.00000000000E+00  0.14826990925E+04  0.31863377997E+04  0.28203460736E+04 0.  0.
        3    1    3    3  502    0  0.11561539949E+04 -0.35990165840E+03 -0.75189888040E+02  0.12132084706E+04  0.10100000352E+00 0. -1.
       -3    1    3    3    0  502 -0.11561539949E+04  0.35990165840E+03  0.15578889805E+04  0.19731293291E+04  0.10100000352E+00 0.  1.
</event>
<event>
 5   0  0.2588048E-05  0.2750222E+04  0.7818609E-02  0.8318891E-01
       -2   -1    0    0    0  501  0.00000000000E+00  0.00000000000E+00  0.12278601537E+04  0.12278601537E+04  0.25500000920E-02 0.  1.
        2   -1    0    0  501    0  0.00000000000E+00  0.00000000000E+00 -0.15400204557E+04  0.15400204557E+04  0.25500000920E-02 0. -1.
    10030    2    1    2    0    0  0.00000000000E+00  0.00000000000E+00 -0.31216030199E+03  0.27678806094E+04  0.27502216299E+04 0.  0.
        2    1    3    3  502    0 -0.39943297557E+03 -0.14653342867E+03  0.11599517403E+04  0.12355188333E+04  0.25500000920E-02 0.  1.
       -2    1    3    3    0  502  0.39943297557E+03  0.14653342867E+03 -0.14721120423E+04  0.15323617760E+04  0.25500000920E-02 0. -1.
</event>
<event>
 5   0  0.1105862E-05  0.2968436E+04  0.7818609E-02  0.8252802E-01
       -1   -1    0    0    0  501  0.00000000000E+00  0.00000000000E+00  0.10872457311E+04  0.10872457311E+04  0.50400001928E-02 0.  1.
        1   -1    0    0  501    0  0.00000000000E+00  0.00000000000E+00 -0.20261314513E+04  0.20261314513E+04  0.50400001928E-02 0. -1.
    10030    2    1    2    0    0  0.00000000000E+00  0.00000000000E+00 -0.93888572023E+03  0.31133771824E+04  0.29684357975E+04 0.  0.
        3    1    3    3  502    0  0.50715845548E+03  0.47480434672E+03 -0.18450687877E+04  0.19715292816E+04  0.10100000352E+00 0. -1.
       -3    1    3    3    0  502 -0.50715845548E+03 -0.47480434672E+03  0.90618306745E+03  0.11418479008E+04  0.10100000352E+00 0.  1.
</event>
<event>
 5   0  0.1105862E-05  0.2857799E+04  0.7818609E-02  0.8285545E-01
        1   -1    0    0  501    0  0.00000000000E+00  0.00000000000E+00  0.17177738372E+04  0.17177738372E+04  0.50400001928E-02 0.  1.
       -1   -1    0    0    0  501  0.00000000000E+00  0.00000000000E+00 -0.11886047898E+04  0.11886047899E+04  0.50400001928E-02 0. -1.
    10030    2    1    2    0    0  0.00000000000E+00  0.00000000000E+00  0.52916904731E+03  0.29063786270E+04  0.28577993007E+04 0.  0.
        3    1    3    3  502    0  0.13988372362E+03  0.98487241690E+03 -0.77862684417E+03  0.12632501361E+04  0.10100000352E+00 0. -1.
       -3    1    3    3    0  502 -0.13988372362E+03 -0.98487241690E+03  0.13077958915E+04  0.16431284909E+04  0.10100000352E+00 0.  1.
</event>
<event>
 5   0  0.1067434E-05  0.2760257E+04  0.7818609E-02  0.8315714E-01
       -1   -1    0    0    0  501  0.00000000000E+00  0.00000000000E+00  0.78059635081E+03  0.78059635082E+03  0.50400001928E-02 0.  1.
        1   -1    0    0  501    0  0.00000000000E+00  0.00000000000E+00 -0.24401267705E+04  0.24401267705E+04  0.50400001928E-02 0. -1.
    10030    2    1    2    0    0  0.00000000000E+00  0.00000000000E+00 -0.16595304196E+04  0.32207231213E+04  0.27602565479E+04 0.  0.
        4    1    3    3  502    0  0.10727373618E+03 -0.40435894591E+03  0.70483122282E+03  0.81963557584E+03  0.12699999809E+01 0.  1.
       -4    1    3    3    0  502 -0.10727373618E+03  0.40435894591E+03 -0.23643616425E+04  0.24010875454E+04  0.12699999809E+01 0. -1.
</event>
<event>
 5   0  0.2651061E-05  0.1666689E+04  0.7818609E-02  0.8780594E-01
        2   -1    0    0  501    0  0.00000000000E+00  0.00000000000E+00  0.77960609065E+03  0.77960609065E+03  0.25500000920E-02 0. -1.
       -2   -1    0    0    0  501  0.00000000000E+00  0.00000000000E+00 -0.89078695349E+03  0.89078695349E+03  0.25500000920E-02 0.  1.
    10030    2    1    2    0    0  0.00000000000E+00  0.00000000000E+00 -0.11118086284E+03  0.16703930441E+04  0.16666888545E+04 0.  0.
        3    1    3    3  502    0  0.71758582682E+03 -0.41704211045E+03  0.19471840804E+02  0.83020039962E+03  0.10100000352E+00 0.  1.
       -3    1    3    3    0  502 -0.71758582682E+03  0.41704211045E+03 -0.13065270364E+03  0.84019264452E+03  0.10100000352E+00 0. -1.
</event>
<event>
 5   0  0.2588048E-05  0.2787333E+04  0.7818609E-02  0.8307212E-01
        2   -1    0    0  501    0  0.00000000000E+00  0.00000000000E+00  0.14418661413E+04  0.14418661413E+04  0.25500000920E-02 0. -1.
       -2   -1    0    0    0  501  0.00000000000E+00  0.00000000000E+00 -0.13470781187E+04  0.13470781187E+04  0.25500000920E-02 0.  1.
    10030    2    1    2    0    0  0.00000000000E+00  0.00000000000E+00  0.94788022590E+02  0.27889442600E+04  0.27873330113E+04 0.  0.
        2    1    3    3  502    0  0.27708944625E+03  0.13412725896E+04 -0.21066127458E+03  0.13857015889E+04  0.25500000920E-02 0. -1.
       -2    1    3    3    0  502 -0.27708944625E+03 -0.13412725896E+04  0.30544929717E+03  0.14032426711E+04  0.25500000920E-02 0.  1.
</event>
<event>
 5   0  0.2624815E-05  0.1423753E+04  0.7818609E-02  0.8936802E-01
        2   -1    0    0  501    0  0.00000000000E+00  0.00000000000E+00  0.95847800816E+03  0.95847800817E+03  0.25500000920E-02 0.  1.
       -2   -1    0    0    0  501  0.00000000000E+00  0.00000000000E+00 -0.52872198686E+03  0.52872198687E+03  0.25500000920E-02 0. -1.
    10030    2    1    2    0    0  0.00000000000E+00  0.00000000000E+00  0.42975602130E+03  0.14871999950E+04  0.14237533450E+04 0.  0.
        4    1    3    3  502    0  0.42067858765E+02  0.29150547081E+03  0.89184961243E+03  0.93922440788E+03  0.12699999809E+01 0.  1.
       -4    1    3    3    0  502 -0.42067858765E+02 -0.29150547081E+03 -0.46209359113E+03  0.54797558716E+03  0.12699999809E+01 0. -1.
</event>
<event>
 5   0  0.1075146E-05  0.2496708E+04  0.7818609E-02  0.8404159E-01
       -1   -1    0    0    0  501  0.00000000000E+00  0.00000000000E+00  0.11320478559E+04  0.11320478559E+04  0.50400001928E-02 0.  1.
        1   -1    0    0  501    0  0.00000000000E+00  0.00000000000E+00 -0.13766095687E+04  0.13766095687E+04  0.50400001928E-02 0. -1.
    10030    2    1    2    0    0  0.00000000000E+00  0.00000000000E+00 -0.24456171279E+03  0.25086574245E+04  0.24967081612E+04 0.  0.
        2    1    3    3  502    0 -0.52237396914E+03  0.69232918247E+03 -0.10244610013E+04  0.13422796295E+04  0.25500000920E-02 0. -1.
       -2    1    3    3    0  502  0.52237396914E+03 -0.69232918247E+03  0.77989928852E+03  0.11663777950E+04  0.25500000920E-02 0.  1.
</event>
<event>
 5   0  0.8958000E-06  0.2717918E+04  0.7818609E-02  0.8329215E-01
       -3   -1    0    0    0  501  0.00000000000E+00  0.00000000000E+00  0.18323652825E+04  0.18323652853E+04  0.10100000352E+00 0.  1.
        3   -1    0    0  501    0  0.00000000000E+00  0.00000000000E+00 -0.10078610109E+04  0.10078610160E+04  0.10100000352E+00 0. -1.
    10030    2    1    2    0    0  0.00000000000E+00  0.00000000000E+00  0.82450427158E+03  0.28402263012E+04  0.27179179804E+04 0.  0.
        3    1    3    3  502    0 -0.29241254062E+03 -0.13080693876E+04  0.64643237187E+03  0.14880945663E+04  0.10100000352E+00 0. -1.
       -3    1    3    3    0  502  0.29241254062E+03  0.13080693876E+04  0.17807189970E+03  0.13521317349E+04  0.10100000352E+00 0.  1.
</event>
<event>
 5   0  0.2697964E-05  0.1506927E+04  0.7818609E-02  0.8879860E-01
        2   -1    0    0  501    0  0.00000000000E+00  0.00000000000E+00  0.23845914843E+04  0.23845914843E+04  0.25500000920E-02 0. -1.
       -2   -1    0    0    0  501  0.00000000000E+00  0.00000000000E+00 -0.23807314764E+03  0.23807314765E+03  0.25500000920E-02 0.  1.
    10030    2    1    2    0    0  0.00000000000E+00  0.00000000000E+00  0.21465183367E+04  0.26226646320E+04  0.15069269399E+04 0.  0.
        1    1    3    3  502    0  0.29162097048E+03  0.37989131478E+03  0.60906744439E+02  0.48277306575E+03  0.50400001928E-02 0.  1.
       -1    1    3    3    0  502 -0.29162097048E+03 -0.37989131478E+03  0.20856115923E+04  0.21398915662E+04  0.50400001928E-02 0. -1.
</event>
<event>
 5   0  0.2588048E-05  0.2359487E+04  0.7818609E-02  0.8454829E-01
       -2   -1    0    0    0  501  0.00000000000E+00  0.00000000000E+00  0.90125488141E+03  0.90125488141E+03  0.25500000920E-02 0. -1.
        2   -1    0    0  501    0  0.00000000000E+00  0.00000000000E+00 -0.15442858404E+04  0.15442858404E+04  0.25500000920E-02 0.  1.
    10030    2    1    2    0    0  0.00000000000E+00  0.00000000000E+00 -0.64303095899E+03  0.24455407218E+04  0.23594873612E+04 0.  0.
        2    1    3    3  502    0  0.82736835621E+03 -0.51395338529E+03  0.36842617962E+03  0.10413569652E+04  0.25500000920E-02 0. -1.
       -2    1    3    3    0  502 -0.82736835621E+03  0.51395338529E+03 -0.10114571386E+04  0.14041837566E+04  0.25500000920E-02 0.  1.
</event>
<event>
 5   0  0.1078103E-05  0.2438949E+04  0.7818609E-02  0.8425064E-01
       -1   -1    0    0    0  501  0.00000000000E+00  0.00000000000E+00  0.86170709674E+03  0.86170709676E+03  0.50400001928E-02 0.  1.
        1   -1    0    0  501    0  0.00000000000E+00  0.00000000000E+00 -0.17257812197E+04  0.17257812197E+04  0.50400001928E-02 0. -1.
    10030    2    1    2    0    0  0.00000000000E+00  0.00000000000E+00 -0.86407412294E+03  0.25874883164E+04  0.24389488920E+04 0.  0.
        1    1    3    3  502    0 -0.63856729786E+03 -0.45580115005E+03  0.55841411744E+03  0.96298972417E+03  0.50400001928E-02 0.  1.
       -1    1    3    3    0  502  0.63856729786E+03  0.45580115005E+03 -0.14224882404E+04  0.16244985923E+04  0.50400001928E-02 0. -1.
</event>
<event>
 5   0  0.1105862E-05  0.2714670E+04  0.7818609E-02  0.8330261E-01
       -1   -1    0    0    0  501  0.00000000000E+00  0.00000000000E+00  0.15747022979E+04  0.15747022980E+04  0.50400001928E-02 0.  1.
        1   -1    0    0  501    0  0.00000000000E+00  0.00000000000E+00 -0.11699720361E+04  0.11699720361E+04  0.50400001928E-02 0. -1.
    10030    2    1    2    0    0  0.00000000000E+00  0.00000000000E+00  0.40473026189E+03  0.27446743340E+04  0.27146695222E+04 0.  0.
        3    1    3    3  502    0  0.41615928104E+03  0.72774020509E+03  0.12816673732E+04  0.15314913055E+04  0.10100000352E+00 0.  1.
       -3    1    3    3    0  502 -0.41615928104E+03 -0.72774020509E+03 -0.87693711127E+03  0.12131830285E+04  0.10100000352E+00 0. -1.
</event>
<event>
 5   0  0.1067434E-05  0.1861988E+04  0.7818609E-02  0.8674012E-01
        1   -1    0    0  501    0  0.00000000000E+00  0.00000000000E+00  0.17182108108E+04  0.17182108108E+04  0.50400001928E-02 0. -1.
       -1   -1    0    0    0  501  0.00000000000E+00  0.00000000000E+00 -0.50444927389E+03  0.50444927392E+03  0.50400001928E-02 0.  1.
    10030    2    1    2    0    0  0.00000000000E+00  0.00000000000E+00  0.12137615369E+04  0.22226600848E+04  0.18619883952E+04 0.  0.
        4    1    3    3  502    0 -0.57933630921E+03 -0.70543177584E+03  0.82531211574E+03  0.12306121448E+04  0.12699999809E+01 0.  1.
       -4    1    3    3    0  502  0.57933630921E+03  0.70543177584E+03  0.38844942121E+03  0.99204794001E+03  0.12699999809E+01 0. -1.
</event>
<event>
 5   0  0.1078103E-05  0.2799185E+04  0.7818609E-02  0.8303522E-01
       -1   -1    0    0    0  501  0.00000000000E+00  0.00000000000E+00  0.24965281177E+04  0.24965281177E+04  0.50400001928E-02 0.  1.
        1   -1    0    0  501    0  0.00000000000E+00  0.00000000000E+00 -0.78463317242E+03  0.78463317244E+03  0.50400001928E-02 0. -1.
    10030    2    1    2    0    0  0.00000000000E+00  0.00000000000E+00  0.17118949452E+04  0.32811612901E+04  0.27991847220E+04 0.  0.
        1    1    3    3  502    0 -0.12824330093E+04  0.25033629111E+03  0.14438609854E+04  0.19473153898E+04  0.50400001928E-02 0.  1.
       -1    1    3    3    0  502  0.12824330093E+04 -0.25033629111E+03  0.26803395978E+03  0.13338459003E+04  0.50400001928E-02 0. -1.
</event>
<event>
 5   0  0.2651061E-05  0.2865676E+04  0.7818609E-02  0.8283164E-01
        2   -1    0    0  501    0  0.00000000000E+00  0.00000000000E+00  0.25510568939E+04  0.25510568939E+04  0.25500000920E-02 0.  1.
       -2   -1    0    0    0  501  0.00000000000E+00  0.00000000000E+00 -0.80477414717E+03  0.80477414717E+03  0.25500000920E-02 0. -1.
    10030    2    1    2    0    0  0.00000000000E+00  0.00000000000E+00  0.17462827467E+04  0.33558310410E+04  0.28656759315E+04 0.  0.
        3    1    3    3  502    0  0.10636754692E+04  0.45231671484E+03 -0.11846950829E+03  0.11619083220E+04  0.10100000352E+00 0. -1.
       -3    1    3    3    0  502 -0.10636754692E+04 -0.45231671484E+03  0.18647522550E+04  0.21939227190E+04  0.10100000352E+00 0.  1.
</event>
<event>
 5   0  0.1075146E-05  0.1567437E+04  0.7818609E-02  0.8840806E-01
        1   -1    0    0  501    0  0.00000000000E+00  0.00000000000E+00  0.99667936336E+03  0.99667936337E+03  0.50400001928E-02 0.  1.
       -1   -1    0    0    0  501  0.00000000000E+00  0.00000000000E+00 -0.61626144598E+03  0.61626144600E+03  0.50400001928E-02 0. -1.
    10030    2    1    2    0    0  0.00000000000E+00  0.00000000000E+00  0.38041791738E+03  0.16129408094E+04  0.15674374829E+04 0.  0.
        2    1    3    3  502    0 -0.52321921569E+03  0.21906112880E+03 -0.36629476882E+03  0.67521698993E+03  0.25500000920E-02 0. -1.
       -2    1    3    3    0  502  0.52321921569E+03 -0.21906112880E+03  0.74671268620E+03  0.93772381945E+03  0.25500000920E-02 0.  1.
</event>
<event>
 5   0  0.2697964E-05  0.2823376E+04  0.7818609E-02  0.8296048E-01
        2   -1    0    0  501    0  0.00000000000E+00  0.00000000000E+00  0.22798115808E+04  0.22798115808E+04  0.25500000920E-02 0. -1.
       -2   -1    0    0    0  501  0.00000000000E+00  0.00000000000E+00 -0.87413513574E+03  0.87413513575E+03  0.25500000920E-02 0.  1.
    10030    2    1    2    0    0  0.00000000000E+00  0.00000000000E+00  0.14056764451E+04  0.31539467165E+04  0.28233762807E+04 0.  0.
        1    1    3    3  502    0  0.48232674095E+03  0.77238097074E+03 -0.50218978825E+03  0.10399067422E+04  0.50400001928E-02 0.  1.
       -1    1    3    3    0  502 -0.48232674095E+03 -0.77238097074E+03  0.19078662333E+04  0.21140399744E+04  0.50400001928E-02 0. -1.
</event>
<event>
 5   0  0.1075146E-05  0.2893677E+04  0.7818609E-02  0.8274761E-01
        1   -1    0    0  501    0  0.00000000000E+00  0.00000000000E+00  0.24869414948E+04  0.24869414948E+04  0.50400001928E-02 0.  1.
       -1   -1    0    0    0  501  0.00000000000E+00  0.00000000000E+00 -0.84173311077E+03  0.84173311078E+03  0.50400001928E-02 0. -1.
    10030    2    1    2    0    0  0.00000000000E+00  0.00000000000E+00  0.16452083840E+04  0.33286746055E+04  0.28936765546E+04 0.  0.
        2    1    3    3  502    0 -0.16586652058E+03  0.36739920998E+03 -0.77583198937E+03  0.87430495702E+03  0.25500000920E-02 0. -1.
       -2    1    3    3    0  502  0.16586652058E+03 -0.36739920998E+03  0.24210403734E+04  0.24543696485E+04  0.25500000920E-02 0.  1.
</event>
<event>
 5   0  0.1105862E-05  0.2672926E+04  0.7818609E-02  0.8343843E-01
       -1   -1    0    0    0  501  0.00000000000E+00  0.00000000000E+00  0.12597489075E+04  0.12597489075E+04  0.50400001928E-02 0. -1.
        1   -1    0    0  501    0  0.00000000000E+00  0.00000000000E+00 -0.14178491154E+04  0.14178491154E+04  0.50400001928E-02 0.  1.
    10030    2    1    2    0    0  0.00000000000E+00  0.00000000000E+00 -0.15810020795E+03  0.26775980229E+04  0.26729263919E+04 0.  0.
        3    1    3    3  502    0  0.20885193146E+03 -0.12775407750E+04 -0.41190226396E+03  0.13584524453E+04  0.10100000352E+00 0.  1.
       -3    1    3    3    0  502 -0.20885193146E+03  0.12775407750E+04  0.25380205602E+03  0.13191455776E+04  0.10100000352E+00 0. -1.
</event>
<event>
 5   0  0.2624815E-05  0.2920392E+04  0.7818609E-02  0.8266836E-01
       -2   -1    0    0    0  501  0.00000000000E+00  0.00000000000E+00  0.10280635274E+04  0.10280635275E+04  0.25500000920E-02 0. -1.
        2   -1    0    0  501    0  0.00000000000E+00  0.00000000000E+00 -0.20739695323E+04  0.20739695323E+04  0.25500000920E-02 0.  1.
    10030    2    1    2    0    0  0.00000000000E+00  0.00000000000E+00 -0.10459060049E+04  0.31020330598E+04  0.29203920512E+04 0.  0.
        4    1    3    3  502    0 -0.78668552201E+03 -0.10499284431E+04 -0.12038762437E+04  0.17806019963E+04  0.12699999809E+01 0.  1.
       -4    1    3    3    0  502  0.78668552201E+03  0.10499284431E+04  0.15797023887E+03  0.13214310634E+04  0.12699999809E+01 0. -1.
</event>
<event>
 5   0  0.1067434E-05  0.2820502E+04  0.7818609E-02  0.8296931E-01
       -1   -1    0    0    0  501  0.00000000000E+00  0.00000000000E+00  0.12762527773E+04  0.12762527773E+04  0.50400001928E-02 0. -1.
        1   -1    0    0  501    0  0.00000000000E+00  0.00000000000E+00 -0.15583180147E+04  0.15583180147E+04  0.50400001928E-02 0.  1.
    10030    2    1    2    0    0  0.00000000000E+00  0.00000000000E+00 -0.28206523738E+03  0.28345707921E+04  0.28205018662E+04 0.  0.
        4    1    3    3  502    0  0.33998387294E+03 -0.12289937603E+04  0.46429348004E+03  0.13570500157E+04  0.12699999809E+01 0. -1.
       -4    1    3    3    0  502 -0.33998387294E+03  0.12289937603E+04 -0.74635871742E+03  0.14775207764E+04  0.12699999809E+01 0.  1.
</event>
<event>
 5   0  0.2588048E-05  0.2372453E+04  0.7818609E-02  0.8449889E-01
        2   -1    0    0  501    0  0.00000000000E+00  0.00000000000E+00  0.98193642471E+03  0.98193642471E+03  0.25500000920E-02 0. -1.
       -2   -1    0    0    0  501  0.00000000000E+00  0.00000000000E+00 -0.14330186406E+04  0.14330186406E+04  0.25500000920E-02 0.  1.
    10030    2    1    2    0    0  0.00000000000E+00  0.00000000000E+00 -0.45108221586E+03  0.24149550653E+04  0.23724529083E+04 0.  0.
        2    1    3    3  502    0 -0.43299047293E+03 -0.29585051967E+03 -0.13086163509E+04  0.14097819099E+04  0.25500000920E-02 0.  1.
       -2    1    3    3    0  502  0.43299047293E+03  0.29585051967E+03  0.85753413501E+03  0.10051731554E+04  0.25500000920E-02 0. -1.
</event>
<event>
 5   0  0.1017456E-05  0.2800319E+04  0.7818609E-02  0.8303169E-01
        1   -1    0    0  501    0  0.00000000000E+00  0.00000000000E+00  0.15842303340E+04  0.15842303340E+04  0.50400001928E-02 0.  1.
       -1   -1    0    0    0  501  0.00000000000E+00  0.00000000000E+00 -0.12374753540E+04  0.12374753540E+04  0.50400001928E-02 0. -1.
    10030    2    1    2    0    0  0.00000000000E+00  0.00000000000E+00  0.34675497999E+03  0.28217056880E+04  0.28003185486E+04 0.  0.
        5    1    3    3  502    0 -0.13735625451E+04  0.26680074308E+03  0.22443201823E+03  0.14171268548E+04  0.46999998093E+01 0.  1.
       -5    1    3    3    0  502  0.13735625451E+04 -0.26680074308E+03  0.12232296176E+03  0.14045788332E+04  0.46999998093E+01 0. -1.
</event>
<event>
 5   0  0.2651061E-05  0.2689333E+04  0.7818609E-02  0.8338474E-01
        2   -1    0    0  501    0  0.00000000000E+00  0.00000000000E+00  0.25419715986E+04  0.25419715986E+04  0.25500000920E-02 0. -1.
       -2   -1    0    0    0  501  0.00000000000E+00  0.00000000000E+00 -0.71130913941E+03  0.71130913942E+03  0.25500000920E-02 0.  1.
    10030    2    1    2    0    0  0.00000000000E+00  0.00000000000E+00  0.18306624592E+04  0.32532807381E+04  0.26893327278E+04 0.  0.
        3    1    3    3  502    0 -0.53400105087E+03  0.45713898474E+03 -0.47134084497E+03  0.84634235155E+03  0.10100000352E+00 0.  1.
       -3    1    3    3    0  502  0.53400105087E+03 -0.45713898474E+03  0.23020033042E+04  0.24069383865E+04  0.10100000352E+00 0. -1.
</event>
<event>
 5   0  0.1075146E-05  0.2501959E+04  0.7818609E-02  0.8402288E-01
        1   -1    0    0  501    0  0.00000000000E+00  0.00000000000E+00  0.24741931112E+04  0.24741931112E+04  0.50400001928E-02 0.  1.
       -1   -1    0    0    0  501  0.00000000000E+00  0.00000000000E+00 -0.63250936293E+03  0.63250936295E+03  0.50400001928E-02 0. -1.
    10030    2    1    2    0    0  0.00000000000E+00  0.00000000000E+00  0.18416837483E+04  0.31067024742E+04  0.25019594790E+04 0.  0.
        2    1    3    3  502    0  0.85835381090E+03  0.33960249271E+03 -0.12753690626E+03  0.93186199634E+03  0.25500000920E-02 0. -1.
       -2    1    3    3    0  502 -0.85835381090E+03 -0.33960249271E+03  0.19692206545E+04  0.21748404778E+04  0.25500000920E-02 0.  1.
</event>
<event>
 5   0  0.2588048E-05  0.2796349E+04  0.7818609E-02  0.8304403E-01
        2   -1    0    0  501    0  0.00000000000E+00  0.00000000000E+00  0.20289027236E+04  0.20289027236E+04  0.25500000920E-02 0.  1.
       -2   -1    0    0    0  501  0.00000000000E+00  0.00000000000E+00 -0.96352202994E+03  0.96352202994E+03  0.25500000920E-02 0. -1.
    10030    2    1    2    0    0  0.00000000000E+00  0.00000000000E+00  0.10653806937E+04  0.29924247536E+04  0.27963493851E+04 0.  0.
        2    1    3    3  502    0 -0.10420357839E+04 -0.54138081496E+03  0.13448253607E+04  0.17853534699E+04  0.25500000920E-02 0.  1.
       -2    1    3    3    0  502  0.10420357839E+04  0.54138081496E+03 -0.27944466704E+03  0.12070712836E+04  0.25500000920E-02 0. -1.
</event>
<event>
 5   0  0.2697964E-05  0.2789685E+04  0.7818609E-02  0.8306478E-01
        2   -1    0    0  501    0  0.00000000000E+00  0.00000000000E+00  0.15095299645E+04  0.15095299645E+04  0.25500000920E-02 0.  1.
       -2   -1    0    0    0  501  0.00000000000E+00  0.00000000000E+00 -0.12888688600E+04  0.12888688600E+04  0.25500000920E-02 0. -1.
    10030    2    1    2    0    0  0.00000000000E+00  0.00000000000E+00  0.22066110449E+03  0.27983988245E+04  0.27896854048E+04 0.  0.
        1    1    3    3  502    0  0.71227970651E+03  0.10620692926E+04 -0.44841244816E+03  0.13551410577E+04  0.50400001928E-02 0. -1.
       -1    1    3    3    0  502 -0.71227970651E+03 -0.10620692926E+04  0.66907355265E+03  0.14432577668E+04  0.50400001928E-02 0.  1.
</event>
<event>
 5   0  0.1105862E-05  0.2794813E+04  0.7818609E-02  0.8304881E-01
       -1   -1    0    0    0  501  0.00000000000E+00  0.00000000000E+00  0.10661748912E+04  0.10661748912E+04  0.50400001928E-02 0. -1.
        1   -1    0    0  501    0  0.00000000000E+00  0.00000000000E+00 -0.18315425823E+04  0.18315425823E+04  0.50400001928E-02 0.  1.
    10030    2    1    2    0    0  0.00000000000E+00  0.00000000000E+00 -0.76536769110E+03  0.28977174734E+04  0.27948128476E+04 0.  0.
        3    1    3    3  502    0 -0.10898347778E+04 -0.51644935142E+03  0.34920003802E+03  0.12555478694E+04  0.10100000352E+00 0. -1.
       -3    1    3    3    0  502  0.10898347778E+04  0.51644935142E+03 -0.11145677291E+04  0.16421696041E+04  0.10100000352E+00 0.  1.
</event>
<event>
 5   0  0.1067434E-05  0.2776894E+04  0.7818609E-02  0.8310478E-01
        1   -1    0    0  501    0  0.00000000000E+00  0.00000000000E+00  0.15623821172E+04  0.15623821172E+04  0.50400001928E-02 0.  1.
       -1   -1    0    0    0  501  0.00000000000E+00  0.00000000000E+00 -0.12338753198E+04  0.12338753198E+04  0.50400001928E-02 0. -1.
    10030    2    1    2    0    0  0.00000000000E+00  0.00000000000E+00  0.32850679738E+03  0.27962574370E+04  0.27768937570E+04 0.  0.
        4    1    3    3  502    0 -0.10284754209E+03  0.10124232915E+04  0.11154058096E+04  0.15098709451E+04  0.12699999809E+01 0.  1.
       -4    1    3    3    0  502  0.10284754209E+03 -0.10124232915E+04 -0.78689901222E+03  0.12863864918E+04  0.12699999809E+01 0. -1.
</event>
<event>
 5   0  0.2588048E-05  0.2876967E+04  0.7818609E-02  0.8279764E-01
       -2   -1    0    0    0  501  0.00000000000E+00  0.00000000000E+00  0.12470048969E+04  0.12470048969E+04  0.25500000920E-02 0.  1.
        2   -1    0    0  501    0  0.00000000000E+00  0.00000000000E+00 -0.16593640074E+04  0.16593640074E+04  0.25500000920E-02 0. -1.
    10030    2    1    2    0    0  0.00000000000E+00  0.00000000000E+00 -0.41235911047E+03  0.29063689044E+04  0.28769671830E+04 0.  0.
        2    1    3    3  502    0  0.12658323025E+04 -0.67501485810E+03 -0.98988789201E+02  0.14379760976E+04  0.25500000920E-02 0.  1.
       -2    1    3    3    0  502 -0.12658323025E+04  0.67501485810E+03 -0.31337032127E+03  0.14683928068E+04  0.25500000920E-02 0. -1.
</event>
<event>
 5   0  0.2624815E-05  0.2788590E+04  0.7818609E-02  0.8306819E-01
        2   -1    0    0  501    0  0.00000000000E+00  0.00000000000E+00  0.97973103328E+03  0.97973103328E+03  0.25500000920E-02 0. -1.
       -2   -1    0    0    0  501  0.00000000000E+00  0.00000000000E+00 -0.19842784375E+04  0.19842784375E+04  0.25500000920E-02 0.  1.
    10030    2    1    2    0    0  0.00000000000E+00  0.00000000000E+00 -0.10045474042E+04  0.29640094708E+04  0.27885904424E+04 0.  0.
        4    1    3    3  502    0  0.29688674122E+03  0.13208966561E+04 -0.85663424762E+03  0.16021028558E+04  0.12699999809E+01 0. -1.
       -4    1    3    3    0  502 -0.29688674122E+03 -0.13208966561E+04 -0.14791315662E+03  0.13619066151E+04  0.12699999809E+01 0.  1.
</event>
<event>
 5   0  0.2651061E-05  0.2799007E+04  0.7818609E-02  0.8303577E-01
        2   -1    0    0  501    0  0.00000000000E+00  0.00000000000E+00  0.11345029947E+04  0.11345029947E+04  0.25500000920E-02 0.  1.
       -2   -1    0    0    0  501  0.00000000000E+00  0.00000000000E+00 -0.17264040018E+04  0.17264040018E+04  0.25500000920E-02 0. -1.
    10030    2    1    2    0    0  0.00000000000E+00  0.00000000000E+00 -0.59190100715E+03  0.28609069965E+04  0.27990073312E+04 0.  0.
        3    1    3    3  502    0 -0.44493759603E+03 -0.69914241971E+03 -0.14486499894E+04  0.16689387015E+04  0.10100000352E+00 0. -1.
       -3    1    3    3    0  502  0.44493759603E+03  0.69914241971E+03  0.85674898225E+03  0.11919682950E+04  0.10100000352E+00 0.  1.
</event>
<event>
 5   0  0.2518686E-05  0.1958729E+04  0.7818609E-02  0.8626163E-01
       -2   -1    0    0    0  501  0.00000000000E+00  0.00000000000E+00  0.14608868511E+04  0.14608868511E+04  0.25500000920E-02 0. -1.
        2   -1    0    0  501    0  0.00000000000E+00  0.00000000000E+00 -0.65655649073E+03  0.65655649073E+03  0.25500000920E-02 0.  1.
    10030    2    1    2    0    0  0.00000000000E+00  0.00000000000E+00  0.80433036033E+03  0.21174433418E+04  0.19587289188E+04 0.  0.
        5    1    3    3  502    0 -0.80131046752E+03  0.47167641143E+03  0.69749899222E+02  0.93245066406E+03  0.46999998093E+01 0.  1.
       -5    1    3    3    0  502  0.80131046752E+03 -0.47167641143E+03  0.73458046111E+03  0.11849926777E+04  0.46999998093E+01 0. -1.
</event>
<event>
 5   0  0.1067434E-05  0.2609322E+04  0.7818609E-02  0.8365042E-01
       -1   -1    0    0    0  501  0.00000000000E+00  0.00000000000E+00  0.15441511425E+04  0.15441511426E+04  0.50400001928E-02 0.  1.
        1   -1    0    0  501    0  0.00000000000E+00  0.00000000000E+00 -0.11023144359E+04  0.11023144359E+04  0.50400001928E-02 0. -1.
    10030    2    1    2    0    0  0.00000000000E+00  0.00000000000E+00  0.44183670664E+03  0.26464655785E+04  0.26093218243E+04 0.  0.
        4    1    3    3  502    0 -0.19450356623E+03  0.59636702118E+03 -0.93932981713E+03  0.11295252894E+04  0.12699999809E+01 0. -1.
       -4    1    3    3    0  502  0.19450356623E+03 -0.59636702118E+03  0.13811665238E+04  0.15169402890E+04  0.12699999809E+01 0.  1.
</event>
<event>
 5   0  0.1017456E-05  0.2161038E+04  0.7818609E-02  0.8534822E-01
        1   -1    0    0  501    0  0.00000000000E+00  0.00000000000E+00  0.17459405147E+04  0.17459405147E+04  0.50400001928E-02 0. -1.
       -1   -1    0    0    0  501  0.00000000000E+00  0.00000000000E+00 -0.66870593315E+03  0.66870593317E+03  0.50400001928E-02 0.  1.
    10030    2    1    2    0    0  0.00000000000E+00  0.00000000000E+00  0.10772345815E+04  0.24146464478E+04  0.21610375111E+04 0.  0.
        5    1    3    3  502    0 -0.21623847803E+03  0.87638267661E+03  0.12021917699E+04  0.15033605080E+04  0.46999998093E+01 0. -1.
       -5    1    3    3    0  502  0.21623847803E+03 -0.87638267661E+03 -0.12495718843E+03  0.91128593986E+03  0.46999998093E+01 0.  1.
</event>
<event>
 5   0  0.1078103E-05  0.1500818E+04  0.7818609E-02  0.8883909E-01
       -1   -1    0    0    0  501  0.00000000000E+00  0.00000000000E+00  0.42424873050E+03  0.42424873053E+03  0.50400001928E-02 0. -1.
        1   -1    0    0  501    0  0.00000000000E+00  0.00000000000E+00 -0.13273191723E+04  0.13273191723E+04  0.50400001928E-02 0.  1.
    10030    2    1    2    0    0  0.00000000000E+00  0.00000000000E+00 -0.90307044177E+03  0.17515679028E+04  0.15008177422E+04 0.  0.
        1    1    3    3  502    0 -0.85047705501E+02 -0.72685294996E+03 -0.64530195032E+03  0.97568587680E+03  0.50400001928E-02 0.  1.
       -1    1    3    3    0  502  0.85047705501E+02  0.72685294996E+03 -0.25776849145E+03  0.77588202601E+03  0.50400001928E-02 0. -1.
</event>
<event>
 5   0  0.2624815E-05  0.2625289E+04  0.7818609E-02  0.8359661E-01
       -2   -1    0    0    0  501  0.00000000000E+00  0.00000000000E+00  0.94583156376E+03  0.94583156376E+03  0.25500000920E-02 0.  1.
        2   -1    0    0  501    0  0.00000000000E+00  0.00000000000E+00 -0.18217151808E+04  0.18217151808E+04  0.25500000920E-02 0. -1.
    10030    2    1    2    0    0  0.00000000000E+00  0.00000000000E+00 -0.87588361704E+03  0.27675467446E+04  0.26252891027E+04 0.  0.
        4    1    3    3  502    0 -0.71849164887E+03 -0.55087921544E+03  0.56399994502E+03  0.10666750725E+04  0.12699999809E+01 0.  1.
       -4    1    3    3    0  502  0.71849164887E+03  0.55087921544E+03 -0.14398835621E+04  0.17008716720E+04  0.12699999809E+01 0. -1.
</event>
<event>
 5   0  0.2624815E-05  0.2744740E+04  0.7818609E-02  0.8320633E-01
       -2   -1    0    0    0  501  0.00000000000E+00  0.00000000000E+00  0.11191689449E+04  0.11191689449E+04  0.25500000920E-02 0.  1.
        2   -1    0    0  501    0  0.00000000000E+00  0.00000000000E+00 -0.16828558379E+04  0.16828558379E+04  0.25500000920E-02 0. -1.
    10030    2    1    2    0    0  0.00000000000E+00  0.00000000000E+00 -0.56368689301E+03  0.28020247829E+04  0.27447404195E+04 0.  0.
        4    1    3    3  502    0  0.39199917586E+03 -0.11522643234E+04 -0.92912850156E+03  0.15312275501E+04  0.12699999809E+01 0. -1.
       -4    1    3    3    0  502 -0.39199917586E+03  0.11522643234E+04  0.36544160856E+03  0.12707972328E+04  0.12699999809E+01 0.  1.
</event>
<event>
 5   0  0.8958000E-06  0.2886387E+04  0.7818609E-02  0.8276939E-01
        3   -1    0    0  501    0  0.00000000000E+00  0.00000000000E+00  0.79605341648E+03  0.79605342289E+03  0.10100000352E+00 0.  1.
       -3   -1    0    0    0  501  0.00000000000E+00  0.00000000000E+00 -0.26164169845E+04  0.26164169864E+04  0.10100000352E+00 0. -1.
    10030    2    1    2    0    0  0.00000000000E+00  0.00000000000E+00 -0.18203635680E+04  0.34124704093E+04  0.28863871491E+04 0.  0.
        2    1    3    3  502    0 -0.11466616586E+04 -0.78173022130E+01  0.12584384314E+03  0.11535730330E+04  0.25500000920E-02 0. -1.
       -2    1    3    3    0  502  0.11466616586E+04  0.78173022130E+01 -0.19462074111E+04  0.22588973763E+04  0.25500000920E-02 0.  1.
</event>
<event>
 5   0  0.2588048E-05  0.2886836E+04  0.7818609E-02  0.8276805E-01
       -2   -1    0    0    0  501  0.00000000000E+00  0.00000000000E+00  0.10709349684E+04  0.10709349684E+04  0.25500000920E-02 0. -1.
        2   -1    0    0  501    0  0.00000000000E+00  0.00000000000E+00 -0.19454551869E+04  0.19454551869E+04  0.25500000920E-02 0.  1.
    10030    2    1    2    0    0  0.00000000000E+00  0.00000000000E+00 -0.87452021851E+03  0.30163901553E+04  0.28868363231E+04 0.  0.
        2    1    3    3  502    0  0.58083838112E+03  0.12659196355E+04 -0.83311595265E+03  0.16229627041E+04  0.25500000920E-02 0. -1.
       -2    1    3    3    0  502 -0.58083838112E+03 -0.12659196355E+04 -0.41404265862E+02  0.13934274512E+04  0.25500000920E-02 0.  1.
</event>
<event>
 5   0  0.1075146E-05  0.2784798E+04  0.7818609E-02  0.8308004E-01
       -1   -1    0    0    0  501  0.00000000000E+00  0.00000000000E+00  0.11717854455E+04  0.11717854455E+04  0.50400001928E-02 0. -1.
        1   -1    0    0  501    0  0.00000000000E+00  0.00000000000E+00 -0.16545471639E+04  0.16545471639E+04  0.50400001928E-02 0.  1.
    10030    2    1    2    0    0  0.00000000000E+00  0.00000000000E+00 -0.48276171841E+03  0.28263326095E+04  0.27847975048E+04 0.  0.
        2    1    3    3  502    0 -0.49055336505E+03  0.12935831965E+04 -0.81635066805E+02  0.13858803608E+04  0.25500000920E-02 0. -1.
       -2    1    3    3    0  502  0.49055336505E+03 -0.12935831965E+04 -0.40112665160E+03  0.14404522487E+04  0.25500000920E-02 0.  1.
</event>
<event>
 5   0  0.1105862E-05  0.2432481E+04  0.7818609E-02  0.8427442E-01
       -1   -1    0    0    0  501  0.00000000000E+00  0.00000000000E+00  0.14039155792E+04  0.14039155793E+04  0.50400001928E-02 0.  1.
        1   -1    0    0  501    0  0.00000000000E+00  0.00000000000E+00 -0.10536536207E+04  0.10536536207E+04  0.50400001928E-02 0. -1.
    10030    2    1    2    0    0  0.00000000000E+00  0.00000000000E+00  0.35026195858E+03  0.24575691999E+04  0.24324808186E+04 0.  0.
        3    1    3    3  502    0 -0.50271801909E+03 -0.95467507874E+03 -0.39200602183E+03  0.11479541123E+04  0.10100000352E+00 0. -1.
       -3    1    3    3    0  502  0.50271801909E+03  0.95467507874E+03  0.74226798041E+03  0.13096150876E+04  0.10100000352E+00 0.  1.
</event>
<event>
 5   0  0.2518686E-05  0.1760889E+04  0.7818609E-02  0.8727379E-01
        2   -1    0    0  501    0  0.00000000000E+00  0.00000000000E+00  0.52394727469E+03  0.52394727470E+03  0.25500000920E-02 0.  1.
       -2   -1    0    0    0  501  0.00000000000E+00  0.00000000000E+00 -0.14795050123E+04  0.14795050123E+04  0.25500000920E-02 0. -1.
    10030    2    1    2    0    0  0.00000000000E+00  0.00000000000E+00 -0.95555773759E+03  0.20034522870E+04  0.17608891153E+04 0.  0.
        5    1    3    3  502    0  0.72803876061E+03 -0.33089151040E+03 -0.89679073066E+03  0.12015761870E+04  0.46999998093E+01 0. -1.
       -5    1    3    3    0  502 -0.72803876061E+03  0.33089151040E+03 -0.58767006932E+02  0.80187609997E+03  0.46999998093E+01 0.  1.
</event>
<event>
 5   0  0.2697964E-05  0.2732646E+04  0.7818609E-02  0.8324490E-01
        2   -1    0    0  501    0  0.00000000000E+00  0.00000000000E+00  0.27384229395E+04  0.27384229395E+04  0.25500000920E-02 0. -1.
       -2   -1    0    0    0  501  0.00000000000E+00  0.00000000000E+00 -0.68172031850E+03  0.68172031851E+03  0.25500000920E-02 0.  1.
    10030    2    1    2    0    0  0.00000000000E+00  0.00000000000E+00  0.20567026210E+04  0.34201432580E+04  0.27326460133E+04 0.  0.
        1    1    3    3  502    0 -0.10246493059E+03 -0.71677398758E+03 -0.42185611798E+03  0.83798961543E+03  0.50400001928E-02 0.  1.
       -1    1    3    3    0  502  0.10246493059E+03  0.71677398758E+03  0.24785587390E+04  0.25821536426E+04  0.50400001928E-02 0. -1.
</event>
<event>
 5   0  0.1067434E-05  0.2758779E+04  0.7818609E-02  0.8316181E-01
       -1   -1    0    0    0  501  0.00000000000E+00  0.00000000000E+00  0.16065332703E+04  0.16065332703E+04  0.50400001928E-02 0. -1.
        1   -1    0    0  501    0  0.00000000000E+00  0.00000000000E+00 -0.11843610754E+04  0.11843610754E+04  0.50400001928E-02 0.  1.
    10030    2    1    2    0    0  0.00000000000E+00  0.00000000000E+00  0.42217219496E+03  0.27908943457E+04  0.27587790572E+04 0.  0.
        4    1    3    3  502    0  0.51266289897E+03  0.12490328803E+04 -0.74704712883E+02  0.13522162516E+04  0.12699999809E+01 0. -1.
       -4    1    3    3    0  502 -0.51266289897E+03 -0.12490328803E+04  0.49687690785E+03  0.14386780941E+04  0.12699999809E+01 0.  1.
</event>
<event>
 5   0  0.1067434E-05  0.2724276E+04  0.7818609E-02  0.8327171E-01
        1   -1    0    0  501    0  0.00000000000E+00  0.00000000000E+00  0.22324292555E+04  0.22324292555E+04  0.50400001928E-02 0. -1.
       -1   -1    0    0    0  501  0.00000000000E+00  0.00000000000E+00 -0.83112118907E+03  0.83112118908E+03  0.50400001928E-02 0.  1.
    10030    2    1    2    0    0  0.00000000000E+00  0.00000000000E+00  0.14013080664E+04  0.30635504446E+04  0.27242755054E+04 0.  0.
        4    1    3    3  502    0 -0.67432764336E+03 -0.11246538465E+04  0.28616830160E+03  0.13421840242E+04  0.12699999809E+01 0.  1.
       -4    1    3    3    0  502  0.67432764336E+03  0.11246538465E+04  0.11151397648E+04  0.17213664204E+04  0.12699999809E+01 0. -1.
</event>
<event>
 5   0  0.1017456E-05  0.1442730E+04  0.7818609E-02  0.8923456E-01
        1   -1    0    0  501    0  0.00000000000E+00  0.00000000000E+00  0.10436917031E+04  0.10436917031E+04  0.50400001928E-02 0. -1.
       -1   -1    0    0    0  501  0.00000000000E+00  0.00000000000E+00 -0.49858327251E+03  0.49858327254E+03  0.50400001928E-02 0.  1.
    10030    2    1    2    0    0  0.00000000000E+00  0.00000000000E+00  0.54510843059E+03  0.15422749757E+04  0.14427296696E+04 0.  0.
        5    1    3    3  502    0 -0.48409554819E+03 -0.53427099103E+03  0.24745795060E+03  0.76226735398E+03  0.46999998093E+01 0. -1.
       -5    1    3    3    0  502  0.48409554819E+03  0.53427099103E+03  0.29765047999E+03  0.78000762167E+03  0.46999998093E+01 0.  1.
</event>
<event>
 5   0  0.2624815E-05  0.2742372E+04  0.7818609E-02  0.8321386E-01
       -2   -1    0    0    0  501  0.00000000000E+00  0.00000000000E+00  0.73400107101E+03  0.73400107101E+03  0.25500000920E-02 0. -1.
        2   -1    0    0  501    0  0.00000000000E+00  0.00000000000E+00 -0.25615093103E+04  0.25615093103E+04  0.25500000920E-02 0.  1.
    10030    2    1    2    0    0  0.00000000000E+00  0.00000000000E+00 -0.18275082393E+04  0.32955103813E+04  0.27423716576E+04 0.  0.
        4    1    3    3  502    0  0.56702677818E+03 -0.10257301470E+04 -0.58511744947E+02  0.11734849546E+04  0.12699999809E+01 0. -1.
       -4    1    3    3    0  502 -0.56702677818E+03  0.10257301470E+04 -0.17689964943E+04  0.21220254267E+04  0.12699999809E+01 0.  1.
</event>
<event>
 5   0  0.1017456E-05  0.2814859E+04  0.7818609E-02  0.8298670E-01
        1   -1    0    0  501    0  0.00000000000E+00  0.00000000000E+00  0.14337552630E+04  0.14337552630E+04  0.50400001928E-02 0.  1.
       -1   -1    0    0    0  501  0.00000000000E+00  0.00000000000E+00 -0.13815868289E+04  0.13815868289E+04  0.50400001928E-02 0. -1.
    10030    2    1    2    0    0  0.00000000000E+00  0.00000000000E+00  0.52168434051E+02  0.28153420919E+04  0.28148587085E+04 0.  0.
        5    1    3    3  502    0 -0.38597930428E+03 -0.94171528509E+03  0.99837645424E+03  0.14256876712E+04  0.46999998093E+01 0.  1.
       -5    1    3    3    0  502  0.38597930428E+03  0.94171528509E+03 -0.94620802019E+03  0.13896544207E+04  0.46999998093E+01 0. -1.
</event>
<event>
 5   0  0.2651061E-05  0.2779299E+04  0.7818609E-02  0.8309724E-01
        2   -1    0    0  501    0  0.00000000000E+00  0.00000000000E+00  0.14524967184E+04  0.14524967184E+04  0.25500000920E-02 0.  1.
       -2   -1    0    0    0  501  0.00000000000E+00  0.00000000000E+00 -0.13295220404E+04  0.13295220404E+04  0.25500000920E-02 0. -1.
    10030    2    1    2    0    0  0.00000000000E+00  0.00000000000E+00  0.12297467802E+03  0.27820187589E+04  0.27792994807E+04 0.  0.
        3    1    3    3  502    0 -0.61197193584E+03 -0.45529793333E+03 -0.11012517485E+04  0.13396123626E+04  0.10100000352E+00 0. -1.
       -3    1    3    3    0  502  0.61197193584E+03  0.45529793333E+03  0.12242264265E+04  0.14424063962E+04  0.10100000352E+00 0.  1.
</event>
<event>
 5   0  0.2651061E-05  0.2728380E+04  0.7818609E-02  0.8325855E-01
        2   -1    0    0  501    0  0.00000000000E+00  0.00000000000E+00  0.19077169972E+04  0.19077169973E+04  0.25500000920E-02 0. -1.
       -2   -1    0    0    0  501  0.00000000000E+00  0.00000000000E+00 -0.97551932113E+03  0.97551932113E+03  0.25500000920E-02 0.  1.
    10030    2    1    2    0    0  0.00000000000E+00  0.00000000000E+00  0.93219767612E+03  0.28832363184E+04  0.27283803181E+04 0.  0.
        3    1    3    3  502    0  0.10849083592E+04 -0.82701085095E+03  0.47292162744E+03  0.14438240791E+04  0.10100000352E+00 0.  1.
       -3    1    3    3    0  502 -0.10849083592E+04  0.82701085095E+03  0.45927604867E+03  0.14394122393E+04  0.10100000352E+00 0. -1.
</event>
<event>
 5   0  0.8958000E-06  0.2789506E+04  0.7818609E-02  0.8306534E-01
       -3   -1    0    0    0  501  0.00000000000E+00  0.00000000000E+00  0.13157676605E+04  0.13157676643E+04  0.10100000352E+00 0.  1.
        3   -1    0    0  501    0  0.00000000000E+00  0.00000000000E+00 -0.14784796721E+04  0.14784796756E+04  0.10100000352E+00 0. -1.
    10030    2    1    2    0    0  0.00000000000E+00  0.00000000000E+00 -0.16271201165E+03  0.27942473399E+04  0.27895058698E+04 0.  0.
        1    1    3    3  502    0  0.52483404479E+03 -0.85514850604E+02 -0.13729553677E+04  0.14723348824E+04  0.50400001928E-02 0. -1.
       -1    1    3    3    0  502 -0.52483404479E+03  0.85514850604E+02  0.12102433561E+04  0.13219124575E+04  0.50400001928E-02 0.  1.
</event>
<event>
 5   0  0.1017456E-05  0.2781762E+04  0.7818609E-02  0.8308953E-01
        1   -1    0    0  501    0  0.00000000000E+00  0.00000000000E+00  0.25514025051E+04  0.25514025051E+04  0.50400001928E-02 0.  1.
       -1   -1    0    0    0  501  0.00000000000E+00  0.00000000000E+00 -0.75823010167E+03  0.75823010169E+03  0.50400001928E-02 0. -1.
    10030    2    1    2    0    0  0.00000000000E+00  0.00000000000E+00  0.17931724034E+04  0.33096326068E+04  0.27817621616E+04 0.  0.
        5    1    3    3  502    0 -0.70571725199E+03 -0.10556311382E+04  0.22131508246E+03  0.12889516653E+04  0.46999998093E+01 0. -1.
       -5    1    3    3    0  502  0.70571725199E+03  0.10556311382E+04  0.15718573210E+04  0.20206809415E+04  0.46999998093E+01 0.  1.
</event>
<event>
 5   0  0.2651061E-05  0.2846230E+04  0.7818609E-02  0.8289058E-01
        2   -1    0    0  501    0  0.00000000000E+00  0.00000000000E+00  0.95915204269E+03  0.95915204270E+03  0.25500000920E-02 0. -1.
       -2   -1    0    0    0  501  0.00000000000E+00  0.00000000000E+00 -0.21115070168E+04  0.21115070168E+04  0.25500000920E-02 0.  1.
    10030    2    1    2    0    0  0.00000000000E+00  0.00000000000E+00 -0.11523549741E+04  0.30706590595E+04  0.28462299755E+04 0.  0.
        3    1    3    3  502    0  0.65341090774E+03 -0.22266891887E+03 -0.19187857796E+04  0.20391827138E+04  0.10100000352E+00 0.  1.
       -3    1    3    3    0  502 -0.65341090774E+03  0.22266891887E+03  0.76643080558E+03  0.10314763457E+04  0.10100000352E+00 0. -1.
</event>
<event>
 5   0  0.8958000E-06  0.2760849E+04  0.7818609E-02  0.8315527E-01
       -3   -1    0    0    0  501  0.00000000000E+00  0.00000000000E+00  0.76630378403E+03  0.76630379069E+03  0.10100000352E+00 0. -1.
        3   -1    0    0  501    0  0.00000000000E+00  0.00000000000E+00 -0.24867046196E+04  0.24867046216E+04  0.10100000352E+00 0.  1.
    10030    2    1    2    0    0  0.00000000000E+00  0.00000000000E+00 -0.17204008355E+04  0.32530084123E+04  0.27608485463E+04 0.  0.
        5    1    3    3  502    0  0.31096437824E+03 -0.12121084157E+04 -0.15468801217E+04  0.19896647599E+04  0.46999998093E+01 0.  1.
       -5    1    3    3    0  502 -0.31096437824E+03  0.12121084157E+04 -0.17352071382E+03  0.12633436524E+04  0.46999998093E+01 0. -1.
</event>
<event>
 5   0  0.2588048E-05  0.2783424E+04  0.7818609E-02  0.8308433E-01
       -2   -1    0    0    0  501  0.00000000000E+00  0.00000000000E+00  0.17832889773E+04  0.17832889773E+04  0.25500000920E-02 0. -1.
        2   -1    0    0  501    0  0.00000000000E+00  0.00000000000E+00 -0.10861183756E+04  0.10861183756E+04  0.25500000920E-02 0.  1.
    10030    2    1    2    0    0  0.00000000000E+00  0.00000000000E+00  0.69717060173E+03  0.28694073528E+04  0.27834244571E+04 0.  0.
        2    1    3    3  502    0 -0.89088529061E+03 -0.58793655321E+03  0.12692102178E+04  0.16583849278E+04  0.25500000920E-02 0. -1.
       -2    1    3    3    0  502  0.89088529061E+03  0.58793655321E+03 -0.57203961610E+03  0.12110224251E+04  0.25500000920E-02 0.  1.
</event>
<event>
 5   0  0.2697964E-05  0.1636507E+04  0.7818609E-02  0.8798429E-01
        2   -1    0    0  501    0  0.00000000000E+00  0.00000000000E+00  0.93193739467E+03  0.93193739468E+03  0.25500000920E-02 0.  1.
       -2   -1    0    0    0  501  0.00000000000E+00  0.00000000000E+00 -0.71843771171E+03  0.71843771172E+03  0.25500000920E-02 0. -1.
    10030    2    1    2    0    0  0.00000000000E+00  0.00000000000E+00  0.21349968296E+03  0.16503751064E+04  0.16365072188E+04 0.  0.
        1    1    3    3  502    0 -0.50071467331E+03  0.10023610095E+03  0.75152412015E+03  0.90859835087E+03  0.50400001928E-02 0.  1.
       -1    1    3    3    0  502  0.50071467331E+03 -0.10023610095E+03 -0.53802443719E+03  0.74177675553E+03  0.50400001928E-02 0. -1.
</event>
<event>
 5   0  0.1078103E-05  0.2801244E+04  0.7818609E-02  0.8302882E-01
       -1   -1    0    0    0  501  0.00000000000E+00  0.00000000000E+00  0.11285321359E+04  0.11285321359E+04  0.50400001928E-02 0. -1.
        1   -1    0    0  501    0  0.00000000000E+00  0.00000000000E+00 -0.17383128258E+04  0.17383128258E+04  0.50400001928E-02 0.  1.
    10030    2    1    2    0    0  0.00000000000E+00  0.00000000000E+00 -0.60978068990E+03  0.28668449617E+04  0.28012439281E+04 0.  0.
        1    1    3    3  502    0 -0.91429278436E+03 -0.68626611368E+02  0.77872624340E+03  0.12029361868E+04  0.50400001928E-02 0. -1.
       -1    1    3    3    0  502  0.91429278436E+03  0.68626611368E+02 -0.13885069333E+04  0.16639087749E+04  0.50400001928E-02 0.  1.
</event>
<event>
 5   0  0.2624815E-05  0.2746761E+04  0.7818609E-02  0.8319990E-01
       -2   -1    0    0    0  501  0.00000000000E+00  0.00000000000E+00  0.13458301048E+04  0.13458301048E+04  0.25500000920E-02 0.  1.
        2   -1    0    0  501    0  0.00000000000E+00  0.00000000000E+00 -0.14014945046E+04  0.14014945046E+04  0.25500000920E-02 0. -1.
    10030    2    1    2    0    0  0.00000000000E+00  0.00000000000E+00 -0.55664399827E+02  0.27473246095E+04  0.27467606347E+04 0.  0.
        4    1    3    3  502    0 -0.11320973194E+04 -0.65876757905E+03  0.38523300516E+03  0.13652930619E+04  0.12699999809E+01 0.  1.
       -4    1    3    3    0  502  0.11320973194E+04  0.65876757905E+03 -0.44089740499E+03  0.13820315475E+04  0.12699999809E+01 0. -1.
</event>
<event>
 5   0  0.2624815E-05  0.2784473E+04  0.7818609E-02  0.8308105E-01
       -2   -1    0    0    0  501  0.00000000000E+00  0.00000000000E+00  0.10494880192E+04  0.10494880192E+04  0.25500000920E-02 0. -1.
        2   -1    0    0  501    0  0.00000000000E+00  0.00000000000E+00 -0.18469215743E+04  0.18469215743E+04  0.25500000920E-02 0.  1.
    10030    2    1    2    0    0  0.00000000000E+00  0.00000000000E+00 -0.79743355508E+03  0.28964095936E+04  0.27844727075E+04 0.  0.
        4    1    3    3  502    0  0.88664906462E+03  0.70295311253E+03  0.44508439771E+03  0.12158911860E+04  0.12699999809E+01 0. -1.
       -4    1    3    3    0  502 -0.88664906462E+03 -0.70295311253E+03 -0.12425179528E+04  0.16805184076E+04  0.12699999809E+01 0.  1.
</event>
<event>
 5   0  0.2518686E-05  0.2193126E+04  0.7818609E-02  0.8521295E-01
        2   -1    0    0  501    0  0.00000000000E+00  0.00000000000E+00  0.90502501515E+03  0.90502501516E+03  0.25500000920E-02 0.  1.
       -2   -1    0    0    0  501  0.00000000000E+00  0.00000000000E+00 -0.13286377185E+04  0.13286377185E+04  0.25500000920E-02 0. -1.
    10030    2    1    2    0    0  0.00000000000E+00  0.00000000000E+00 -0.42361270335E+03  0.22336627337E+04  0.21931259620E+04 0.  0.
        5    1    3    3  502    0 -0.32882195982E+03 -0.27080264753E+03  0.81730076694E+03  0.92166186251E+03  0.46999998093E+01 0.  1.
       -5    1    3    3    0  502  0.32882195982E+03  0.27080264753E+03 -0.12409134703E+04  0.13120008712E+04  0.46999998093E+01 0. -1.
</event>
<event>
 5   0  0.1067434E-05  0.2706213E+04  0.7818609E-02  0.8332992E-01
        1   -1    0    0  501    0  0.00000000000E+00  0.00000000000E+00  0.21751602521E+04  0.21751602521E+04  0.50400001928E-02 0.  1.
       -1   -1    0    0    0  501  0.00000000000E+00  0.00000000000E+00 -0.84172971915E+03  0.84172971917E+03  0.50400001928E-02 0. -1.
    10030    2    1    2    0    0  0.00000000000E+00  0.00000000000E+00  0.13334305330E+04  0.30168899713E+04  0.27062128727E+04 0.  0.
        4    1    3    3  502    0  0.13269758898E+04  0.15849940633E+03  0.90295939504E+03  0.16128621627E+04  0.12699999809E+01 0.  1.
       -4    1    3    3    0  502 -0.13269758898E+04 -0.15849940633E+03  0.43047113792E+03  0.14040278086E+04  0.12699999809E+01 0. -1.
</event>
<event>
 5   0  0.1075146E-05  0.1559973E+04  0.7818609E-02  0.8845522E-01
       -1   -1    0    0    0  501  0.00000000000E+00  0.00000000000E+00  0.75941295934E+03  0.75941295936E+03  0.50400001928E-02 0. -1.
        1   -1    0    0  501    0  0.00000000000E+00  0.00000000000E+00 -0.80111771261E+03  0.80111771262E+03  0.50400001928E-02 0.  1.
    10030    2    1    2    0    0  0.00000000000E+00  0.00000000000E+00 -0.41704753263E+02  0.15605306720E+04  0.15599732984E+04 0.  0.
        2    1    3    3  502    0 -0.58154065735E+03 -0.49087375656E+03  0.15018412550E+03  0.77569443248E+03  0.25500000920E-02 0. -1.
       -2    1    3    3    0  502  0.58154065735E+03  0.49087375656E+03 -0.19188887876E+03  0.78483623950E+03  0.25500000920E-02 0.  1.
</event>
<event>
 5   0  0.2651061E-05  0.2760844E+04  0.7818609E-02  0.8315529E-01
       -2   -1    0    0    0  501  0.00000000000E+00  0.00000000000E+00  0.89580402687E+03  0.89580402688E+03  0.25500000920E-02 0. -1.
        2   -1    0    0  501    0  0.00000000000E+00  0.00000000000E+00 -0.21272111221E+04  0.21272111221E+04  0.25500000920E-02 0.  1.
    10030    2    1    2    0    0  0.00000000000E+00  0.00000000000E+00 -0.12314070952E+04  0.30230151490E+04  0.27608435589E+04 0.  0.
        3    1    3    3  502    0 -0.32379199140E+03  0.70337580950E+03  0.63561448168E+03  0.10017906780E+04  0.10100000352E+00 0. -1.
       -3    1    3    3    0  502  0.32379199140E+03 -0.70337580950E+03 -0.18670215769E+04  0.20212244709E+04  0.10100000352E+00 0.  1.
</event>
<event>
 5   0  0.2624815E-05  0.2714101E+04  0.7818609E-02  0.8330444E-01
        2   -1    0    0  501    0  0.00000000000E+00  0.00000000000E+00  0.18199099335E+04  0.18199099335E+04  0.25500000920E-02 0. -1.
       -2   -1    0    0    0  501  0.00000000000E+00  0.00000000000E+00 -0.10119101848E+04  0.10119101848E+04  0.25500000920E-02 0.  1.
    10030    2    1    2    0    0  0.00000000000E+00  0.00000000000E+00  0.80799974872E+03  0.28318201183E+04  0.27141005118E+04 0.  0.
        4    1    3    3  502    0 -0.53384681003E+03  0.19208332943E+02  0.17055939645E+04  0.17872922988E+04  0.12699999809E+01 0. -1.
       -4    1    3    3    0  502  0.53384681003E+03 -0.19208332943E+02 -0.89759421578E+03  0.10445278195E+04  0.12699999809E+01 0.  1.
</event>
<event>
 5   0  0.2624815E-05  0.1863623E+04  0.7818609E-02  0.8673179E-01
       -2   -1    0    0    0  501  0.00000000000E+00  0.00000000000E+00  0.73225049449E+03  0.73225049449E+03  0.25500000920E-02 0. -1.
        2   -1    0    0  501    0  0.00000000000E+00  0.00000000000E+00 -0.11857585782E+04  0.11857585782E+04  0.25500000920E-02 0.  1.
    10030    2    1    2    0    0  0.00000000000E+00  0.00000000000E+00 -0.45350808368E+03  0.19180090727E+04  0.18636226069E+04 0.  0.
        4    1    3    3  502    0 -0.12648197067E+03 -0.51834158520E+03 -0.10129819760E+04  0.11449060155E+04  0.12699999809E+01 0. -1.
       -4    1    3    3    0  502  0.12648197067E+03  0.51834158520E+03  0.55947389231E+03  0.77310305712E+03  0.12699999809E+01 0.  1.
</event>
<event>
 5   0  0.1105862E-05  0.2771049E+04  0.7818609E-02  0.8312313E-01
        1   -1    0    0  501    0  0.00000000000E+00  0.00000000000E+00  0.18680598866E+04  0.18680598866E+04  0.50400001928E-02 0. -1.
       -1   -1    0    0    0  501  0.00000000000E+00  0.00000000000E+00 -0.10276316765E+04  0.10276316765E+04  0.50400001928E-02 0.  1.
    10030    2    1    2    0    0  0.00000000000E+00  0.00000000000E+00  0.84042821012E+03  0.28956915631E+04  0.27710485475E+04 0.  0.
        3    1    3    3  502    0  0.10167681189E+04  0.93295312411E+03  0.29028910250E+03  0.14101371255E+04  0.10100000352E+00 0.  1.
       -3    1    3    3    0  502 -0.10167681189E+04 -0.93295312411E+03  0.55013910762E+03  0.14855544377E+04  0.10100000352E+00 0. -1.
</event>
<event>
 5   0  0.1078103E-05  0.2810822E+04  0.7818609E-02  0.8299916E-01
        1   -1    0    0  501    0  0.00000000000E+00  0.00000000000E+00  0.15574053001E+04  0.15574053001E+04  0.50400001928E-02 0.  1.
       -1   -1    0    0    0  501  0.00000000000E+00  0.00000000000E+00 -0.12682505192E+04  0.12682505192E+04  0.50400001928E-02 0. -1.
    10030    2    1    2    0    0  0.00000000000E+00  0.00000000000E+00  0.28915478093E+03  0.28256558193E+04  0.28108220011E+04 0.  0.
        1    1    3    3  502    0 -0.34474178368E+03  0.47117300113E+03 -0.11405781274E+04  0.12813154800E+04  0.50400001928E-02 0. -1.
       -1    1    3    3    0  502  0.34474178368E+03 -0.47117300113E+03  0.14297329084E+04  0.15443403393E+04  0.50400001928E-02 0.  1.
</event>
<event>
 5   0  0.1075146E-05  0.2820502E+04  0.7818609E-02  0.8296931E-01
       -1   -1    0    0    0  501  0.00000000000E+00  0.00000000000E+00  0.99594819118E+03  0.99594819119E+03  0.50400001928E-02 0.  1.
        1   -1    0    0  501    0  0.00000000000E+00  0.00000000000E+00 -0.19968995896E+04  0.19968995896E+04  0.50400001928E-02 0. -1.
    10030    2    1    2    0    0  0.00000000000E+00  0.00000000000E+00 -0.10009513984E+04  0.29928477808E+04  0.28205024618E+04 0.  0.
        2    1    3    3  502    0 -0.92956020409E+03 -0.51035549945E+03  0.48598835172E+03  0.11665031448E+04  0.25500000920E-02 0.  1.
       -2    1    3    3    0  502  0.92956020409E+03  0.51035549945E+03 -0.14869397502E+04  0.18263446360E+04  0.25500000920E-02 0. -1.
</event>
<event>
 5   0  0.2697964E-05  0.2761575E+04  0.7818609E-02  0.8315298E-01
       -2   -1    0    0    0  501  0.00000000000E+00  0.00000000000E+00  0.11265332984E+04  0.11265332984E+04  0.25500000920E-02 0.  1.
        2   -1    0    0  501    0  0.00000000000E+00  0.00000000000E+00 -0.16924253294E+04  0.16924253294E+04  0.25500000920E-02 0. -1.
    10030    2    1    2    0    0  0.00000000000E+00  0.00000000000E+00 -0.56589203101E+03  0.28189586279E+04  0.27615745427E+04 0.  0.
        1    1    3    3  502    0  0.54824165973E+03  0.39680037521E+03  0.94562221681E+03  0.11628503051E+04  0.50400001928E-02 0.  1.
       -1    1    3    3    0  502 -0.54824165973E+03 -0.39680037521E+03 -0.15115142478E+04  0.16561083227E+04  0.50400001928E-02 0. -1.
</event>
<event>
 5   0  0.2624815E-05  0.2859327E+04  0.7818609E-02  0.8285083E-01
        2   -1    0    0  501    0  0.00000000000E+00  0.00000000000E+00  0.10387445543E+04  0.10387445543E+04  0.25500000920E-02 0. -1.
       -2   -1    0    0    0  501  0.00000000000E+00  0.00000000000E+00 -0.19676998774E+04  0.19676998774E+04  0.25500000920E-02 0.  1.
    10030    2    1    2    0    0  0.00000000000E+00  0.00000000000E+00 -0.92895532319E+03  0.30064444317E+04  0.28593268663E+04 0.  0.
        4    1    3    3  502    0  0.97383255634E+03  0.10242275794E+04 -0.69131833815E+03  0.15733132682E+04  0.12699999809E+01 0.  1.
       -4    1    3    3    0  502 -0.97383255634E+03 -0.10242275794E+04 -0.23763698503E+03  0.14331311635E+04  0.12699999809E+01 0. -1.
</event>
<event>
 5   0  0.1017456E-05  0.2661721E+04  0.7818609E-02  0.8347533E-01
       -1   -1    0    0    0  501  0.00000000000E+00  0.00000000000E+00  0.20017112493E+04  0.20017112493E+04  0.50400001928E-02 0.  1.
        1   -1    0    0  501    0  0.00000000000E+00  0.00000000000E+00 -0.88483779112E+03  0.88483779113E+03  0.50400001928E-02 0. -1.
    10030    2    1    2    0    0  0.00000000000E+00  0.00000000000E+00  0.11168734582E+04  0.28865490404E+04  0.26617210675E+04 0.  0.
        5    1    3    3  502    0  0.12580717993E+04 -0.35969244111E+03  0.29492155401E+03  0.13413143246E+04  0.46999998093E+01 0. -1.
       -5    1    3    3    0  502 -0.12580717993E+04  0.35969244111E+03  0.82195190417E+03  0.15452347159E+04  0.46999998093E+01 0.  1.
</event>
<event>
 5   0  0.2697964E-05  0.2620192E+04  0.7818609E-02  0.8361375E-01
       -2   -1    0    0    0  501  0.00000000000E+00  0.00000000000E+00  0.94842942137E+03  0.94842942137E+03  0.25500000920E-02 0.  1.
        2   -1    0    0  501    0  0.00000000000E+00  0.00000000000E+00 -0.18096771069E+04  0.18096771069E+04  0.25500000920E-02 0. -1.
    10030    2    1    2    0    0  0.00000000000E+00  0.00000000000E+00 -0.86124768553E+03  0.27581065283E+04  0.26201916047E+04 0.  0.
        1    1    3    3  502    0 -0.21071130656E+03 -0.12922520416E+04 -0.38312189584E+03  0.13642202831E+04  0.50400001928E-02 0.  1.
       -1    1    3    3    0  502  0.21071130656E+03  0.12922520416E+04 -0.47812578969E+03  0.13938862452E+04  0.50400001928E-02 0. -1.
</event>
<event>
 5   0  0.1105862E-05  0.2681363E+04  0.7818609E-02  0.8341078E-01
       -1   -1    0    0    0  501  0.00000000000E+00  0.00000000000E+00  0.14246206347E+04  0.14246206347E+04  0.50400001928E-02 0. -1.
        1   -1    0    0  501    0  0.00000000000E+00  0.00000000000E+00 -0.12616876381E+04  0.12616876381E+04  0.50400001928E-02 0.  1.
    10030    2    1    2    0    0  0.00000000000E+00  0.00000000000E+00  0.16293299661E+03  0.26863082729E+04  0.26813625222E+04 0.  0.
        3    1    3    3  502    0  0.33644195332E+03  0.57983003378E+03  0.12446550576E+04  0.14137051598E+04  0.10100000352E+00 0. -1.
       -3    1    3    3    0  502 -0.33644195332E+03 -0.57983003378E+03 -0.10817220610E+04  0.12726031131E+04  0.10100000352E+00 0.  1.
</event>
<event>
 5   0  0.1017456E-05  0.2667871E+04  0.7818609E-02  0.8345506E-01
        1   -1    0    0  501    0  0.00000000000E+00  0.00000000000E+00  0.12271317547E+04  0.12271317547E+04  0.50400001928E-02 0.  1.
       -1   -1    0    0    0  501  0.00000000000E+00  0.00000000000E+00 -0.14500344945E+04  0.14500344945E+04  0.50400001928E-02 0. -1.
    10030    2    1    2    0    0  0.00000000000E+00  0.00000000000E+00 -0.22290273978E+03  0.26771662491E+04  0.26678705917E+04 0.  0.
        5    1    3    3  502    0  0.83169294520E+03  0.26545334026E+03  0.90061747038E+03  0.12543175630E+04  0.46999998093E+01 0.  1.
       -5    1    3    3    0  502 -0.83169294520E+03 -0.26545334026E+03 -0.11235202102E+04  0.14228486861E+04  0.46999998093E+01 0. -1.
</event>
<event>
 5   0  0.1017456E-05  0.2769657E+04  0.7818609E-02  0.8312751E-01
        1   -1    0    0  501    0  0.00000000000E+00  0.00000000000E+00  0.14564299242E+04  0.14564299242E+04  0.50400001928E-02 0. -1.
       -1   -1    0    0    0  501  0.00000000000E+00  0.00000000000E+00 -0.13167468973E+04  0.13167468973E+04  0.50400001928E-02 0.  1.
    10030    2    1    2    0    0  0.00000000000E+00  0.00000000000E+00  0.13968302689E+03  0.27731768215E+04  0.27696567179E+04 0.  0.
        5    1    3    3  502    0  0.24874082130E+03 -0.11761580338E+04  0.75810716762E+03  0.14212558828E+04  0.46999998093E+01 0. -1.
       -5    1    3    3    0  502 -0.24874082130E+03  0.11761580338E+04 -0.61842414073E+03  0.13519209387E+04  0.46999998093E+01 0.  1.
</event>
<event>
 5   0  0.2518686E-05  0.2809704E+04  0.7818609E-02  0.8300262E-01
        2   -1    0    0  501    0  0.00000000000E+00  0.00000000000E+00  0.14271896765E+04  0.14271896765E+04  0.25500000920E-02 0. -1.
       -2   -1    0    0    0  501  0.00000000000E+00  0.00000000000E+00 -0.13828636697E+04  0.13828636697E+04  0.25500000920E-02 0.  1.
    10030    2    1    2    0    0  0.00000000000E+00  0.00000000000E+00  0.44326006797E+02  0.28100533461E+04  0.28097037234E+04 0.  0.
        5    1    3    3  502    0  0.21967448316E+03 -0.11006185624E+04  0.86723475170E+03  0.14183569026E+04  0.46999998093E+01 0.  1.
       -5    1    3    3    0  502 -0.21967448316E+03  0.11006185624E+04 -0.82290874491E+03  0.13916964435E+04  0.46999998093E+01 0. -1.
</event>
<event>
 5   0  0.2518686E-05  0.2805194E+04  0.7818609E-02  0.8301658E-01
       -2   -1    0    0    0  501  0.00000000000E+00  0.00000000000E+00  0.11589110937E+04  0.11589110937E+04  0.25500000920E-02 0.  1.
        2   -1    0    0  501    0  0.00000000000E+00  0.00000000000E+00 -0.16975236049E+04  0.16975236049E+04  0.25500000920E-02 0. -1.
    10030    2    1    2    0    0  0.00000000000E+00  0.00000000000E+00 -0.53861251117E+03  0.28564346986E+04  0.28051944229E+04 0.  0.
        5    1    3    3  502    0  0.30156201626E+03 -0.13596651812E+04 -0.10005401395E+03  0.13963029579E+04  0.46999998093E+01 0. -1.
       -5    1    3    3    0  502 -0.30156201626E+03  0.13596651812E+04 -0.43855849722E+03  0.14601317407E+04  0.46999998093E+01 0.  1.
</event>
<event>
 5   0  0.2588048E-05  0.2789825E+04  0.7818609E-02  0.8306434E-01
       -2   -1    0    0    0  501  0.00000000000E+00  0.00000000000E+00  0.11563653357E+04  0.11563653357E+04  0.25500000920E-02 0.  1.
        2   -1    0    0  501    0  0.00000000000E+00  0.00000000000E+00 -0.16826701817E+04  0.16826701817E+04  0.25500000920E-02 0. -1.
    10030    2    1    2    0    0  0.00000000000E+00  0.00000000000E+00 -0.52630484597E+03  0.28390355174E+04  0.27898254207E+04 0.  0.
        2    1    3    3  502    0  0.13276126088E+04 -0.39759612087E+03 -0.42451660513E+03  0.14494317032E+04  0.25500000920E-02 0. -1.
       -2    1    3    3    0  502 -0.13276126088E+04  0.39759612087E+03 -0.10178824083E+03  0.13896038141E+04  0.25500000920E-02 0.  1.
</event>
<event>
 5   0  0.1078103E-05  0.2745636E+04  0.7818609E-02  0.8320348E-01
       -1   -1    0    0    0  501  0.00000000000E+00  0.00000000000E+00  0.82330475230E+03  0.82330475231E+03  0.50400001928E-02 0.  1.
        1   -1    0    0  501    0  0.00000000000E+00  0.00000000000E+00 -0.22891035388E+04  0.22891035388E+04  0.50400001928E-02 0. -1.
    10030    2    1    2    0    0  0.00000000000E+00  0.00000000000E+00 -0.14657987865E+04  0.31124082912E+04  0.27456364086E+04 0.  0.
        1    1    3    3  502    0 -0.49494348643E+03 -0.52311745975E+03  0.59199206863E+03  0.93224221145E+03  0.50400001928E-02 0.  1.
       -1    1    3    3    0  502  0.49494348643E+03  0.52311745975E+03 -0.20577908552E+04  0.21801660797E+04  0.50400001928E-02 0. -1.
</event>
<event>
 5   0  0.2518686E-05  0.2420655E+04  0.7818609E-02  0.8431811E-01
       -2   -1    0    0    0  501  0.00000000000E+00  0.00000000000E+00  0.99905669442E+03  0.99905669442E+03  0.25500000920E-02 0.  1.
        2   -1    0    0  501    0  0.00000000000E+00  0.00000000000E+00 -0.14662756920E+04  0.14662756920E+04  0.25500000920E-02 0. -1.
    10030    2    1    2    0    0  0.00000000000E+00  0.00000000000E+00 -0.46721899758E+03  0.24653323864E+04  0.24206549080E+04 0.  0.
        5    1    3    3  502    0  0.22818657468E+03  0.95618553277E+03 -0.95269376493E+03  0.13689438943E+04  0.46999998093E+01 0. -1.
       -5    1    3    3    0  502 -0.22818657468E+03 -0.95618553277E+03  0.48547476735E+03  0.10963884921E+04  0.46999998093E+01 0.  1.
</event>
<event>
 5   0  0.1017456E-05  0.2871569E+04  0.7818609E-02  0.8281387E-01
        1   -1    0    0  501    0  0.00000000000E+00  0.00000000000E+00  0.21964498018E+04  0.21964498018E+04  0.50400001928E-02 0.  1.
       -1   -1    0    0    0  501  0.00000000000E+00  0.00000000000E+00 -0.93854967749E+03  0.93854967750E+03  0.50400001928E-02 0. -1.
    10030    2    1    2    0    0  0.00000000000E+00  0.00000000000E+00  0.12579001243E+04  0.31349994793E+04  0.28715690855E+04 0.  0.
        5    1    3    3  502    0 -0.37315603422E+03  0.38021563486E+03  0.20845459513E+04  0.21515490392E+04  0.46999998093E+01 0.  1.
       -5    1    3    3    0  502  0.37315603422E+03 -0.38021563486E+03 -0.82664582701E+03  0.98345044012E+03  0.46999998093E+01 0. -1.
</event>
<event>
 5   0  0.2651061E-05  0.2730887E+04  0.7818609E-02  0.8325052E-01
       -2   -1    0    0    0  501  0.00000000000E+00  0.00000000000E+00  0.10330424737E+04  0.10330424737E+04  0.25500000920E-02 0. -1.
        2   -1    0    0  501    0  0.00000000000E+00  0.00000000000E+00 -0.18048011025E+04  0.18048011025E+04  0.25500000920E-02 0.  1.
    10030    2    1    2    0    0  0.00000000000E+00  0.00000000000E+00 -0.77175862880E+03  0.28378435761E+04  0.27308871785E+04 0.  0.
        3    1    3    3  502    0 -0.62812064319E+03 -0.90833971409E+03  0.44857739684E+03  0.11919892071E+04  0.10100000352E+00 0. -1.
       -3    1    3    3    0  502  0.62812064319E+03  0.90833971409E+03 -0.12203360256E+04  0.16458543691E+04  0.10100000352E+00 0.  1.
</event>
<event>
 5   0  0.2518686E-05  0.2834546E+04  0.7818609E-02  0.8292623E-01
        2   -1    0    0  501    0  0.00000000000E+00  0.00000000000E+00  0.18811162264E+04  0.18811162264E+04  0.25500000920E-02 0. -1.
       -2   -1    0    0    0  501  0.00000000000E+00  0.00000000000E+00 -0.10678038194E+04  0.10678038194E+04  0.25500000920E-02 0.  1.
    10030    2    1    2    0    0  0.00000000000E+00  0.00000000000E+00  0.81331240699E+03  0.29489200458E+04  0.28345462362E+04 0.  0.
        5    1    3    3  502    0 -0.60758039313E+03 -0.11727731350E+04  0.94128903945E+03  0.16219118059E+04  0.46999998093E+01 0. -1.
       -5    1    3    3    0  502  0.60758039313E+03  0.11727731350E+04 -0.12797663246E+03  0.13270082399E+04  0.46999998093E+01 0.  1.
</event>
<event>
 5   0  0.1067434E-05  0.2500324E+04  0.7818609E-02  0.8402870E-01
       -1   -1    0    0    0  501  0.00000000000E+00  0.00000000000E+00  0.14828230849E+04  0.14828230849E+04  0.50400001928E-02 0.  1.
        1   -1    0    0  501    0  0.00000000000E+00  0.00000000000E+00 -0.10540061651E+04  0.10540061651E+04  0.50400001928E-02 0. -1.
    10030    2    1    2    0    0  0.00000000000E+00  0.00000000000E+00  0.42881691980E+03  0.25368292500E+04  0.25003237177E+04 0.  0.
        4    1    3    3  502    0 -0.53416848669E+03 -0.40516144236E+03  0.12849975346E+04  0.14493833321E+04  0.12699999809E+01 0.  1.
       -4    1    3    3    0  502  0.53416848669E+03  0.40516144236E+03 -0.85618061476E+03  0.10874459180E+04  0.12699999809E+01 0. -1.
</event>
<event>
 5   0  0.2651061E-05  0.1541414E+04  0.7818609E-02  0.8857370E-01
        2   -1    0    0  501    0  0.00000000000E+00  0.00000000000E+00  0.57388841926E+03  0.57388841926E+03  0.25500000920E-02 0. -1.
       -2   -1    0    0    0  501  0.00000000000E+00  0.00000000000E+00 -0.10350263524E+04  0.10350263524E+04  0.25500000920E-02 0.  1.
    10030    2    1    2    0    0  0.00000000000E+00  0.00000000000E+00 -0.46113793314E+03  0.16089147717E+04  0.15414144638E+04 0.  0.
        3    1    3    3  502    0 -0.59945542186E+03 -0.24158473791E+03  0.20767372780E+03  0.67885077580E+03  0.10100000352E+00 0. -1.
       -3    1    3    3    0  502  0.59945542186E+03  0.24158473791E+03 -0.66881166094E+03  0.93006399586E+03  0.10100000352E+00 0.  1.
</event>
<event>
 5   0  0.2588048E-05  0.2783134E+04  0.7818609E-02  0.8308524E-01
       -2   -1    0    0    0  501  0.00000000000E+00  0.00000000000E+00  0.88327993594E+03  0.88327993594E+03  0.25500000920E-02 0. -1.
        2   -1    0    0  501    0  0.00000000000E+00  0.00000000000E+00 -0.21923501789E+04  0.21923501789E+04  0.25500000920E-02 0.  1.
    10030    2    1    2    0    0  0.00000000000E+00  0.00000000000E+00 -0.13090702429E+04  0.30756301148E+04  0.27831341509E+04 0.  0.
        2    1    3    3  502    0 -0.21434773902E+03 -0.10625495773E+04 -0.16188871387E+04  0.19482690074E+04  0.25500000920E-02 0.  1.
       -2    1    3    3    0  502  0.21434773902E+03  0.10625495773E+04  0.30981689582E+03  0.11273611073E+04  0.25500000920E-02 0. -1.
</event>
<event>
 5   0  0.2624815E-05  0.2780167E+04  0.7818609E-02  0.8309452E-01
        2   -1    0    0  501    0  0.00000000000E+00  0.00000000000E+00  0.10940236307E+04  0.10940236307E+04  0.25500000920E-02 0. -1.
       -2   -1    0    0    0  501  0.00000000000E+00  0.00000000000E+00 -0.17662624242E+04  0.17662624242E+04  0.25500000920E-02 0.  1.
    10030    2    1    2    0    0  0.00000000000E+00  0.00000000000E+00 -0.67223879354E+03  0.28602860549E+04  0.27801674986E+04 0.  0.
        4    1    3    3  502    0 -0.10581205601E+04 -0.89243505944E+03 -0.46735624787E+03  0.14609869713E+04  0.12699999809E+01 0. -1.
       -4    1    3    3    0  502  0.10581205601E+04  0.89243505944E+03 -0.20488254567E+03  0.13992990836E+04  0.12699999809E+01 0.  1.
</event>
<event>
 5   0  0.2651061E-05  0.2802809E+04  0.7818609E-02  0.8302397E-01
       -2   -1    0    0    0  501  0.00000000000E+00  0.00000000000E+00  0.88601129258E+03  0.88601129259E+03  0.25500000920E-02 0.  1.
        2   -1    0    0  501    0  0.00000000000E+00  0.00000000000E+00 -0.22166028797E+04  0.22166028797E+04  0.25500000920E-02 0. -1.
    10030    2    1    2    0    0  0.00000000000E+00  0.00000000000E+00 -0.13305915871E+04  0.31026141723E+04  0.28028094353E+04 0.  0.
        3    1    3    3  502    0  0.56337829711E+03 -0.14749289316E+03 -0.20763128829E+04  0.21564379094E+04  0.10100000352E+00 0. -1.
       -3    1    3    3    0  502 -0.56337829711E+03  0.14749289316E+03  0.74572129581E+03  0.94617626287E+03  0.10100000352E+00 0.  1.
</event>
<event>
 5   0  0.2697964E-05  0.2901525E+04  0.7818609E-02  0.8272424E-01
       -2   -1    0    0    0  501  0.00000000000E+00  0.00000000000E+00  0.90176289987E+03  0.90176289987E+03  0.25500000920E-02 0.  1.
        2   -1    0    0  501    0  0.00000000000E+00  0.00000000000E+00 -0.23339974020E+04  0.23339974020E+04  0.25500000920E-02 0. -1.
    10030    2    1    2    0    0  0.00000000000E+00  0.00000000000E+00 -0.14322345021E+04  0.32357603019E+04  0.29015252992E+04 0.  0.
        1    1    3    3  502    0 -0.14460641151E+02  0.14437499118E+04 -0.55805327682E+03  0.15479167864E+04  0.50400001928E-02 0. -1.
       -1    1    3    3    0  502  0.14460641151E+02 -0.14437499118E+04 -0.87418122533E+03  0.16878435155E+04  0.50400001928E-02 0.  1.
</event>
<event>
 5   0  0.2697964E-05  0.2906086E+04  0.7818609E-02  0.8271069E-01
        2   -1    0    0  501    0  0.00000000000E+00  0.00000000000E+00  0.14933659789E+04  0.14933659789E+04  0.25500000920E-02 0. -1.
       -2   -1    0    0    0  501  0.00000000000E+00  0.00000000000E+00 -0.14138088793E+04  0.14138088793E+04  0.25500000920E-02 0.  1.
    10030    2    1    2    0    0  0.00000000000E+00  0.00000000000E+00  0.79557099627E+02  0.29071748582E+04  0.29060860834E+04 0.  0.
        1    1    3    3  502    0  0.17069489015E+03 -0.14396670122E+04  0.13757114268E+03  0.14562635994E+04  0.50400001928E-02 0.  1.
       -1    1    3    3    0  502 -0.17069489015E+03  0.14396670122E+04 -0.58014043052E+02  0.14509112588E+04  0.50400001928E-02 0. -1.
</event>
<event>
 5   0  0.1078103E-05  0.2824145E+04  0.7818609E-02  0.8295811E-01
        1   -1    0    0  501    0  0.00000000000E+00  0.00000000000E+00  0.16647771846E+04  0.16647771846E+04  0.50400001928E-02 0.  1.
       -1   -1    0    0    0  501  0.00000000000E+00  0.00000000000E+00 -0.11977266805E+04  0.11977266805E+04  0.50400001928E-02 0. -1.
    10030    2    1    2    0    0  0.00000000000E+00  0.00000000000E+00  0.46705050407E+03  0.28625038651E+04  0.28241445084E+04 0.  0.
        1    1    3    3  502    0 -0.96506868547E+03 -0.45150843907E+03  0.11727891699E+04  0.15845036684E+04  0.50400001928E-02 0.  1.
       -1    1    3    3    0  502  0.96506868547E+03  0.45150843907E+03 -0.70573866580E+03  0.12780001967E+04  0.50400001928E-02 0. -1.
</event>
<event>
 5   0  0.1075146E-05  0.2797197E+04  0.7818609E-02  0.8304139E-01
        1   -1    0    0  501    0  0.00000000000E+00  0.00000000000E+00  0.21057887904E+04  0.21057887904E+04  0.50400001928E-02 0. -1.
       -1   -1    0    0    0  501  0.00000000000E+00  0.00000000000E+00 -0.92890471655E+03  0.92890471656E+03  0.50400001928E-02 0.  1.
    10030    2    1    2    0    0  0.00000000000E+00  0.00000000000E+00  0.11768840738E+04  0.30346935069E+04  0.27971965533E+04 0.  0.
        2    1    3    3  502    0 -0.74551355411E+03  0.95370927123E+03  0.13484376375E+04  0.18120805434E+04  0.25500000920E-02 0. -1.
       -2    1    3    3    0  502  0.74551355411E+03 -0.95370927123E+03 -0.17155356373E+03  0.12226129635E+04  0.25500000920E-02 0.  1.
</event>
<event>
 5   0  0.2697964E-05  0.2733210E+04  0.7818609E-02  0.8324309E-01
        2   -1    0    0  501    0  0.00000000000E+00  0.00000000000E+00  0.15989670703E+04  0.15989670703E+04  0.25500000920E-02 0.  1.
       -2   -1    0    0    0  501  0.00000000000E+00  0.00000000000E+00 -0.11680099938E+04  0.11680099938E+04  0.25500000920E-02 0. -1.
    10030    2    1    2    0    0  0.00000000000E+00  0.00000000000E+00  0.43095707649E+03  0.27669770641E+04  0.27332102136E+04 0.  0.
        1    1    3    3  502    0 -0.24724397493E+03  0.32524646041E+03  0.15356966918E+04  0.15891126998E+04  0.50400001928E-02 0.  1.
       -1    1    3    3    0  502  0.24724397493E+03 -0.32524646041E+03 -0.11047396154E+04  0.11778643644E+04  0.50400001928E-02 0. -1.
</event>
<event>
 5   0  0.1017456E-05  0.1545730E+04  0.7818609E-02  0.8854600E-01
        1   -1    0    0  501    0  0.00000000000E+00  0.00000000000E+00  0.70555010130E+03  0.70555010132E+03  0.50400001928E-02 0. -1.
       -1   -1    0    0    0  501  0.00000000000E+00  0.00000000000E+00 -0.84660265488E+03  0.84660265490E+03  0.50400001928E-02 0.  1.
    10030    2    1    2    0    0  0.00000000000E+00  0.00000000000E+00 -0.14105255358E+03  0.15521527562E+04  0.15457303632E+04 0.  0.
        5    1    3    3  502    0 -0.47561399562E+03  0.31104396018E+03  0.45542614816E+03  0.72828022383E+03  0.46999998093E+01 0. -1.
       -5    1    3    3    0  502  0.47561399562E+03 -0.31104396018E+03 -0.59647870174E+03  0.82387253239E+03  0.46999998093E+01 0.  1.
</event>
<event>
 5   0  0.2518686E-05  0.2838359E+04  0.7818609E-02  0.8291457E-01
        2   -1    0    0  501    0  0.00000000000E+00  0.00000000000E+00  0.14540647908E+04  0.14540647908E+04  0.25500000920E-02 0.  1.
       -2   -1    0    0    0  501  0.00000000000E+00  0.00000000000E+00 -0.13851309822E+04  0.13851309822E+04  0.25500000920E-02 0. -1.
    10030    2    1    2    0    0  0.00000000000E+00  0.00000000000E+00  0.68933808606E+02  0.28391957730E+04  0.28383588158E+04 0.  0.
        5    1    3    3  502    0  0.98363749956E+03 -0.28882406846E+03  0.10161257503E+04  0.14434319185E+04  0.46999998093E+01 0.  1.
       -5    1    3    3    0  502 -0.98363749956E+03  0.28882406846E+03 -0.94719194165E+03  0.13957638545E+04  0.46999998093E+01 0. -1.
</event>
<event>
 5   0  0.1105862E-05  0.2429320E+04  0.7818609E-02  0.8428608E-01
        1   -1    0    0  501    0  0.00000000000E+00  0.00000000000E+00  0.16696417431E+04  0.16696417431E+04  0.50400001928E-02 0. -1.
       -1   -1    0    0    0  501  0.00000000000E+00  0.00000000000E+00 -0.88366176103E+03  0.88366176104E+03  0.50400001928E-02 0.  1.
    10030    2    1    2    0    0  0.00000000000E+00  0.00000000000E+00  0.78597998203E+03  0.25533035041E+04  0.24293197097E+04 0.  0.
        3    1    3    3  502    0 -0.53273817652E+03 -0.10040909929E+04  0.84308628201E+03  0.14152042877E+04  0.10100000352E+00 0. -1.
       -3    1    3    3    0  502  0.53273817652E+03  0.10040909929E+04 -0.57106299976E+02  0.11380992164E+04  0.10100000352E+00 0.  1.
</event>
<event>
 5   0  0.2588048E-05  0.1453068E+04  0.7818609E-02  0.8916276E-01
       -2   -1    0    0    0  501  0.00000000000E+00  0.00000000000E+00  0.38196821202E+03  0.38196821203E+03  0.25500000920E-02 0. -1.
        2   -1    0    0  501    0  0.00000000000E+00  0.00000000000E+00 -0.13819253305E+04  0.13819253305E+04  0.25500000920E-02 0.  1.
    10030    2    1    2    0    0  0.00000000000E+00  0.00000000000E+00 -0.99995711844E+03  0.17638935425E+04  0.14530678548E+04 0.  0.
        2    1    3    3  502    0 -0.61831347794E+03  0.24196668671E+03 -0.85801432740E+03  0.10849184396E+04  0.25500000920E-02 0.  1.
       -2    1    3    3    0  502  0.61831347794E+03 -0.24196668671E+03 -0.14194279105E+03  0.67897510294E+03  0.25500000920E-02 0. -1.
</event>
<event>
 5   0  0.1067434E-05  0.1698022E+04  0.7818609E-02  0.8762493E-01
        1   -1    0    0  501    0  0.00000000000E+00  0.00000000000E+00  0.70214718109E+03  0.70214718111E+03  0.50400001928E-02 0. -1.
       -1   -1    0    0    0  501  0.00000000000E+00  0.00000000000E+00 -0.10265931033E+04  0.10265931033E+04  0.50400001928E-02 0.  1.
    10030    2    1    2    0    0  0.00000000000E+00  0.00000000000E+00 -0.32444592219E+03  0.17287402844E+04  0.16980217356E+04 0.  0.
        4    1    3    3  502    0  0.68806939634E+02 -0.26148762852E+03  0.65713942988E+03  0.71059413030E+03  0.12699999809E+01 0. -1.
       -4    1    3    3    0  502 -0.68806939634E+02  0.26148762852E+03 -0.98158535208E+03  0.10181461541E+04  0.12699999809E+01 0.  1.
</event>
<event>
 5   0  0.1017456E-05  0.2807257E+04  0.7818609E-02  0.8301019E-01
        1   -1    0    0  501    0  0.00000000000E+00  0.00000000000E+00  0.30946039590E+04  0.30946039590E+04  0.50400001928E-02 0. -1.
       -1   -1    0    0    0  501  0.00000000000E+00  0.00000000000E+00 -0.63664773417E+03  0.63664773419E+03  0.50400001928E-02 0.  1.
    10030    2    1    2    0    0  0.00000000000E+00  0.00000000000E+00  0.24579562248E+04  0.37312516932E+04  0.28072567383E+04 0.  0.
        5    1    3    3  502    0 -0.19508916263E+03 -0.57715535542E+03  0.29096938144E+04  0.29727946901E+04  0.46999998093E+01 0. -1.
       -5    1    3    3    0  502  0.19508916263E+03  0.57715535542E+03 -0.45173758962E+03  0.75845700309E+03  0.46999998093E+01 0.  1.
</event>
<event>
 5   0  0.1078103E-05  0.2829020E+04  0.7818609E-02  0.8294315E-01
        1   -1    0    0  501    0  0.00000000000E+00  0.00000000000E+00  0.61611539582E+03  0.61611539584E+03  0.50400001928E-02 0.  1.
       -1   -1    0    0    0  501  0.00000000000E+00  0.00000000000E+00 -0.32475071382E+04  0.32475071382E+04  0.50400001928E-02 0. -1.
    10030    2    1    2    0    0  0.00000000000E+00  0.00000000000E+00 -0.26313917424E+04  0.38636225341E+04  0.28290204283E+04 0.  0.
        1    1    3    3  502    0 -0.81230735624E+03 -0.30973976780E+03  0.20819285323E+03  0.89393860467E+03  0.50400001928E-02 0.  1.
       -1    1    3    3    0  502  0.81230735624E+03  0.30973976780E+03 -0.28395845957E+04  0.29696839294E+04  0.50400001928E-02 0. -1.
</event>
<event>
 5   0  0.1075146E-05  0.2713058E+04  0.7818609E-02  0.8330781E-01
       -1   -1    0    0    0  501  0.00000000000E+00  0.00000000000E+00  0.14479485975E+04  0.14479485975E+04  0.50400001928E-02 0. -1.
        1   -1    0    0  501    0  0.00000000000E+00  0.00000000000E+00 -0.12708813990E+04  0.12708813990E+04  0.50400001928E-02 0.  1.
    10030    2    1    2    0    0  0.00000000000E+00  0.00000000000E+00  0.17706719849E+03  0.27188299965E+04  0.27130580085E+04 0.  0.
        2    1    3    3  502    0 -0.79565671558E+03 -0.70603794889E+03  0.93211529233E+03  0.14143543094E+04  0.25500000920E-02 0. -1.
       -2    1    3    3    0  502  0.79565671558E+03  0.70603794889E+03 -0.75504809384E+03  0.13044756871E+04  0.25500000920E-02 0.  1.
</event>
<event>
 5   0  0.2651061E-05  0.2206367E+04  0.7818609E-02  0.8515783E-01
        2   -1    0    0  501    0  0.00000000000E+00  0.00000000000E+00  0.73144035640E+03  0.73144035641E+03  0.25500000920E-02 0.  1.
       -2   -1    0    0    0  501  0.00000000000E+00  0.00000000000E+00 -0.16638593743E+04  0.16638593743E+04  0.25500000920E-02 0. -1.
    10030    2    1    2    0    0  0.00000000000E+00  0.00000000000E+00 -0.93241901789E+03  0.23952997307E+04  0.22063670535E+04 0.  0.
        3    1    3    3  502    0  0.31889936088E+03  0.80518489535E+03  0.27567776627E+03  0.90885519148E+03  0.10100000352E+00 0.  1.
       -3    1    3    3    0  502 -0.31889936088E+03 -0.80518489535E+03 -0.12080967842E+04  0.14864445392E+04  0.10100000352E+00 0. -1.
</event>
<event>
 5   0  0.2697964E-05  0.1544409E+04  0.7818609E-02  0.8855447E-01
       -2   -1    0    0    0  501  0.00000000000E+00  0.00000000000E+00  0.77305643095E+03  0.77305643095E+03  0.25500000920E-02 0.  1.
        2   -1    0    0  501    0  0.00000000000E+00  0.00000000000E+00 -0.77135337562E+03  0.77135337562E+03  0.25500000920E-02 0. -1.
    10030    2    1    2    0    0  0.00000000000E+00  0.00000000000E+00  0.17030553323E+01  0.15444098066E+04  0.15444088676E+04 0.  0.
        1    1    3    3  502    0 -0.19785726540E+03  0.38277382971E+03 -0.63995802648E+03  0.77149826822E+03  0.50400001928E-02 0. -1.
       -1    1    3    3    0  502  0.19785726540E+03 -0.38277382971E+03  0.64166108181E+03  0.77291153835E+03  0.50400001928E-02 0.  1.
</event>
<event>
 5   0  0.1075146E-05  0.2794080E+04  0.7818609E-02  0.8305109E-01
        1   -1    0    0  501    0  0.00000000000E+00  0.00000000000E+00  0.30589936751E+04  0.30589936751E+04  0.50400001928E-02 0.  1.
       -1   -1    0    0    0  501  0.00000000000E+00  0.00000000000E+00 -0.63802693446E+03  0.63802693448E+03  0.50400001928E-02 0. -1.
    10030    2    1    2    0    0  0.00000000000E+00  0.00000000000E+00  0.24209667406E+04  0.36970206096E+04  0.27940797105E+04 0.  0.
        2    1    3    3  502    0  0.52585975164E+03  0.91695266165E+03  0.18417486704E+01  0.10570402330E+04  0.25500000920E-02 0. -1.
       -2    1    3    3    0  502 -0.52585975164E+03 -0.91695266165E+03  0.24191249920E+04  0.26399803766E+04  0.25500000920E-02 0.  1.
</event>
<event>
 5   0  0.1067434E-05  0.2809795E+04  0.7818609E-02  0.8300234E-01
        1   -1    0    0  501    0  0.00000000000E+00  0.00000000000E+00  0.15686290341E+04  0.15686290342E+04  0.50400001928E-02 0.  1.
       -1   -1    0    0    0  501  0.00000000000E+00  0.00000000000E+00 -0.12582560905E+04  0.12582560905E+04  0.50400001928E-02 0. -1.
    10030    2    1    2    0    0  0.00000000000E+00  0.00000000000E+00  0.31037294366E+03  0.28268851246E+04  0.28097950359E+04 0.  0.
        4    1    3    3  502    0 -0.68471850433E+03  0.12149551181E+04 -0.15492225989E+02  0.13947031911E+04  0.12699999809E+01 0.  1.
       -4    1    3    3    0  502  0.68471850433E+03 -0.12149551181E+04  0.32586516965E+03  0.14321819336E+04  0.12699999809E+01 0. -1.
</event>
<event>
 5   0  0.1105862E-05  0.2820014E+04  0.7818609E-02  0.8297082E-01
        1   -1    0    0  501    0  0.00000000000E+00  0.00000000000E+00  0.17937187499E+04  0.17937187499E+04  0.50400001928E-02 0. -1.
       -1   -1    0    0    0  501  0.00000000000E+00  0.00000000000E+00 -0.11083789666E+04  0.11083789666E+04  0.50400001928E-02 0.  1.
    10030    2    1    2    0    0  0.00000000000E+00  0.00000000000E+00  0.68533978329E+03  0.29020977166E+04  0.28200142798E+04 0.  0.
        3    1    3    3  502    0  0.13480247016E+04  0.39853459721E+03  0.22937594356E+03  0.14242941252E+04  0.10100000352E+00 0. -1.
       -3    1    3    3    0  502 -0.13480247016E+04 -0.39853459721E+03  0.45596383974E+03  0.14778035914E+04  0.10100000352E+00 0.  1.
</event>
<event>
 5   0  0.1067434E-05  0.2753982E+04  0.7818609E-02  0.8317699E-01
       -1   -1    0    0    0  501  0.00000000000E+00  0.00000000000E+00  0.89015948410E+03  0.89015948412E+03  0.50400001928E-02 0.  1.
        1   -1    0    0  501    0  0.00000000000E+00  0.00000000000E+00 -0.21300728662E+04  0.21300728662E+04  0.50400001928E-02 0. -1.
    10030    2    1    2    0    0  0.00000000000E+00  0.00000000000E+00 -0.12399133821E+04  0.30202323503E+04  0.27539822539E+04 0.  0.
        4    1    3    3  502    0 -0.86845159058E+03 -0.71895208030E+03 -0.14869588153E+04  0.18660515508E+04  0.12699999809E+01 0. -1.
       -4    1    3    3    0  502  0.86845159058E+03  0.71895208030E+03  0.24704543323E+03  0.11541807995E+04  0.12699999809E+01 0.  1.
</event>
<event>
 5   0  0.2588048E-05  0.2805704E+04  0.7818609E-02  0.8301500E-01
        2   -1    0    0  501    0  0.00000000000E+00  0.00000000000E+00  0.14695742605E+04  0.14695742605E+04  0.25500000920E-02 0.  1.
       -2   -1    0    0    0  501  0.00000000000E+00  0.00000000000E+00 -0.13391589137E+04  0.13391589137E+04  0.25500000920E-02 0. -1.
    10030    2    1    2    0    0  0.00000000000E+00  0.00000000000E+00  0.13041534673E+03  0.28087331742E+04  0.28057038121E+04 0.  0.
        2    1    3    3  502    0 -0.57261996954E+03  0.11479689909E+04 -0.50309095049E+03  0.13779792952E+04  0.25500000920E-02 0. -1.
       -2    1    3    3    0  502  0.57261996954E+03 -0.11479689909E+04  0.63350629722E+03  0.14307538790E+04  0.25500000920E-02 0.  1.
</event>
<event>
 5   0  0.2697964E-05  0.2810736E+04  0.7818609E-02  0.8299943E-01
       -2   -1    0    0    0  501  0.00000000000E+00  0.00000000000E+00  0.19293059922E+04  0.19293059922E+04  0.25500000920E-02 0.  1.
        2   -1    0    0  501    0  0.00000000000E+00  0.00000000000E+00 -0.10237151027E+04  0.10237151027E+04  0.25500000920E-02 0. -1.
    10030    2    1    2    0    0  0.00000000000E+00  0.00000000000E+00  0.90559088947E+03  0.29530210948E+04  0.28107363319E+04 0.  0.
        1    1    3    3  502    0 -0.11560487717E+04 -0.79895250663E+03  0.47055721328E+03  0.14819574763E+04  0.50400001928E-02 0.  1.
       -1    1    3    3    0  502  0.11560487717E+04  0.79895250663E+03  0.43503367619E+03  0.14710636186E+04  0.50400001928E-02 0. -1.
</event>
<event>
 5   0  0.1078103E-05  0.2498999E+04  0.7818609E-02  0.8403342E-01
       -1   -1    0    0    0  501  0.00000000000E+00  0.00000000000E+00  0.14548397449E+04  0.14548397449E+04  0.50400001928E-02 0.  1.
        1   -1    0    0  501    0  0.00000000000E+00  0.00000000000E+00 -0.10731412152E+04  0.10731412152E+04  0.50400001928E-02 0. -1.
    10030    2    1    2    0    0  0.00000000000E+00  0.00000000000E+00  0.38169852969E+03  0.25279809601E+04  0.24989985928E+04 0.  0.
        1    1    3    3  502    0  0.11417623533E+04 -0.56429354179E+02 -0.31942421391E+03  0.11869445530E+04  0.50400001928E-02 0. -1.
       -1    1    3    3    0  502 -0.11417623533E+04  0.56429354179E+02  0.70112274360E+03  0.13410364071E+04  0.50400001928E-02 0.  1.
</event>
<event>
 5   0  0.2588048E-05  0.2810742E+04  0.7818609E-02  0.8299941E-01
       -2   -1    0    0    0  501  0.00000000000E+00  0.00000000000E+00  0.13595939035E+04  0.13595939035E+04  0.25500000920E-02 0. -1.
        2   -1    0    0  501    0  0.00000000000E+00  0.00000000000E+00 -0.14526891445E+04  0.14526891445E+04  0.25500000920E-02 0.  1.
    10030    2    1    2    0    0  0.00000000000E+00  0.00000000000E+00 -0.93095240973E+02  0.28122830480E+04  0.28107417558E+04 0.  0.
        2    1    3    3  502    0 -0.67215724878E+03 -0.68934356779E+03 -0.10708655110E+04  0.14400496048E+04  0.25500000920E-02 0.  1.
       -2    1    3    3    0  502  0.67215724878E+03  0.68934356779E+03  0.97777027007E+03  0.13722334432E+04  0.25500000920E-02 0. -1.
</event>
<event>
 5   0  0.1105862E-05  0.1538417E+04  0.7818609E-02  0.8859300E-01
        1   -1    0    0  501    0  0.00000000000E+00  0.00000000000E+00  0.17347118887E+04  0.17347118887E+04  0.50400001928E-02 0.  1.
       -1   -1    0    0    0  501  0.00000000000E+00  0.00000000000E+00 -0.34108371365E+03  0.34108371369E+03  0.50400001928E-02 0. -1.
    10030    2    1    2    0    0  0.00000000000E+00  0.00000000000E+00  0.13936281750E+04  0.20757956023E+04  0.15384173337E+04 0.  0.
        3    1    3    3  502    0  0.52938991120E+03  0.22143353419E+03  0.13879899983E+04  0.15019329991E+04  0.10100000352E+00 0.  1.
       -3    1    3    3    0  502 -0.52938991120E+03 -0.22143353419E+03  0.56381766626E+01  0.57386260323E+03  0.10100000352E+00 0. -1.
</event>
<event>
 5   0  0.2697964E-05  0.2579403E+04  0.7818609E-02  0.8375231E-01
       -2   -1    0    0    0  501  0.00000000000E+00  0.00000000000E+00  0.72809665821E+03  0.72809665822E+03  0.25500000920E-02 0. -1.
        2   -1    0    0  501    0  0.00000000000E+00  0.00000000000E+00 -0.22844905837E+04  0.22844905837E+04  0.25500000920E-02 0.  1.
    10030    2    1    2    0    0  0.00000000000E+00  0.00000000000E+00 -0.15563939255E+04  0.30125872419E+04  0.25794030005E+04 0.  0.
        1    1    3    3  502    0  0.12361251354E+03  0.22513915315E+03 -0.22543185877E+04  0.22689028156E+04  0.50400001928E-02 0.  1.
       -1    1    3    3    0  502 -0.12361251354E+03 -0.22513915315E+03  0.69792466221E+03  0.74368442631E+03  0.50400001928E-02 0. -1.
</event>
<event>
 5   0  0.1105862E-05  0.2710627E+04  0.7818609E-02  0.8331565E-01
       -1   -1    0    0    0  501  0.00000000000E+00  0.00000000000E+00  0.85950962614E+03  0.85950962615E+03  0.50400001928E-02 0. -1.
        1   -1    0    0  501    0  0.00000000000E+00  0.00000000000E+00 -0.21371186611E+04  0.21371186611E+04  0.50400001928E-02 0.  1.
    10030    2    1    2    0    0  0.00000000000E+00  0.00000000000E+00 -0.12776090350E+04  0.29966282873E+04  0.27106265412E+04 0.  0.
        3    1    3    3  502    0  0.84110930034E+03  0.95640462440E+03 -0.11510505393E+04  0.17167096478E+04  0.10100000352E+00 0.  1.
       -3    1    3    3    0  502 -0.84110930034E+03 -0.95640462440E+03 -0.12655849572E+03  0.12799186395E+04  0.10100000352E+00 0. -1.
</event>
<event>
 5   0  0.2518686E-05  0.2743770E+04  0.7818609E-02  0.8320941E-01
        2   -1    0    0  501    0  0.00000000000E+00  0.00000000000E+00  0.28873680214E+04  0.28873680214E+04  0.25500000920E-02 0.  1.
       -2   -1    0    0    0  501  0.00000000000E+00  0.00000000000E+00 -0.65182823150E+03  0.65182823151E+03  0.25500000920E-02 0. -1.
    10030    2    1    2    0    0  0.00000000000E+00  0.00000000000E+00  0.22355397899E+04  0.35391962529E+04  0.27437696631E+04 0.  0.
        5    1    3    3  502    0  0.18569313337E+02  0.64612131951E+02 -0.64969182446E+03  0.65317769693E+03  0.46999998093E+01 0. -1.
       -5    1    3    3    0  502 -0.18569313337E+02 -0.64612131951E+02  0.28852316143E+04  0.28860185560E+04  0.46999998093E+01 0.  1.
</event>
<event>
 5   0  0.2697964E-05  0.1618011E+04  0.7818609E-02  0.8809559E-01
       -2   -1    0    0    0  501  0.00000000000E+00  0.00000000000E+00  0.46601543070E+03  0.46601543070E+03  0.25500000920E-02 0. -1.
        2   -1    0    0  501    0  0.00000000000E+00  0.00000000000E+00 -0.14044379396E+04  0.14044379396E+04  0.25500000920E-02 0.  1.
    10030    2    1    2    0    0  0.00000000000E+00  0.00000000000E+00 -0.93842250886E+03  0.18704533703E+04  0.16180108174E+04 0.  0.
        1    1    3    3  502    0  0.45494821605E+03 -0.58096304727E+03 -0.85260902857E+03  0.11275806389E+04  0.50400001928E-02 0.  1.
       -1    1    3    3    0  502 -0.45494821605E+03  0.58096304727E+03 -0.85813480281E+02  0.74287273136E+03  0.50400001928E-02 0. -1.
</event>
<event>
 5   0  0.1075146E-05  0.2742279E+04  0.7818609E-02  0.8321416E-01
        1   -1    0    0  501    0  0.00000000000E+00  0.00000000000E+00  0.16508707118E+04  0.16508707119E+04  0.50400001928E-02 0. -1.
       -1   -1    0    0    0  501  0.00000000000E+00  0.00000000000E+00 -0.11388074286E+04  0.11388074286E+04  0.50400001928E-02 0.  1.
    10030    2    1    2    0    0  0.00000000000E+00  0.00000000000E+00  0.51206328322E+03  0.27896781405E+04  0.27422792202E+04 0.  0.
        2    1    3    3  502    0 -0.35627669752E+03  0.10140271927E+04 -0.61005907171E+03  0.12358625748E+04  0.25500000920E-02 0.  1.
       -2    1    3    3    0  502  0.35627669752E+03 -0.10140271927E+04  0.11221223549E+04  0.15538155657E+04  0.25500000920E-02 0. -1.
</event>
<event>
 5   0  0.2588048E-05  0.2770304E+04  0.7818609E-02  0.8312548E-01
       -2   -1    0    0    0  501  0.00000000000E+00  0.00000000000E+00  0.97200924362E+03  0.97200924363E+03  0.25500000920E-02 0. -1.
        2   -1    0    0  501    0  0.00000000000E+00  0.00000000000E+00 -0.19738966332E+04  0.19738966332E+04  0.25500000920E-02 0.  1.
    10030    2    1    2    0    0  0.00000000000E+00  0.00000000000E+00 -0.10018873896E+04  0.29459058769E+04  0.27703037909E+04 0.  0.
        2    1    3    3  502    0 -0.35754699388E+03 -0.10753303546E+04  0.34608320807E+03  0.11848834589E+04  0.25500000920E-02 0. -1.
       -2    1    3    3    0  502  0.35754699388E+03  0.10753303546E+04 -0.13479705977E+04  0.17610224180E+04  0.25500000920E-02 0.  1.
</event>
<event>
 5   0  0.2697964E-05  0.2772473E+04  0.7818609E-02  0.8311866E-01
       -2   -1    0    0    0  501  0.00000000000E+00  0.00000000000E+00  0.26848095335E+04  0.26848095335E+04  0.25500000920E-02 0. -1.
        2   -1    0    0  501    0  0.00000000000E+00  0.00000000000E+00 -0.71574987188E+03  0.71574987189E+03  0.25500000920E-02 0.  1.
    10030    2    1    2    0    0  0.00000000000E+00  0.00000000000E+00  0.19690596616E+04  0.34005594053E+04  0.27724733215E+04 0.  0.
        1    1    3    3  502    0 -0.17580253618E+03 -0.13663783989E+04  0.11735752525E+04  0.18097445494E+04  0.50400001928E-02 0. -1.
       -1    1    3    3    0  502  0.17580253618E+03  0.13663783989E+04  0.79548440906E+03  0.15908148559E+04  0.50400001928E-02 0.  1.
</event>
<event>
 5   0  0.1075146E-05  0.3173336E+04  0.7818609E-02  0.8195895E-01
        1   -1    0    0  501    0  0.00000000000E+00  0.00000000000E+00  0.24000797381E+04  0.24000797381E+04  0.50400001928E-02 0.  1.
       -1   -1    0    0    0  501  0.00000000000E+00  0.00000000000E+00 -0.10489295963E+04  0.10489295963E+04  0.50400001928E-02 0. -1.
    10030    2    1    2    0    0  0.00000000000E+00  0.00000000000E+00  0.13511501418E+04  0.34490093343E+04  0.31733355768E+04 0.  0.
        2    1    3    3  502    0 -0.13095286685E+04  0.87128891812E+03  0.90227310165E+03  0.18133136690E+04  0.25500000920E-02 0.  1.
       -2    1    3    3    0  502  0.13095286685E+04 -0.87128891812E+03  0.44887704016E+03  0.16356956653E+04  0.25500000920E-02 0. -1.
</event>
<event>
 5   0  0.1067434E-05  0.2802890E+04  0.7818609E-02  0.8302372E-01
        1   -1    0    0  501    0  0.00000000000E+00  0.00000000000E+00  0.19863754003E+04  0.19863754003E+04  0.50400001928E-02 0.  1.
       -1   -1    0    0    0  501  0.00000000000E+00  0.00000000000E+00 -0.98876003440E+03  0.98876003441E+03  0.50400001928E-02 0. -1.
    10030    2    1    2    0    0  0.00000000000E+00  0.00000000000E+00  0.99761536593E+03  0.29751354347E+04  0.28028903719E+04 0.  0.
        4    1    3    3  502    0  0.48986690620E+03 -0.62478799357E+03 -0.72702877328E+03  0.10765231409E+04  0.12699999809E+01 0. -1.
       -4    1    3    3    0  502 -0.48986690620E+03  0.62478799357E+03  0.17246441392E+04  0.18986122939E+04  0.12699999809E+01 0.  1.
</event>
<event>
 5   0  0.2518686E-05  0.2834042E+04  0.7818609E-02  0.8292777E-01
       -2   -1    0    0    0  501  0.00000000000E+00  0.00000000000E+00  0.20516208833E+04  0.20516208833E+04  0.25500000920E-02 0.  1.
        2   -1    0    0  501    0  0.00000000000E+00  0.00000000000E+00 -0.97871326732E+03  0.97871326732E+03  0.25500000920E-02 0. -1.
    10030    2    1    2    0    0  0.00000000000E+00  0.00000000000E+00  0.10729076160E+04  0.30303341506E+04  0.28340420448E+04 0.  0.
        5    1    3    3  502    0  0.10987269780E+04 -0.10293025546E+03  0.14869135979E+04  0.18516829500E+04  0.46999998093E+01 0.  1.
       -5    1    3    3    0  502 -0.10987269780E+04  0.10293025546E+03 -0.41400598189E+03  0.11786512006E+04  0.46999998093E+01 0. -1.
</event>
<event>
 5   0  0.1105862E-05  0.2592993E+04  0.7818609E-02  0.8370585E-01
        1   -1    0    0  501    0  0.00000000000E+00  0.00000000000E+00  0.18996118914E+04  0.18996118914E+04  0.50400001928E-02 0. -1.
       -1   -1    0    0    0  501  0.00000000000E+00  0.00000000000E+00 -0.88486682713E+03  0.88486682714E+03  0.50400001928E-02 0.  1.
    10030    2    1    2    0    0  0.00000000000E+00  0.00000000000E+00  0.10147450643E+04  0.27844787186E+04  0.25929932874E+04 0.  0.
        3    1    3    3  502    0 -0.24885827639E+03 -0.65996866506E+03  0.16755557035E+04  0.18179592973E+04  0.10100000352E+00 0. -1.
       -3    1    3    3    0  502  0.24885827639E+03  0.65996866506E+03 -0.66081063926E+03  0.96651942130E+03  0.10100000352E+00 0.  1.
</event>
<event>
 5   0  0.1105862E-05  0.2790187E+04  0.7818609E-02  0.8306322E-01
       -1   -1    0    0    0  501  0.00000000000E+00  0.00000000000E+00  0.95088476925E+03  0.95088476927E+03  0.50400001928E-02 0. -1.
        1   -1    0    0  501    0  0.00000000000E+00  0.00000000000E+00 -0.20468151312E+04  0.20468151312E+04  0.50400001928E-02 0.  1.
    10030    2    1    2    0    0  0.00000000000E+00  0.00000000000E+00 -0.10959303619E+04  0.29976999004E+04  0.27901866129E+04 0.  0.
        3    1    3    3  502    0 -0.12415676775E+04  0.12832460936E+03 -0.12174706905E+04  0.17436147498E+04  0.10100000352E+00 0.  1.
       -3    1    3    3    0  502  0.12415676775E+04 -0.12832460936E+03  0.12154032865E+03  0.12540851506E+04  0.10100000352E+00 0. -1.
</event>
<event>
 5   0  0.2651061E-05  0.2426592E+04  0.7818609E-02  0.8429615E-01
       -2   -1    0    0    0  501  0.00000000000E+00  0.00000000000E+00  0.22267251553E+04  0.22267251553E+04  0.25500000920E-02 0. -1.
        2   -1    0    0  501    0  0.00000000000E+00  0.00000000000E+00 -0.66109953026E+03  0.66109953026E+03  0.25500000920E-02 0.  1.
    10030    2    1    2    0    0  0.00000000000E+00  0.00000000000E+00  0.15656256250E+04  0.28878246855E+04  0.24265918109E+04 0.  0.
        3    1    3    3  502    0  0.86467575473E+02 -0.10059864420E+04  0.15834433118E+04  0.18779718036E+04  0.10100000352E+00 0. -1.
       -3    1    3    3    0  502 -0.86467575473E+02  0.10059864420E+04 -0.17817686823E+02  0.10098528820E+04  0.10100000352E+00 0.  1.
</event>
<event>
 5   0  0.2518686E-05  0.2749176E+04  0.7818609E-02  0.8319223E-01
       -2   -1    0    0    0  501  0.00000000000E+00  0.00000000000E+00  0.99505146158E+03  0.99505146159E+03  0.25500000920E-02 0. -1.
        2   -1    0    0  501    0  0.00000000000E+00  0.00000000000E+00 -0.18988885669E+04  0.18988885669E+04  0.25500000920E-02 0.  1.
    10030    2    1    2    0    0  0.00000000000E+00  0.00000000000E+00 -0.90383710533E+03  0.28939400285E+04  0.27491757629E+04 0.  0.
        5    1    3    3  502    0  0.23381927822E+03 -0.13502950654E+04 -0.33902609371E+03  0.14117113730E+04  0.46999998093E+01 0. -1.
       -5    1    3    3    0  502 -0.23381927822E+03  0.13502950654E+04 -0.56481101161E+03  0.14822286555E+04  0.46999998093E+01 0.  1.
</event>
<event>
 5   0  0.1017456E-05  0.2748089E+04  0.7818609E-02  0.8319568E-01
        1   -1    0    0  501    0  0.00000000000E+00  0.00000000000E+00  0.12581922382E+04  0.12581922382E+04  0.50400001928E-02 0.  1.
       -1   -1    0    0    0  501  0.00000000000E+00  0.00000000000E+00 -0.15005638521E+04  0.15005638521E+04  0.50400001928E-02 0. -1.
    10030    2    1    2    0    0  0.00000000000E+00  0.00000000000E+00 -0.24237161393E+03  0.27587560904E+04  0.27480886388E+04 0.  0.
        5    1    3    3  502    0  0.94634930629E+03  0.42226638714E+03  0.78458584088E+03  0.12998011167E+04  0.46999998093E+01 0.  1.
       -5    1    3    3    0  502 -0.94634930629E+03 -0.42226638714E+03 -0.10269574548E+04  0.14589549737E+04  0.46999998093E+01 0. -1.
</event>
<event>
 5   0  0.1075146E-05  0.2798923E+04  0.7818609E-02  0.8303603E-01
        1   -1    0    0  501    0  0.00000000000E+00  0.00000000000E+00  0.86867115431E+03  0.86867115432E+03  0.50400001928E-02 0. -1.
       -1   -1    0    0    0  501  0.00000000000E+00  0.00000000000E+00 -0.22545850331E+04  0.22545850331E+04  0.50400001928E-02 0.  1.
    10030    2    1    2    0    0  0.00000000000E+00  0.00000000000E+00 -0.13859138788E+04  0.31232561874E+04  0.27989233524E+04 0.  0.
        2    1    3    3  502    0 -0.77332385921E+03  0.11662786229E+04 -0.71085854723E+03  0.15695717542E+04  0.25500000920E-02 0. -1.
       -2    1    3    3    0  502  0.77332385921E+03 -0.11662786229E+04 -0.67505533156E+03  0.15536844332E+04  0.25500000920E-02 0.  1.
</event>
<event>
 5   0  0.2624815E-05  0.2806906E+04  0.7818609E-02  0.8301128E-01
        2   -1    0    0  501    0  0.00000000000E+00  0.00000000000E+00  0.20826793421E+04  0.20826793421E+04  0.25500000920E-02 0.  1.
       -2   -1    0    0    0  501  0.00000000000E+00  0.00000000000E+00 -0.94574350831E+03  0.94574350832E+03  0.25500000920E-02 0. -1.
    10030    2    1    2    0    0  0.00000000000E+00  0.00000000000E+00  0.11369358338E+04  0.30284228505E+04  0.28069061030E+04 0.  0.
        4    1    3    3  502    0  0.13909804085E+04  0.18635249929E+03  0.55640022892E+03  0.15096809526E+04  0.12699999809E+01 0.  1.
       -4    1    3    3    0  502 -0.13909804085E+04 -0.18635249929E+03  0.58053560491E+03  0.15187418979E+04  0.12699999809E+01 0. -1.
</event>
<event>
 5   0  0.2518686E-05  0.2216554E+04  0.7818609E-02  0.8511570E-01
       -2   -1    0    0    0  501  0.00000000000E+00  0.00000000000E+00  0.11012837943E+04  0.11012837943E+04  0.25500000920E-02 0. -1.
        2   -1    0    0  501    0  0.00000000000E+00  0.00000000000E+00 -0.11153141266E+04  0.11153141266E+04  0.25500000920E-02 0.  1.
    10030    2    1    2    0    0  0.00000000000E+00  0.00000000000E+00 -0.14030332277E+02  0.22165979209E+04  0.22165535168E+04 0.  0.
        5    1    3    3  502    0  0.69758307705E+03 -0.77777202593E+03 -0.37675735570E+03  0.11106393063E+04  0.46999998093E+01 0.  1.
       -5    1    3    3    0  502 -0.69758307705E+03  0.77777202593E+03  0.36272702343E+03  0.11059586146E+04  0.46999998093E+01 0. -1.
</event>
<event>
 5   0  0.1078103E-05  0.2900388E+04  0.7818609E-02  0.8272762E-01
       -1   -1    0    0    0  501  0.00000000000E+00  0.00000000000E+00  0.22665636509E+04  0.22665636509E+04  0.50400001928E-02 0. -1.
        1   -1    0    0  501    0  0.00000000000E+00  0.00000000000E+00 -0.92786392438E+03  0.92786392440E+03  0.50400001928E-02 0.  1.
    10030    2    1    2    0    0  0.00000000000E+00  0.00000000000E+00  0.13386997265E+04  0.31944275753E+04  0.29003880044E+04 0.  0.
        1    1    3    3  502    0  0.10749837261E+03 -0.98460846058E+03 -0.49730827972E+03  0.11082983560E+04  0.50400001928E-02 0.  1.
       -1    1    3    3    0  502 -0.10749837261E+03  0.98460846058E+03  0.18360080063E+04  0.20861292194E+04  0.50400001928E-02 0. -1.
</event>
<event>
 5   0  0.2588048E-05  0.2810454E+04  0.7818609E-02  0.8300030E-01
       -2   -1    0    0    0  501  0.00000000000E+00  0.00000000000E+00  0.10352767320E+04  0.10352767320E+04  0.25500000920E-02 0. -1.
        2   -1    0    0  501    0  0.00000000000E+00  0.00000000000E+00 -0.19073763191E+04  0.19073763191E+04  0.25500000920E-02 0.  1.
    10030    2    1    2    0    0  0.00000000000E+00  0.00000000000E+00 -0.87209958715E+03  0.29426530511E+04  0.28104535736E+04 0.  0.
        2    1    3    3  502    0  0.43479841697E+03  0.12949018115E+04 -0.78148040146E+03  0.15737000930E+04  0.25500000920E-02 0.  1.
       -2    1    3    3    0  502 -0.43479841697E+03 -0.12949018115E+04 -0.90619185689E+02  0.13689529581E+04  0.25500000920E-02 0. -1.
</event>
<event>
 5   0  0.1075146E-05  0.2780448E+04  0.7818609E-02  0.8309364E-01
        1   -1    0    0  501    0  0.00000000000E+00  0.00000000000E+00  0.12808176348E+04  0.12808176348E+04  0.50400001928E-02 0. -1.
       -1   -1    0    0    0  501  0.00000000000E+00  0.00000000000E+00 -0.15089757694E+04  0.15089757694E+04  0.50400001928E-02 0.  1.
    10030    2    1    2    0    0  0.00000000000E+00  0.00000000000E+00 -0.22815813463E+03  0.27897934042E+04  0.27804480041E+04 0.  0.
        2    1    3    3  502    0 -0.90365428198E+03 -0.34712031997E+03 -0.11152500605E+04  0.14767756348E+04  0.25500000920E-02 0.  1.
       -2    1    3    3    0  502  0.90365428198E+03  0.34712031997E+03  0.88709192591E+03  0.13130177695E+04  0.25500000920E-02 0. -1.
</event>
<event>
 5   0  0.2697964E-05  0.2859284E+04  0.7818609E-02  0.8285096E-01
       -2   -1    0    0    0  501  0.00000000000E+00  0.00000000000E+00  0.99284553667E+03  0.99284553667E+03  0.25500000920E-02 0.  1.
        2   -1    0    0  501    0  0.00000000000E+00  0.00000000000E+00 -0.20586042498E+04  0.20586042498E+04  0.25500000920E-02 0. -1.
    10030    2    1    2    0    0  0.00000000000E+00  0.00000000000E+00 -0.10657587131E+04  0.30514497865E+04  0.28592838552E+04 0.  0.
        1    1    3    3  502    0 -0.10212480011E+04  0.66006537867E+03  0.26947509546E+03  0.12454921160E+04  0.50400001928E-02 0.  1.
       -1    1    3    3    0  502  0.10212480011E+04 -0.66006537867E+03 -0.13352338086E+04  0.18059576705E+04  0.50400001928E-02 0. -1.
</event>
<event>
 5   0  0.1105862E-05  0.2841384E+04  0.7818609E-02  0.8290534E-01
        1   -1    0    0  501    0  0.00000000000E+00  0.00000000000E+00  0.18555020762E+04  0.18555020762E+04  0.50400001928E-02 0. -1.
       -1   -1    0    0    0  501  0.00000000000E+00  0.00000000000E+00 -0.10877730783E+04  0.10877730783E+04  0.50400001928E-02 0.  1.
    10030    2    1    2    0    0  0.00000000000E+00  0.00000000000E+00  0.76772899789E+03  0.29432751545E+04  0.28413836103E+04 0.  0.
        3    1    3    3  502    0  0.13914885334E+04  0.17324470779E+03  0.14739984694E+03  0.14099577272E+04  0.10100000352E+00 0. -1.
       -3    1    3    3    0  502 -0.13914885334E+04 -0.17324470779E+03  0.62032915095E+03  0.15333174273E+04  0.10100000352E+00 0.  1.
</event>
<event>
 5   0  0.1105862E-05  0.2806668E+04  0.7818609E-02  0.8301201E-01
       -1   -1    0    0    0  501  0.00000000000E+00  0.00000000000E+00  0.70210747942E+03  0.70210747944E+03  0.50400001928E-02 0. -1.
        1   -1    0    0  501    0  0.00000000000E+00  0.00000000000E+00 -0.28049076979E+04  0.28049076979E+04  0.50400001928E-02 0.  1.
    10030    2    1    2    0    0  0.00000000000E+00  0.00000000000E+00 -0.21028002185E+04  0.35070151774E+04  0.28066682553E+04 0.  0.
        3    1    3    3  502    0 -0.33342544695E+03  0.11291287916E+04 -0.20056696731E+04  0.23256859643E+04  0.10100000352E+00 0.  1.
       -3    1    3    3    0  502  0.33342544695E+03 -0.11291287916E+04 -0.97130545357E+02  0.11813292131E+04  0.10100000352E+00 0. -1.
</event>
<event>
 5   0  0.2624815E-05  0.2707843E+04  0.7818609E-02  0.8332465E-01
       -2   -1    0    0    0  501  0.00000000000E+00  0.00000000000E+00  0.25523025722E+04  0.25523025722E+04  0.25500000920E-02 0.  1.
        2   -1    0    0  501    0  0.00000000000E+00  0.00000000000E+00 -0.71821531281E+03  0.71821531282E+03  0.25500000920E-02 0. -1.
    10030    2    1    2    0    0  0.00000000000E+00  0.00000000000E+00  0.18340872594E+04  0.32705178851E+04  0.27078425289E+04 0.  0.
        4    1    3    3  502    0  0.54549780903E+03  0.32458084591E+03  0.23614472347E+04  0.24452720177E+04  0.12699999809E+01 0.  1.
       -4    1    3    3    0  502 -0.54549780903E+03 -0.32458084591E+03 -0.52735997529E+03  0.82524586738E+03  0.12699999809E+01 0. -1.
</event>
<event>
 5   0  0.2697964E-05  0.2723242E+04  0.7818609E-02  0.8327503E-01
       -2   -1    0    0    0  501  0.00000000000E+00  0.00000000000E+00  0.79196556235E+03  0.79196556236E+03  0.25500000920E-02 0.  1.
        2   -1    0    0  501    0  0.00000000000E+00  0.00000000000E+00 -0.23410249165E+04  0.23410249165E+04  0.25500000920E-02 0. -1.
    10030    2    1    2    0    0  0.00000000000E+00  0.00000000000E+00 -0.15490593541E+04  0.31329904788E+04  0.27232415350E+04 0.  0.
        1    1    3    3  502    0  0.73089122576E+03  0.11234708888E+04 -0.10506943861E+04  0.17030406674E+04  0.50400001928E-02 0. -1.
       -1    1    3    3    0  502 -0.73089122576E+03 -0.11234708888E+04 -0.49836496805E+03  0.14299498114E+04  0.50400001928E-02 0.  1.
</event>
<event>
 5   0  0.2518686E-05  0.2801009E+04  0.7818609E-02  0.8302955E-01
        2   -1    0    0  501    0  0.00000000000E+00  0.00000000000E+00  0.11417323200E+04  0.11417323200E+04  0.25500000920E-02 0. -1.
       -2   -1    0    0    0  501  0.00000000000E+00  0.00000000000E+00 -0.17179272051E+04  0.17179272051E+04  0.25500000920E-02 0.  1.
    10030    2    1    2    0    0  0.00000000000E+00  0.00000000000E+00 -0.57619488504E+03  0.28596595251E+04  0.28010091135E+04 0.  0.
        5    1    3    3  502    0  0.21120037476E+03 -0.61767622168E+03  0.97690386255E+03  0.11749437262E+04  0.46999998093E+01 0. -1.
       -5    1    3    3    0  502 -0.21120037476E+03  0.61767622168E+03 -0.15530987476E+04  0.16847157989E+04  0.46999998093E+01 0.  1.
</event>
<event>
 5   0  0.1067434E-05  0.2771479E+04  0.7818609E-02  0.8312178E-01
        1   -1    0    0  501    0  0.00000000000E+00  0.00000000000E+00  0.14750780132E+04  0.14750780133E+04  0.50400001928E-02 0. -1.
       -1   -1    0    0    0  501  0.00000000000E+00  0.00000000000E+00 -0.13018114067E+04  0.13018114067E+04  0.50400001928E-02 0.  1.
    10030    2    1    2    0    0  0.00000000000E+00  0.00000000000E+00  0.17326660651E+03  0.27768894200E+04  0.27714785826E+04 0.  0.
        4    1    3    3  502    0 -0.43651840186E+03  0.96333386390E+03  0.98376472398E+03  0.14444220621E+04  0.12699999809E+01 0. -1.
       -4    1    3    3    0  502  0.43651840186E+03 -0.96333386390E+03 -0.81049811747E+03  0.13324673579E+04  0.12699999809E+01 0.  1.
</event>
<event>
 5   0  0.1017456E-05  0.2669155E+04  0.7818609E-02  0.8345083E-01
       -1   -1    0    0    0  501  0.00000000000E+00  0.00000000000E+00  0.64248759385E+03  0.64248759387E+03  0.50400001928E-02 0. -1.
        1   -1    0    0  501    0  0.00000000000E+00  0.00000000000E+00 -0.27721888962E+04  0.27721888962E+04  0.50400001928E-02 0.  1.
    10030    2    1    2    0    0  0.00000000000E+00  0.00000000000E+00 -0.21297013023E+04  0.34146764901E+04  0.26691549027E+04 0.  0.
        5    1    3    3  502    0 -0.68474427303E+03  0.18512413842E+03  0.38135210793E+03  0.80535531680E+03  0.46999998093E+01 0. -1.
       -5    1    3    3    0  502  0.68474427303E+03 -0.18512413842E+03 -0.25110534102E+04  0.26093211733E+04  0.46999998093E+01 0.  1.
</event>
<event>
 5   0  0.2588048E-05  0.2281690E+04  0.7818609E-02  0.8485176E-01
        2   -1    0    0  501    0  0.00000000000E+00  0.00000000000E+00  0.10701866308E+04  0.10701866308E+04  0.25500000920E-02 0.  1.
       -2   -1    0    0    0  501  0.00000000000E+00  0.00000000000E+00 -0.12161682988E+04  0.12161682988E+04  0.25500000920E-02 0. -1.
    10030    2    1    2    0    0  0.00000000000E+00  0.00000000000E+00 -0.14598166805E+03  0.22863549296E+04  0.22816897722E+04 0.  0.
        2    1    3    3  502    0 -0.51354116284E+03 -0.90892322552E+03  0.38801622707E+03  0.11137425862E+04  0.25500000920E-02 0.  1.
       -2    1    3    3    0  502  0.51354116284E+03  0.90892322552E+03 -0.53399789512E+03  0.11726123434E+04  0.25500000920E-02 0. -1.
</event>
<event>
 5   0  0.1067434E-05  0.2742554E+04  0.7818609E-02  0.8321328E-01
        1   -1    0    0  501    0  0.00000000000E+00  0.00000000000E+00  0.13702219499E+04  0.13702219499E+04  0.50400001928E-02 0. -1.
       -1   -1    0    0    0  501  0.00000000000E+00  0.00000000000E+00 -0.13723332690E+04  0.13723332690E+04  0.50400001928E-02 0.  1.
    10030    2    1    2    0    0  0.00000000000E+00  0.00000000000E+00 -0.21113190291E+01  0.27425552189E+04  0.27425544062E+04 0.  0.
        4    1    3    3  502    0  0.54485074298E+03  0.72719805130E+03  0.10259403687E+04  0.13704869905E+04  0.12699999809E+01 0. -1.
       -4    1    3    3    0  502 -0.54485074298E+03 -0.72719805130E+03 -0.10280516878E+04  0.13720682285E+04  0.12699999809E+01 0.  1.
</event>
<event>
 5   0  0.2518686E-05  0.2811538E+04  0.7818609E-02  0.8299695E-01
        2   -1    0    0  501    0  0.00000000000E+00  0.00000000000E+00  0.19427711282E+04  0.19427711282E+04  0.25500000920E-02 0.  1.
       -2   -1    0    0    0  501  0.00000000000E+00  0.00000000000E+00 -0.10171998745E+04  0.10171998745E+04  0.25500000920E-02 0. -1.
    10030    2    1    2    0    0  0.00000000000E+00  0.00000000000E+00  0.92557125370E+03  0.29599710027E+04  0.28115380472E+04 0.  0.
        5    1    3    3  502    0  0.92380971288E+03 -0.24516654386E+03 -0.62247795687E+03  0.11406278607E+04  0.46999998093E+01 0. -1.
       -5    1    3    3    0  502 -0.92380971288E+03  0.24516654386E+03  0.15480492106E+04  0.18193431420E+04  0.46999998093E+01 0.  1.
</event>
<event>
 5   0  0.1017456E-05  0.2709808E+04  0.7818609E-02  0.8331830E-01
       -1   -1    0    0    0  501  0.00000000000E+00  0.00000000000E+00  0.12481891964E+04  0.12481891964E+04  0.50400001928E-02 0.  1.
        1   -1    0    0  501    0  0.00000000000E+00  0.00000000000E+00 -0.14707425340E+04  0.14707425340E+04  0.50400001928E-02 0. -1.
    10030    2    1    2    0    0  0.00000000000E+00  0.00000000000E+00 -0.22255333757E+03  0.27189317304E+04  0.27098080682E+04 0.  0.
        5    1    3    3  502    0 -0.53377090282E+03 -0.10603329614E+04 -0.76656474372E+03  0.14131033091E+04  0.46999998093E+01 0. -1.
       -5    1    3    3    0  502  0.53377090282E+03  0.10603329614E+04  0.54401140615E+03  0.13058284213E+04  0.46999998093E+01 0.  1.
</event>
<event>
 5   0  0.1078103E-05  0.2781087E+04  0.7818609E-02  0.8309164E-01
        1   -1    0    0  501    0  0.00000000000E+00  0.00000000000E+00  0.13399616702E+04  0.13399616702E+04  0.50400001928E-02 0. -1.
       -1   -1    0    0    0  501  0.00000000000E+00  0.00000000000E+00 -0.14430344921E+04  0.14430344921E+04  0.50400001928E-02 0.  1.
    10030    2    1    2    0    0  0.00000000000E+00  0.00000000000E+00 -0.10307282193E+03  0.27829961624E+04  0.27810867719E+04 0.  0.
        1    1    3    3  502    0  0.16326021105E+03  0.19612623499E+03 -0.14194026565E+04  0.14421592484E+04  0.50400001928E-02 0.  1.
       -1    1    3    3    0  502 -0.16326021105E+03 -0.19612623499E+03  0.13163298345E+04  0.13408369140E+04  0.50400001928E-02 0. -1.
</event>
<event>
 5   0  0.2588048E-05  0.2833472E+04  0.7818609E-02  0.8292951E-01
        2   -1    0    0  501    0  0.00000000000E+00  0.00000000000E+00  0.15786729669E+04  0.15786729669E+04  0.25500000920E-02 0.  1.
       -2   -1    0    0    0  501  0.00000000000E+00  0.00000000000E+00 -0.12714105809E+04  0.12714105809E+04  0.25500000920E-02 0. -1.
    10030    2    1    2    0    0  0.00000000000E+00  0.00000000000E+00  0.30726238602E+03  0.28500835478E+04  0.28334724378E+04 0.  0.
        2    1    3    3  502    0  0.13967179583E+04  0.21227451465E+03  0.26036637319E+03  0.14365487019E+04  0.25500000920E-02 0.  1.
       -2    1    3    3    0  502 -0.13967179583E+04 -0.21227451465E+03  0.46896012821E+02  0.14135348459E+04  0.25500000920E-02 0. -1.
</event>
<event>
 5   0  0.1017456E-05  0.2734445E+04  0.7818609E-02  0.8323914E-01
       -1   -1    0    0    0  501  0.00000000000E+00  0.00000000000E+00  0.12552162888E+04  0.12552162888E+04  0.50400001928E-02 0. -1.
        1   -1    0    0  501    0  0.00000000000E+00  0.00000000000E+00 -0.14892237492E+04  0.14892237492E+04  0.50400001928E-02 0.  1.
    10030    2    1    2    0    0  0.00000000000E+00  0.00000000000E+00 -0.23400746043E+03  0.27444400380E+04  0.27344453973E+04 0.  0.
        5    1    3    3  502    0  0.11116179566E+04 -0.61410938665E+03  0.39125715355E+03  0.13288826398E+04  0.46999998093E+01 0.  1.
       -5    1    3    3    0  502 -0.11116179566E+04  0.61410938665E+03 -0.62526461398E+03  0.14155573982E+04  0.46999998093E+01 0. -1.
</event>
<event>
 5   0  0.2697964E-05  0.2719870E+04  0.7818609E-02  0.8328586E-01
        2   -1    0    0  501    0  0.00000000000E+00  0.00000000000E+00  0.14912446618E+04  0.14912446619E+04  0.25500000920E-02 0.  1.
       -2   -1    0    0    0  501  0.00000000000E+00  0.00000000000E+00 -0.12401880110E+04  0.12401880110E+04  0.25500000920E-02 0. -1.
    10030    2    1    2    0    0  0.00000000000E+00  0.00000000000E+00  0.25105665083E+03  0.27314326729E+04  0.27198704022E+04 0.  0.
        1    1    3    3  502    0 -0.20689190928E+03  0.13119363614E+04  0.41907637093E+03  0.13926974844E+04  0.50400001928E-02 0.  1.
       -1    1    3    3    0  502  0.20689190928E+03 -0.13119363614E+04 -0.16801972010E+03  0.13387351885E+04  0.50400001928E-02 0. -1.
</event>
<event>
 5   0  0.1078103E-05  0.2699161E+04  0.7818609E-02  0.8335277E-01
       -1   -1    0    0    0  501  0.00000000000E+00  0.00000000000E+00  0.66368199314E+03  0.66368199316E+03  0.50400001928E-02 0. -1.
        1   -1    0    0  501    0  0.00000000000E+00  0.00000000000E+00 -0.27443376111E+04  0.27443376111E+04  0.50400001928E-02 0.  1.
    10030    2    1    2    0    0  0.00000000000E+00  0.00000000000E+00 -0.20806556179E+04  0.34080196042E+04  0.26991609479E+04 0.  0.
        1    1    3    3  502    0  0.12269917850E+03  0.11051572168E+03  0.65087799855E+03  0.67149905597E+03  0.50400001928E-02 0. -1.
       -1    1    3    3    0  502 -0.12269917850E+03 -0.11051572168E+03 -0.27315336165E+04  0.27365205483E+04  0.50400001928E-02 0.  1.
</event>
<event>
 5   0  0.1075146E-05  0.3008638E+04  0.7818609E-02  0.8241269E-01
        1   -1    0    0  501    0  0.00000000000E+00  0.00000000000E+00  0.15213992676E+04  0.15213992676E+04  0.50400001928E-02 0. -1.
       -1   -1    0    0    0  501  0.00000000000E+00  0.00000000000E+00 -0.14874304756E+04  0.14874304756E+04  0.50400001928E-02 0.  1.
    10030    2    1    2    0    0  0.00000000000E+00  0.00000000000E+00  0.33968792015E+02  0.30088297432E+04  0.30086379883E+04 0.  0.
        2    1    3    3  502    0  0.55551459303E+03  0.21291303163E+03  0.13987552045E+04  0.15200146526E+04  0.25500000920E-02 0. -1.
       -2    1    3    3    0  502 -0.55551459303E+03 -0.21291303163E+03 -0.13647864125E+04  0.14888150905E+04  0.25500000920E-02 0.  1.
</event>
<event>
 5   0  0.2624815E-05  0.2651476E+04  0.7818609E-02  0.8350923E-01
       -2   -1    0    0    0  501  0.00000000000E+00  0.00000000000E+00  0.15963484477E+04  0.15963484477E+04  0.25500000920E-02 0.  1.
        2   -1    0    0  501    0  0.00000000000E+00  0.00000000000E+00 -0.11010007796E+04  0.11010007796E+04  0.25500000920E-02 0. -1.
    10030    2    1    2    0    0  0.00000000000E+00  0.00000000000E+00  0.49534766805E+03  0.26973492273E+04  0.26514757291E+04 0.  0.
        4    1    3    3  502    0 -0.32735335269E+03  0.48350433898E+03  0.14584940754E+04  0.15710325408E+04  0.12699999809E+01 0.  1.
       -4    1    3    3    0  502  0.32735335269E+03 -0.48350433898E+03 -0.96314640738E+03  0.11263166865E+04  0.12699999809E+01 0. -1.
</event>
<event>
 5   0  0.2588048E-05  0.2625280E+04  0.7818609E-02  0.8359665E-01
       -2   -1    0    0    0  501  0.00000000000E+00  0.00000000000E+00  0.93575479807E+03  0.93575479807E+03  0.25500000920E-02 0. -1.
        2   -1    0    0  501    0  0.00000000000E+00  0.00000000000E+00 -0.18413197628E+04  0.18413197628E+04  0.25500000920E-02 0.  1.
    10030    2    1    2    0    0  0.00000000000E+00  0.00000000000E+00 -0.90556496470E+03  0.27770745608E+04  0.26252800253E+04 0.  0.
        2    1    3    3  502    0 -0.46540042164E+03 -0.25069660778E+03 -0.17237426866E+04  0.18029795315E+04  0.25500000920E-02 0.  1.
       -2    1    3    3    0  502  0.46540042164E+03  0.25069660778E+03  0.81817772186E+03  0.97409502933E+03  0.25500000920E-02 0. -1.
</event>
<event>
 5   0  0.2624815E-05  0.2758264E+04  0.7818609E-02  0.8316344E-01
       -2   -1    0    0    0  501  0.00000000000E+00  0.00000000000E+00  0.95414304870E+03  0.95414304871E+03  0.25500000920E-02 0.  1.
        2   -1    0    0  501    0  0.00000000000E+00  0.00000000000E+00 -0.19934173804E+04  0.19934173804E+04  0.25500000920E-02 0. -1.
    10030    2    1    2    0    0  0.00000000000E+00  0.00000000000E+00 -0.10392743317E+04  0.29475604291E+04  0.27582641909E+04 0.  0.
        4    1    3    3  502    0 -0.18172036639E+03 -0.23477307652E+03 -0.19588635150E+04  0.19812341033E+04  0.12699999809E+01 0. -1.
       -4    1    3    3    0  502  0.18172036639E+03  0.23477307652E+03  0.91958918327E+03  0.96632632578E+03  0.12699999809E+01 0.  1.
</event>
<event>
 5   0  0.1075146E-05  0.2751098E+04  0.7818609E-02  0.8318613E-01
        1   -1    0    0  501    0  0.00000000000E+00  0.00000000000E+00  0.18747679265E+04  0.18747679265E+04  0.50400001928E-02 0.  1.
       -1   -1    0    0    0  501  0.00000000000E+00  0.00000000000E+00 -0.10092634896E+04  0.10092634896E+04  0.50400001928E-02 0. -1.
    10030    2    1    2    0    0  0.00000000000E+00  0.00000000000E+00  0.86550443691E+03  0.28840314161E+04  0.27510978315E+04 0.  0.
        2    1    3    3  502    0  0.84010343764E+03  0.27253387756E+03 -0.67275912055E+03  0.11102492219E+04  0.25500000920E-02 0. -1.
       -2    1    3    3    0  502 -0.84010343764E+03 -0.27253387756E+03  0.15382635575E+04  0.17737821942E+04  0.25500000920E-02 0.  1.
</event>
<event>
 5   0  0.2697964E-05  0.2759311E+04  0.7818609E-02  0.8316013E-01
       -2   -1    0    0    0  501  0.00000000000E+00  0.00000000000E+00  0.12242225192E+04  0.12242225192E+04  0.25500000920E-02 0. -1.
        2   -1    0    0  501    0  0.00000000000E+00  0.00000000000E+00 -0.15548227272E+04  0.15548227272E+04  0.25500000920E-02 0.  1.
    10030    2    1    2    0    0  0.00000000000E+00  0.00000000000E+00 -0.33060020799E+03  0.27790452465E+04  0.27593107807E+04 0.  0.
        1    1    3    3  502    0 -0.54749550667E+02  0.48010440506E+03 -0.14668082650E+04  0.15443523689E+04  0.50400001928E-02 0.  1.
       -1    1    3    3    0  502  0.54749550667E+02 -0.48010440506E+03  0.11362080570E+04  0.12346928776E+04  0.50400001928E-02 0. -1.
</event>
<event>
 5   0  0.1067434E-05  0.2909795E+04  0.7818609E-02  0.8269969E-01
       -1   -1    0    0    0  501  0.00000000000E+00  0.00000000000E+00  0.11192000357E+04  0.11192000358E+04  0.50400001928E-02 0.  1.
        1   -1    0    0  501    0  0.00000000000E+00  0.00000000000E+00 -0.18912856272E+04  0.18912856273E+04  0.50400001928E-02 0. -1.
    10030    2    1    2    0    0  0.00000000000E+00  0.00000000000E+00 -0.77208559151E+03  0.30104856630E+04  0.29097951417E+04 0.  0.
        4    1    3    3  502    0  0.77706325468E+03 -0.36071956633E+01  0.88651380944E+03  0.11788760159E+04  0.12699999809E+01 0.  1.
       -4    1    3    3    0  502 -0.77706325468E+03  0.36071956633E+01 -0.16585994010E+04  0.18316096471E+04  0.12699999809E+01 0. -1.
</event>
<event>
 5   0  0.1075146E-05  0.2859920E+04  0.7818609E-02  0.8284903E-01
        1   -1    0    0  501    0  0.00000000000E+00  0.00000000000E+00  0.25257796156E+04  0.25257796156E+04  0.50400001928E-02 0. -1.
       -1   -1    0    0    0  501  0.00000000000E+00  0.00000000000E+00 -0.80956612111E+03  0.80956612113E+03  0.50400001928E-02 0.  1.
    10030    2    1    2    0    0  0.00000000000E+00  0.00000000000E+00  0.17162134945E+04  0.33353457368E+04  0.28599200033E+04 0.  0.
        2    1    3    3  502    0  0.94115255923E+03  0.10241881439E+04  0.12450025847E+04  0.18667514376E+04  0.25500000920E-02 0.  1.
       -2    1    3    3    0  502 -0.94115255923E+03 -0.10241881439E+04  0.47121090980E+03  0.14685942991E+04  0.25500000920E-02 0. -1.
</event>
<event>
 5   0  0.1078103E-05  0.2785130E+04  0.7818609E-02  0.8307900E-01
       -1   -1    0    0    0  501  0.00000000000E+00  0.00000000000E+00  0.21130003833E+04  0.21130003833E+04  0.50400001928E-02 0.  1.
        1   -1    0    0  501    0  0.00000000000E+00  0.00000000000E+00 -0.91776447565E+03  0.91776447566E+03  0.50400001928E-02 0. -1.
    10030    2    1    2    0    0  0.00000000000E+00  0.00000000000E+00  0.11952359077E+04  0.30307648590E+04  0.27851295761E+04 0.  0.
        1    1    3    3  502    0 -0.32585174868E+03 -0.30547284041E+03 -0.83770447197E+03  0.94933755890E+03  0.50400001928E-02 0. -1.
       -1    1    3    3    0  502  0.32585174868E+03  0.30547284041E+03  0.20329403796E+04  0.20814273001E+04  0.50400001928E-02 0.  1.
</event>
<event>
 5   0  0.2697964E-05  0.1972471E+04  0.7818609E-02  0.8619600E-01
        2   -1    0    0  501    0  0.00000000000E+00  0.00000000000E+00  0.12917258513E+04  0.12917258513E+04  0.25500000920E-02 0.  1.
       -2   -1    0    0    0  501  0.00000000000E+00  0.00000000000E+00 -0.75299317308E+03  0.75299317309E+03  0.25500000920E-02 0. -1.
    10030    2    1    2    0    0  0.00000000000E+00  0.00000000000E+00  0.53873267826E+03  0.20447190244E+04  0.19724712901E+04 0.  0.
        1    1    3    3  502    0  0.80090868964E+03 -0.56724486312E+03  0.37008094696E+03  0.10488953099E+04  0.50400001928E-02 0.  1.
       -1    1    3    3    0  502 -0.80090868964E+03  0.56724486312E+03  0.16865173130E+03  0.99582371450E+03  0.50400001928E-02 0. -1.
</event>
<event>
 5   0  0.1105862E-05  0.2774976E+04  0.7818609E-02  0.8311080E-01
       -1   -1    0    0    0  501  0.00000000000E+00  0.00000000000E+00  0.16793971862E+04  0.16793971862E+04  0.50400001928E-02 0.  1.
        1   -1    0    0  501    0  0.00000000000E+00  0.00000000000E+00 -0.11463174360E+04  0.11463174360E+04  0.50400001928E-02 0. -1.
    10030    2    1    2    0    0  0.00000000000E+00  0.00000000000E+00  0.53307975024E+03  0.28257146223E+04  0.27749755145E+04 0.  0.
        3    1    3    3  502    0  0.90747031963E+02 -0.69806531353E+03  0.14840573614E+04  0.16425457278E+04  0.10100000352E+00 0.  1.
       -3    1    3    3    0  502 -0.90747031963E+02  0.69806531353E+03 -0.95097761114E+03  0.11831688945E+04  0.10100000352E+00 0. -1.
</event>
<event>
 5   0  0.1017456E-05  0.2841922E+04  0.7818609E-02  0.8290370E-01
        1   -1    0    0  501    0  0.00000000000E+00  0.00000000000E+00  0.14706989244E+04  0.14706989244E+04  0.50400001928E-02 0.  1.
       -1   -1    0    0    0  501  0.00000000000E+00  0.00000000000E+00 -0.13729051148E+04  0.13729051148E+04  0.50400001928E-02 0. -1.
    10030    2    1    2    0    0  0.00000000000E+00  0.00000000000E+00  0.97793809551E+02  0.28436040392E+04  0.28419219381E+04 0.  0.
        5    1    3    3  502    0 -0.12694001861E+04  0.38896867009E+03  0.55559028135E+03  0.14392276087E+04  0.46999998093E+01 0.  1.
       -5    1    3    3    0  502  0.12694001861E+04 -0.38896867009E+03 -0.45779647180E+03  0.14043764305E+04  0.46999998093E+01 0. -1.
</event>
<event>
 5   0  0.1105862E-05  0.2736617E+04  0.7818609E-02  0.8323221E-01
        1   -1    0    0  501    0  0.00000000000E+00  0.00000000000E+00  0.15457599135E+04  0.15457599135E+04  0.50400001928E-02 0.  1.
       -1   -1    0    0    0  501  0.00000000000E+00  0.00000000000E+00 -0.12112281879E+04  0.12112281879E+04  0.50400001928E-02 0. -1.
    10030    2    1    2    0    0  0.00000000000E+00  0.00000000000E+00  0.33453172552E+03  0.27569881014E+04  0.27366168742E+04 0.  0.
        3    1    3    3  502    0 -0.13478330974E+04  0.20308517460E+03  0.28803449417E+03  0.13931480634E+04  0.10100000352E+00 0.  1.
       -3    1    3    3    0  502  0.13478330974E+04 -0.20308517460E+03  0.46497231353E+02  0.13638400380E+04  0.10100000352E+00 0. -1.
</event>
<event>
 5   0  0.2588048E-05  0.2770724E+04  0.7818609E-02  0.8312415E-01
       -2   -1    0    0    0  501  0.00000000000E+00  0.00000000000E+00  0.79922725979E+03  0.79922725979E+03  0.25500000920E-02 0. -1.
        2   -1    0    0  501    0  0.00000000000E+00  0.00000000000E+00 -0.24013541781E+04  0.24013541781E+04  0.25500000920E-02 0.  1.
    10030    2    1    2    0    0  0.00000000000E+00  0.00000000000E+00 -0.16021269183E+04  0.32005814379E+04  0.27707238907E+04 0.  0.
        2    1    3    3  502    0 -0.65260364646E+03 -0.11910104054E+04 -0.48507246332E+03  0.14421139344E+04  0.25500000920E-02 0. -1.
       -2    1    3    3    0  502  0.65260364646E+03  0.11910104054E+04 -0.11170544550E+04  0.17584675035E+04  0.25500000920E-02 0.  1.
</event>
<event>
 5   0  0.2588048E-05  0.2643961E+04  0.7818609E-02  0.8353420E-01
       -2   -1    0    0    0  501  0.00000000000E+00  0.00000000000E+00  0.93328733690E+03  0.93328733690E+03  0.25500000920E-02 0.  1.
        2   -1    0    0  501    0  0.00000000000E+00  0.00000000000E+00 -0.18725557706E+04  0.18725557706E+04  0.25500000920E-02 0. -1.
    10030    2    1    2    0    0  0.00000000000E+00  0.00000000000E+00 -0.93926843372E+03  0.28058431075E+04  0.26439611104E+04 0.  0.
        2    1    3    3  502    0 -0.16970160080E+03  0.71066039618E+03  0.69954511011E+03  0.10115335848E+04  0.25500000920E-02 0.  1.
       -2    1    3    3    0  502  0.16970160080E+03 -0.71066039618E+03 -0.16388135438E+04  0.17943095228E+04  0.25500000920E-02 0. -1.
</event>
<event>
 5   0  0.2624815E-05  0.2823502E+04  0.7818609E-02  0.8296009E-01
       -2   -1    0    0    0  501  0.00000000000E+00  0.00000000000E+00  0.20906984188E+04  0.20906984188E+04  0.25500000920E-02 0.  1.
        2   -1    0    0  501    0  0.00000000000E+00  0.00000000000E+00 -0.95328930362E+03  0.95328930362E+03  0.25500000920E-02 0. -1.
    10030    2    1    2    0    0  0.00000000000E+00  0.00000000000E+00  0.11374091152E+04  0.30439877225E+04  0.28235016839E+04 0.  0.
        4    1    3    3  502    0  0.10528467098E+04  0.21920547298E+03  0.15547302506E+04  0.18904298450E+04  0.12699999809E+01 0.  1.
       -4    1    3    3    0  502 -0.10528467098E+04 -0.21920547298E+03 -0.41732113537E+03  0.11535578775E+04  0.12699999809E+01 0. -1.
</event>
<event>
 5   0  0.8958000E-06  0.2801251E+04  0.7818609E-02  0.8302880E-01
       -3   -1    0    0    0  501  0.00000000000E+00  0.00000000000E+00  0.14517104529E+04  0.14517104564E+04  0.10100000352E+00 0.  1.
        3   -1    0    0  501    0  0.00000000000E+00  0.00000000000E+00 -0.13513379983E+04  0.13513380021E+04  0.10100000352E+00 0. -1.
    10030    2    1    2    0    0  0.00000000000E+00  0.00000000000E+00  0.10037245455E+03  0.28030484585E+04  0.28012507976E+04 0.  0.
        4    1    3    3  502    0  0.53027445912E+03 -0.42385807198E+03 -0.11757135281E+04  0.13576268192E+04  0.12699999809E+01 0. -1.
       -4    1    3    3    0  502 -0.53027445912E+03  0.42385807198E+03  0.12760859827E+04  0.14454216393E+04  0.12699999809E+01 0.  1.
</event>
<event>
 5   0  0.1105862E-05  0.2711616E+04  0.7818609E-02  0.8331246E-01
       -1   -1    0    0    0  501  0.00000000000E+00  0.00000000000E+00  0.12710384965E+04  0.12710384965E+04  0.50400001928E-02 0. -1.
        1   -1    0    0  501    0  0.00000000000E+00  0.00000000000E+00 -0.14462309318E+04  0.14462309318E+04  0.50400001928E-02 0.  1.
    10030    2    1    2    0    0  0.00000000000E+00  0.00000000000E+00 -0.17519243530E+03  0.27172694282E+04  0.27116158939E+04 0.  0.
        3    1    3    3  502    0 -0.98460590974E+03  0.84611764810E+03 -0.47937337432E+03  0.13838940401E+04  0.10100000352E+00 0.  1.
       -3    1    3    3    0  502  0.98460590974E+03 -0.84611764810E+03  0.30418093902E+03  0.13333753882E+04  0.10100000352E+00 0. -1.
</event>
<event>
 5   0  0.1067434E-05  0.2804744E+04  0.7818609E-02  0.8301797E-01
       -1   -1    0    0    0  501  0.00000000000E+00  0.00000000000E+00  0.12796558826E+04  0.12796558826E+04  0.50400001928E-02 0.  1.
        1   -1    0    0  501    0  0.00000000000E+00  0.00000000000E+00 -0.15368560530E+04  0.15368560530E+04  0.50400001928E-02 0. -1.
    10030    2    1    2    0    0  0.00000000000E+00  0.00000000000E+00 -0.25720017040E+03  0.28165119357E+04  0.28047437594E+04 0.  0.
        4    1    3    3  502    0  0.13663648769E+04 -0.25461318734E+03 -0.31610370359E+03  0.14253785520E+04  0.12699999809E+01 0.  1.
       -4    1    3    3    0  502 -0.13663648769E+04  0.25461318734E+03  0.58903533192E+02  0.13911333837E+04  0.12699999809E+01 0. -1.
</event>
<event>
 5   0  0.2518686E-05  0.2823938E+04  0.7818609E-02  0.8295875E-01
        2   -1    0    0  501    0  0.00000000000E+00  0.00000000000E+00  0.20046081663E+04  0.20046081663E+04  0.25500000920E-02 0.  1.
       -2   -1    0    0    0  501  0.00000000000E+00  0.00000000000E+00 -0.99453682867E+03  0.99453682867E+03  0.25500000920E-02 0. -1.
    10030    2    1    2    0    0  0.00000000000E+00  0.00000000000E+00  0.10100713376E+04  0.29991449950E+04  0.28239381356E+04 0.  0.
        5    1    3    3  502    0  0.47370000699E+02 -0.15861094697E+03 -0.98418754574E+03  0.99802232673E+03  0.46999998093E+01 0. -1.
       -5    1    3    3    0  502 -0.47370000699E+02  0.15861094697E+03  0.19942588834E+04  0.20011226682E+04  0.46999998093E+01 0.  1.
</event>
<event>
 5   0  0.1017456E-05  0.2732004E+04  0.7818609E-02  0.8324695E-01
        1   -1    0    0  501    0  0.00000000000E+00  0.00000000000E+00  0.14035745003E+04  0.14035745003E+04  0.50400001928E-02 0.  1.
       -1   -1    0    0    0  501  0.00000000000E+00  0.00000000000E+00 -0.13294348582E+04  0.13294348582E+04  0.50400001928E-02 0. -1.
    10030    2    1    2    0    0  0.00000000000E+00  0.00000000000E+00  0.74139642101E+02  0.27330093586E+04  0.27320035629E+04 0.  0.
        5    1    3    3  502    0  0.34715489662E+03 -0.10003407356E+04  0.90037111581E+03  0.13899238633E+04  0.46999998093E+01 0.  1.
       -5    1    3    3    0  502 -0.34715489662E+03  0.10003407356E+04 -0.82623147371E+03  0.13430854953E+04  0.46999998093E+01 0. -1.
</event>
<event>
 5   0  0.1075146E-05  0.1866422E+04  0.7818609E-02  0.8671753E-01
        1   -1    0    0  501    0  0.00000000000E+00  0.00000000000E+00  0.10009353270E+04  0.10009353271E+04  0.50400001928E-02 0. -1.
       -1   -1    0    0    0  501  0.00000000000E+00  0.00000000000E+00 -0.87006891361E+03  0.87006891362E+03  0.50400001928E-02 0.  1.
    10030    2    1    2    0    0  0.00000000000E+00  0.00000000000E+00  0.13086641343E+03  0.18710042407E+04  0.18664219379E+04 0.  0.
        2    1    3    3  502    0 -0.51247917249E+03  0.51466900017E+03  0.65284422371E+03  0.97658827681E+03  0.25500000920E-02 0. -1.
       -2    1    3    3    0  502  0.51247917249E+03 -0.51466900017E+03 -0.52197781027E+03  0.89441596386E+03  0.25500000920E-02 0.  1.
</event>
<event>
 5   0  0.2651061E-05  0.2751591E+04  0.7818609E-02  0.8318457E-01
        2   -1    0    0  501    0  0.00000000000E+00  0.00000000000E+00  0.13667328040E+04  0.13667328040E+04  0.25500000920E-02 0.  1.
       -2   -1    0    0    0  501  0.00000000000E+00  0.00000000000E+00 -0.13849180593E+04  0.13849180593E+04  0.25500000920E-02 0. -1.
    10030    2    1    2    0    0  0.00000000000E+00  0.00000000000E+00 -0.18185255284E+02  0.27516508634E+04  0.27515907709E+04 0.  0.
        3    1    3    3  502    0 -0.60842383905E+03 -0.10501365350E+04  0.63887724878E+03  0.13715430942E+04  0.10100000352E+00 0.  1.
       -3    1    3    3    0  502  0.60842383905E+03  0.10501365350E+04 -0.65706250406E+03  0.13801077692E+04  0.10100000352E+00 0. -1.
</event>
<event>
 5   0  0.1105862E-05  0.2764044E+04  0.7818609E-02  0.8314519E-01
       -1   -1    0    0    0  501  0.00000000000E+00  0.00000000000E+00  0.11598464918E+04  0.11598464918E+04  0.50400001928E-02 0. -1.
        1   -1    0    0  501    0  0.00000000000E+00  0.00000000000E+00 -0.16467567079E+04  0.16467567079E+04  0.50400001928E-02 0.  1.
    10030    2    1    2    0    0  0.00000000000E+00  0.00000000000E+00 -0.48691021611E+03  0.28066031997E+04  0.27640441317E+04 0.  0.
        3    1    3    3  502    0  0.92283031514E+02 -0.67428213597E+03  0.97790057567E+03  0.11914118108E+04  0.10100000352E+00 0. -1.
       -3    1    3    3    0  502 -0.92283031514E+02  0.67428213597E+03 -0.14648107918E+04  0.16151913889E+04  0.10100000352E+00 0.  1.
</event>
<event>
 5   0  0.1105862E-05  0.2851186E+04  0.7818609E-02  0.8287551E-01
       -1   -1    0    0    0  501  0.00000000000E+00  0.00000000000E+00  0.16740024891E+04  0.16740024891E+04  0.50400001928E-02 0. -1.
        1   -1    0    0  501    0  0.00000000000E+00  0.00000000000E+00 -0.12140454500E+04  0.12140454500E+04  0.50400001928E-02 0.  1.
    10030    2    1    2    0    0  0.00000000000E+00  0.00000000000E+00  0.45995703911E+03  0.28880479391E+04  0.28511857920E+04 0.  0.
        3    1    3    3  502    0 -0.35960830408E+01  0.13459762748E+04 -0.24582853409E+03  0.13682458633E+04  0.10100000352E+00 0.  1.
       -3    1    3    3    0  502  0.35960830408E+01 -0.13459762748E+04  0.70578557320E+03  0.15198020758E+04  0.10100000352E+00 0. -1.
</event>
<event>
 5   0  0.1105862E-05  0.2600193E+04  0.7818609E-02  0.8368136E-01
        1   -1    0    0  501    0  0.00000000000E+00  0.00000000000E+00  0.13103494079E+04  0.13103494079E+04  0.50400001928E-02 0. -1.
       -1   -1    0    0    0  501  0.00000000000E+00  0.00000000000E+00 -0.12899239106E+04  0.12899239106E+04  0.50400001928E-02 0.  1.
    10030    2    1    2    0    0  0.00000000000E+00  0.00000000000E+00  0.20425497303E+02  0.26002733185E+04  0.26001930948E+04 0.  0.
        3    1    3    3  502    0  0.79237882511E+02 -0.12683869584E+04  0.28438704055E+03  0.13022903353E+04  0.10100000352E+00 0.  1.
       -3    1    3    3    0  502 -0.79237882511E+02  0.12683869584E+04 -0.26396154325E+03  0.12979829833E+04  0.10100000352E+00 0. -1.
</event>
<event>
 5   0  0.8958000E-06  0.2294235E+04  0.7818609E-02  0.8480198E-01
        4   -1    0    0  501    0  0.00000000000E+00  0.00000000000E+00  0.83856807813E+03  0.83856903983E+03  0.12699999809E+01 0.  1.
       -4   -1    0    0    0  501  0.00000000000E+00  0.00000000000E+00 -0.15691951555E+04  0.15691956694E+04  0.12699999809E+01 0. -1.
    10030    2    1    2    0    0  0.00000000000E+00  0.00000000000E+00 -0.73062707734E+03  0.24077647092E+04  0.22942351599E+04 0.  0.
        4    1    3    3  502    0 -0.81679094620E+03 -0.24885967752E+03  0.43862088656E+03  0.95993149960E+03  0.12699999809E+01 0.  1.
       -4    1    3    3    0  502  0.81679094620E+03  0.24885967752E+03 -0.11692479639E+04  0.14478332096E+04  0.12699999809E+01 0. -1.
</event>
<event>
 5   0  0.1067434E-05  0.2714418E+04  0.7818609E-02  0.8330342E-01
        1   -1    0    0  501    0  0.00000000000E+00  0.00000000000E+00  0.17800940426E+04  0.17800940426E+04  0.50400001928E-02 0. -1.
       -1   -1    0    0    0  501  0.00000000000E+00  0.00000000000E+00 -0.10347858964E+04  0.10347858964E+04  0.50400001928E-02 0.  1.
    10030    2    1    2    0    0  0.00000000000E+00  0.00000000000E+00  0.74530814624E+03  0.28148799390E+04  0.27144179557E+04 0.  0.
        4    1    3    3  502    0 -0.90475226597E+03  0.30716548052E+03  0.13722199427E+04  0.16720994226E+04  0.12699999809E+01 0. -1.
       -4    1    3    3    0  502  0.90475226597E+03 -0.30716548052E+03 -0.62691179642E+03  0.11427805164E+04  0.12699999809E+01 0.  1.
</event>
<event>
 5   0  0.1067434E-05  0.2785510E+04  0.7818609E-02  0.8307781E-01
        1   -1    0    0  501    0  0.00000000000E+00  0.00000000000E+00  0.13940236818E+04  0.13940236819E+04  0.50400001928E-02 0.  1.
       -1   -1    0    0    0  501  0.00000000000E+00  0.00000000000E+00 -0.13914879522E+04  0.13914879522E+04  0.50400001928E-02 0. -1.
    10030    2    1    2    0    0  0.00000000000E+00  0.00000000000E+00  0.25357296582E+01  0.27855116341E+04  0.27855104799E+04 0.  0.
        4    1    3    3  502    0 -0.19520992328E+03 -0.11776123095E+04  0.71882504476E+03  0.13934090295E+04  0.12699999809E+01 0.  1.
       -4    1    3    3    0  502  0.19520992328E+03  0.11776123095E+04 -0.71628931510E+03  0.13921026045E+04  0.12699999809E+01 0. -1.
</event>
<event>
 5   0  0.2651061E-05  0.2839296E+04  0.7818609E-02  0.8291171E-01
        2   -1    0    0  501    0  0.00000000000E+00  0.00000000000E+00  0.19433303854E+04  0.19433303854E+04  0.25500000920E-02 0. -1.
       -2   -1    0    0    0  501  0.00000000000E+00  0.00000000000E+00 -0.10370861428E+04  0.10370861428E+04  0.25500000920E-02 0.  1.
    10030    2    1    2    0    0  0.00000000000E+00  0.00000000000E+00  0.90624424262E+03  0.29804165282E+04  0.28392964012E+04 0.  0.
        3    1    3    3  502    0 -0.15177510461E+03 -0.98882026192E+03  0.15104595830E+04  0.18117089597E+04  0.10100000352E+00 0. -1.
       -3    1    3    3    0  502  0.15177510461E+03  0.98882026192E+03 -0.60421534038E+03  0.11687075684E+04  0.10100000352E+00 0.  1.
</event>
<event>
 5   0  0.2624815E-05  0.2829253E+04  0.7818609E-02  0.8294244E-01
       -2   -1    0    0    0  501  0.00000000000E+00  0.00000000000E+00  0.12050835345E+04  0.12050835345E+04  0.25500000920E-02 0.  1.
        2   -1    0    0  501    0  0.00000000000E+00  0.00000000000E+00 -0.16606051423E+04  0.16606051423E+04  0.25500000920E-02 0. -1.
    10030    2    1    2    0    0  0.00000000000E+00  0.00000000000E+00 -0.45552160777E+03  0.28656886768E+04  0.28292528443E+04 0.  0.
        4    1    3    3  502    0 -0.92526172302E+03 -0.72953877613E+03 -0.10206770803E+04  0.15588840230E+04  0.12699999809E+01 0. -1.
       -4    1    3    3    0  502  0.92526172302E+03  0.72953877613E+03  0.56515547258E+03  0.13068046537E+04  0.12699999809E+01 0.  1.
</event>
<event>
 5   0  0.2624815E-05  0.2911071E+04  0.7818609E-02  0.8269591E-01
        2   -1    0    0  501    0  0.00000000000E+00  0.00000000000E+00  0.16585047323E+04  0.16585047323E+04  0.25500000920E-02 0.  1.
       -2   -1    0    0    0  501  0.00000000000E+00  0.00000000000E+00 -0.12774059981E+04  0.12774059981E+04  0.25500000920E-02 0. -1.
    10030    2    1    2    0    0  0.00000000000E+00  0.00000000000E+00  0.38109873417E+03  0.29359107305E+04  0.29110712070E+04 0.  0.
        4    1    3    3  502    0 -0.91349503369E+03  0.44258777250E+03 -0.86153217247E+03  0.13313889026E+04  0.12699999809E+01 0. -1.
       -4    1    3    3    0  502  0.91349503369E+03 -0.44258777250E+03  0.12426309066E+04  0.16045218278E+04  0.12699999809E+01 0.  1.
</event>
<event>
 5   0  0.1017456E-05  0.2774712E+04  0.7818609E-02  0.8311163E-01
        1   -1    0    0  501    0  0.00000000000E+00  0.00000000000E+00  0.10457310043E+04  0.10457310043E+04  0.50400001928E-02 0.  1.
       -1   -1    0    0    0  501  0.00000000000E+00  0.00000000000E+00 -0.18405847318E+04  0.18405847318E+04  0.50400001928E-02 0. -1.
    10030    2    1    2    0    0  0.00000000000E+00  0.00000000000E+00 -0.79485372755E+03  0.28863157361E+04  0.27747118914E+04 0.  0.
        5    1    3    3  502    0  0.95498077686E+03 -0.66205073393E+02  0.64713556263E+03  0.11554989928E+04  0.46999998093E+01 0.  1.
       -5    1    3    3    0  502 -0.95498077686E+03  0.66205073393E+02 -0.14419892902E+04  0.17308167433E+04  0.46999998093E+01 0. -1.
</event>
<event>
 5   0  0.1105862E-05  0.2761494E+04  0.7818609E-02  0.8315323E-01
        1   -1    0    0  501    0  0.00000000000E+00  0.00000000000E+00  0.14820187823E+04  0.14820187823E+04  0.50400001928E-02 0. -1.
       -1   -1    0    0    0  501  0.00000000000E+00  0.00000000000E+00 -0.12863959452E+04  0.12863959452E+04  0.50400001928E-02 0.  1.
    10030    2    1    2    0    0  0.00000000000E+00  0.00000000000E+00  0.19562283713E+03  0.27684147275E+04  0.27614944884E+04 0.  0.
        3    1    3    3  502    0 -0.98725228601E+03 -0.29392224302E+03 -0.82395212072E+03  0.13190733371E+04  0.10100000352E+00 0.  1.
       -3    1    3    3    0  502  0.98725228601E+03  0.29392224302E+03  0.10195749579E+04  0.14493413904E+04  0.10100000352E+00 0. -1.
</event>
<event>
 5   0  0.2624815E-05  0.2833729E+04  0.7818609E-02  0.8292873E-01
        2   -1    0    0  501    0  0.00000000000E+00  0.00000000000E+00  0.74512556356E+03  0.74512556356E+03  0.25500000920E-02 0. -1.
       -2   -1    0    0    0  501  0.00000000000E+00  0.00000000000E+00 -0.26941833540E+04  0.26941833540E+04  0.25500000920E-02 0.  1.
    10030    2    1    2    0    0  0.00000000000E+00  0.00000000000E+00 -0.19490577905E+04  0.34393089176E+04  0.28337289144E+04 0.  0.
        4    1    3    3  502    0 -0.30879263654E+03 -0.31831901321E+03 -0.26077723710E+04  0.26452142141E+04  0.12699999809E+01 0.  1.
       -4    1    3    3    0  502  0.30879263654E+03  0.31831901321E+03  0.65871458056E+03  0.79409470348E+03  0.12699999809E+01 0. -1.
</event>
<event>
 5   0  0.2518686E-05  0.2820940E+04  0.7818609E-02  0.8296797E-01
       -2   -1    0    0    0  501  0.00000000000E+00  0.00000000000E+00  0.13011098581E+04  0.13011098581E+04  0.25500000920E-02 0. -1.
        2   -1    0    0  501    0  0.00000000000E+00  0.00000000000E+00 -0.15290216039E+04  0.15290216039E+04  0.25500000920E-02 0.  1.
    10030    2    1    2    0    0  0.00000000000E+00  0.00000000000E+00 -0.22791174586E+03  0.28301314620E+04  0.28209396180E+04 0.  0.
        5    1    3    3  502    0  0.10254274428E+04 -0.43987737253E+03 -0.97955888225E+03  0.14847731265E+04  0.46999998093E+01 0.  1.
       -5    1    3    3    0  502 -0.10254274428E+04  0.43987737253E+03  0.75164713639E+03  0.13453583355E+04  0.46999998093E+01 0. -1.
</event>
<event>
 5   0  0.1017456E-05  0.2790229E+04  0.7818609E-02  0.8306308E-01
        1   -1    0    0  501    0  0.00000000000E+00  0.00000000000E+00  0.20841287965E+04  0.20841287965E+04  0.50400001928E-02 0.  1.
       -1   -1    0    0    0  501  0.00000000000E+00  0.00000000000E+00 -0.93388851384E+03  0.93388851385E+03  0.50400001928E-02 0. -1.
    10030    2    1    2    0    0  0.00000000000E+00  0.00000000000E+00  0.11502402826E+04  0.30180173103E+04  0.27902286246E+04 0.  0.
        5    1    3    3  502    0  0.93601043115E+03 -0.91193863596E+03  0.46804192296E+02  0.13076545130E+04  0.46999998093E+01 0. -1.
       -5    1    3    3    0  502 -0.93601043115E+03  0.91193863596E+03  0.11034360903E+04  0.17103627973E+04  0.46999998093E+01 0.  1.
</event>
<event>
 5   0  0.1105862E-05  0.2682754E+04  0.7818609E-02  0.8340622E-01
       -1   -1    0    0    0  501  0.00000000000E+00  0.00000000000E+00  0.87797993326E+03  0.87797993328E+03  0.50400001928E-02 0.  1.
        1   -1    0    0  501    0  0.00000000000E+00  0.00000000000E+00 -0.20493550033E+04  0.20493550033E+04  0.50400001928E-02 0. -1.
    10030    2    1    2    0    0  0.00000000000E+00  0.00000000000E+00 -0.11713750700E+04  0.29273349365E+04  0.26827542333E+04 0.  0.
        3    1    3    3  502    0 -0.74813157362E+03  0.76061895183E+03 -0.14728616293E+04  0.18186707868E+04  0.10100000352E+00 0. -1.
       -3    1    3    3    0  502  0.74813157362E+03 -0.76061895183E+03  0.30148655932E+03  0.11086641498E+04  0.10100000352E+00 0.  1.
</event>
<event>
 5   0  0.2588048E-05  0.2956831E+04  0.7818609E-02  0.8256167E-01
       -2   -1    0    0    0  501  0.00000000000E+00  0.00000000000E+00  0.12248396300E+04  0.12248396300E+04  0.25500000920E-02 0. -1.
        2   -1    0    0  501    0  0.00000000000E+00  0.00000000000E+00 -0.17844883932E+04  0.17844883932E+04  0.25500000920E-02 0.  1.
    10030    2    1    2    0    0  0.00000000000E+00  0.00000000000E+00 -0.55964876323E+03  0.30093280232E+04  0.29568308056E+04 0.  0.
        2    1    3    3  502    0  0.51977284157E+02  0.81380617121E+02 -0.17812754474E+04  0.17838908774E+04  0.25500000920E-02 0.  1.
       -2    1    3    3    0  502 -0.51977284157E+02 -0.81380617121E+02  0.12216266841E+04  0.12254371458E+04  0.25500000920E-02 0. -1.
</event>
<event>
 5   0  0.2518686E-05  0.2793863E+04  0.7818609E-02  0.8305176E-01
       -2   -1    0    0    0  501  0.00000000000E+00  0.00000000000E+00  0.18120871636E+04  0.18120871636E+04  0.25500000920E-02 0.  1.
        2   -1    0    0  501    0  0.00000000000E+00  0.00000000000E+00 -0.10768896607E+04  0.10768896607E+04  0.25500000920E-02 0. -1.
    10030    2    1    2    0    0  0.00000000000E+00  0.00000000000E+00  0.73519750292E+03  0.28889768243E+04  0.27938632255E+04 0.  0.
        5    1    3    3  502    0 -0.37505626584E+03 -0.88058729611E+03 -0.68453487733E+03  0.11767375565E+04  0.46999998093E+01 0. -1.
       -5    1    3    3    0  502  0.37505626584E+03  0.88058729611E+03  0.14197323802E+04  0.17122392678E+04  0.46999998093E+01 0.  1.
</event>
<event>
 5   0  0.2697964E-05  0.1970854E+04  0.7818609E-02  0.8620370E-01
       -2   -1    0    0    0  501  0.00000000000E+00  0.00000000000E+00  0.63811258469E+03  0.63811258470E+03  0.25500000920E-02 0. -1.
        2   -1    0    0  501    0  0.00000000000E+00  0.00000000000E+00 -0.15217789304E+04  0.15217789304E+04  0.25500000920E-02 0.  1.
    10030    2    1    2    0    0  0.00000000000E+00  0.00000000000E+00 -0.88366634568E+03  0.21598915151E+04  0.19708539130E+04 0.  0.
        1    1    3    3  502    0  0.65530813208E+03 -0.19018761970E+03 -0.12209876452E+04  0.13987175942E+04  0.50400001928E-02 0.  1.
       -1    1    3    3    0  502 -0.65530813208E+03  0.19018761970E+03  0.33732129951E+03  0.76117392085E+03  0.50400001928E-02 0. -1.
</event>
<event>
 5   0  0.2624815E-05  0.2894838E+04  0.7818609E-02  0.8274415E-01
        2   -1    0    0  501    0  0.00000000000E+00  0.00000000000E+00  0.13650340761E+04  0.13650340761E+04  0.25500000920E-02 0.  1.
       -2   -1    0    0    0  501  0.00000000000E+00  0.00000000000E+00 -0.15347756829E+04  0.15347756829E+04  0.25500000920E-02 0. -1.
    10030    2    1    2    0    0  0.00000000000E+00  0.00000000000E+00 -0.16974160675E+03  0.28998097590E+04  0.28948375473E+04 0.  0.
        4    1    3    3  502    0  0.12410760154E+04 -0.10793281502E+03 -0.82309001198E+03  0.14931168572E+04  0.12699999809E+01 0. -1.
       -4    1    3    3    0  502 -0.12410760154E+04  0.10793281502E+03  0.65334840523E+03  0.14066929018E+04  0.12699999809E+01 0.  1.
</event>
<event>
 5   0  0.2518686E-05  0.2906834E+04  0.7818609E-02  0.8270847E-01
       -2   -1    0    0    0  501  0.00000000000E+00  0.00000000000E+00  0.11821031232E+04  0.11821031232E+04  0.25500000920E-02 0. -1.
        2   -1    0    0  501    0  0.00000000000E+00  0.00000000000E+00 -0.17870024040E+04  0.17870024040E+04  0.25500000920E-02 0.  1.
    10030    2    1    2    0    0  0.00000000000E+00  0.00000000000E+00 -0.60489928088E+03  0.29691055272E+04  0.29068341012E+04 0.  0.
        5    1    3    3  502    0 -0.21615201232E+03 -0.24842479057E+02 -0.17702660697E+04  0.17835926914E+04  0.46999998093E+01 0.  1.
       -5    1    3    3    0  502  0.21615201232E+03  0.24842479057E+02  0.11653667889E+04  0.11855128358E+04  0.46999998093E+01 0. -1.
</event>
<event>
 5   0  0.2651061E-05  0.2765767E+04  0.7818609E-02  0.8313976E-01
        2   -1    0    0  501    0  0.00000000000E+00  0.00000000000E+00  0.12816480332E+04  0.12816480332E+04  0.25500000920E-02 0. -1.
       -2   -1    0    0    0  501  0.00000000000E+00  0.00000000000E+00 -0.14921157067E+04  0.14921157067E+04  0.25500000920E-02 0.  1.
    10030    2    1    2    0    0  0.00000000000E+00  0.00000000000E+00 -0.21046767357E+03  0.27737637399E+04  0.27657672793E+04 0.  0.
        3    1    3    3  502    0  0.50370426001E+03 -0.79742204718E+03 -0.11194773487E+04  0.14638406496E+04  0.10100000352E+00 0.  1.
       -3    1    3    3    0  502 -0.50370426001E+03  0.79742204718E+03  0.90900967513E+03  0.13099230903E+04  0.10100000352E+00 0. -1.
</event>
<event>
 5   0  0.1067434E-05  0.2818469E+04  0.7818609E-02  0.8297557E-01
        1   -1    0    0  501    0  0.00000000000E+00  0.00000000000E+00  0.96842693245E+03  0.96842693246E+03  0.50400001928E-02 0.  1.
       -1   -1    0    0    0  501  0.00000000000E+00  0.00000000000E+00 -0.20506880356E+04  0.20506880356E+04  0.50400001928E-02 0. -1.
    10030    2    1    2    0    0  0.00000000000E+00  0.00000000000E+00 -0.10822611032E+04  0.30191149681E+04  0.28184687500E+04 0.  0.
        4    1    3    3  502    0  0.13222640514E+04 -0.11825241223E+02 -0.10630735955E+04  0.16966582273E+04  0.12699999809E+01 0. -1.
       -4    1    3    3    0  502 -0.13222640514E+04  0.11825241223E+02 -0.19187507609E+02  0.13224567408E+04  0.12699999809E+01 0.  1.
</event>
<event>
 5   0  0.2518686E-05  0.2798899E+04  0.7818609E-02  0.8303610E-01
        2   -1    0    0  501    0  0.00000000000E+00  0.00000000000E+00  0.12234487185E+04  0.12234487185E+04  0.25500000920E-02 0. -1.
       -2   -1    0    0    0  501  0.00000000000E+00  0.00000000000E+00 -0.16007691158E+04  0.16007691158E+04  0.25500000920E-02 0.  1.
    10030    2    1    2    0    0  0.00000000000E+00  0.00000000000E+00 -0.37732039727E+03  0.28242178344E+04  0.27988990146E+04 0.  0.
        5    1    3    3  502    0 -0.17562941815E+02  0.78297980101E+03 -0.13589234509E+04  0.15684581158E+04  0.46999998093E+01 0.  1.
       -5    1    3    3    0  502  0.17562941815E+02 -0.78297980101E+03  0.98160305364E+03  0.12557597185E+04  0.46999998093E+01 0. -1.
</event>
<event>
 5   0  0.1017456E-05  0.1510231E+04  0.7818609E-02  0.8877678E-01
       -1   -1    0    0    0  501  0.00000000000E+00  0.00000000000E+00  0.38190578803E+03  0.38190578806E+03  0.50400001928E-02 0.  1.
        1   -1    0    0  501    0  0.00000000000E+00  0.00000000000E+00 -0.14930375535E+04  0.14930375536E+04  0.50400001928E-02 0. -1.
    10030    2    1    2    0    0  0.00000000000E+00  0.00000000000E+00 -0.11111317655E+04  0.18749433416E+04  0.15102313511E+04 0.  0.
        5    1    3    3  502    0  0.63316247914E+03 -0.39680567033E+03 -0.42054445885E+03  0.85745506988E+03  0.46999998093E+01 0.  1.
       -5    1    3    3    0  502 -0.63316247914E+03  0.39680567033E+03 -0.69058730667E+03  0.10174882717E+04  0.46999998093E+01 0. -1.
</event>
<event>
 5   0  0.1017456E-05  0.2822428E+04  0.7818609E-02  0.8296339E-01
        1   -1    0    0  501    0  0.00000000000E+00  0.00000000000E+00  0.93816227836E+03  0.93816227837E+03  0.50400001928E-02 0.  1.
       -1   -1    0    0    0  501  0.00000000000E+00  0.00000000000E+00 -0.21227931341E+04  0.21227931341E+04  0.50400001928E-02 0. -1.
    10030    2    1    2    0    0  0.00000000000E+00  0.00000000000E+00 -0.11846308558E+04  0.30609554125E+04  0.28224276382E+04 0.  0.
        5    1    3    3  502    0 -0.17580423301E+03  0.36217925222E+03  0.87455268009E+03  0.96278004723E+03  0.46999998093E+01 0.  1.
       -5    1    3    3    0  502  0.17580423301E+03 -0.36217925222E+03 -0.20591835359E+04  0.20981753653E+04  0.46999998093E+01 0. -1.
</event>
<event>
 5   0  0.1017456E-05  0.2749306E+04  0.7818609E-02  0.8319182E-01
       -1   -1    0    0    0  501  0.00000000000E+00  0.00000000000E+00  0.30731349230E+04  0.30731349230E+04  0.50400001928E-02 0.  1.
        1   -1    0    0  501    0  0.00000000000E+00  0.00000000000E+00 -0.61490003882E+03  0.61490003884E+03  0.50400001928E-02 0. -1.
    10030    2    1    2    0    0  0.00000000000E+00  0.00000000000E+00  0.24582348842E+04  0.36880349618E+04  0.27493059368E+04 0.  0.
        5    1    3    3  502    0 -0.95772901513E+03  0.46779710348E+03  0.23936018359E+04  0.26201967169E+04  0.46999998093E+01 0.  1.
       -5    1    3    3    0  502  0.95772901513E+03 -0.46779710348E+03  0.64633048285E+02  0.10678382449E+04  0.46999998093E+01 0. -1.
</event>
<event>
 5   0  0.1078103E-05  0.2885507E+04  0.7818609E-02  0.8277203E-01
       -1   -1    0    0    0  501  0.00000000000E+00  0.00000000000E+00  0.12038179914E+04  0.12038179914E+04  0.50400001928E-02 0.  1.
        1   -1    0    0  501    0  0.00000000000E+00  0.00000000000E+00 -0.17291131324E+04  0.17291131325E+04  0.50400001928E-02 0. -1.
    10030    2    1    2    0    0  0.00000000000E+00  0.00000000000E+00 -0.52529514102E+03  0.29329311239E+04  0.28855068865E+04 0.  0.
        1    1    3    3  502    0  0.10511118518E+04  0.63317166840E+03  0.50863532109E+03  0.13283269088E+04  0.50400001928E-02 0.  1.
       -1    1    3    3    0  502 -0.10511118518E+04 -0.63317166840E+03 -0.10339304621E+04  0.16046042151E+04  0.50400001928E-02 0. -1.
</event>
<event>
 5   0  0.2651061E-05  0.2760048E+04  0.7818609E-02  0.8315780E-01
        2   -1    0    0  501    0  0.00000000000E+00  0.00000000000E+00  0.14632189547E+04  0.14632189547E+04  0.25500000920E-02 0.  1.
       -2   -1    0    0    0  501  0.00000000000E+00  0.00000000000E+00 -0.13015591297E+04  0.13015591297E+04  0.25500000920E-02 0. -1.
    10030    2    1    2    0    0  0.00000000000E+00  0.00000000000E+00  0.16165982492E+03  0.27647780844E+04  0.27600478179E+04 0.  0.
        3    1    3    3  502    0 -0.24187436129E+03  0.13508726140E+04  0.22635777692E+03  0.13908982275E+04  0.10100000352E+00 0.  1.
       -3    1    3    3    0  502  0.24187436129E+03 -0.13508726140E+04 -0.64697952001E+02  0.13738798569E+04  0.10100000352E+00 0. -1.
</event>
<event>
 5   0  0.2518686E-05  0.2812236E+04  0.7818609E-02  0.8299480E-01
        2   -1    0    0  501    0  0.00000000000E+00  0.00000000000E+00  0.27948830794E+04  0.27948830794E+04  0.25500000920E-02 0.  1.
       -2   -1    0    0    0  501  0.00000000000E+00  0.00000000000E+00 -0.70742430720E+03  0.70742430720E+03  0.25500000920E-02 0. -1.
    10030    2    1    2    0    0  0.00000000000E+00  0.00000000000E+00  0.20874587722E+04  0.35023073866E+04  0.28122362818E+04 0.  0.
        5    1    3    3  502    0  0.11587508815E+04  0.29071312094E+03  0.19672690076E+04  0.23016053446E+04  0.46999998093E+01 0. -1.
       -5    1    3    3    0  502 -0.11587508815E+04 -0.29071312094E+03  0.12018976452E+03  0.12007020419E+04  0.46999998093E+01 0.  1.
</event>
<event>
 5   0  0.1067434E-05  0.2761049E+04  0.7818609E-02  0.8315464E-01
        1   -1    0    0  501    0  0.00000000000E+00  0.00000000000E+00  0.12036350902E+04  0.12036350902E+04  0.50400001928E-02 0.  1.
       -1   -1    0    0    0  501  0.00000000000E+00  0.00000000000E+00 -0.15834098440E+04  0.15834098440E+04  0.50400001928E-02 0. -1.
    10030    2    1    2    0    0  0.00000000000E+00  0.00000000000E+00 -0.37977475382E+03  0.27870449343E+04  0.27610488228E+04 0.  0.
        4    1    3    3  502    0  0.19329110902E+03  0.13628961242E+04 -0.29574968095E+03  0.14079477209E+04  0.12699999809E+01 0. -1.
       -4    1    3    3    0  502 -0.19329110902E+03 -0.13628961242E+04 -0.84025072873E+02  0.13790972134E+04  0.12699999809E+01 0.  1.
</event>
<event>
 5   0  0.2588048E-05  0.2814522E+04  0.7818609E-02  0.8298774E-01
        2   -1    0    0  501    0  0.00000000000E+00  0.00000000000E+00  0.19004204325E+04  0.19004204325E+04  0.25500000920E-02 0. -1.
       -2   -1    0    0    0  501  0.00000000000E+00  0.00000000000E+00 -0.10420763324E+04  0.10420763324E+04  0.25500000920E-02 0.  1.
    10030    2    1    2    0    0  0.00000000000E+00  0.00000000000E+00  0.85834410013E+03  0.29424967649E+04  0.28145217386E+04 0.  0.
        2    1    3    3  502    0  0.60316640360E+03  0.11056169723E+04 -0.22721678934E+03  0.12797757887E+04  0.25500000920E-02 0.  1.
       -2    1    3    3    0  502 -0.60316640360E+03 -0.11056169723E+04  0.10855608895E+04  0.16627209762E+04  0.25500000920E-02 0. -1.
</event>
<event>
 5   0  0.2588048E-05  0.1842280E+04  0.7818609E-02  0.8684133E-01
       -2   -1    0    0    0  501  0.00000000000E+00  0.00000000000E+00  0.40499895619E+03  0.40499895619E+03  0.25500000920E-02 0. -1.
        2   -1    0    0  501    0  0.00000000000E+00  0.00000000000E+00 -0.20950642228E+04  0.20950642228E+04  0.25500000920E-02 0.  1.
    10030    2    1    2    0    0  0.00000000000E+00  0.00000000000E+00 -0.16900652666E+04  0.25000631790E+04  0.18422799173E+04 0.  0.
        2    1    3    3  502    0 -0.90185583826E+03  0.18694024345E+03 -0.86461441346E+03  0.12632690496E+04  0.25500000920E-02 0.  1.
       -2    1    3    3    0  502  0.90185583826E+03 -0.18694024345E+03 -0.82545085319E+03  0.12367941295E+04  0.25500000920E-02 0. -1.
</event>
<event>
 5   0  0.1078103E-05  0.2808497E+04  0.7818609E-02  0.8300635E-01
        1   -1    0    0  501    0  0.00000000000E+00  0.00000000000E+00  0.21168619275E+04  0.21168619275E+04  0.50400001928E-02 0. -1.
       -1   -1    0    0    0  501  0.00000000000E+00  0.00000000000E+00 -0.93152687898E+03  0.93152687899E+03  0.50400001928E-02 0.  1.
    10030    2    1    2    0    0  0.00000000000E+00  0.00000000000E+00  0.11853350485E+04  0.30483888065E+04  0.28084969536E+04 0.  0.
        1    1    3    3  502    0  0.18565699484E+03 -0.51470280533E+03  0.19963952477E+04  0.20700196817E+04  0.50400001928E-02 0. -1.
       -1    1    3    3    0  502 -0.18565699484E+03  0.51470280533E+03 -0.81106019920E+03  0.97836912477E+03  0.50400001928E-02 0.  1.
</event>
<event>
 5   0  0.2518686E-05  0.2889858E+04  0.7818609E-02  0.8275901E-01
        2   -1    0    0  501    0  0.00000000000E+00  0.00000000000E+00  0.16185900423E+04  0.16185900423E+04  0.25500000920E-02 0.  1.
       -2   -1    0    0    0  501  0.00000000000E+00  0.00000000000E+00 -0.12899004390E+04  0.12899004390E+04  0.25500000920E-02 0. -1.
    10030    2    1    2    0    0  0.00000000000E+00  0.00000000000E+00  0.32868960334E+03  0.29084904813E+04  0.28898581322E+04 0.  0.
        5    1    3    3  502    0  0.10304440216E+04  0.56960312476E+03  0.10073221265E+04  0.15495104252E+04  0.46999998093E+01 0.  1.
       -5    1    3    3    0  502 -0.10304440216E+04 -0.56960312476E+03 -0.67863252313E+03  0.13589800561E+04  0.46999998093E+01 0. -1.
</event>
<event>
 5   0  0.1105862E-05  0.2693334E+04  0.7818609E-02  0.8337171E-01
       -1   -1    0    0    0  501  0.00000000000E+00  0.00000000000E+00  0.12635393972E+04  0.12635393972E+04  0.50400001928E-02 0.  1.
        1   -1    0    0  501    0  0.00000000000E+00  0.00000000000E+00 -0.14352634067E+04  0.14352634067E+04  0.50400001928E-02 0. -1.
    10030    2    1    2    0    0  0.00000000000E+00  0.00000000000E+00 -0.17172400948E+03  0.26988028039E+04  0.26933338892E+04 0.  0.
        3    1    3    3  502    0 -0.10732088063E+04 -0.44197113450E+03 -0.77018080219E+03  0.13929444009E+04  0.10100000352E+00 0. -1.
       -3    1    3    3    0  502  0.10732088063E+04  0.44197113450E+03  0.59845679272E+03  0.13058584030E+04  0.10100000352E+00 0.  1.
</event>
<event>
 5   0  0.2624815E-05  0.2756581E+04  0.7818609E-02  0.8316876E-01
        2   -1    0    0  501    0  0.00000000000E+00  0.00000000000E+00  0.14964934000E+04  0.14964934000E+04  0.25500000920E-02 0.  1.
       -2   -1    0    0    0  501  0.00000000000E+00  0.00000000000E+00 -0.12694241061E+04  0.12694241061E+04  0.25500000920E-02 0. -1.
    10030    2    1    2    0    0  0.00000000000E+00  0.00000000000E+00  0.22706929391E+03  0.27659175060E+04  0.27565810683E+04 0.  0.
        4    1    3    3  502    0  0.33876942769E+03  0.98276238091E+03 -0.79457022403E+03  0.13084074581E+04  0.12699999809E+01 0. -1.
       -4    1    3    3    0  502 -0.33876942769E+03 -0.98276238091E+03  0.10216395179E+04  0.14575100480E+04  0.12699999809E+01 0.  1.
</event>
<event>
 5   0  0.2518686E-05  0.2719933E+04  0.7818609E-02  0.8328566E-01
       -2   -1    0    0    0  501  0.00000000000E+00  0.00000000000E+00  0.12068403659E+04  0.12068403659E+04  0.25500000920E-02 0.  1.
        2   -1    0    0  501    0  0.00000000000E+00  0.00000000000E+00 -0.15325216136E+04  0.15325216136E+04  0.25500000920E-02 0. -1.
    10030    2    1    2    0    0  0.00000000000E+00  0.00000000000E+00 -0.32568124768E+03  0.27393619796E+04  0.27199330470E+04 0.  0.
        5    1    3    3  502    0 -0.96970017055E+03 -0.91733891798E+03  0.99128414366E+02  0.13385356341E+04  0.46999998093E+01 0.  1.
       -5    1    3    3    0  502  0.96970017055E+03  0.91733891798E+03 -0.42480966205E+03  0.14008263455E+04  0.46999998093E+01 0. -1.
</event>
<event>
 5   0  0.1078103E-05  0.2281177E+04  0.7818609E-02  0.8485380E-01
        1   -1    0    0  501    0  0.00000000000E+00  0.00000000000E+00  0.17905220936E+04  0.17905220936E+04  0.50400001928E-02 0.  1.
       -1   -1    0    0    0  501  0.00000000000E+00  0.00000000000E+00 -0.72657160401E+03  0.72657160402E+03  0.50400001928E-02 0. -1.
    10030    2    1    2    0    0  0.00000000000E+00  0.00000000000E+00  0.10639504896E+04  0.25170936976E+04  0.22811773360E+04 0.  0.
        1    1    3    3  502    0 -0.62030776844E+03 -0.20866441404E+03 -0.49877370635E+03  0.82285951137E+03  0.50400001928E-02 0. -1.
       -1    1    3    3    0  502  0.62030776844E+03  0.20866441404E+03  0.15627241959E+04  0.16942341863E+04  0.50400001928E-02 0.  1.
</event>
<event>
 5   0  0.1078103E-05  0.2817075E+04  0.7818609E-02  0.8297987E-01
       -1   -1    0    0    0  501  0.00000000000E+00  0.00000000000E+00  0.13593636630E+04  0.13593636631E+04  0.50400001928E-02 0.  1.
        1   -1    0    0  501    0  0.00000000000E+00  0.00000000000E+00 -0.14594904222E+04  0.14594904222E+04  0.50400001928E-02 0. -1.
    10030    2    1    2    0    0  0.00000000000E+00  0.00000000000E+00 -0.10012675916E+03  0.28188540853E+04  0.28170752539E+04 0.  0.
        1    1    3    3  502    0  0.58249220963E+03  0.48898984988E+03  0.11362526167E+04  0.13672886515E+04  0.50400001928E-02 0.  1.
       -1    1    3    3    0  502 -0.58249220963E+03 -0.48898984988E+03 -0.12363793758E+04  0.14515654338E+04  0.50400001928E-02 0. -1.
</event>
<event>
 5   0  0.1105862E-05  0.2730240E+04  0.7818609E-02  0.8325259E-01
       -1   -1    0    0    0  501  0.00000000000E+00  0.00000000000E+00  0.11113850135E+04  0.11113850135E+04  0.50400001928E-02 0. -1.
        1   -1    0    0  501    0  0.00000000000E+00  0.00000000000E+00 -0.16767842061E+04  0.16767842062E+04  0.50400001928E-02 0.  1.
    10030    2    1    2    0    0  0.00000000000E+00  0.00000000000E+00 -0.56539919263E+03  0.27881692197E+04  0.27302401635E+04 0.  0.
        3    1    3    3  502    0  0.11016105252E+04  0.74754109757E+03 -0.59108259157E+03  0.14566200884E+04  0.10100000352E+00 0.  1.
       -3    1    3    3    0  502 -0.11016105252E+04 -0.74754109757E+03  0.25683398948E+02  0.13315491313E+04  0.10100000352E+00 0. -1.
</event>
<event>
 5   0  0.2624815E-05  0.2722946E+04  0.7818609E-02  0.8327598E-01
       -2   -1    0    0    0  501  0.00000000000E+00  0.00000000000E+00  0.10219058551E+04  0.10219058551E+04  0.25500000920E-02 0. -1.
        2   -1    0    0  501    0  0.00000000000E+00  0.00000000000E+00 -0.18138743373E+04  0.18138743373E+04  0.25500000920E-02 0.  1.
    10030    2    1    2    0    0  0.00000000000E+00  0.00000000000E+00 -0.79196848220E+03  0.28357801923E+04  0.27229460557E+04 0.  0.
        4    1    3    3  502    0  0.46063423702E+03 -0.20866508948E+03 -0.17124388909E+04  0.17855457395E+04  0.12699999809E+01 0.  1.
       -4    1    3    3    0  502 -0.46063423702E+03  0.20866508948E+03  0.92047040866E+03  0.10502344529E+04  0.12699999809E+01 0. -1.
</event>
<event>
 5   0  0.2697964E-05  0.2808518E+04  0.7818609E-02  0.8300629E-01
       -2   -1    0    0    0  501  0.00000000000E+00  0.00000000000E+00  0.13991056868E+04  0.13991056868E+04  0.25500000920E-02 0. -1.
        2   -1    0    0  501    0  0.00000000000E+00  0.00000000000E+00 -0.14094313127E+04  0.14094313127E+04  0.25500000920E-02 0.  1.
    10030    2    1    2    0    0  0.00000000000E+00  0.00000000000E+00 -0.10325625947E+02  0.28085369995E+04  0.28085180183E+04 0.  0.
        1    1    3    3  502    0  0.19384499781E+03 -0.45456253732E+03 -0.13196070815E+04  0.14091010727E+04  0.50400001928E-02 0.  1.
       -1    1    3    3    0  502 -0.19384499781E+03  0.45456253732E+03  0.13092814555E+04  0.13994359268E+04  0.50400001928E-02 0. -1.
</event>
<event>
 5   0  0.2518686E-05  0.2797865E+04  0.7818609E-02  0.8303932E-01
        2   -1    0    0  501    0  0.00000000000E+00  0.00000000000E+00  0.16075561131E+04  0.16075561131E+04  0.25500000920E-02 0. -1.
       -2   -1    0    0    0  501  0.00000000000E+00  0.00000000000E+00 -0.12173829904E+04  0.12173829904E+04  0.25500000920E-02 0.  1.
    10030    2    1    2    0    0  0.00000000000E+00  0.00000000000E+00  0.39017312277E+03  0.28249391035E+04  0.27978645201E+04 0.  0.
        5    1    3    3  502    0 -0.85411370033E+03  0.93676515011E+03  0.79237697420E+03  0.14949657250E+04  0.46999998093E+01 0. -1.
       -5    1    3    3    0  502  0.85411370033E+03 -0.93676515011E+03 -0.40220385143E+03  0.13299733785E+04  0.46999998093E+01 0.  1.
</event>
<event>
 5   0  0.1075146E-05  0.2768300E+04  0.7818609E-02  0.8313178E-01
        1   -1    0    0  501    0  0.00000000000E+00  0.00000000000E+00  0.26730901263E+04  0.26730901263E+04  0.50400001928E-02 0. -1.
       -1   -1    0    0    0  501  0.00000000000E+00  0.00000000000E+00 -0.71672502343E+03  0.71672502345E+03  0.50400001928E-02 0.  1.
    10030    2    1    2    0    0  0.00000000000E+00  0.00000000000E+00  0.19563651029E+04  0.33898151498E+04  0.27682995383E+04 0.  0.
        2    1    3    3  502    0 -0.66960243841E+03  0.42339702379E+03  0.23680103975E+04  0.24970193647E+04  0.25500000920E-02 0. -1.
       -2    1    3    3    0  502  0.66960243841E+03 -0.42339702379E+03 -0.41164529457E+03  0.89279578506E+03  0.25500000920E-02 0.  1.
</event>
<event>
 5   0  0.1017456E-05  0.2668803E+04  0.7818609E-02  0.8345199E-01
        1   -1    0    0  501    0  0.00000000000E+00  0.00000000000E+00  0.17219128670E+04  0.17219128670E+04  0.50400001928E-02 0.  1.
       -1   -1    0    0    0  501  0.00000000000E+00  0.00000000000E+00 -0.10340984776E+04  0.10340984776E+04  0.50400001928E-02 0. -1.
    10030    2    1    2    0    0  0.00000000000E+00  0.00000000000E+00  0.68781438937E+03  0.27560113446E+04  0.26688030833E+04 0.  0.
        5    1    3    3  502    0 -0.27515474632E+03  0.10059980533E+04 -0.51567657637E+03  0.11634803991E+04  0.46999998093E+01 0.  1.
       -5    1    3    3    0  502  0.27515474632E+03 -0.10059980533E+04  0.12034909657E+04  0.15925309455E+04  0.46999998093E+01 0. -1.
</event>
<event>
 5   0  0.2624815E-05  0.2182208E+04  0.7818609E-02  0.8525870E-01
       -2   -1    0    0    0  501  0.00000000000E+00  0.00000000000E+00  0.49044947455E+03  0.49044947456E+03  0.25500000920E-02 0. -1.
        2   -1    0    0  501    0  0.00000000000E+00  0.00000000000E+00 -0.24273815967E+04  0.24273815967E+04  0.25500000920E-02 0.  1.
    10030    2    1    2    0    0  0.00000000000E+00  0.00000000000E+00 -0.19369321221E+04  0.29178310712E+04  0.21822080823E+04 0.  0.
        4    1    3    3  502    0  0.77154725912E+02 -0.78692827678E+03  0.36849716261E+02  0.79156078668E+03  0.12699999809E+01 0. -1.
       -4    1    3    3    0  502 -0.77154725912E+02  0.78692827678E+03 -0.19737818384E+04  0.21262702845E+04  0.12699999809E+01 0.  1.
</event>
<event>
 5   0  0.1105862E-05  0.2857119E+04  0.7818609E-02  0.8285751E-01
        1   -1    0    0  501    0  0.00000000000E+00  0.00000000000E+00  0.90642747233E+03  0.90642747235E+03  0.50400001928E-02 0. -1.
       -1   -1    0    0    0  501  0.00000000000E+00  0.00000000000E+00 -0.22514567434E+04  0.22514567434E+04  0.50400001928E-02 0.  1.
    10030    2    1    2    0    0  0.00000000000E+00  0.00000000000E+00 -0.13450292710E+04  0.31578842157E+04  0.28571190000E+04 0.  0.
        3    1    3    3  502    0 -0.14963663449E+03 -0.77819532842E+03  0.64122317497E+03  0.10193852372E+04  0.10100000352E+00 0. -1.
       -3    1    3    3    0  502  0.14963663449E+03  0.77819532842E+03 -0.19862524460E+04  0.21384989785E+04  0.10100000352E+00 0.  1.
</event>
<event>
 5   0  0.2624815E-05  0.2882221E+04  0.7818609E-02  0.8278187E-01
       -2   -1    0    0    0  501  0.00000000000E+00  0.00000000000E+00  0.14970770629E+04  0.14970770629E+04  0.25500000920E-02 0. -1.
        2   -1    0    0  501    0  0.00000000000E+00  0.00000000000E+00 -0.13872365456E+04  0.13872365456E+04  0.25500000920E-02 0.  1.
    10030    2    1    2    0    0  0.00000000000E+00  0.00000000000E+00  0.10984051733E+03  0.28843136085E+04  0.28822213747E+04 0.  0.
        4    1    3    3  502    0 -0.43622914902E+03 -0.40808712983E+03  0.13673475573E+04  0.14921367000E+04  0.12699999809E+01 0. -1.
       -4    1    3    3    0  502  0.43622914902E+03  0.40808712983E+03 -0.12575070400E+04  0.13921769085E+04  0.12699999809E+01 0.  1.
</event>
<event>
 5   0  0.1105862E-05  0.1539907E+04  0.7818609E-02  0.8858340E-01
       -1   -1    0    0    0  501  0.00000000000E+00  0.00000000000E+00  0.75895568180E+03  0.75895568182E+03  0.50400001928E-02 0. -1.
        1   -1    0    0  501    0  0.00000000000E+00  0.00000000000E+00 -0.78111069107E+03  0.78111069108E+03  0.50400001928E-02 0.  1.
    10030    2    1    2    0    0  0.00000000000E+00  0.00000000000E+00 -0.22155009266E+02  0.15400663729E+04  0.15399070064E+04 0.  0.
        3    1    3    3  502    0 -0.54768789972E+03  0.51948825018E+03  0.14059012486E+03  0.76785133391E+03  0.10100000352E+00 0. -1.
       -3    1    3    3    0  502  0.54768789972E+03 -0.51948825018E+03 -0.16274513413E+03  0.77221503900E+03  0.10100000352E+00 0.  1.
</event>
<event>
 5   0  0.1078103E-05  0.2419692E+04  0.7818609E-02  0.8432168E-01
        1   -1    0    0  501    0  0.00000000000E+00  0.00000000000E+00  0.28960176396E+04  0.28960176396E+04  0.50400001928E-02 0.  1.
       -1   -1    0    0    0  501  0.00000000000E+00  0.00000000000E+00 -0.50542768394E+03  0.50542768397E+03  0.50400001928E-02 0. -1.
    10030    2    1    2    0    0  0.00000000000E+00  0.00000000000E+00  0.23905899557E+04  0.34014453236E+04  0.24196921195E+04 0.  0.
        1    1    3    3  502    0 -0.25611156627E+03 -0.26029506625E+02  0.28570713618E+04  0.28686455752E+04  0.50400001928E-02 0.  1.
       -1    1    3    3    0  502  0.25611156627E+03  0.26029506625E+02 -0.46648140614E+03  0.53279974839E+03  0.50400001928E-02 0. -1.
</event>
<event>
 5   0  0.2624815E-05  0.2756320E+04  0.7818609E-02  0.8316959E-01
        2   -1    0    0  501    0  0.00000000000E+00  0.00000000000E+00  0.15478703482E+04  0.15478703483E+04  0.25500000920E-02 0.  1.
       -2   -1    0    0    0  501  0.00000000000E+00  0.00000000000E+00 -0.12270569732E+04  0.12270569732E+04  0.25500000920E-02 0. -1.
    10030    2    1    2    0    0  0.00000000000E+00  0.00000000000E+00  0.32081337508E+03  0.27749273214E+04  0.27563200862E+04 0.  0.
        4    1    3    3  502    0 -0.36018186066E+03 -0.84104363544E+03  0.11980137156E+04  0.15074229152E+04  0.12699999809E+01 0.  1.
       -4    1    3    3    0  502  0.36018186066E+03  0.84104363544E+03 -0.87720034055E+03  0.12675044062E+04  0.12699999809E+01 0. -1.
</event>
<event>
 5   0  0.2697964E-05  0.2750310E+04  0.7818609E-02  0.8318863E-01
        2   -1    0    0  501    0  0.00000000000E+00  0.00000000000E+00  0.16420555553E+04  0.16420555553E+04  0.25500000920E-02 0.  1.
       -2   -1    0    0    0  501  0.00000000000E+00  0.00000000000E+00 -0.11516365419E+04  0.11516365419E+04  0.25500000920E-02 0. -1.
    10030    2    1    2    0    0  0.00000000000E+00  0.00000000000E+00  0.49041901340E+03  0.27936920972E+04  0.27503099326E+04 0.  0.
        1    1    3    3  502    0  0.11095353051E+04 -0.31670328778E+02  0.10697896647E+04  0.15415970711E+04  0.50400001928E-02 0.  1.
       -1    1    3    3    0  502 -0.11095353051E+04  0.31670328778E+02 -0.57937065128E+03  0.12520950261E+04  0.50400001928E-02 0. -1.
</event>
<event>
 5   0  0.2588048E-05  0.2563040E+04  0.7818609E-02  0.8380865E-01
        2   -1    0    0  501    0  0.00000000000E+00  0.00000000000E+00  0.15324964105E+04  0.15324964105E+04  0.25500000920E-02 0. -1.
       -2   -1    0    0    0  501  0.00000000000E+00  0.00000000000E+00 -0.10716461562E+04  0.10716461562E+04  0.25500000920E-02 0.  1.
    10030    2    1    2    0    0  0.00000000000E+00  0.00000000000E+00  0.46085025434E+03  0.26041425667E+04  0.25630402944E+04 0.  0.
        2    1    3    3  502    0 -0.93000354252E+02 -0.11352951334E+04 -0.36614475280E+03  0.11964974241E+04  0.25500000920E-02 0. -1.
       -2    1    3    3    0  502  0.93000354252E+02  0.11352951334E+04  0.82699500714E+03  0.14076451426E+04  0.25500000920E-02 0.  1.
</event>
<event>
 5   0  0.2624815E-05  0.2060317E+04  0.7818609E-02  0.8578928E-01
        2   -1    0    0  501    0  0.00000000000E+00  0.00000000000E+00  0.15172209716E+04  0.15172209716E+04  0.25500000920E-02 0.  1.
       -2   -1    0    0    0  501  0.00000000000E+00  0.00000000000E+00 -0.69945417005E+03  0.69945417005E+03  0.25500000920E-02 0. -1.
    10030    2    1    2    0    0  0.00000000000E+00  0.00000000000E+00  0.81776680152E+03  0.22166751416E+04  0.20603170003E+04 0.  0.
        4    1    3    3  502    0 -0.88822106345E+03 -0.77819493936E+02 -0.14625139734E+03  0.90353949295E+03  0.12699999809E+01 0. -1.
       -4    1    3    3    0  502  0.88822106345E+03  0.77819493936E+02  0.96401819887E+03  0.13131356487E+04  0.12699999809E+01 0.  1.
</event>
<event>
 5   0  0.1078103E-05  0.2787454E+04  0.7818609E-02  0.8307174E-01
       -1   -1    0    0    0  501  0.00000000000E+00  0.00000000000E+00  0.12277643188E+04  0.12277643188E+04  0.50400001928E-02 0.  1.
        1   -1    0    0  501    0  0.00000000000E+00  0.00000000000E+00 -0.15821241952E+04  0.15821241952E+04  0.50400001928E-02 0. -1.
    10030    2    1    2    0    0  0.00000000000E+00  0.00000000000E+00 -0.35435987641E+03  0.28098885141E+04  0.27874544910E+04 0.  0.
        1    1    3    3  502    0 -0.15471152139E+03 -0.12292781853E+04  0.46624794354E+03  0.13238004595E+04  0.50400001928E-02 0.  1.
       -1    1    3    3    0  502  0.15471152139E+03  0.12292781853E+04 -0.82060781996E+03  0.14860880546E+04  0.50400001928E-02 0. -1.
</event>
<event>
 5   0  0.1105862E-05  0.2775565E+04  0.7818609E-02  0.8310895E-01
        1   -1    0    0  501    0  0.00000000000E+00  0.00000000000E+00  0.13156268592E+04  0.13156268593E+04  0.50400001928E-02 0. -1.
       -1   -1    0    0    0  501  0.00000000000E+00  0.00000000000E+00 -0.14638952985E+04  0.14638952985E+04  0.50400001928E-02 0.  1.
    10030    2    1    2    0    0  0.00000000000E+00  0.00000000000E+00 -0.14826843924E+03  0.27795221577E+04  0.27755647885E+04 0.  0.
        3    1    3    3  502    0  0.14417829634E+03  0.87515878472E+03  0.99474400491E+03  0.13327437582E+04  0.10100000352E+00 0. -1.
       -3    1    3    3    0  502 -0.14417829634E+03 -0.87515878472E+03 -0.11430124441E+04  0.14467783995E+04  0.10100000352E+00 0.  1.
</event>
<event>
 5   0  0.2588048E-05  0.2850168E+04  0.7818609E-02  0.8287860E-01
        2   -1    0    0  501    0  0.00000000000E+00  0.00000000000E+00  0.10611105067E+04  0.10611105067E+04  0.25500000920E-02 0.  1.
       -2   -1    0    0    0  501  0.00000000000E+00  0.00000000000E+00 -0.19139044613E+04  0.19139044613E+04  0.25500000920E-02 0. -1.
    10030    2    1    2    0    0  0.00000000000E+00  0.00000000000E+00 -0.85279395460E+03  0.29750149680E+04  0.28501678075E+04 0.  0.
        2    1    3    3  502    0  0.13365281743E+04  0.11115174857E+03  0.76584013999E+02  0.13433269830E+04  0.25500000920E-02 0.  1.
       -2    1    3    3    0  502 -0.13365281743E+04 -0.11115174857E+03 -0.92937796860E+03  0.16316879851E+04  0.25500000920E-02 0. -1.
</event>
<event>
 5   0  0.1075146E-05  0.2772445E+04  0.7818609E-02  0.8311875E-01
        1   -1    0    0  501    0  0.00000000000E+00  0.00000000000E+00  0.14812558072E+04  0.14812558072E+04  0.50400001928E-02 0.  1.
       -1   -1    0    0    0  501  0.00000000000E+00  0.00000000000E+00 -0.12972858314E+04  0.12972858314E+04  0.50400001928E-02 0. -1.
    10030    2    1    2    0    0  0.00000000000E+00  0.00000000000E+00  0.18396997577E+03  0.27785416386E+04  0.27724445325E+04 0.  0.
        2    1    3    3  502    0  0.31158805002E+02 -0.11030444097E+04 -0.74886808630E+03  0.13335971099E+04  0.25500000920E-02 0. -1.
       -2    1    3    3    0  502 -0.31158805002E+02  0.11030444097E+04  0.93283806207E+03  0.14449445287E+04  0.25500000920E-02 0.  1.
</event>
<event>
 5   0  0.1067434E-05  0.2581956E+04  0.7818609E-02  0.8374356E-01
       -1   -1    0    0    0  501  0.00000000000E+00  0.00000000000E+00  0.10701825869E+04  0.10701825869E+04  0.50400001928E-02 0. -1.
        1   -1    0    0  501    0  0.00000000000E+00  0.00000000000E+00 -0.15573266793E+04  0.15573266793E+04  0.50400001928E-02 0.  1.
    10030    2    1    2    0    0  0.00000000000E+00  0.00000000000E+00 -0.48714409242E+03  0.26275092662E+04  0.25819557660E+04 0.  0.
        4    1    3    3  502    0 -0.30046267036E+03 -0.65133396240E+03  0.84872851183E+03  0.11112404990E+04  0.12699999809E+01 0. -1.
       -4    1    3    3    0  502  0.30046267036E+03  0.65133396240E+03 -0.13358726043E+04  0.15162687673E+04  0.12699999809E+01 0.  1.
</event>
<event>
 5   0  0.1067434E-05  0.2743846E+04  0.7818609E-02  0.8320917E-01
       -1   -1    0    0    0  501  0.00000000000E+00  0.00000000000E+00  0.22885930309E+04  0.22885930309E+04  0.50400001928E-02 0. -1.
        1   -1    0    0  501    0  0.00000000000E+00  0.00000000000E+00 -0.82241507021E+03  0.82241507023E+03  0.50400001928E-02 0.  1.
    10030    2    1    2    0    0  0.00000000000E+00  0.00000000000E+00  0.14661779606E+04  0.31110081011E+04  0.27438464959E+04 0.  0.
        4    1    3    3  502    0  0.77343189744E+03 -0.72669273621E+03 -0.25267141147E+03  0.10909279023E+04  0.12699999809E+01 0.  1.
       -4    1    3    3    0  502 -0.77343189744E+03  0.72669273621E+03  0.17188493721E+04  0.20200801988E+04  0.12699999809E+01 0. -1.
</event>
<event>
 5   0  0.2588048E-05  0.1851886E+04  0.7818609E-02  0.8679183E-01
        2   -1    0    0  501    0  0.00000000000E+00  0.00000000000E+00  0.16685020073E+04  0.16685020073E+04  0.25500000920E-02 0. -1.
       -2   -1    0    0    0  501  0.00000000000E+00  0.00000000000E+00 -0.51385648483E+03  0.51385648484E+03  0.25500000920E-02 0.  1.
    10030    2    1    2    0    0  0.00000000000E+00  0.00000000000E+00  0.11546455224E+04  0.21823584921E+04  0.18518861481E+04 0.  0.
        2    1    3    3  502    0  0.84815928914E+03 -0.33846597232E+03  0.75773438189E+03  0.11866316984E+04  0.25500000920E-02 0. -1.
       -2    1    3    3    0  502 -0.84815928914E+03  0.33846597232E+03  0.39691114053E+03  0.99572679368E+03  0.25500000920E-02 0.  1.
</event>
<event>
 5   0  0.1078103E-05  0.2756539E+04  0.7818609E-02  0.8316890E-01
       -1   -1    0    0    0  501  0.00000000000E+00  0.00000000000E+00  0.81038692308E+03  0.81038692310E+03  0.50400001928E-02 0. -1.
        1   -1    0    0  501    0  0.00000000000E+00  0.00000000000E+00 -0.23440990778E+04  0.23440990779E+04  0.50400001928E-02 0.  1.
    10030    2    1    2    0    0  0.00000000000E+00  0.00000000000E+00 -0.15337121548E+04  0.31544860010E+04  0.27565393080E+04 0.  0.
        1    1    3    3  502    0 -0.21020447814E+03 -0.17838290466E+03  0.77851112091E+03  0.82588494884E+03  0.50400001928E-02 0. -1.
       -1    1    3    3    0  502  0.21020447814E+03  0.17838290466E+03 -0.23122232757E+04  0.23286010521E+04  0.50400001928E-02 0.  1.
</event>
<event>
 5   0  0.2588048E-05  0.2794446E+04  0.7818609E-02  0.8304995E-01
       -2   -1    0    0    0  501  0.00000000000E+00  0.00000000000E+00  0.12909742389E+04  0.12909742390E+04  0.25500000920E-02 0.  1.
        2   -1    0    0  501    0  0.00000000000E+00  0.00000000000E+00 -0.15122160241E+04  0.15122160241E+04  0.25500000920E-02 0. -1.
    10030    2    1    2    0    0  0.00000000000E+00  0.00000000000E+00 -0.22124178510E+03  0.28031902630E+04  0.27944458705E+04 0.  0.
        2    1    3    3  502    0 -0.12249179411E+04 -0.10081294511E+03 -0.77726400258E+03  0.14542099374E+04  0.25500000920E-02 0. -1.
       -2    1    3    3    0  502  0.12249179411E+04  0.10081294511E+03  0.55602221747E+03  0.13489803256E+04  0.25500000920E-02 0.  1.
</event>
<event>
 5   0  0.2588048E-05  0.1639127E+04  0.7818609E-02  0.8796865E-01
       -2   -1    0    0    0  501  0.00000000000E+00  0.00000000000E+00  0.45773590283E+03  0.45773590284E+03  0.25500000920E-02 0.  1.
        2   -1    0    0  501    0  0.00000000000E+00  0.00000000000E+00 -0.14674066612E+04  0.14674066612E+04  0.25500000920E-02 0. -1.
    10030    2    1    2    0    0  0.00000000000E+00  0.00000000000E+00 -0.10096707584E+04  0.19251425641E+04  0.16391274666E+04 0.  0.
        2    1    3    3  502    0  0.14344499734E+03 -0.60208037865E+03  0.12612769998E+03  0.63165294769E+03  0.25500000920E-02 0.  1.
       -2    1    3    3    0  502 -0.14344499734E+03  0.60208037865E+03 -0.11357984584E+04  0.12934896164E+04  0.25500000920E-02 0. -1.
</event>
<event>
 5   0  0.2588048E-05  0.2802136E+04  0.7818609E-02  0.8302606E-01
       -2   -1    0    0    0  501  0.00000000000E+00  0.00000000000E+00  0.12074060208E+04  0.12074060208E+04  0.25500000920E-02 0. -1.
        2   -1    0    0  501    0  0.00000000000E+00  0.00000000000E+00 -0.16257922998E+04  0.16257922998E+04  0.25500000920E-02 0.  1.
    10030    2    1    2    0    0  0.00000000000E+00  0.00000000000E+00 -0.41838627897E+03  0.28331983205E+04  0.28021359077E+04 0.  0.
        2    1    3    3  502    0 -0.13561957394E+04 -0.34163078686E+03 -0.12452156633E+03  0.14040954735E+04  0.25500000920E-02 0.  1.
       -2    1    3    3    0  502  0.13561957394E+04  0.34163078686E+03 -0.29386471264E+03  0.14291028471E+04  0.25500000920E-02 0. -1.
</event>
<event>
 5   0  0.2697964E-05  0.2018437E+04  0.7818609E-02  0.8598049E-01
       -2   -1    0    0    0  501  0.00000000000E+00  0.00000000000E+00  0.97758973230E+03  0.97758973230E+03  0.25500000920E-02 0. -1.
        2   -1    0    0  501    0  0.00000000000E+00  0.00000000000E+00 -0.10418709513E+04  0.10418709513E+04  0.25500000920E-02 0.  1.
    10030    2    1    2    0    0  0.00000000000E+00  0.00000000000E+00 -0.64281219040E+02  0.20194606836E+04  0.20184373604E+04 0.  0.
        1    1    3    3  502    0  0.80650754313E+03  0.49871294131E+03  0.31351005445E+03  0.99872797558E+03  0.50400001928E-02 0. -1.
       -1    1    3    3    0  502 -0.80650754313E+03 -0.49871294131E+03 -0.37779127349E+03  0.10207327081E+04  0.50400001928E-02 0.  1.
</event>
<event>
 5   0  0.1075146E-05  0.2621890E+04  0.7818609E-02  0.8360804E-01
        1   -1    0    0  501    0  0.00000000000E+00  0.00000000000E+00  0.17204577740E+04  0.17204577740E+04  0.50400001928E-02 0.  1.
       -1   -1    0    0    0  501  0.00000000000E+00  0.00000000000E+00 -0.99890651818E+03  0.99890651819E+03  0.50400001928E-02 0. -1.
    10030    2    1    2    0    0  0.00000000000E+00  0.00000000000E+00  0.72155125585E+03  0.27193642922E+04  0.26218897648E+04 0.  0.
        2    1    3    3  502    0 -0.13178051344E+03  0.10568399304E+04 -0.43203745793E+03  0.11493185404E+04  0.25500000920E-02 0. -1.
       -2    1    3    3    0  502  0.13178051344E+03 -0.10568399304E+04  0.11535887138E+04  0.15700457518E+04  0.25500000920E-02 0.  1.
</event>
<event>
 5   0  0.2624815E-05  0.2955813E+04  0.7818609E-02  0.8256463E-01
        2   -1    0    0  501    0  0.00000000000E+00  0.00000000000E+00  0.15412985518E+04  0.15412985518E+04  0.25500000920E-02 0.  1.
       -2   -1    0    0    0  501  0.00000000000E+00  0.00000000000E+00 -0.14171216476E+04  0.14171216476E+04  0.25500000920E-02 0. -1.
    10030    2    1    2    0    0  0.00000000000E+00  0.00000000000E+00  0.12417690422E+03  0.29584201994E+04  0.29558129462E+04 0.  0.
        4    1    3    3  502    0  0.12878142004E+04 -0.16468591731E+03  0.76884094945E+03  0.15088753708E+04  0.12699999809E+01 0.  1.
       -4    1    3    3    0  502 -0.12878142004E+04  0.16468591731E+03 -0.64466404523E+03  0.14495448286E+04  0.12699999809E+01 0. -1.
</event>
<event>
 5   0  0.2518686E-05  0.1502982E+04  0.7818609E-02  0.8882472E-01
       -2   -1    0    0    0  501  0.00000000000E+00  0.00000000000E+00  0.12019202419E+04  0.12019202419E+04  0.25500000920E-02 0.  1.
        2   -1    0    0  501    0  0.00000000000E+00  0.00000000000E+00 -0.46986376258E+03  0.46986376259E+03  0.25500000920E-02 0. -1.
    10030    2    1    2    0    0  0.00000000000E+00  0.00000000000E+00  0.73205647936E+03  0.16717840045E+04  0.15029820587E+04 0.  0.
        5    1    3    3  502    0  0.16539772860E+03  0.30920503875E+03 -0.37326355054E+03  0.51216397059E+03  0.46999998093E+01 0. -1.
       -5    1    3    3    0  502 -0.16539772860E+03 -0.30920503875E+03  0.11053200299E+04  0.11596200339E+04  0.46999998093E+01 0.  1.
</event>
<event>
 5   0  0.1105862E-05  0.2754291E+04  0.7818609E-02  0.8317601E-01
       -1   -1    0    0    0  501  0.00000000000E+00  0.00000000000E+00  0.18824629267E+04  0.18824629267E+04  0.50400001928E-02 0.  1.
        1   -1    0    0  501    0  0.00000000000E+00  0.00000000000E+00 -0.10074727523E+04  0.10074727523E+04  0.50400001928E-02 0. -1.
    10030    2    1    2    0    0  0.00000000000E+00  0.00000000000E+00  0.87499017440E+03  0.28899356790E+04  0.27542912743E+04 0.  0.
        3    1    3    3  502    0  0.50909878887E+03  0.10905609156E+04 -0.26481617481E+03  0.12323280019E+04  0.10100000352E+00 0. -1.
       -3    1    3    3    0  502 -0.50909878887E+03 -0.10905609156E+04  0.11398063492E+04  0.16576076772E+04  0.10100000352E+00 0.  1.
</event>
<event>
 5   0  0.2518686E-05  0.2820525E+04  0.7818609E-02  0.8296925E-01
        2   -1    0    0  501    0  0.00000000000E+00  0.00000000000E+00  0.13073793475E+04  0.13073793475E+04  0.25500000920E-02 0.  1.
       -2   -1    0    0    0  501  0.00000000000E+00  0.00000000000E+00 -0.15212414370E+04  0.15212414370E+04  0.25500000920E-02 0. -1.
    10030    2    1    2    0    0  0.00000000000E+00  0.00000000000E+00 -0.21386208946E+03  0.28286207845E+04  0.28205245167E+04 0.  0.
        5    1    3    3  502    0 -0.92218083363E+03 -0.68343176582E+03 -0.92862480878E+03  0.14764357737E+04  0.46999998093E+01 0. -1.
       -5    1    3    3    0  502  0.92218083363E+03  0.68343176582E+03  0.71476271932E+03  0.13521850108E+04  0.46999998093E+01 0.  1.
</event>
<event>
 5   0  0.1017456E-05  0.2778889E+04  0.7818609E-02  0.8309853E-01
       -1   -1    0    0    0  501  0.00000000000E+00  0.00000000000E+00  0.77530721028E+03  0.77530721030E+03  0.50400001928E-02 0.  1.
        1   -1    0    0  501    0  0.00000000000E+00  0.00000000000E+00 -0.24900522989E+04  0.24900522989E+04  0.50400001928E-02 0. -1.
    10030    2    1    2    0    0  0.00000000000E+00  0.00000000000E+00 -0.17147450886E+04  0.32653595092E+04  0.27788886277E+04 0.  0.
        5    1    3    3  502    0 -0.88819897675E+03  0.73103493073E+02  0.39520554644E+03  0.97491079435E+03  0.46999998093E+01 0.  1.
       -5    1    3    3    0  502  0.88819897675E+03 -0.73103493073E+02 -0.21099506350E+04  0.22904487148E+04  0.46999998093E+01 0. -1.
</event>
<event>
 5   0  0.2518686E-05  0.3022311E+04  0.7818609E-02  0.8237388E-01
        2   -1    0    0  501    0  0.00000000000E+00  0.00000000000E+00  0.17909854581E+04  0.17909854581E+04  0.25500000920E-02 0. -1.
       -2   -1    0    0    0  501  0.00000000000E+00  0.00000000000E+00 -0.12750474733E+04  0.12750474733E+04  0.25500000920E-02 0.  1.
    10030    2    1    2    0    0  0.00000000000E+00  0.00000000000E+00  0.51593798480E+03  0.30660329315E+04  0.30223113560E+04 0.  0.
        5    1    3    3  502    0  0.54573093251E+03 -0.12182552427E+03  0.16821675226E+04  0.17726740741E+04  0.46999998093E+01 0. -1.
       -5    1    3    3    0  502 -0.54573093251E+03  0.12182552427E+03 -0.11662295378E+04  0.12933588573E+04  0.46999998093E+01 0.  1.
</event>
<event>
 5   0  0.2588048E-05  0.2978100E+04  0.7818609E-02  0.8250012E-01
       -2   -1    0    0    0  501  0.00000000000E+00  0.00000000000E+00  0.21547394625E+04  0.21547394625E+04  0.25500000920E-02 0. -1.
        2   -1    0    0  501    0  0.00000000000E+00  0.00000000000E+00 -0.10290201029E+04  0.10290201029E+04  0.25500000920E-02 0.  1.
    10030    2    1    2    0    0  0.00000000000E+00  0.00000000000E+00  0.11257193596E+04  0.31837595654E+04  0.29781002155E+04 0.  0.
        2    1    3    3  502    0  0.32339260229E+03  0.11738048727E+04  0.14793040054E+04  0.19159177944E+04  0.25500000920E-02 0. -1.
       -2    1    3    3    0  502 -0.32339260229E+03 -0.11738048727E+04 -0.35358464585E+03  0.12678417710E+04  0.25500000920E-02 0.  1.
</event>
<event>
 5   0  0.1078103E-05  0.2743208E+04  0.7818609E-02  0.8321120E-01
       -1   -1    0    0    0  501  0.00000000000E+00  0.00000000000E+00  0.79497106393E+03  0.79497106395E+03  0.50400001928E-02 0.  1.
        1   -1    0    0  501    0  0.00000000000E+00  0.00000000000E+00 -0.23664981669E+04  0.23664981669E+04  0.50400001928E-02 0. -1.
    10030    2    1    2    0    0  0.00000000000E+00  0.00000000000E+00 -0.15715271030E+04  0.31614692308E+04  0.27432080239E+04 0.  0.
        1    1    3    3  502    0  0.13597377509E+04 -0.11163272989E+03 -0.94853949256E+03  0.16616485148E+04  0.50400001928E-02 0. -1.
       -1    1    3    3    0  502 -0.13597377509E+04  0.11163272989E+03 -0.62298761040E+03  0.14998207161E+04  0.50400001928E-02 0.  1.
</event>
<event>
 5   0  0.1105862E-05  0.2713880E+04  0.7818609E-02  0.8330516E-01
       -1   -1    0    0    0  501  0.00000000000E+00  0.00000000000E+00  0.90046488096E+03  0.90046488098E+03  0.50400001928E-02 0.  1.
        1   -1    0    0  501    0  0.00000000000E+00  0.00000000000E+00 -0.20448167128E+04  0.20448167128E+04  0.50400001928E-02 0. -1.
    10030    2    1    2    0    0  0.00000000000E+00  0.00000000000E+00 -0.11443518318E+04  0.29452815937E+04  0.27138796126E+04 0.  0.
        3    1    3    3  502    0 -0.16899377970E+03 -0.13445335170E+04 -0.64858012855E+03  0.15023266853E+04  0.10100000352E+00 0.  1.
       -3    1    3    3    0  502  0.16899377970E+03  0.13445335170E+04 -0.49577170324E+03  0.14429549085E+04  0.10100000352E+00 0. -1.
</event>
<event>
 5   0  0.2624815E-05  0.2311234E+04  0.7818609E-02  0.8473505E-01
        2   -1    0    0  501    0  0.00000000000E+00  0.00000000000E+00  0.80313174059E+03  0.80313174059E+03  0.25500000920E-02 0.  1.
       -2   -1    0    0    0  501  0.00000000000E+00  0.00000000000E+00 -0.16628035976E+04  0.16628035976E+04  0.25500000920E-02 0. -1.
    10030    2    1    2    0    0  0.00000000000E+00  0.00000000000E+00 -0.85967185701E+03  0.24659353382E+04  0.23112337377E+04 0.  0.
        4    1    3    3  502    0 -0.89777758438E+03 -0.72440030053E+02  0.34263991967E+03  0.96366792850E+03  0.12699999809E+01 0.  1.
       -4    1    3    3    0  502  0.89777758438E+03  0.72440030053E+02 -0.12023117767E+04  0.15022674097E+04  0.12699999809E+01 0. -1.
</event>
<event>
 5   0  0.2624815E-05  0.2801137E+04  0.7818609E-02  0.8302916E-01
        2   -1    0    0  501    0  0.00000000000E+00  0.00000000000E+00  0.60446546051E+03  0.60446546051E+03  0.25500000920E-02 0. -1.
       -2   -1    0    0    0  501  0.00000000000E+00  0.00000000000E+00 -0.32451672756E+04  0.32451672756E+04  0.25500000920E-02 0.  1.
    10030    2    1    2    0    0  0.00000000000E+00  0.00000000000E+00 -0.26407018151E+04  0.38496327361E+04  0.28011365777E+04 0.  0.
        4    1    3    3  502    0  0.10276071831E+04  0.92923722468E+03 -0.10382601426E+04  0.17313128195E+04  0.12699999809E+01 0. -1.
       -4    1    3    3    0  502 -0.10276071831E+04 -0.92923722468E+03 -0.16024416725E+04  0.21183199166E+04  0.12699999809E+01 0.  1.
</event>
<event>
 5   0  0.2697964E-05  0.2845394E+04  0.7818609E-02  0.8289312E-01
        2   -1    0    0  501    0  0.00000000000E+00  0.00000000000E+00  0.13751028510E+04  0.13751028510E+04  0.25500000920E-02 0.  1.
       -2   -1    0    0    0  501  0.00000000000E+00  0.00000000000E+00 -0.14719381132E+04  0.14719381132E+04  0.25500000920E-02 0. -1.
    10030    2    1    2    0    0  0.00000000000E+00  0.00000000000E+00 -0.96835262154E+02  0.28470409642E+04  0.28453936781E+04 0.  0.
        1    1    3    3  502    0 -0.61061072566E+03  0.95242907984E+03 -0.91152915301E+03  0.14528771480E+04  0.50400001928E-02 0. -1.
       -1    1    3    3    0  502  0.61061072566E+03 -0.95242907984E+03  0.81469389086E+03  0.13941638161E+04  0.50400001928E-02 0.  1.
</event>
<event>
 5   0  0.2518686E-05  0.2885842E+04  0.7818609E-02  0.8277103E-01
        2   -1    0    0  501    0  0.00000000000E+00  0.00000000000E+00  0.19253347428E+04  0.19253347428E+04  0.25500000920E-02 0. -1.
       -2   -1    0    0    0  501  0.00000000000E+00  0.00000000000E+00 -0.10813809704E+04  0.10813809704E+04  0.25500000920E-02 0.  1.
    10030    2    1    2    0    0  0.00000000000E+00  0.00000000000E+00  0.84395377234E+03  0.30067157132E+04  0.28858415428E+04 0.  0.
        5    1    3    3  502    0 -0.11103524007E+03 -0.41643982583E+03  0.18566976217E+04  0.19060690181E+04  0.46999998093E+01 0. -1.
       -5    1    3    3    0  502  0.11103524007E+03  0.41643982583E+03 -0.10127438494E+04  0.11006466952E+04  0.46999998093E+01 0.  1.
</event>
<event>
 5   0  0.1105862E-05  0.2722798E+04  0.7818609E-02  0.8327645E-01
        1   -1    0    0  501    0  0.00000000000E+00  0.00000000000E+00  0.29313508326E+04  0.29313508327E+04  0.50400001928E-02 0.  1.
       -1   -1    0    0    0  501  0.00000000000E+00  0.00000000000E+00 -0.63227088790E+03  0.63227088792E+03  0.50400001928E-02 0. -1.
    10030    2    1    2    0    0  0.00000000000E+00  0.00000000000E+00  0.22990799448E+04  0.35636217206E+04  0.27227984088E+04 0.  0.
        3    1    3    3  502    0  0.79148945247E+03  0.30745104044E+02  0.25987207960E+04  0.27167536879E+04  0.10100000352E+00 0.  1.
       -3    1    3    3    0  502 -0.79148945247E+03 -0.30745104044E+02 -0.29964085129E+03  0.84686803266E+03  0.10100000352E+00 0. -1.
</event>
<event>
 5   0  0.1078103E-05  0.2705190E+04  0.7818609E-02  0.8333323E-01
       -1   -1    0    0    0  501  0.00000000000E+00  0.00000000000E+00  0.65697742358E+03  0.65697742360E+03  0.50400001928E-02 0.  1.
        1   -1    0    0  501    0  0.00000000000E+00  0.00000000000E+00 -0.27847422588E+04  0.27847422588E+04  0.50400001928E-02 0. -1.
    10030    2    1    2    0    0  0.00000000000E+00  0.00000000000E+00 -0.21277648352E+04  0.34417196824E+04  0.27051896751E+04 0.  0.
        1    1    3    3  502    0  0.11382032485E+04  0.73054528398E+03 -0.10862738473E+04  0.17347028328E+04  0.50400001928E-02 0. -1.
       -1    1    3    3    0  502 -0.11382032485E+04 -0.73054528398E+03 -0.10414909880E+04  0.17070168496E+04  0.50400001928E-02 0.  1.
</event>
<event>
 5   0  0.2588048E-05  0.2867149E+04  0.7818609E-02  0.8282719E-01
       -2   -1    0    0    0  501  0.00000000000E+00  0.00000000000E+00  0.14915487317E+04  0.14915487317E+04  0.25500000920E-02 0.  1.
        2   -1    0    0  501    0  0.00000000000E+00  0.00000000000E+00 -0.13778535875E+04  0.13778535875E+04  0.25500000920E-02 0. -1.
    10030    2    1    2    0    0  0.00000000000E+00  0.00000000000E+00  0.11369514419E+03  0.28694023193E+04  0.28671489470E+04 0.  0.
        2    1    3    3  502    0 -0.40970055653E+03 -0.94665232752E+03 -0.93949028343E+03  0.13952229814E+04  0.25500000920E-02 0. -1.
       -2    1    3    3    0  502  0.40970055653E+03  0.94665232752E+03  0.10531854276E+04  0.14741793379E+04  0.25500000920E-02 0.  1.
</event>
<event>
 5   0  0.1017456E-05  0.2808373E+04  0.7818609E-02  0.8300673E-01
       -1   -1    0    0    0  501  0.00000000000E+00  0.00000000000E+00  0.96023834303E+03  0.96023834304E+03  0.50400001928E-02 0.  1.
        1   -1    0    0  501    0  0.00000000000E+00  0.00000000000E+00 -0.20533864236E+04  0.20533864236E+04  0.50400001928E-02 0. -1.
    10030    2    1    2    0    0  0.00000000000E+00  0.00000000000E+00 -0.10931480805E+04  0.30136247666E+04  0.28083734631E+04 0.  0.
        5    1    3    3  502    0 -0.13968460331E+04  0.54243395500E+02 -0.68892319055E+03  0.15584474449E+04  0.46999998093E+01 0. -1.
       -5    1    3    3    0  502  0.13968460331E+04 -0.54243395500E+02 -0.40422488999E+03  0.14551773217E+04  0.46999998093E+01 0.  1.
</event>
<event>
 5   0  0.1105862E-05  0.2514949E+04  0.7818609E-02  0.8397679E-01
        1   -1    0    0  501    0  0.00000000000E+00  0.00000000000E+00  0.14843543659E+04  0.14843543659E+04  0.50400001928E-02 0. -1.
       -1   -1    0    0    0  501  0.00000000000E+00  0.00000000000E+00 -0.10652724996E+04  0.10652724996E+04  0.50400001928E-02 0.  1.
    10030    2    1    2    0    0  0.00000000000E+00  0.00000000000E+00  0.41908186632E+03  0.25496268655E+04  0.25149488151E+04 0.  0.
        3    1    3    3  502    0  0.93190785919E+03 -0.50171339322E+02  0.10639384198E+04  0.14152506466E+04  0.10100000352E+00 0. -1.
       -3    1    3    3    0  502 -0.93190785919E+03  0.50171339322E+02 -0.64485655345E+03  0.11343762189E+04  0.10100000352E+00 0.  1.
</event>
<event>
 5   0  0.1075146E-05  0.2838882E+04  0.7818609E-02  0.8291298E-01
       -1   -1    0    0    0  501  0.00000000000E+00  0.00000000000E+00  0.10128639303E+04  0.10128639303E+04  0.50400001928E-02 0. -1.
        1   -1    0    0  501    0  0.00000000000E+00  0.00000000000E+00 -0.19892239528E+04  0.19892239528E+04  0.50400001928E-02 0.  1.
    10030    2    1    2    0    0  0.00000000000E+00  0.00000000000E+00 -0.97636002253E+03  0.30020878832E+04  0.28388823090E+04 0.  0.
        2    1    3    3  502    0  0.59555309416E+03 -0.38707093407E+03  0.81141626295E+03  0.10783801499E+04  0.25500000920E-02 0. -1.
       -2    1    3    3    0  502 -0.59555309416E+03  0.38707093407E+03 -0.17877762855E+04  0.19237077332E+04  0.25500000920E-02 0.  1.
</event>
<event>
 5   0  0.2588048E-05  0.1539915E+04  0.7818609E-02  0.8858335E-01
       -2   -1    0    0    0  501  0.00000000000E+00  0.00000000000E+00  0.65784504022E+03  0.65784504023E+03  0.25500000920E-02 0.  1.
        2   -1    0    0  501    0  0.00000000000E+00  0.00000000000E+00 -0.90117700387E+03  0.90117700387E+03  0.25500000920E-02 0. -1.
    10030    2    1    2    0    0  0.00000000000E+00  0.00000000000E+00 -0.24333196365E+03  0.15590220441E+04  0.15399153514E+04 0.  0.
        2    1    3    3  502    0 -0.59604700527E+03  0.31201979195E+03  0.25742145122E+03  0.72034310340E+03  0.25500000920E-02 0.  1.
       -2    1    3    3    0  502  0.59604700527E+03 -0.31201979195E+03 -0.50075341487E+03  0.83867894070E+03  0.25500000920E-02 0. -1.
</event>
<event>
 5   0  0.2651061E-05  0.2624565E+04  0.7818609E-02  0.8359905E-01
        2   -1    0    0  501    0  0.00000000000E+00  0.00000000000E+00  0.19000515649E+04  0.19000515649E+04  0.25500000920E-02 0. -1.
       -2   -1    0    0    0  501  0.00000000000E+00  0.00000000000E+00 -0.90633600078E+03  0.90633600078E+03  0.25500000920E-02 0.  1.
    10030    2    1    2    0    0  0.00000000000E+00  0.00000000000E+00  0.99371556413E+03  0.28063875657E+04  0.26245648299E+04 0.  0.
        3    1    3    3  502    0  0.10246619330E+04 -0.72020657687E+03  0.91573006429E+03  0.15515125366E+04  0.10100000352E+00 0. -1.
       -3    1    3    3    0  502 -0.10246619330E+04  0.72020657687E+03  0.77985499836E+02  0.12548750291E+04  0.10100000352E+00 0.  1.
</event>
<event>
 5   0  0.1017456E-05  0.1960878E+04  0.7818609E-02  0.8625133E-01
        1   -1    0    0  501    0  0.00000000000E+00  0.00000000000E+00  0.21485974907E+04  0.21485974907E+04  0.50400001928E-02 0. -1.
       -1   -1    0    0    0  501  0.00000000000E+00  0.00000000000E+00 -0.44738961845E+03  0.44738961848E+03  0.50400001928E-02 0.  1.
    10030    2    1    2    0    0  0.00000000000E+00  0.00000000000E+00  0.17012078722E+04  0.25959871092E+04  0.19608775705E+04 0.  0.
        5    1    3    3  502    0  0.29084816636E+03  0.45902863955E+03 -0.22975733735E+03  0.59000887439E+03  0.46999998093E+01 0.  1.
       -5    1    3    3    0  502 -0.29084816636E+03 -0.45902863955E+03  0.19309652096E+04  0.20059782348E+04  0.46999998093E+01 0. -1.
</event>
<event>
 5   0  0.1078103E-05  0.2630014E+04  0.7818609E-02  0.8358077E-01
        1   -1    0    0  501    0  0.00000000000E+00  0.00000000000E+00  0.12655897665E+04  0.12655897665E+04  0.50400001928E-02 0.  1.
       -1   -1    0    0    0  501  0.00000000000E+00  0.00000000000E+00 -0.13663538658E+04  0.13663538658E+04  0.50400001928E-02 0. -1.
    10030    2    1    2    0    0  0.00000000000E+00  0.00000000000E+00 -0.10076409927E+03  0.26319436323E+04  0.26300140455E+04 0.  0.
        1    1    3    3  502    0 -0.89404652030E+03  0.97351566009E+02  0.90972111314E+03  0.12792142165E+04  0.50400001928E-02 0.  1.
       -1    1    3    3    0  502  0.89404652030E+03 -0.97351566009E+02 -0.10104852124E+04  0.13527294158E+04  0.50400001928E-02 0. -1.
</event>
<event>
 5   0  0.1105862E-05  0.2945728E+04  0.7818609E-02  0.8259401E-01
       -1   -1    0    0    0  501  0.00000000000E+00  0.00000000000E+00  0.15712746983E+04  0.15712746983E+04  0.50400001928E-02 0. -1.
        1   -1    0    0  501    0  0.00000000000E+00  0.00000000000E+00 -0.13806166646E+04  0.13806166646E+04  0.50400001928E-02 0.  1.
    10030    2    1    2    0    0  0.00000000000E+00  0.00000000000E+00  0.19065803375E+03  0.29518913629E+04  0.29457277764E+04 0.  0.
        3    1    3    3  502    0  0.79259729440E+03  0.88895787173E+03 -0.77301248319E+03  0.14198608658E+04  0.10100000352E+00 0.  1.
       -3    1    3    3    0  502 -0.79259729440E+03 -0.88895787173E+03  0.96367051694E+03  0.15320304972E+04  0.10100000352E+00 0. -1.
</event>
<event>
 5   0  0.2518686E-05  0.2756820E+04  0.7818609E-02  0.8316801E-01
        2   -1    0    0  501    0  0.00000000000E+00  0.00000000000E+00  0.19048415951E+04  0.19048415951E+04  0.25500000920E-02 0. -1.
       -2   -1    0    0    0  501  0.00000000000E+00  0.00000000000E+00 -0.99746564637E+03  0.99746564637E+03  0.25500000920E-02 0.  1.
    10030    2    1    2    0    0  0.00000000000E+00  0.00000000000E+00  0.90737594874E+03  0.29023072415E+04  0.27568199454E+04 0.  0.
        5    1    3    3  502    0  0.67495664922E+03 -0.19744362147E+03  0.17017649458E+04  0.18413518085E+04  0.46999998093E+01 0. -1.
       -5    1    3    3    0  502 -0.67495664922E+03  0.19744362147E+03 -0.79438899709E+03  0.10609554329E+04  0.46999998093E+01 0.  1.
</event>
<event>
 5   0  0.8958000E-06  0.2878900E+04  0.7818609E-02  0.8279183E-01
        3   -1    0    0  501    0  0.00000000000E+00  0.00000000000E+00  0.18064277673E+04  0.18064277701E+04  0.10100000352E+00 0.  1.
       -3   -1    0    0    0  501  0.00000000000E+00  0.00000000000E+00 -0.11470244395E+04  0.11470244440E+04  0.10100000352E+00 0. -1.
    10030    2    1    2    0    0  0.00000000000E+00  0.00000000000E+00  0.65940332775E+03  0.29534522141E+04  0.28789003512E+04 0.  0.
        1    1    3    3  502    0 -0.91168866808E+03  0.12979968552E+03  0.14646934428E+04  0.17301303614E+04  0.50400001928E-02 0.  1.
       -1    1    3    3    0  502  0.91168866808E+03 -0.12979968552E+03 -0.80529011508E+03  0.12233218527E+04  0.50400001928E-02 0. -1.
</event>
<event>
 5   0  0.2588048E-05  0.1466565E+04  0.7818609E-02  0.8906997E-01
       -2   -1    0    0    0  501  0.00000000000E+00  0.00000000000E+00  0.22423186540E+03  0.22423186541E+03  0.25500000920E-02 0.  1.
        2   -1    0    0  501    0  0.00000000000E+00  0.00000000000E+00 -0.23979773751E+04  0.23979773751E+04  0.25500000920E-02 0. -1.
    10030    2    1    2    0    0  0.00000000000E+00  0.00000000000E+00 -0.21737455097E+04  0.26222092405E+04  0.14665646116E+04 0.  0.
        2    1    3    3  502    0 -0.42505603994E+03  0.56316800409E+03 -0.72984604427E+03  0.10151384567E+04  0.25500000920E-02 0.  1.
       -2    1    3    3    0  502  0.42505603994E+03 -0.56316800409E+03 -0.14438994654E+04  0.16070707838E+04  0.25500000920E-02 0. -1.
</event>
<event>
 5   0  0.2588048E-05  0.2919721E+04  0.7818609E-02  0.8267034E-01
        2   -1    0    0  501    0  0.00000000000E+00  0.00000000000E+00  0.15783396232E+04  0.15783396232E+04  0.25500000920E-02 0. -1.
       -2   -1    0    0    0  501  0.00000000000E+00  0.00000000000E+00 -0.13502747431E+04  0.13502747431E+04  0.25500000920E-02 0.  1.
    10030    2    1    2    0    0  0.00000000000E+00  0.00000000000E+00  0.22806488012E+03  0.29286143663E+04  0.29197206231E+04 0.  0.
        2    1    3    3  502    0 -0.84203228124E+03  0.96638014312E+03  0.81493359509E+03  0.15188896300E+04  0.25500000920E-02 0. -1.
       -2    1    3    3    0  502  0.84203228124E+03 -0.96638014312E+03 -0.58686871496E+03  0.14097247363E+04  0.25500000920E-02 0.  1.
</event>
<event>
 5   0  0.2518686E-05  0.2787750E+04  0.7818609E-02  0.8307082E-01
        2   -1    0    0  501    0  0.00000000000E+00  0.00000000000E+00  0.24918627674E+04  0.24918627674E+04  0.25500000920E-02 0. -1.
       -2   -1    0    0    0  501  0.00000000000E+00  0.00000000000E+00 -0.77969260470E+03  0.77969260471E+03  0.25500000920E-02 0.  1.
    10030    2    1    2    0    0  0.00000000000E+00  0.00000000000E+00  0.17121701627E+04  0.32715553721E+04  0.27877496098E+04 0.  0.
        5    1    3    3  502    0  0.20073396486E+02 -0.91611045602E+03  0.20887026157E+04  0.22808686976E+04  0.46999998093E+01 0. -1.
       -5    1    3    3    0  502 -0.20073396486E+02  0.91611045602E+03 -0.37653245301E+03  0.99068667451E+03  0.46999998093E+01 0.  1.
</event>
<event>
 5   0  0.2697964E-05  0.2707207E+04  0.7818609E-02  0.8332670E-01
        2   -1    0    0  501    0  0.00000000000E+00  0.00000000000E+00  0.17057077895E+04  0.17057077895E+04  0.25500000920E-02 0.  1.
       -2   -1    0    0    0  501  0.00000000000E+00  0.00000000000E+00 -0.10741829141E+04  0.10741829141E+04  0.25500000920E-02 0. -1.
    10030    2    1    2    0    0  0.00000000000E+00  0.00000000000E+00  0.63152487538E+03  0.27798907037E+04  0.27072067997E+04 0.  0.
        1    1    3    3  502    0 -0.11702552584E+04 -0.12732235133E+03  0.10019351837E+04  0.15458274364E+04  0.50400001928E-02 0.  1.
       -1    1    3    3    0  502  0.11702552584E+04  0.12732235133E+03 -0.37041030828E+03  0.12340632672E+04  0.50400001928E-02 0. -1.
</event>
<event>
 5   0  0.2588048E-05  0.2803272E+04  0.7818609E-02  0.8302253E-01
       -2   -1    0    0    0  501  0.00000000000E+00  0.00000000000E+00  0.13371530480E+04  0.13371530480E+04  0.25500000920E-02 0.  1.
        2   -1    0    0  501    0  0.00000000000E+00  0.00000000000E+00 -0.14692290802E+04  0.14692290802E+04  0.25500000920E-02 0. -1.
    10030    2    1    2    0    0  0.00000000000E+00  0.00000000000E+00 -0.13207603219E+03  0.28063821282E+04  0.28032724754E+04 0.  0.
        2    1    3    3  502    0  0.62055910852E+03  0.10808895134E+04 -0.70797346037E+03  0.14334023049E+04  0.25500000920E-02 0. -1.
       -2    1    3    3    0  502 -0.62055910852E+03 -0.10808895134E+04  0.57589742818E+03  0.13729798232E+04  0.25500000920E-02 0.  1.
</event>
<event>
 5   0  0.2697964E-05  0.2856892E+04  0.7818609E-02  0.8285820E-01
        2   -1    0    0  501    0  0.00000000000E+00  0.00000000000E+00  0.12983985029E+04  0.12983985029E+04  0.25500000920E-02 0.  1.
       -2   -1    0    0    0  501  0.00000000000E+00  0.00000000000E+00 -0.15715191792E+04  0.15715191792E+04  0.25500000920E-02 0. -1.
    10030    2    1    2    0    0  0.00000000000E+00  0.00000000000E+00 -0.27312067635E+03  0.28699176821E+04  0.28568921223E+04 0.  0.
        1    1    3    3  502    0  0.59332203044E+03 -0.11426757341E+04 -0.75802404549E+03  0.14941015089E+04  0.50400001928E-02 0. -1.
       -1    1    3    3    0  502 -0.59332203044E+03  0.11426757341E+04  0.48490336914E+03  0.13758161733E+04  0.50400001928E-02 0.  1.
</event>
<event>
 5   0  0.1067434E-05  0.2713835E+04  0.7818609E-02  0.8330530E-01
       -1   -1    0    0    0  501  0.00000000000E+00  0.00000000000E+00  0.10922295324E+04  0.10922295324E+04  0.50400001928E-02 0. -1.
        1   -1    0    0  501    0  0.00000000000E+00  0.00000000000E+00 -0.16857493692E+04  0.16857493693E+04  0.50400001928E-02 0.  1.
    10030    2    1    2    0    0  0.00000000000E+00  0.00000000000E+00 -0.59351983688E+03  0.27779789016E+04  0.27138351057E+04 0.  0.
        4    1    3    3  502    0  0.74721815653E+02  0.11810494446E+04 -0.97635120491E+03  0.15341852654E+04  0.12699999809E+01 0.  1.
       -4    1    3    3    0  502 -0.74721815653E+02 -0.11810494446E+04  0.38283136803E+03  0.12437936362E+04  0.12699999809E+01 0. -1.
</event>
<event>
 5   0  0.1067434E-05  0.2823883E+04  0.7818609E-02  0.8295892E-01
       -1   -1    0    0    0  501  0.00000000000E+00  0.00000000000E+00  0.16612713610E+04  0.16612713610E+04  0.50400001928E-02 0.  1.
        1   -1    0    0  501    0  0.00000000000E+00  0.00000000000E+00 -0.12000319638E+04  0.12000319638E+04  0.50400001928E-02 0. -1.
    10030    2    1    2    0    0  0.00000000000E+00  0.00000000000E+00  0.46123939714E+03  0.28613033248E+04  0.28238829535E+04 0.  0.
        4    1    3    3  502    0  0.42628762334E+03 -0.10107419704E+04  0.11313635120E+04  0.15758507155E+04  0.12699999809E+01 0.  1.
       -4    1    3    3    0  502 -0.42628762334E+03  0.10107419704E+04 -0.67012411482E+03  0.12854526093E+04  0.12699999809E+01 0. -1.
</event>
<event>
 5   0  0.1067434E-05  0.2337225E+04  0.7818609E-02  0.8463387E-01
        1   -1    0    0  501    0  0.00000000000E+00  0.00000000000E+00  0.81276567171E+03  0.81276567173E+03  0.50400001928E-02 0.  1.
       -1   -1    0    0    0  501  0.00000000000E+00  0.00000000000E+00 -0.16802567151E+04  0.16802567151E+04  0.50400001928E-02 0. -1.
    10030    2    1    2    0    0  0.00000000000E+00  0.00000000000E+00 -0.86749104340E+03  0.24930223868E+04  0.23372248311E+04 0.  0.
        4    1    3    3  502    0  0.83522498530E+03  0.70840577736E+03  0.11243123093E+01  0.10951905763E+04  0.12699999809E+01 0.  1.
       -4    1    3    3    0  502 -0.83522498530E+03 -0.70840577736E+03 -0.86861535571E+03  0.13978318105E+04  0.12699999809E+01 0. -1.
</event>
<event>
 5   0  0.2624815E-05  0.2784746E+04  0.7818609E-02  0.8308020E-01
        2   -1    0    0  501    0  0.00000000000E+00  0.00000000000E+00  0.26675682786E+04  0.26675682786E+04  0.25500000920E-02 0.  1.
       -2   -1    0    0    0  501  0.00000000000E+00  0.00000000000E+00 -0.72676754142E+03  0.72676754143E+03  0.25500000920E-02 0. -1.
    10030    2    1    2    0    0  0.00000000000E+00  0.00000000000E+00  0.19408007372E+04  0.33943358200E+04  0.27847456181E+04 0.  0.
        4    1    3    3  502    0  0.75254108836E+03  0.83956954009E+03 -0.25455862311E+02  0.11277609304E+04  0.12699999809E+01 0. -1.
       -4    1    3    3    0  502 -0.75254108836E+03 -0.83956954009E+03  0.19662565995E+04  0.22665748896E+04  0.12699999809E+01 0.  1.
</event>
<event>
 5   0  0.1017456E-05  0.2703332E+04  0.7818609E-02  0.8333925E-01
        1   -1    0    0  501    0  0.00000000000E+00  0.00000000000E+00  0.23168152965E+04  0.23168152965E+04  0.50400001928E-02 0. -1.
       -1   -1    0    0    0  501  0.00000000000E+00  0.00000000000E+00 -0.78858304099E+03  0.78858304101E+03  0.50400001928E-02 0.  1.
    10030    2    1    2    0    0  0.00000000000E+00  0.00000000000E+00  0.15282322555E+04  0.31053983375E+04  0.27033322045E+04 0.  0.
        5    1    3    3  502    0  0.66707975832E+02  0.10449780008E+04 -0.21772885632E+03  0.10695124689E+04  0.46999998093E+01 0.  1.
       -5    1    3    3    0  502 -0.66707975832E+02 -0.10449780008E+04  0.17459611118E+04  0.20358858686E+04  0.46999998093E+01 0. -1.
</event>
<event>
 5   0  0.1075146E-05  0.2942975E+04  0.7818609E-02  0.8260205E-01
       -1   -1    0    0    0  501  0.00000000000E+00  0.00000000000E+00  0.22026453750E+04  0.22026453750E+04  0.50400001928E-02 0. -1.
        1   -1    0    0  501    0  0.00000000000E+00  0.00000000000E+00 -0.98303377953E+03  0.98303377954E+03  0.50400001928E-02 0.  1.
    10030    2    1    2    0    0  0.00000000000E+00  0.00000000000E+00  0.12196115955E+04  0.31856791546E+04  0.29429745551E+04 0.  0.
        2    1    3    3  502    0  0.12067759229E+04  0.60589952058E+03  0.12427054768E+04  0.18351401198E+04  0.25500000920E-02 0. -1.
       -2    1    3    3    0  502 -0.12067759229E+04 -0.60589952058E+03 -0.23093881270E+02  0.13505390348E+04  0.25500000920E-02 0.  1.
</event>
<event>
 5   0  0.1067434E-05  0.2021577E+04  0.7818609E-02  0.8596599E-01
       -1   -1    0    0    0  501  0.00000000000E+00  0.00000000000E+00  0.11828945822E+04  0.11828945822E+04  0.50400001928E-02 0.  1.
        1   -1    0    0  501    0  0.00000000000E+00  0.00000000000E+00 -0.86372320910E+03  0.86372320912E+03  0.50400001928E-02 0. -1.
    10030    2    1    2    0    0  0.00000000000E+00  0.00000000000E+00  0.31917137308E+03  0.20466177913E+04  0.20215771116E+04 0.  0.
        4    1    3    3  502    0  0.90292973559E+03  0.41987091078E+03 -0.16109942858E+02  0.99590904820E+03  0.12699999809E+01 0. -1.
       -4    1    3    3    0  502 -0.90292973559E+03 -0.41987091078E+03  0.33528131594E+03  0.10507087431E+04  0.12699999809E+01 0.  1.
</event>
<event>
 5   0  0.1067434E-05  0.2778045E+04  0.7818609E-02  0.8310117E-01
        1   -1    0    0  501    0  0.00000000000E+00  0.00000000000E+00  0.21779499990E+04  0.21779499990E+04  0.50400001928E-02 0.  1.
       -1   -1    0    0    0  501  0.00000000000E+00  0.00000000000E+00 -0.88587121574E+03  0.88587121576E+03  0.50400001928E-02 0. -1.
    10030    2    1    2    0    0  0.00000000000E+00  0.00000000000E+00  0.12920787833E+04  0.30638212148E+04  0.27780447898E+04 0.  0.
        4    1    3    3  502    0  0.11280684551E+04  0.80776453756E+03  0.71885896734E+03  0.15626201763E+04  0.12699999809E+01 0.  1.
       -4    1    3    3    0  502 -0.11280684551E+04 -0.80776453756E+03  0.57321981594E+03  0.15012010385E+04  0.12699999809E+01 0. -1.
</event>
<event>
 5   0  0.2651061E-05  0.2902032E+04  0.7818609E-02  0.8272273E-01
        2   -1    0    0  501    0  0.00000000000E+00  0.00000000000E+00  0.27426638656E+04  0.27426638656E+04  0.25500000920E-02 0. -1.
       -2   -1    0    0    0  501  0.00000000000E+00  0.00000000000E+00 -0.76766498167E+03  0.76766498167E+03  0.25500000920E-02 0.  1.
    10030    2    1    2    0    0  0.00000000000E+00  0.00000000000E+00  0.19749988839E+04  0.35103288472E+04  0.29020317063E+04 0.  0.
        3    1    3    3  502    0 -0.56544050113E+02  0.13949306491E+04  0.50910143453E+03  0.14860057289E+04  0.10100000352E+00 0.  1.
       -3    1    3    3    0  502  0.56544050113E+02 -0.13949306491E+04  0.14658974494E+04  0.20243231184E+04  0.10100000352E+00 0. -1.
</event>
<event>
 5   0  0.1075146E-05  0.2675342E+04  0.7818609E-02  0.8343050E-01
        1   -1    0    0  501    0  0.00000000000E+00  0.00000000000E+00  0.21400132089E+04  0.21400132089E+04  0.50400001928E-02 0. -1.
       -1   -1    0    0    0  501  0.00000000000E+00  0.00000000000E+00 -0.83614603892E+03  0.83614603893E+03  0.50400001928E-02 0.  1.
    10030    2    1    2    0    0  0.00000000000E+00  0.00000000000E+00  0.13038671700E+04  0.29761592479E+04  0.26753418981E+04 0.  0.
        2    1    3    3  502    0 -0.12014796561E+04 -0.56472168855E+03  0.83438613369E+03  0.15680128091E+04  0.25500000920E-02 0. -1.
       -2    1    3    3    0  502  0.12014796561E+04  0.56472168855E+03  0.46948103631E+03  0.14081464387E+04  0.25500000920E-02 0.  1.
</event>
<event>
 5   0  0.2651061E-05  0.2887019E+04  0.7818609E-02  0.8276750E-01
       -2   -1    0    0    0  501  0.00000000000E+00  0.00000000000E+00  0.89662597365E+03  0.89662597365E+03  0.25500000920E-02 0.  1.
        2   -1    0    0  501    0  0.00000000000E+00  0.00000000000E+00 -0.23239559813E+04  0.23239559814E+04  0.25500000920E-02 0. -1.
    10030    2    1    2    0    0  0.00000000000E+00  0.00000000000E+00 -0.14273300077E+04  0.32205819550E+04  0.28870187353E+04 0.  0.
        3    1    3    3  502    0  0.57095506919E+03  0.77077267194E+03 -0.19170203796E+04  0.21436061552E+04  0.10100000352E+00 0. -1.
       -3    1    3    3    0  502 -0.57095506919E+03 -0.77077267194E+03  0.48969037185E+03  0.10769757998E+04  0.10100000352E+00 0.  1.
</event>
<event>
 5   0  0.1017456E-05  0.2749849E+04  0.7818609E-02  0.8319009E-01
        1   -1    0    0  501    0  0.00000000000E+00  0.00000000000E+00  0.16448460887E+04  0.16448460887E+04  0.50400001928E-02 0.  1.
       -1   -1    0    0    0  501  0.00000000000E+00  0.00000000000E+00 -0.11492977211E+04  0.11492977211E+04  0.50400001928E-02 0. -1.
    10030    2    1    2    0    0  0.00000000000E+00  0.00000000000E+00  0.49554836761E+03  0.27941438097E+04  0.27498493495E+04 0.  0.
        5    1    3    3  502    0 -0.10688489481E+04 -0.42899967150E+03  0.10108144185E+04  0.15323989920E+04  0.46999998093E+01 0.  1.
       -5    1    3    3    0  502  0.10688489481E+04  0.42899967150E+03 -0.51526605094E+03  0.12617448178E+04  0.46999998093E+01 0. -1.
</event>
<event>
 5   0  0.2651061E-05  0.2846650E+04  0.7818609E-02  0.8288930E-01
        2   -1    0    0  501    0  0.00000000000E+00  0.00000000000E+00  0.19922609308E+04  0.19922609308E+04  0.25500000920E-02 0.  1.
       -2   -1    0    0    0  501  0.00000000000E+00  0.00000000000E+00 -0.10168614532E+04  0.10168614532E+04  0.25500000920E-02 0. -1.
    10030    2    1    2    0    0  0.00000000000E+00  0.00000000000E+00  0.97539947765E+03  0.30091223840E+04  0.28466495009E+04 0.  0.
        3    1    3    3  502    0  0.12397457716E+04  0.66622859702E+03  0.71199706591E+03  0.15772666083E+04  0.10100000352E+00 0. -1.
       -3    1    3    3    0  502 -0.12397457716E+04 -0.66622859702E+03  0.26340241174E+03  0.14318557757E+04  0.10100000352E+00 0.  1.
</event>
<event>
 5   0  0.1105862E-05  0.1948011E+04  0.7818609E-02  0.8631321E-01
       -1   -1    0    0    0  501  0.00000000000E+00  0.00000000000E+00  0.15005286487E+04  0.15005286487E+04  0.50400001928E-02 0. -1.
        1   -1    0    0  501    0  0.00000000000E+00  0.00000000000E+00 -0.63223480274E+03  0.63223480276E+03  0.50400001928E-02 0.  1.
    10030    2    1    2    0    0  0.00000000000E+00  0.00000000000E+00  0.86829384592E+03  0.21327634514E+04  0.19480107127E+04 0.  0.
        3    1    3    3  502    0  0.22606779316E+03 -0.78851765701E+03  0.10091417998E+04  0.13004744999E+04  0.10100000352E+00 0. -1.
       -3    1    3    3    0  502 -0.22606779316E+03  0.78851765701E+03 -0.14084795390E+03  0.83228895153E+03  0.10100000352E+00 0.  1.
</event>
<event>
 5   0  0.1017456E-05  0.2311869E+04  0.7818609E-02  0.8473256E-01
       -1   -1    0    0    0  501  0.00000000000E+00  0.00000000000E+00  0.11885035506E+04  0.11885035506E+04  0.50400001928E-02 0. -1.
        1   -1    0    0  501    0  0.00000000000E+00  0.00000000000E+00 -0.11242582849E+04  0.11242582849E+04  0.50400001928E-02 0.  1.
    10030    2    1    2    0    0  0.00000000000E+00  0.00000000000E+00  0.64245265658E+02  0.23127618355E+04  0.23118693418E+04 0.  0.
        5    1    3    3  502    0 -0.11129810362E+04  0.30207912387E+03 -0.46547978222E+02  0.11541955590E+04  0.46999998093E+01 0. -1.
       -5    1    3    3    0  502  0.11129810362E+04 -0.30207912387E+03  0.11079324388E+03  0.11585662765E+04  0.46999998093E+01 0.  1.
</event>
<event>
 5   0  0.2518686E-05  0.2831674E+04  0.7818609E-02  0.8293502E-01
        2   -1    0    0  501    0  0.00000000000E+00  0.00000000000E+00  0.20876252771E+04  0.20876252771E+04  0.25500000920E-02 0.  1.
       -2   -1    0    0    0  501  0.00000000000E+00  0.00000000000E+00 -0.96022705745E+03  0.96022705745E+03  0.25500000920E-02 0. -1.
    10030    2    1    2    0    0  0.00000000000E+00  0.00000000000E+00  0.11273982197E+04  0.30478523346E+04  0.28316739056E+04 0.  0.
        5    1    3    3  502    0  0.22222165243E+03 -0.13580600796E+04  0.92207856436E+03  0.16564904501E+04  0.46999998093E+01 0.  1.
       -5    1    3    3    0  502 -0.22222165243E+03  0.13580600796E+04  0.20531965532E+03  0.13913618844E+04  0.46999998093E+01 0. -1.
</event>
<event>
 5   0  0.1105862E-05  0.2455400E+04  0.7818609E-02  0.8419049E-01
        1   -1    0    0  501    0  0.00000000000E+00  0.00000000000E+00  0.31256042747E+04  0.31256042747E+04  0.50400001928E-02 0. -1.
       -1   -1    0    0    0  501  0.00000000000E+00  0.00000000000E+00 -0.48222577529E+03  0.48222577532E+03  0.50400001928E-02 0.  1.
    10030    2    1    2    0    0  0.00000000000E+00  0.00000000000E+00  0.26433784994E+04  0.36078300500E+04  0.24553997187E+04 0.  0.
        3    1    3    3  502    0 -0.10705779644E+04  0.37951029425E+03  0.63709149570E+03  0.13023251611E+04  0.10100000352E+00 0.  1.
       -3    1    3    3    0  502  0.10705779644E+04 -0.37951029425E+03  0.20062870037E+04  0.23055048889E+04  0.10100000352E+00 0. -1.
</event>
<event>
 5   0  0.1075146E-05  0.2722888E+04  0.7818609E-02  0.8327617E-01
        1   -1    0    0  501    0  0.00000000000E+00  0.00000000000E+00  0.21035324331E+04  0.21035324331E+04  0.50400001928E-02 0.  1.
       -1   -1    0    0    0  501  0.00000000000E+00  0.00000000000E+00 -0.88115071473E+03  0.88115071474E+03  0.50400001928E-02 0. -1.
    10030    2    1    2    0    0  0.00000000000E+00  0.00000000000E+00  0.12223817184E+04  0.29846831479E+04  0.27228875165E+04 0.  0.
        2    1    3    3  502    0  0.44017533584E+03 -0.67029231480E+03 -0.59481072623E+03  0.99842171131E+03  0.25500000920E-02 0. -1.
       -2    1    3    3    0  502 -0.44017533584E+03  0.67029231480E+03  0.18171924446E+04  0.19862614366E+04  0.25500000920E-02 0.  1.
</event>
<event>
 5   0  0.2588048E-05  0.2812286E+04  0.7818609E-02  0.8299464E-01
        2   -1    0    0  501    0  0.00000000000E+00  0.00000000000E+00  0.33719839097E+04  0.33719839097E+04  0.25500000920E-02 0. -1.
       -2   -1    0    0    0  501  0.00000000000E+00  0.00000000000E+00 -0.58637245224E+03  0.58637245224E+03  0.25500000920E-02 0.  1.
    10030    2    1    2    0    0  0.00000000000E+00  0.00000000000E+00  0.27856114575E+04  0.39583563620E+04  0.28122862401E+04 0.  0.
        2    1    3    3  502    0  0.12469008353E+04  0.53042665557E+03  0.19215629803E+04  0.23512801656E+04  0.25500000920E-02 0.  1.
       -2    1    3    3    0  502 -0.12469008353E+04 -0.53042665557E+03  0.86404847719E+03  0.16070761964E+04  0.25500000920E-02 0. -1.
</event>
<event>
 5   0  0.2588048E-05  0.2579556E+04  0.7818609E-02  0.8375179E-01
       -2   -1    0    0    0  501  0.00000000000E+00  0.00000000000E+00  0.15340458755E+04  0.15340458755E+04  0.25500000920E-02 0. -1.
        2   -1    0    0  501    0  0.00000000000E+00  0.00000000000E+00 -0.10844055712E+04  0.10844055712E+04  0.25500000920E-02 0.  1.
    10030    2    1    2    0    0  0.00000000000E+00  0.00000000000E+00  0.44964030430E+03  0.26184514467E+04  0.25795564688E+04 0.  0.
        2    1    3    3  502    0  0.51539415030E+03 -0.96635602728E+03  0.91630581666E+03  0.14279675946E+04  0.25500000920E-02 0. -1.
       -2    1    3    3    0  502 -0.51539415030E+03  0.96635602728E+03 -0.46666551236E+03  0.11904838521E+04  0.25500000920E-02 0.  1.
</event>
<event>
 5   0  0.2624815E-05  0.1501918E+04  0.7818609E-02  0.8883179E-01
        2   -1    0    0  501    0  0.00000000000E+00  0.00000000000E+00  0.19188765974E+04  0.19188765974E+04  0.25500000920E-02 0.  1.
       -2   -1    0    0    0  501  0.00000000000E+00  0.00000000000E+00 -0.29389038369E+03  0.29389038370E+03  0.25500000920E-02 0. -1.
    10030    2    1    2    0    0  0.00000000000E+00  0.00000000000E+00  0.16249862137E+04  0.22127669811E+04  0.15019179465E+04 0.  0.
        4    1    3    3  502    0 -0.31553560523E+03  0.47058681033E+03  0.15386389991E+04  0.16396421094E+04  0.12699999809E+01 0.  1.
       -4    1    3    3    0  502  0.31553560523E+03 -0.47058681033E+03  0.86347214558E+02  0.57312487172E+03  0.12699999809E+01 0. -1.
</event>
<event>
 5   0  0.2697964E-05  0.2543936E+04  0.7818609E-02  0.8387498E-01
       -2   -1    0    0    0  501  0.00000000000E+00  0.00000000000E+00  0.56553328643E+03  0.56553328644E+03  0.25500000920E-02 0. -1.
        2   -1    0    0  501    0  0.00000000000E+00  0.00000000000E+00 -0.28608446628E+04  0.28608446628E+04  0.25500000920E-02 0.  1.
    10030    2    1    2    0    0  0.00000000000E+00  0.00000000000E+00 -0.22953113764E+04  0.34263779492E+04  0.25439362289E+04 0.  0.
        1    1    3    3  502    0 -0.11733330131E+04  0.26727318393E+03 -0.59271876672E+03  0.13414398425E+04  0.50400001928E-02 0. -1.
       -1    1    3    3    0  502  0.11733330131E+04 -0.26727318393E+03 -0.17025926096E+04  0.20849381068E+04  0.50400001928E-02 0.  1.
</event>
<event>
 5   0  0.3459516E-05  0.1388610E+04  0.7818609E-02  0.8962105E-01
        2   -1    0    0  501    0  0.00000000000E+00  0.00000000000E+00  0.83253544330E+03  0.83253544331E+03  0.25500000920E-02 0.  1.
       -2   -1    0    0    0  501  0.00000000000E+00  0.00000000000E+00 -0.57902538624E+03  0.57902538624E+03  0.25500000920E-02 0. -1.
    10030    2    1    2    0    0  0.00000000000E+00  0.00000000000E+00  0.25351005706E+03  0.14115608296E+04  0.13886096019E+04 0.  0.
        5    1    3    3  502    0 -0.22774929380E+03  0.29949404784E+03  0.71989783617E+03  0.81230622922E+03  0.46999998093E+01 0.  1.
       -5    1    3    3    0  502  0.22774929380E+03 -0.29949404784E+03 -0.46638777910E+03  0.59925460033E+03  0.46999998093E+01 0. -1.
</event>
<event>
 5   0  0.2588048E-05  0.1770028E+04  0.7818609E-02  0.8722402E-01
       -2   -1    0    0    0  501  0.00000000000E+00  0.00000000000E+00  0.63088864248E+03  0.63088864249E+03  0.25500000920E-02 0. -1.
        2   -1    0    0  501    0  0.00000000000E+00  0.00000000000E+00 -0.12415028134E+04  0.12415028135E+04  0.25500000920E-02 0.  1.
    10030    2    1    2    0    0  0.00000000000E+00  0.00000000000E+00 -0.61061417097E+03  0.18723914559E+04  0.17700282762E+04 0.  0.
        2    1    3    3  502    0  0.70981191691E+03  0.12546834160E+03 -0.84849578731E+03  0.11133374885E+04  0.25500000920E-02 0.  1.
       -2    1    3    3    0  502 -0.70981191691E+03 -0.12546834160E+03  0.23788161634E+03  0.75905396747E+03  0.25500000920E-02 0. -1.
</event>
<event>
 5   0  0.2651061E-05  0.2804841E+04  0.7818609E-02  0.8301767E-01
       -2   -1    0    0    0  501  0.00000000000E+00  0.00000000000E+00  0.13380434345E+04  0.13380434345E+04  0.25500000920E-02 0.  1.
        2   -1    0    0  501    0  0.00000000000E+00  0.00000000000E+00 -0.14698949127E+04  0.14698949127E+04  0.25500000920E-02 0. -1.
    10030    2    1    2    0    0  0.00000000000E+00  0.00000000000E+00 -0.13185147822E+03  0.28079383472E+04  0.28048409847E+04 0.  0.
        3    1    3    3  502    0  0.79252327358E+03 -0.35834908133E+03  0.10354145785E+04  0.13522538826E+04  0.10100000352E+00 0.  1.
       -3    1    3    3    0  502 -0.79252327358E+03  0.35834908133E+03 -0.11672660568E+04  0.14556844647E+04  0.10100000352E+00 0. -1.
</event>
<event>
 5   0  0.8958000E-06  0.2647559E+04  0.7818609E-02  0.8352224E-01
        3   -1    0    0  501    0  0.00000000000E+00  0.00000000000E+00  0.12260816877E+04  0.12260816918E+04  0.10100000352E+00 0. -1.
       -3   -1    0    0    0  501  0.00000000000E+00  0.00000000000E+00 -0.14292617710E+04  0.14292617746E+04  0.10100000352E+00 0.  1.
    10030    2    1    2    0    0  0.00000000000E+00  0.00000000000E+00 -0.20318008332E+03  0.26553434664E+04  0.26475586449E+04 0.  0.
        3    1    3    3  502    0 -0.11009523906E+04  0.11817646965E+03 -0.82920917777E+03  0.13833472865E+04  0.10100000352E+00 0.  1.
       -3    1    3    3    0  502  0.11009523906E+04 -0.11817646965E+03  0.62602909445E+03  0.12719961799E+04  0.10100000352E+00 0. -1.
</event>
<event>
 5   0  0.8958000E-06  0.1563061E+04  0.7818609E-02  0.8843568E-01
       -3   -1    0    0    0  501  0.00000000000E+00  0.00000000000E+00  0.14409551932E+04  0.14409551967E+04  0.10100000352E+00 0. -1.
        3   -1    0    0  501    0  0.00000000000E+00  0.00000000000E+00 -0.42387837240E+03  0.42387838443E+03  0.10100000352E+00 0.  1.
    10030    2    1    2    0    0  0.00000000000E+00  0.00000000000E+00  0.10170768208E+04  0.18648335812E+04  0.15630607877E+04 0.  0.
        3    1    3    3  502    0 -0.83909307571E+01  0.10407482700E+03 -0.41551955855E+03  0.42843726620E+03  0.10100000352E+00 0.  1.
       -3    1    3    3    0  502  0.83909307571E+01 -0.10407482700E+03  0.14325963794E+04  0.14363963150E+04  0.10100000352E+00 0. -1.
</event>
<event>
 5   0  0.1105862E-05  0.2802732E+04  0.7818609E-02  0.8302421E-01
        1   -1    0    0  501    0  0.00000000000E+00  0.00000000000E+00  0.12939417404E+04  0.12939417404E+04  0.50400001928E-02 0.  1.
       -1   -1    0    0    0  501  0.00000000000E+00  0.00000000000E+00 -0.15177085918E+04  0.15177085918E+04  0.50400001928E-02 0. -1.
    10030    2    1    2    0    0  0.00000000000E+00  0.00000000000E+00 -0.22376685141E+03  0.28116503322E+04  0.28027318792E+04 0.  0.
        3    1    3    3  502    0 -0.11353641561E+04  0.44476601323E+03 -0.80470241871E+03  0.14609635746E+04  0.10100000352E+00 0. -1.
       -3    1    3    3    0  502  0.11353641561E+04 -0.44476601323E+03  0.58093556730E+03  0.13506867576E+04  0.10100000352E+00 0.  1.
</event>
<event>
 5   0  0.2518686E-05  0.2882415E+04  0.7818609E-02  0.8278129E-01
       -2   -1    0    0    0  501  0.00000000000E+00  0.00000000000E+00  0.25877765542E+04  0.25877765542E+04  0.25500000920E-02 0.  1.
        2   -1    0    0  501    0  0.00000000000E+00  0.00000000000E+00 -0.80265009041E+03  0.80265009041E+03  0.25500000920E-02 0. -1.
    10030    2    1    2    0    0  0.00000000000E+00  0.00000000000E+00  0.17851264638E+04  0.33904266446E+04  0.28824150188E+04 0.  0.
        5    1    3    3  502    0 -0.12972210883E+04 -0.40362538041E+03  0.14583371366E+04  0.19931044362E+04  0.46999998093E+01 0.  1.
       -5    1    3    3    0  502  0.12972210883E+04  0.40362538041E+03  0.32678932721E+03  0.13973222084E+04  0.46999998093E+01 0. -1.
</event>
<event>
 5   0  0.1067434E-05  0.2796439E+04  0.7818609E-02  0.8304375E-01
        1   -1    0    0  501    0  0.00000000000E+00  0.00000000000E+00  0.24407858159E+04  0.24407858159E+04  0.50400001928E-02 0. -1.
       -1   -1    0    0    0  501  0.00000000000E+00  0.00000000000E+00 -0.80097872241E+03  0.80097872242E+03  0.50400001928E-02 0.  1.
    10030    2    1    2    0    0  0.00000000000E+00  0.00000000000E+00  0.16398070935E+04  0.32417645383E+04  0.27964388100E+04 0.  0.
        4    1    3    3  502    0  0.12295548671E+03 -0.13314800621E+04  0.12937205860E+04  0.18605568454E+04  0.12699999809E+01 0. -1.
       -4    1    3    3    0  502 -0.12295548671E+03  0.13314800621E+04  0.34608650747E+03  0.13812076929E+04  0.12699999809E+01 0.  1.
</event>
<event>
 5   0  0.2697964E-05  0.2882176E+04  0.7818609E-02  0.8278201E-01
        2   -1    0    0  501    0  0.00000000000E+00  0.00000000000E+00  0.12946454665E+04  0.12946454665E+04  0.25500000920E-02 0.  1.
       -2   -1    0    0    0  501  0.00000000000E+00  0.00000000000E+00 -0.16040948619E+04  0.16040948619E+04  0.25500000920E-02 0. -1.
    10030    2    1    2    0    0  0.00000000000E+00  0.00000000000E+00 -0.30944939546E+03  0.28987403284E+04  0.28821756649E+04 0.  0.
        1    1    3    3  502    0 -0.92495566089E+02 -0.97171852849E+03  0.91152956306E+03  0.13355442609E+04  0.50400001928E-02 0.  1.
       -1    1    3    3    0  502  0.92495566089E+02  0.97171852849E+03 -0.12209789585E+04  0.15631960675E+04  0.50400001928E-02 0. -1.
</event>
<event>
 5   0  0.2588048E-05  0.3210216E+04  0.7818609E-02  0.8186124E-01
       -2   -1    0    0    0  501  0.00000000000E+00  0.00000000000E+00  0.22178744787E+04  0.22178744787E+04  0.25500000920E-02 0.  1.
        2   -1    0    0  501    0  0.00000000000E+00  0.00000000000E+00 -0.11616398970E+04  0.11616398970E+04  0.25500000920E-02 0. -1.
    10030    2    1    2    0    0  0.00000000000E+00  0.00000000000E+00  0.10562345817E+04  0.33795143757E+04  0.32102158687E+04 0.  0.
        2    1    3    3  502    0 -0.47879590355E+03  0.75455125254E+03 -0.87553283850E+03  0.12510598952E+04  0.25500000920E-02 0. -1.
       -2    1    3    3    0  502  0.47879590355E+03 -0.75455125254E+03  0.19317674202E+04  0.21284544805E+04  0.25500000920E-02 0.  1.
</event>
<event>
 5   0  0.1017456E-05  0.2872304E+04  0.7818609E-02  0.8281166E-01
       -1   -1    0    0    0  501  0.00000000000E+00  0.00000000000E+00  0.13228291727E+04  0.13228291728E+04  0.50400001928E-02 0. -1.
        1   -1    0    0  501    0  0.00000000000E+00  0.00000000000E+00 -0.15591831886E+04  0.15591831886E+04  0.50400001928E-02 0.  1.
    10030    2    1    2    0    0  0.00000000000E+00  0.00000000000E+00 -0.23635401587E+03  0.28820123614E+04  0.28723043067E+04 0.  0.
        5    1    3    3  502    0 -0.38376240619E+03  0.12449249213E+04 -0.72470273841E+03  0.14907473942E+04  0.46999998093E+01 0.  1.
       -5    1    3    3    0  502  0.38376240619E+03 -0.12449249213E+04  0.48834872254E+03  0.13912649672E+04  0.46999998093E+01 0. -1.
</event>
<event>
 5   0  0.2624815E-05  0.2587236E+04  0.7818609E-02  0.8372550E-01
       -2   -1    0    0    0  501  0.00000000000E+00  0.00000000000E+00  0.15616259956E+04  0.15616259956E+04  0.25500000920E-02 0.  1.
        2   -1    0    0  501    0  0.00000000000E+00  0.00000000000E+00 -0.10716054223E+04  0.10716054223E+04  0.25500000920E-02 0. -1.
    10030    2    1    2    0    0  0.00000000000E+00  0.00000000000E+00  0.49002057332E+03  0.26332314179E+04  0.25872355011E+04 0.  0.
        4    1    3    3  502    0  0.32441668755E+03  0.19421376978E+02  0.15193975692E+04  0.15537676670E+04  0.12699999809E+01 0.  1.
       -4    1    3    3    0  502 -0.32441668755E+03 -0.19421376978E+02 -0.10293769958E+04  0.10794637509E+04  0.12699999809E+01 0. -1.
</event>
<event>
 5   0  0.2518686E-05  0.2780769E+04  0.7818609E-02  0.8309264E-01
       -2   -1    0    0    0  501  0.00000000000E+00  0.00000000000E+00  0.92738647827E+03  0.92738647827E+03  0.25500000920E-02 0. -1.
        2   -1    0    0  501    0  0.00000000000E+00  0.00000000000E+00 -0.20845340845E+04  0.20845340845E+04  0.25500000920E-02 0.  1.
    10030    2    1    2    0    0  0.00000000000E+00  0.00000000000E+00 -0.11571476063E+04  0.30119205628E+04  0.27807687595E+04 0.  0.
        5    1    3    3  502    0  0.36369923134E+03  0.77799516208E+03  0.60574963749E+03  0.10509559060E+04  0.46999998093E+01 0. -1.
       -5    1    3    3    0  502 -0.36369923134E+03 -0.77799516208E+03 -0.17628972438E+04  0.19609646568E+04  0.46999998093E+01 0.  1.
</event>
<event>
 5   0  0.1067434E-05  0.2788197E+04  0.7818609E-02  0.8306942E-01
        1   -1    0    0  501    0  0.00000000000E+00  0.00000000000E+00  0.18921488240E+04  0.18921488240E+04  0.50400001928E-02 0.  1.
       -1   -1    0    0    0  501  0.00000000000E+00  0.00000000000E+00 -0.10271450428E+04  0.10271450429E+04  0.50400001928E-02 0. -1.
    10030    2    1    2    0    0  0.00000000000E+00  0.00000000000E+00  0.86500378117E+03  0.29192938669E+04  0.27881974714E+04 0.  0.
        4    1    3    3  502    0  0.10083758287E+03 -0.31004281735E+03 -0.98666759956E+03  0.10391387451E+04  0.12699999809E+01 0. -1.
       -4    1    3    3    0  502 -0.10083758287E+03  0.31004281735E+03  0.18516713807E+04  0.18801551217E+04  0.12699999809E+01 0.  1.
</event>
<event>
 5   0  0.2651061E-05  0.2627274E+04  0.7818609E-02  0.8358995E-01
       -2   -1    0    0    0  501  0.00000000000E+00  0.00000000000E+00  0.11911078457E+04  0.11911078457E+04  0.25500000920E-02 0. -1.
        2   -1    0    0  501    0  0.00000000000E+00  0.00000000000E+00 -0.14487712318E+04  0.14487712318E+04  0.25500000920E-02 0.  1.
    10030    2    1    2    0    0  0.00000000000E+00  0.00000000000E+00 -0.25766338612E+03  0.26398790775E+04  0.26272744667E+04 0.  0.
        3    1    3    3  502    0 -0.93638137193E+03 -0.74327098360E+03  0.41818896271E+03  0.12665480044E+04  0.10100000352E+00 0. -1.
       -3    1    3    3    0  502  0.93638137193E+03  0.74327098360E+03 -0.67585234883E+03  0.13733310731E+04  0.10100000352E+00 0.  1.
</event>
<event>
 5   0  0.1017456E-05  0.2847759E+04  0.7818609E-02  0.8288593E-01
        1   -1    0    0  501    0  0.00000000000E+00  0.00000000000E+00  0.21158710062E+04  0.21158710062E+04  0.50400001928E-02 0. -1.
       -1   -1    0    0    0  501  0.00000000000E+00  0.00000000000E+00 -0.95820235102E+03  0.95820235103E+03  0.50400001928E-02 0.  1.
    10030    2    1    2    0    0  0.00000000000E+00  0.00000000000E+00  0.11576686552E+04  0.30740733573E+04  0.28477588189E+04 0.  0.
        5    1    3    3  502    0  0.11740641284E+04 -0.11231925741E+03 -0.28228886596E+03  0.12127453513E+04  0.46999998093E+01 0.  1.
       -5    1    3    3    0  502 -0.11740641284E+04  0.11231925741E+03  0.14399575212E+04  0.18613280060E+04  0.46999998093E+01 0. -1.
</event>
<event>
 5   0  0.1105862E-05  0.1492750E+04  0.7818609E-02  0.8889288E-01
        1   -1    0    0  501    0  0.00000000000E+00  0.00000000000E+00  0.39983876581E+03  0.39983876585E+03  0.50400001928E-02 0.  1.
       -1   -1    0    0    0  501  0.00000000000E+00  0.00000000000E+00 -0.13932509143E+04  0.13932509143E+04  0.50400001928E-02 0. -1.
    10030    2    1    2    0    0  0.00000000000E+00  0.00000000000E+00 -0.99341214849E+03  0.17930896802E+04  0.14927501145E+04 0.  0.
        3    1    3    3  502    0 -0.24736839126E+03 -0.13489008762E+02 -0.13424239582E+04  0.13650916336E+04  0.10100000352E+00 0. -1.
       -3    1    3    3    0  502  0.24736839126E+03  0.13489008762E+02  0.34901180971E+03  0.42799804657E+03  0.10100000352E+00 0.  1.
</event>
<event>
 5   0  0.1105862E-05  0.2811067E+04  0.7818609E-02  0.8299841E-01
       -1   -1    0    0    0  501  0.00000000000E+00  0.00000000000E+00  0.10760202788E+04  0.10760202789E+04  0.50400001928E-02 0. -1.
        1   -1    0    0  501    0  0.00000000000E+00  0.00000000000E+00 -0.18359551640E+04  0.18359551640E+04  0.50400001928E-02 0.  1.
    10030    2    1    2    0    0  0.00000000000E+00  0.00000000000E+00 -0.75993488512E+03  0.29119754428E+04  0.28110674040E+04 0.  0.
        3    1    3    3  502    0  0.52967497002E+03 -0.33865548420E+03  0.92225065670E+03  0.11161493604E+04  0.10100000352E+00 0. -1.
       -3    1    3    3    0  502 -0.52967497002E+03  0.33865548420E+03 -0.16821855418E+04  0.17958260824E+04  0.10100000352E+00 0.  1.
</event>
<event>
 5   0  0.1078103E-05  0.2785262E+04  0.7818609E-02  0.8307858E-01
       -1   -1    0    0    0  501  0.00000000000E+00  0.00000000000E+00  0.14598533261E+04  0.14598533261E+04  0.50400001928E-02 0.  1.
        1   -1    0    0  501    0  0.00000000000E+00  0.00000000000E+00 -0.13285043513E+04  0.13285043514E+04  0.50400001928E-02 0. -1.
    10030    2    1    2    0    0  0.00000000000E+00  0.00000000000E+00  0.13134897474E+03  0.27883576775E+04  0.27852622829E+04 0.  0.
        1    1    3    3  502    0 -0.41009269819E+02 -0.13661725541E+04  0.33301487306E+03  0.14067722323E+04  0.50400001928E-02 0.  1.
       -1    1    3    3    0  502  0.41009269819E+02  0.13661725541E+04 -0.20166589832E+03  0.13815854452E+04  0.50400001928E-02 0. -1.
</event>
<event>
 5   0  0.2651061E-05  0.2777831E+04  0.7818609E-02  0.8310184E-01
       -2   -1    0    0    0  501  0.00000000000E+00  0.00000000000E+00  0.97626568015E+03  0.97626568016E+03  0.25500000920E-02 0.  1.
        2   -1    0    0  501    0  0.00000000000E+00  0.00000000000E+00 -0.19759851665E+04  0.19759851665E+04  0.25500000920E-02 0. -1.
    10030    2    1    2    0    0  0.00000000000E+00  0.00000000000E+00 -0.99971948630E+03  0.29522508466E+04  0.27778311702E+04 0.  0.
        3    1    3    3  502    0  0.61678388208E+03  0.56126954469E+03  0.68057434330E+03  0.10763955156E+04  0.10100000352E+00 0.  1.
       -3    1    3    3    0  502 -0.61678388208E+03 -0.56126954469E+03 -0.16802938296E+04  0.18758553310E+04  0.10100000352E+00 0. -1.
</event>
<event>
 5   0  0.8958000E-06  0.2851131E+04  0.7818609E-02  0.8287568E-01
        3   -1    0    0  501    0  0.00000000000E+00  0.00000000000E+00  0.10584572877E+04  0.10584572926E+04  0.10100000352E+00 0.  1.
       -3   -1    0    0    0  501  0.00000000000E+00  0.00000000000E+00 -0.19199993662E+04  0.19199993689E+04  0.10100000352E+00 0. -1.
    10030    2    1    2    0    0  0.00000000000E+00  0.00000000000E+00 -0.86154207848E+03  0.29784566614E+04  0.28511312371E+04 0.  0.
        4    1    3    3  502    0  0.53750057756E+03 -0.10301556628E+04  0.43201021235E+03  0.12396620495E+04  0.12699999809E+01 0.  1.
       -4    1    3    3    0  502 -0.53750057756E+03  0.10301556628E+04 -0.12935522908E+04  0.17387946119E+04  0.12699999809E+01 0. -1.
</event>
<event>
 5   0  0.2651061E-05  0.2768072E+04  0.7818609E-02  0.8313250E-01
       -2   -1    0    0    0  501  0.00000000000E+00  0.00000000000E+00  0.13440358675E+04  0.13440358675E+04  0.25500000920E-02 0. -1.
        2   -1    0    0  501    0  0.00000000000E+00  0.00000000000E+00 -0.14252262303E+04  0.14252262303E+04  0.25500000920E-02 0.  1.
    10030    2    1    2    0    0  0.00000000000E+00  0.00000000000E+00 -0.81190362802E+02  0.27692620978E+04  0.27680716557E+04 0.  0.
        3    1    3    3  502    0 -0.12566093848E+04  0.28735301467E+03  0.46352257062E+03  0.13698511177E+04  0.10100000352E+00 0. -1.
       -3    1    3    3    0  502  0.12566093848E+04 -0.28735301467E+03 -0.54471293343E+03  0.13994109801E+04  0.10100000352E+00 0.  1.
</event>
<event>
 5   0  0.2518686E-05  0.2767700E+04  0.7818609E-02  0.8313367E-01
       -2   -1    0    0    0  501  0.00000000000E+00  0.00000000000E+00  0.78308013758E+03  0.78308013758E+03  0.25500000920E-02 0.  1.
        2   -1    0    0  501    0  0.00000000000E+00  0.00000000000E+00 -0.24455237962E+04  0.24455237962E+04  0.25500000920E-02 0. -1.
    10030    2    1    2    0    0  0.00000000000E+00  0.00000000000E+00 -0.16624436586E+04  0.32286039338E+04  0.27677002083E+04 0.  0.
        5    1    3    3  502    0  0.12436125084E+04 -0.11905942778E+03 -0.15255487730E+04  0.19718185432E+04  0.46999998093E+01 0. -1.
       -5    1    3    3    0  502 -0.12436125084E+04  0.11905942778E+03 -0.13689488565E+03  0.12567853906E+04  0.46999998093E+01 0.  1.
</event>
<event>
 5   0  0.1075146E-05  0.2738422E+04  0.7818609E-02  0.8322645E-01
       -1   -1    0    0    0  501  0.00000000000E+00  0.00000000000E+00  0.13741258353E+04  0.13741258353E+04  0.50400001928E-02 0. -1.
        1   -1    0    0  501    0  0.00000000000E+00  0.00000000000E+00 -0.13643135402E+04  0.13643135402E+04  0.50400001928E-02 0.  1.
    10030    2    1    2    0    0  0.00000000000E+00  0.00000000000E+00  0.98122951133E+01  0.27384393756E+04  0.27384217959E+04 0.  0.
        2    1    3    3  502    0  0.41438336945E+03  0.56386395747E+03 -0.11719966212E+04  0.13650026445E+04  0.25500000920E-02 0.  1.
       -2    1    3    3    0  502 -0.41438336945E+03 -0.56386395747E+03  0.11818089163E+04  0.13734367310E+04  0.25500000920E-02 0. -1.
</event>
<event>
 5   0  0.1067434E-05  0.2733616E+04  0.7818609E-02  0.8324179E-01
       -1   -1    0    0    0  501  0.00000000000E+00  0.00000000000E+00  0.10014472826E+04  0.10014472826E+04  0.50400001928E-02 0.  1.
        1   -1    0    0  501    0  0.00000000000E+00  0.00000000000E+00 -0.18654642765E+04  0.18654642765E+04  0.50400001928E-02 0. -1.
    10030    2    1    2    0    0  0.00000000000E+00  0.00000000000E+00 -0.86401699386E+03  0.28669115591E+04  0.27336160158E+04 0.  0.
        4    1    3    3  502    0  0.92224786304E+03  0.65609188434E+03  0.37162273165E+03  0.11912609912E+04  0.12699999809E+01 0.  1.
       -4    1    3    3    0  502 -0.92224786304E+03 -0.65609188434E+03 -0.12356397255E+04  0.16756505679E+04  0.12699999809E+01 0. -1.
</event>
<event>
 5   0  0.2588048E-05  0.1621839E+04  0.7818609E-02  0.8807243E-01
       -2   -1    0    0    0  501  0.00000000000E+00  0.00000000000E+00  0.61655108880E+03  0.61655108880E+03  0.25500000920E-02 0.  1.
        2   -1    0    0  501    0  0.00000000000E+00  0.00000000000E+00 -0.10665628642E+04  0.10665628642E+04  0.25500000920E-02 0. -1.
    10030    2    1    2    0    0  0.00000000000E+00  0.00000000000E+00 -0.45001177544E+03  0.16831139530E+04  0.16218390737E+04 0.  0.
        2    1    3    3  502    0  0.70601387599E+03  0.39860734087E+03 -0.24131886690E+03  0.84591855448E+03  0.25500000920E-02 0.  1.
       -2    1    3    3    0  502 -0.70601387599E+03 -0.39860734087E+03 -0.20869290854E+03  0.83719539856E+03  0.25500000920E-02 0. -1.
</event>
<event>
 5   0  0.2651061E-05  0.2698605E+04  0.7818609E-02  0.8335458E-01
       -2   -1    0    0    0  501  0.00000000000E+00  0.00000000000E+00  0.15491352398E+04  0.15491352398E+04  0.25500000920E-02 0. -1.
        2   -1    0    0  501    0  0.00000000000E+00  0.00000000000E+00 -0.11752471762E+04  0.11752471762E+04  0.25500000920E-02 0.  1.
    10030    2    1    2    0    0  0.00000000000E+00  0.00000000000E+00  0.37388806355E+03  0.27243824161E+04  0.26986046885E+04 0.  0.
        3    1    3    3  502    0 -0.71315117854E+03  0.55628833978E+03 -0.82390741878E+03  0.12234642477E+04  0.10100000352E+00 0.  1.
       -3    1    3    3    0  502  0.71315117854E+03 -0.55628833978E+03  0.11977954823E+04  0.15009181684E+04  0.10100000352E+00 0. -1.
</event>
<event>
 5   0  0.1078103E-05  0.2791135E+04  0.7818609E-02  0.8306026E-01
        1   -1    0    0  501    0  0.00000000000E+00  0.00000000000E+00  0.21265774393E+04  0.21265774394E+04  0.50400001928E-02 0. -1.
       -1   -1    0    0    0  501  0.00000000000E+00  0.00000000000E+00 -0.91584195544E+03  0.91584195545E+03  0.50400001928E-02 0.  1.
    10030    2    1    2    0    0  0.00000000000E+00  0.00000000000E+00  0.12107354839E+04  0.30424193948E+04  0.27911351386E+04 0.  0.
        1    1    3    3  502    0  0.13813974029E+04  0.36140273828E+02  0.81797639665E+03  0.16058176390E+04  0.50400001928E-02 0.  1.
       -1    1    3    3    0  502 -0.13813974029E+04 -0.36140273828E+02  0.39275908725E+03  0.14366017558E+04  0.50400001928E-02 0. -1.
</event>
<event>
 5   0  0.2518686E-05  0.2748730E+04  0.7818609E-02  0.8319365E-01
        2   -1    0    0  501    0  0.00000000000E+00  0.00000000000E+00  0.13624265062E+04  0.13624265062E+04  0.25500000920E-02 0.  1.
       -2   -1    0    0    0  501  0.00000000000E+00  0.00000000000E+00 -0.13864084146E+04  0.13864084146E+04  0.25500000920E-02 0. -1.
    10030    2    1    2    0    0  0.00000000000E+00  0.00000000000E+00 -0.23981908334E+02  0.27488349208E+04  0.27487303051E+04 0.  0.
        5    1    3    3  502    0  0.10292087422E+04 -0.19036143062E+03 -0.90272647245E+03  0.13821885846E+04  0.46999998093E+01 0. -1.
       -5    1    3    3    0  502 -0.10292087422E+04  0.19036143062E+03  0.87874456412E+03  0.13666463362E+04  0.46999998093E+01 0.  1.
</event>
<event>
 5   0  0.1067434E-05  0.2757720E+04  0.7818609E-02  0.8316516E-01
        1   -1    0    0  501    0  0.00000000000E+00  0.00000000000E+00  0.19291511502E+04  0.19291511502E+04  0.50400001928E-02 0. -1.
       -1   -1    0    0    0  501  0.00000000000E+00  0.00000000000E+00 -0.98553995056E+03  0.98553995057E+03  0.50400001928E-02 0.  1.
    10030    2    1    2    0    0  0.00000000000E+00  0.00000000000E+00  0.94361119963E+03  0.29146911008E+04  0.27577204566E+04 0.  0.
        4    1    3    3  502    0  0.40798845096E+03  0.86512386972E+03  0.15214931031E+04  0.17971746609E+04  0.12699999809E+01 0. -1.
       -4    1    3    3    0  502 -0.40798845096E+03 -0.86512386972E+03 -0.57788190349E+03  0.11175164399E+04  0.12699999809E+01 0.  1.
</event>
<event>
 5   0  0.1017456E-05  0.2791432E+04  0.7818609E-02  0.8305933E-01
       -1   -1    0    0    0  501  0.00000000000E+00  0.00000000000E+00  0.60569427521E+03  0.60569427523E+03  0.50400001928E-02 0. -1.
        1   -1    0    0  501    0  0.00000000000E+00  0.00000000000E+00 -0.32161817269E+04  0.32161817269E+04  0.50400001928E-02 0.  1.
    10030    2    1    2    0    0  0.00000000000E+00  0.00000000000E+00 -0.26104874516E+04  0.38218760021E+04  0.27914317903E+04 0.  0.
        5    1    3    3  502    0 -0.80289250062E+03  0.84845620314E+03 -0.23510830532E+04  0.26252862528E+04  0.46999998093E+01 0.  1.
       -5    1    3    3    0  502  0.80289250062E+03 -0.84845620314E+03 -0.25940439849E+03  0.11965897493E+04  0.46999998093E+01 0. -1.
</event>
<event>
 5   0  0.2588048E-05  0.2760245E+04  0.7818609E-02  0.8315718E-01
        2   -1    0    0  501    0  0.00000000000E+00  0.00000000000E+00  0.21755062558E+04  0.21755062558E+04  0.25500000920E-02 0.  1.
       -2   -1    0    0    0  501  0.00000000000E+00  0.00000000000E+00 -0.87553797767E+03  0.87553797767E+03  0.25500000920E-02 0. -1.
    10030    2    1    2    0    0  0.00000000000E+00  0.00000000000E+00  0.12999682781E+04  0.30510442335E+04  0.27602451685E+04 0.  0.
        2    1    3    3  502    0 -0.36357552742E+03  0.13056838472E+04  0.36229315914E+03  0.14029446910E+04  0.25500000920E-02 0.  1.
       -2    1    3    3    0  502  0.36357552742E+03 -0.13056838472E+04  0.93767511897E+03  0.16480995424E+04  0.25500000920E-02 0. -1.
</event>
<event>
 5   0  0.1078103E-05  0.2792965E+04  0.7818609E-02  0.8305456E-01
        1   -1    0    0  501    0  0.00000000000E+00  0.00000000000E+00  0.14612143211E+04  0.14612143211E+04  0.50400001928E-02 0. -1.
       -1   -1    0    0    0  501  0.00000000000E+00  0.00000000000E+00 -0.13346179782E+04  0.13346179782E+04  0.50400001928E-02 0.  1.
    10030    2    1    2    0    0  0.00000000000E+00  0.00000000000E+00  0.12659634289E+03  0.27958322993E+04  0.27929646635E+04 0.  0.
        1    1    3    3  502    0  0.80213344997E+03 -0.86449114142E+03 -0.68540016490E+03  0.13640148061E+04  0.50400001928E-02 0.  1.
       -1    1    3    3    0  502 -0.80213344997E+03  0.86449114142E+03  0.81199650779E+03  0.14318174932E+04  0.50400001928E-02 0. -1.
</event>
<event>
 5   0  0.1075146E-05  0.2789551E+04  0.7818609E-02  0.8306520E-01
        1   -1    0    0  501    0  0.00000000000E+00  0.00000000000E+00  0.16495361484E+04  0.16495361484E+04  0.50400001928E-02 0.  1.
       -1   -1    0    0    0  501  0.00000000000E+00  0.00000000000E+00 -0.11793612250E+04  0.11793612250E+04  0.50400001928E-02 0. -1.
    10030    2    1    2    0    0  0.00000000000E+00  0.00000000000E+00  0.47017492340E+03  0.28288973734E+04  0.27895511988E+04 0.  0.
        2    1    3    3  502    0  0.33936553695E+03 -0.86384864132E+03 -0.82074886798E+03  0.12389641428E+04  0.25500000920E-02 0. -1.
       -2    1    3    3    0  502 -0.33936553695E+03  0.86384864132E+03  0.12909237914E+04  0.15899332307E+04  0.25500000920E-02 0.  1.
</event>
<event>
 5   0  0.2518686E-05  0.2706572E+04  0.7818609E-02  0.8332876E-01
        2   -1    0    0  501    0  0.00000000000E+00  0.00000000000E+00  0.23230397091E+04  0.23230397091E+04  0.25500000920E-02 0.  1.
       -2   -1    0    0    0  501  0.00000000000E+00  0.00000000000E+00 -0.78835646746E+03  0.78835646747E+03  0.25500000920E-02 0. -1.
    10030    2    1    2    0    0  0.00000000000E+00  0.00000000000E+00  0.15346832416E+04  0.31113961766E+04  0.27065722816E+04 0.  0.
        5    1    3    3  502    0  0.86043681132E+03  0.13348873454E+03 -0.42355510661E+03  0.96829322359E+03  0.46999998093E+01 0. -1.
       -5    1    3    3    0  502 -0.86043681132E+03 -0.13348873454E+03  0.19582383482E+04  0.21431029530E+04  0.46999998093E+01 0.  1.
</event>
<event>
 5   0  0.2624815E-05  0.2801580E+04  0.7818609E-02  0.8302778E-01
        2   -1    0    0  501    0  0.00000000000E+00  0.00000000000E+00  0.15224113973E+04  0.15224113973E+04  0.25500000920E-02 0.  1.
       -2   -1    0    0    0  501  0.00000000000E+00  0.00000000000E+00 -0.12888850706E+04  0.12888850706E+04  0.25500000920E-02 0. -1.
    10030    2    1    2    0    0  0.00000000000E+00  0.00000000000E+00  0.23352632665E+03  0.28112964679E+04  0.28015804977E+04 0.  0.
        4    1    3    3  502    0 -0.72433290170E+02 -0.13718597069E+04 -0.15798570835E+03  0.13828256340E+04  0.12699999809E+01 0. -1.
       -4    1    3    3    0  502  0.72433290170E+02  0.13718597069E+04  0.39151203500E+03  0.14284708339E+04  0.12699999809E+01 0.  1.
</event>
<event>
 5   0  0.1075146E-05  0.1633621E+04  0.7818609E-02  0.8800155E-01
       -1   -1    0    0    0  501  0.00000000000E+00  0.00000000000E+00  0.30226612748E+03  0.30226612752E+03  0.50400001928E-02 0. -1.
        1   -1    0    0  501    0  0.00000000000E+00  0.00000000000E+00 -0.22072595486E+04  0.22072595486E+04  0.50400001928E-02 0.  1.
    10030    2    1    2    0    0  0.00000000000E+00  0.00000000000E+00 -0.19049934211E+04  0.25095256761E+04  0.16336214937E+04 0.  0.
        2    1    3    3  502    0 -0.51478137470E+03  0.12469617298E+03 -0.19076837630E+04  0.19798500799E+04  0.25500000920E-02 0.  1.
       -2    1    3    3    0  502  0.51478137470E+03 -0.12469617298E+03  0.26903418754E+01  0.52967559623E+03  0.25500000920E-02 0. -1.
</event>
<event>
 5   0  0.1105862E-05  0.2089887E+04  0.7818609E-02  0.8565712E-01
        1   -1    0    0  501    0  0.00000000000E+00  0.00000000000E+00  0.75316038893E+03  0.75316038895E+03  0.50400001928E-02 0. -1.
       -1   -1    0    0    0  501  0.00000000000E+00  0.00000000000E+00 -0.14497661282E+04  0.14497661282E+04  0.50400001928E-02 0.  1.
    10030    2    1    2    0    0  0.00000000000E+00  0.00000000000E+00 -0.69660573924E+03  0.22029265171E+04  0.20898865242E+04 0.  0.
        3    1    3    3  502    0  0.56648416661E+03 -0.49393478999E+03  0.41693277129E+03  0.85948172392E+03  0.10100000352E+00 0. -1.
       -3    1    3    3    0  502 -0.56648416661E+03  0.49393478999E+03 -0.11135385105E+04  0.13434447932E+04  0.10100000352E+00 0.  1.
</event>
<event>
 5   0  0.1075146E-05  0.1862481E+04  0.7818609E-02  0.8673761E-01
       -1   -1    0    0    0  501  0.00000000000E+00  0.00000000000E+00  0.52182516989E+03  0.52182516991E+03  0.50400001928E-02 0.  1.
        1   -1    0    0  501    0  0.00000000000E+00  0.00000000000E+00 -0.16618768287E+04  0.16618768287E+04  0.50400001928E-02 0. -1.
    10030    2    1    2    0    0  0.00000000000E+00  0.00000000000E+00 -0.11400516588E+04  0.21837019986E+04  0.18624813110E+04 0.  0.
        2    1    3    3  502    0  0.35965310853E+03 -0.80332959378E+03 -0.21339398975E+03  0.90566317668E+03  0.25500000920E-02 0.  1.
       -2    1    3    3    0  502 -0.35965310853E+03  0.80332959378E+03 -0.92665766902E+03  0.12780388219E+04  0.25500000920E-02 0. -1.
</event>
<event>
 5   0  0.2651061E-05  0.2933017E+04  0.7818609E-02  0.8263121E-01
       -2   -1    0    0    0  501  0.00000000000E+00  0.00000000000E+00  0.12435126204E+04  0.12435126204E+04  0.25500000920E-02 0.  1.
        2   -1    0    0  501    0  0.00000000000E+00  0.00000000000E+00 -0.17294940958E+04  0.17294940958E+04  0.25500000920E-02 0. -1.
    10030    2    1    2    0    0  0.00000000000E+00  0.00000000000E+00 -0.48598147548E+03  0.29730067162E+04  0.29330173781E+04 0.  0.
        3    1    3    3  502    0 -0.14664129735E+04  0.21763112885E+01 -0.22615160366E+03  0.14837507551E+04  0.10100000352E+00 0.  1.
       -3    1    3    3    0  502  0.14664129735E+04 -0.21763112885E+01 -0.25982987183E+03  0.14892559611E+04  0.10100000352E+00 0. -1.
</event>
<event>
 5   0  0.1017456E-05  0.1659591E+04  0.7818609E-02  0.8784753E-01
        1   -1    0    0  501    0  0.00000000000E+00  0.00000000000E+00  0.10002997407E+04  0.10002997407E+04  0.50400001928E-02 0.  1.
       -1   -1    0    0    0  501  0.00000000000E+00  0.00000000000E+00 -0.68835445617E+03  0.68835445619E+03  0.50400001928E-02 0. -1.
    10030    2    1    2    0    0  0.00000000000E+00  0.00000000000E+00  0.31194528452E+03  0.16886541969E+04  0.16595912557E+04 0.  0.
        5    1    3    3  502    0 -0.53460970706E+03  0.60594390348E+03  0.34785703036E+03  0.87977392358E+03  0.46999998093E+01 0. -1.
       -5    1    3    3    0  502  0.53460970706E+03 -0.60594390348E+03 -0.35911745840E+02  0.80888027330E+03  0.46999998093E+01 0.  1.
</event>
<event>
 5   0  0.1067434E-05  0.2844927E+04  0.7818609E-02  0.8289454E-01
       -1   -1    0    0    0  501  0.00000000000E+00  0.00000000000E+00  0.33204230439E+04  0.33204230439E+04  0.50400001928E-02 0. -1.
        1   -1    0    0  501    0  0.00000000000E+00  0.00000000000E+00 -0.60938109763E+03  0.60938109765E+03  0.50400001928E-02 0.  1.
    10030    2    1    2    0    0  0.00000000000E+00  0.00000000000E+00  0.27110419463E+04  0.39298041416E+04  0.28449274431E+04 0.  0.
        4    1    3    3  502    0 -0.11853678917E+04  0.44565344495E+03  0.46063469687E+03  0.13475496164E+04  0.12699999809E+01 0. -1.
       -4    1    3    3    0  502  0.11853678917E+04 -0.44565344495E+03  0.22504072494E+04  0.25822545252E+04  0.12699999809E+01 0.  1.
</event>
<event>
 5   0  0.1105862E-05  0.2832389E+04  0.7818609E-02  0.8293283E-01
        1   -1    0    0  501    0  0.00000000000E+00  0.00000000000E+00  0.11591921438E+04  0.11591921439E+04  0.50400001928E-02 0. -1.
       -1   -1    0    0    0  501  0.00000000000E+00  0.00000000000E+00 -0.17301766570E+04  0.17301766570E+04  0.50400001928E-02 0.  1.
    10030    2    1    2    0    0  0.00000000000E+00  0.00000000000E+00 -0.57098451314E+03  0.28893688008E+04  0.28323892305E+04 0.  0.
        3    1    3    3  502    0  0.55762033242E+03 -0.75708699536E+01 -0.16134518274E+04  0.17071100031E+04  0.10100000352E+00 0.  1.
       -3    1    3    3    0  502 -0.55762033242E+03  0.75708699536E+01  0.10424673143E+04  0.11822587977E+04  0.10100000352E+00 0. -1.
</event>
<event>
 5   0  0.2697964E-05  0.2387397E+04  0.7818609E-02  0.8444237E-01
        2   -1    0    0  501    0  0.00000000000E+00  0.00000000000E+00  0.14159070975E+04  0.14159070975E+04  0.25500000920E-02 0. -1.
       -2   -1    0    0    0  501  0.00000000000E+00  0.00000000000E+00 -0.10063630259E+04  0.10063630259E+04  0.25500000920E-02 0.  1.
    10030    2    1    2    0    0  0.00000000000E+00  0.00000000000E+00  0.40954407157E+03  0.24222701233E+04  0.23873973703E+04 0.  0.
        1    1    3    3  502    0  0.40193142535E+02  0.29813475757E+03  0.13768151838E+04  0.14092976523E+04  0.50400001928E-02 0. -1.
       -1    1    3    3    0  502 -0.40193142535E+02 -0.29813475757E+03 -0.96727111228E+03  0.10129724710E+04  0.50400001928E-02 0.  1.
</event>
<event>
 5   0  0.1078103E-05  0.2179105E+04  0.7818609E-02  0.8527176E-01
       -1   -1    0    0    0  501  0.00000000000E+00  0.00000000000E+00  0.16185407875E+04  0.16185407875E+04  0.50400001928E-02 0. -1.
        1   -1    0    0  501    0  0.00000000000E+00  0.00000000000E+00 -0.73345393097E+03  0.73345393099E+03  0.50400001928E-02 0.  1.
    10030    2    1    2    0    0  0.00000000000E+00  0.00000000000E+00  0.88508685656E+03  0.23519947185E+04  0.21791054156E+04 0.  0.
        1    1    3    3  502    0  0.95090080597E+03  0.43556074317E+03  0.77205079214E+03  0.12999953575E+04  0.50400001928E-02 0. -1.
       -1    1    3    3    0  502 -0.95090080597E+03 -0.43556074317E+03  0.11303606442E+03  0.10519993611E+04  0.50400001928E-02 0.  1.
</event>
<event>
 5   0  0.2651061E-05  0.2832018E+04  0.7818609E-02  0.8293396E-01
       -2   -1    0    0    0  501  0.00000000000E+00  0.00000000000E+00  0.10592498720E+04  0.10592498720E+04  0.25500000920E-02 0. -1.
        2   -1    0    0  501    0  0.00000000000E+00  0.00000000000E+00 -0.18929262744E+04  0.18929262744E+04  0.25500000920E-02 0.  1.
    10030    2    1    2    0    0  0.00000000000E+00  0.00000000000E+00 -0.83367640244E+03  0.29521761464E+04  0.28320183007E+04 0.  0.
        3    1    3    3  502    0 -0.13571408101E+04  0.37287986716E+03 -0.57903995048E+03  0.15218928505E+04  0.10100000352E+00 0. -1.
       -3    1    3    3    0  502  0.13571408101E+04 -0.37287986716E+03 -0.25463645196E+03  0.14302832960E+04  0.10100000352E+00 0.  1.
</event>
<event>
 5   0  0.2651061E-05  0.2725322E+04  0.7818609E-02  0.8326835E-01
        2   -1    0    0  501    0  0.00000000000E+00  0.00000000000E+00  0.13868926989E+04  0.13868926989E+04  0.25500000920E-02 0.  1.
       -2   -1    0    0    0  501  0.00000000000E+00  0.00000000000E+00 -0.13388526380E+04  0.13388526380E+04  0.25500000920E-02 0. -1.
    10030    2    1    2    0    0  0.00000000000E+00  0.00000000000E+00  0.48040060865E+02  0.27257453369E+04  0.27253219615E+04 0.  0.
        3    1    3    3  502    0  0.37622288039E+02 -0.13535456242E+04  0.17683036511E+03  0.13655658833E+04  0.10100000352E+00 0. -1.
       -3    1    3    3    0  502 -0.37622288039E+02  0.13535456242E+04 -0.12879030424E+03  0.13601794536E+04  0.10100000352E+00 0.  1.
</event>
<event>
 5   0  0.2624815E-05  0.2635203E+04  0.7818609E-02  0.8356341E-01
        2   -1    0    0  501    0  0.00000000000E+00  0.00000000000E+00  0.28405126119E+04  0.28405126119E+04  0.25500000920E-02 0. -1.
       -2   -1    0    0    0  501  0.00000000000E+00  0.00000000000E+00 -0.61118333790E+03  0.61118333791E+03  0.25500000920E-02 0.  1.
    10030    2    1    2    0    0  0.00000000000E+00  0.00000000000E+00  0.22293292740E+04  0.34516959499E+04  0.26352032024E+04 0.  0.
        4    1    3    3  502    0 -0.10716238786E+03  0.94837292587E+03 -0.75184996848E+02  0.95736585512E+03  0.12699999809E+01 0.  1.
       -4    1    3    3    0  502  0.10716238786E+03 -0.94837292587E+03  0.23045142709E+04  0.24943300947E+04  0.12699999809E+01 0. -1.
</event>
<event>
 5   0  0.1105862E-05  0.2798827E+04  0.7818609E-02  0.8303633E-01
       -1   -1    0    0    0  501  0.00000000000E+00  0.00000000000E+00  0.90231911129E+03  0.90231911131E+03  0.50400001928E-02 0. -1.
        1   -1    0    0  501    0  0.00000000000E+00  0.00000000000E+00 -0.21703612433E+04  0.21703612433E+04  0.50400001928E-02 0.  1.
    10030    2    1    2    0    0  0.00000000000E+00  0.00000000000E+00 -0.12680421320E+04  0.30726803546E+04  0.27988272031E+04 0.  0.
        3    1    3    3  502    0 -0.95857914843E+03 -0.67291316000E+03  0.20686875226E+03  0.11893194674E+04  0.10100000352E+00 0.  1.
       -3    1    3    3    0  502  0.95857914843E+03  0.67291316000E+03 -0.14749108843E+04  0.18833608872E+04  0.10100000352E+00 0. -1.
</event>
<event>
 5   0  0.2624815E-05  0.2752069E+04  0.7818609E-02  0.8318305E-01
        2   -1    0    0  501    0  0.00000000000E+00  0.00000000000E+00  0.20351671633E+04  0.20351671633E+04  0.25500000920E-02 0. -1.
       -2   -1    0    0    0  501  0.00000000000E+00  0.00000000000E+00 -0.93037607571E+03  0.93037607571E+03  0.25500000920E-02 0.  1.
    10030    2    1    2    0    0  0.00000000000E+00  0.00000000000E+00  0.11047910876E+04  0.29655432390E+04  0.27520689227E+04 0.  0.
        4    1    3    3  502    0  0.68223376911E+03 -0.11910088106E+04  0.44723277310E+03  0.14435940111E+04  0.12699999809E+01 0.  1.
       -4    1    3    3    0  502 -0.68223376911E+03  0.11910088106E+04  0.65755831452E+03  0.15219492280E+04  0.12699999809E+01 0. -1.
</event>
<event>
 5   0  0.1017456E-05  0.2815216E+04  0.7818609E-02  0.8298560E-01
       -1   -1    0    0    0  501  0.00000000000E+00  0.00000000000E+00  0.12220308257E+04  0.12220308257E+04  0.50400001928E-02 0. -1.
        1   -1    0    0  501    0  0.00000000000E+00  0.00000000000E+00 -0.16213665391E+04  0.16213665391E+04  0.50400001928E-02 0.  1.
    10030    2    1    2    0    0  0.00000000000E+00  0.00000000000E+00 -0.39933571338E+03  0.28433973647E+04  0.28152157221E+04 0.  0.
        5    1    3    3  502    0 -0.26260979478E+03 -0.57304846405E+03  0.10714973773E+04  0.12431722190E+04  0.46999998093E+01 0. -1.
       -5    1    3    3    0  502  0.26260979478E+03  0.57304846405E+03 -0.14708330907E+04  0.16002251458E+04  0.46999998093E+01 0.  1.
</event>
<event>
 5   0  0.2697964E-05  0.2722800E+04  0.7818609E-02  0.8327645E-01
        2   -1    0    0  501    0  0.00000000000E+00  0.00000000000E+00  0.16291849952E+04  0.16291849952E+04  0.25500000920E-02 0. -1.
       -2   -1    0    0    0  501  0.00000000000E+00  0.00000000000E+00 -0.11376301681E+04  0.11376301681E+04  0.25500000920E-02 0.  1.
    10030    2    1    2    0    0  0.00000000000E+00  0.00000000000E+00  0.49155482710E+03  0.27668151633E+04  0.27228000294E+04 0.  0.
        1    1    3    3  502    0 -0.78762914331E+03 -0.97665463574E+03 -0.29115427928E+03  0.12880158226E+04  0.50400001928E-02 0. -1.
       -1    1    3    3    0  502  0.78762914331E+03  0.97665463574E+03  0.78270910638E+03  0.14787993407E+04  0.50400001928E-02 0.  1.
</event>
<event>
 5   0  0.1075146E-05  0.2795244E+04  0.7818609E-02  0.8304746E-01
       -1   -1    0    0    0  501  0.00000000000E+00  0.00000000000E+00  0.10417940181E+04  0.10417940182E+04  0.50400001928E-02 0.  1.
        1   -1    0    0  501    0  0.00000000000E+00  0.00000000000E+00 -0.18749839301E+04  0.18749839301E+04  0.50400001928E-02 0. -1.
    10030    2    1    2    0    0  0.00000000000E+00  0.00000000000E+00 -0.83318991195E+03  0.29167779482E+04  0.27952438480E+04 0.  0.
        2    1    3    3  502    0 -0.13130910425E+04 -0.22478703585E+02 -0.91554119840E+03  0.16009150708E+04  0.25500000920E-02 0. -1.
       -2    1    3    3    0  502  0.13130910425E+04  0.22478703585E+02  0.82351286449E+02  0.13158628775E+04  0.25500000920E-02 0.  1.
</event>
<event>
 5   0  0.2518686E-05  0.2878608E+04  0.7818609E-02  0.8279271E-01
        2   -1    0    0  501    0  0.00000000000E+00  0.00000000000E+00  0.10883803696E+04  0.10883803696E+04  0.25500000920E-02 0. -1.
       -2   -1    0    0    0  501  0.00000000000E+00  0.00000000000E+00 -0.19033755589E+04  0.19033755589E+04  0.25500000920E-02 0.  1.
    10030    2    1    2    0    0  0.00000000000E+00  0.00000000000E+00 -0.81499518930E+03  0.29917559284E+04  0.28786084098E+04 0.  0.
        5    1    3    3  502    0 -0.80554326318E+03 -0.25258263539E+03  0.80403073910E+03  0.11658410938E+04  0.46999998093E+01 0. -1.
       -5    1    3    3    0  502  0.80554326318E+03  0.25258263539E+03 -0.16190259284E+04  0.18259148346E+04  0.46999998093E+01 0.  1.
</event>
<event>
 5   0  0.1105862E-05  0.2837973E+04  0.7818609E-02  0.8291575E-01
        1   -1    0    0  501    0  0.00000000000E+00  0.00000000000E+00  0.16800599332E+04  0.16800599332E+04  0.50400001928E-02 0.  1.
       -1   -1    0    0    0  501  0.00000000000E+00  0.00000000000E+00 -0.11984825718E+04  0.11984825718E+04  0.50400001928E-02 0. -1.
    10030    2    1    2    0    0  0.00000000000E+00  0.00000000000E+00  0.48157736147E+03  0.28785425050E+04  0.28379729030E+04 0.  0.
        3    1    3    3  502    0 -0.12007989635E+04 -0.70645113466E+03 -0.32377406593E+02  0.13935708318E+04  0.10100000352E+00 0. -1.
       -3    1    3    3    0  502  0.12007989635E+04  0.70645113466E+03  0.51395476807E+03  0.14849716732E+04  0.10100000352E+00 0.  1.
</event>
<event>
 5   0  0.1105862E-05  0.2787452E+04  0.7818609E-02  0.8307175E-01
        1   -1    0    0  501    0  0.00000000000E+00  0.00000000000E+00  0.21925811430E+04  0.21925811430E+04  0.50400001928E-02 0.  1.
       -1   -1    0    0    0  501  0.00000000000E+00  0.00000000000E+00 -0.88592955011E+03  0.88592955013E+03  0.50400001928E-02 0. -1.
    10030    2    1    2    0    0  0.00000000000E+00  0.00000000000E+00  0.13066515929E+04  0.30785106931E+04  0.27874521884E+04 0.  0.
        3    1    3    3  502    0  0.12487526641E+02  0.70503450463E+03  0.19810370931E+04  0.21027928014E+04  0.10100000352E+00 0.  1.
       -3    1    3    3    0  502 -0.12487526641E+02 -0.70503450463E+03 -0.67438550027E+03  0.97571789172E+03  0.10100000352E+00 0. -1.
</event>
<event>
 5   0  0.8958000E-06  0.2636715E+04  0.7818609E-02  0.8355836E-01
        3   -1    0    0  501    0  0.00000000000E+00  0.00000000000E+00  0.19226741208E+04  0.19226741235E+04  0.10100000352E+00 0.  1.
       -3   -1    0    0    0  501  0.00000000000E+00  0.00000000000E+00 -0.90398392337E+03  0.90398392901E+03  0.10100000352E+00 0. -1.
    10030    2    1    2    0    0  0.00000000000E+00  0.00000000000E+00  0.10186901974E+04  0.28266580525E+04  0.26367150068E+04 0.  0.
        1    1    3    3  502    0  0.21776410575E+03  0.11563029952E+04  0.11468324091E+04  0.16430710261E+04  0.50400001928E-02 0.  1.
       -1    1    3    3    0  502 -0.21776410575E+03 -0.11563029952E+04 -0.12814221162E+03  0.11835870263E+04  0.50400001928E-02 0. -1.
</event>
<event>
 5   0  0.1078103E-05  0.1573336E+04  0.7818609E-02  0.8837098E-01
        1   -1    0    0  501    0  0.00000000000E+00  0.00000000000E+00  0.37152214738E+03  0.37152214742E+03  0.50400001928E-02 0.  1.
       -1   -1    0    0    0  501  0.00000000000E+00  0.00000000000E+00 -0.16657050539E+04  0.16657050539E+04  0.50400001928E-02 0. -1.
    10030    2    1    2    0    0  0.00000000000E+00  0.00000000000E+00 -0.12941829065E+04  0.20372272013E+04  0.15733357157E+04 0.  0.
        1    1    3    3  502    0  0.47725671844E+02 -0.25924040384E+03  0.31263566068E+03  0.40893078032E+03  0.50400001928E-02 0.  1.
       -1    1    3    3    0  502 -0.47725671844E+02  0.25924040384E+03 -0.16068185672E+04  0.16282964210E+04  0.50400001928E-02 0. -1.
</event>
<event>
 5   0  0.1075146E-05  0.2608548E+04  0.7818609E-02  0.8365303E-01
       -1   -1    0    0    0  501  0.00000000000E+00  0.00000000000E+00  0.19442114318E+04  0.19442114319E+04  0.50400001928E-02 0. -1.
        1   -1    0    0  501    0  0.00000000000E+00  0.00000000000E+00 -0.87497226869E+03  0.87497226871E+03  0.50400001928E-02 0.  1.
    10030    2    1    2    0    0  0.00000000000E+00  0.00000000000E+00  0.10692391632E+04  0.28191837006E+04  0.26085483222E+04 0.  0.
        2    1    3    3  502    0 -0.49982113807E+03  0.24810056947E+03  0.18086909973E+04  0.18928122428E+04  0.25500000920E-02 0. -1.
       -2    1    3    3    0  502  0.49982113807E+03 -0.24810056947E+03 -0.73945183419E+03  0.92637145775E+03  0.25500000920E-02 0.  1.
</event>
<event>
 5   0  0.1017456E-05  0.2994622E+04  0.7818609E-02  0.8245268E-01
       -1   -1    0    0    0  501  0.00000000000E+00  0.00000000000E+00  0.12631550104E+04  0.12631550104E+04  0.50400001928E-02 0. -1.
        1   -1    0    0  501    0  0.00000000000E+00  0.00000000000E+00 -0.17748735942E+04  0.17748735942E+04  0.50400001928E-02 0.  1.
    10030    2    1    2    0    0  0.00000000000E+00  0.00000000000E+00 -0.51171858382E+03  0.30380286046E+04  0.29946221620E+04 0.  0.
        5    1    3    3  502    0  0.33834416591E+03  0.16749135651E+03  0.12140691928E+04  0.12714229131E+04  0.46999998093E+01 0. -1.
       -5    1    3    3    0  502 -0.33834416591E+03 -0.16749135651E+03 -0.17257877766E+04  0.17666056915E+04  0.46999998093E+01 0.  1.
</event>
<event>
 5   0  0.2518686E-05  0.2610206E+04  0.7818609E-02  0.8364743E-01
        2   -1    0    0  501    0  0.00000000000E+00  0.00000000000E+00  0.10553900385E+04  0.10553900385E+04  0.25500000920E-02 0. -1.
       -2   -1    0    0    0  501  0.00000000000E+00  0.00000000000E+00 -0.16138997692E+04  0.16138997692E+04  0.25500000920E-02 0.  1.
    10030    2    1    2    0    0  0.00000000000E+00  0.00000000000E+00 -0.55850973066E+03  0.26692898077E+04  0.26102059226E+04 0.  0.
        5    1    3    3  502    0 -0.97657655926E+03  0.48290306183E+01  0.60610588158E+03  0.11493961568E+04  0.46999998093E+01 0. -1.
       -5    1    3    3    0  502  0.97657655926E+03 -0.48290306183E+01 -0.11646156122E+04  0.15198936509E+04  0.46999998093E+01 0.  1.
</event>
<event>
 5   0  0.1017456E-05  0.2771393E+04  0.7818609E-02  0.8312205E-01
        1   -1    0    0  501    0  0.00000000000E+00  0.00000000000E+00  0.17554939022E+04  0.17554939022E+04  0.50400001928E-02 0. -1.
       -1   -1    0    0    0  501  0.00000000000E+00  0.00000000000E+00 -0.10937973736E+04  0.10937973736E+04  0.50400001928E-02 0.  1.
    10030    2    1    2    0    0  0.00000000000E+00  0.00000000000E+00  0.66169652861E+03  0.28492912758E+04  0.27713928769E+04 0.  0.
        5    1    3    3  502    0 -0.13644041086E+04  0.76611084014E+02  0.56678662530E+03  0.14794380685E+04  0.46999998093E+01 0.  1.
       -5    1    3    3    0  502  0.13644041086E+04 -0.76611084014E+02  0.94909903307E+02  0.13698532073E+04  0.46999998093E+01 0. -1.
</event>
<event>
 5   0  0.2697964E-05  0.2586064E+04  0.7818609E-02  0.8372950E-01
        2   -1    0    0  501    0  0.00000000000E+00  0.00000000000E+00  0.14259798876E+04  0.14259798876E+04  0.25500000920E-02 0.  1.
       -2   -1    0    0    0  501  0.00000000000E+00  0.00000000000E+00 -0.11724792362E+04  0.11724792362E+04  0.25500000920E-02 0. -1.
    10030    2    1    2    0    0  0.00000000000E+00  0.00000000000E+00  0.25350065138E+03  0.25984591238E+04  0.25860640437E+04 0.  0.
        1    1    3    3  502    0 -0.22310169333E+03 -0.12053639958E+04  0.54012843224E+03  0.13395579313E+04  0.50400001928E-02 0.  1.
       -1    1    3    3    0  502  0.22310169333E+03  0.12053639958E+04 -0.28662778085E+03  0.12589011926E+04  0.50400001928E-02 0. -1.
</event>
<event>
 5   0  0.1078103E-05  0.2740881E+04  0.7818609E-02  0.8321861E-01
       -1   -1    0    0    0  501  0.00000000000E+00  0.00000000000E+00  0.14315021013E+04  0.14315021013E+04  0.50400001928E-02 0. -1.
        1   -1    0    0  501    0  0.00000000000E+00  0.00000000000E+00 -0.13119836956E+04  0.13119836956E+04  0.50400001928E-02 0.  1.
    10030    2    1    2    0    0  0.00000000000E+00  0.00000000000E+00  0.11951840563E+03  0.27434857969E+04  0.27408811847E+04 0.  0.
        1    1    3    3  502    0  0.26606908709E+03 -0.93244715487E+03  0.10291096384E+04  0.14139721014E+04  0.50400001928E-02 0. -1.
       -1    1    3    3    0  502 -0.26606908709E+03  0.93244715487E+03 -0.90959123276E+03  0.13295136955E+04  0.50400001928E-02 0.  1.
</event>
<event>
 5   0  0.2624815E-05  0.2395484E+04  0.7818609E-02  0.8441196E-01
       -2   -1    0    0    0  501  0.00000000000E+00  0.00000000000E+00  0.89744916985E+03  0.89744916985E+03  0.25500000920E-02 0. -1.
        2   -1    0    0  501    0  0.00000000000E+00  0.00000000000E+00 -0.15985149501E+04  0.15985149501E+04  0.25500000920E-02 0.  1.
    10030    2    1    2    0    0  0.00000000000E+00  0.00000000000E+00 -0.70106578024E+03  0.24959641199E+04  0.23954840137E+04 0.  0.
        4    1    3    3  502    0  0.84203712467E+02 -0.40352465670E+03  0.82120986375E+03  0.91886324716E+03  0.12699999809E+01 0. -1.
       -4    1    3    3    0  502 -0.84203712467E+02  0.40352465670E+03 -0.15222756440E+04  0.15771008728E+04  0.12699999809E+01 0.  1.
</event>
<event>
 5   0  0.2651061E-05  0.2710168E+04  0.7818609E-02  0.8331713E-01
        2   -1    0    0  501    0  0.00000000000E+00  0.00000000000E+00  0.55462593245E+03  0.55462593246E+03  0.25500000920E-02 0. -1.
       -2   -1    0    0    0  501  0.00000000000E+00  0.00000000000E+00 -0.33107941426E+04  0.33107941426E+04  0.25500000920E-02 0.  1.
    10030    2    1    2    0    0  0.00000000000E+00  0.00000000000E+00 -0.27561682101E+04  0.38654200750E+04  0.27101677354E+04 0.  0.
        3    1    3    3  502    0 -0.12886908178E+04  0.43463985408E+02 -0.78375864442E+03  0.15089369652E+04  0.10100000352E+00 0. -1.
       -3    1    3    3    0  502  0.12886908178E+04 -0.43463985408E+02 -0.19724095657E+04  0.23564831099E+04  0.10100000352E+00 0.  1.
</event>
<event>
 5   0  0.1105862E-05  0.2909880E+04  0.7818609E-02  0.8269944E-01
       -1   -1    0    0    0  501  0.00000000000E+00  0.00000000000E+00  0.16536035188E+04  0.16536035188E+04  0.50400001928E-02 0.  1.
        1   -1    0    0  501    0  0.00000000000E+00  0.00000000000E+00 -0.12801436838E+04  0.12801436838E+04  0.50400001928E-02 0. -1.
    10030    2    1    2    0    0  0.00000000000E+00  0.00000000000E+00  0.37345983496E+03  0.29337472026E+04  0.29098797914E+04 0.  0.
        3    1    3    3  502    0  0.10280867632E+04  0.96611984375E+03 -0.17185593502E+03  0.14212263781E+04  0.10100000352E+00 0. -1.
       -3    1    3    3    0  502 -0.10280867632E+04 -0.96611984375E+03  0.54531576998E+03  0.15125208245E+04  0.10100000352E+00 0.  1.
</event>
<event>
 5   0  0.1017456E-05  0.2853702E+04  0.7818609E-02  0.8286787E-01
       -1   -1    0    0    0  501  0.00000000000E+00  0.00000000000E+00  0.14036139165E+04  0.14036139165E+04  0.50400001928E-02 0. -1.
        1   -1    0    0  501    0  0.00000000000E+00  0.00000000000E+00 -0.14504725915E+04  0.14504725915E+04  0.50400001928E-02 0.  1.
    10030    2    1    2    0    0  0.00000000000E+00  0.00000000000E+00 -0.46858675034E+02  0.28540865080E+04  0.28537018168E+04 0.  0.
        5    1    3    3  502    0  0.77768232273E+03 -0.88306061952E+03 -0.83056698296E+03  0.14402949198E+04  0.46999998093E+01 0.  1.
       -5    1    3    3    0  502 -0.77768232273E+03  0.88306061952E+03  0.78370830792E+03  0.14137915882E+04  0.46999998093E+01 0. -1.
</event>
<event>
 5   0  0.8958000E-06  0.2918861E+04  0.7818609E-02  0.8267288E-01
       -3   -1    0    0    0  501  0.00000000000E+00  0.00000000000E+00  0.13472195131E+04  0.13472195169E+04  0.10100000352E+00 0.  1.
        3   -1    0    0  501    0  0.00000000000E+00  0.00000000000E+00 -0.15809879203E+04  0.15809879235E+04  0.10100000352E+00 0. -1.
    10030    2    1    2    0    0  0.00000000000E+00  0.00000000000E+00 -0.23376840723E+03  0.29282074404E+04  0.29188612755E+04 0.  0.
        5    1    3    3  502    0 -0.54432420096E+03 -0.13519049341E+04 -0.39306717132E+02  0.14579104549E+04  0.46999998093E+01 0. -1.
       -5    1    3    3    0  502  0.54432420096E+03  0.13519049341E+04 -0.19446169010E+03  0.14702969855E+04  0.46999998093E+01 0.  1.
</event>
<event>
 5   0  0.1067434E-05  0.2751936E+04  0.7818609E-02  0.8318348E-01
        1   -1    0    0  501    0  0.00000000000E+00  0.00000000000E+00  0.88783484650E+03  0.88783484651E+03  0.50400001928E-02 0. -1.
       -1   -1    0    0    0  501  0.00000000000E+00  0.00000000000E+00 -0.21324773794E+04  0.21324773794E+04  0.50400001928E-02 0.  1.
    10030    2    1    2    0    0  0.00000000000E+00  0.00000000000E+00 -0.12446425329E+04  0.30203122259E+04  0.27519358473E+04 0.  0.
        4    1    3    3  502    0  0.29022884092E+03  0.15767668532E+03 -0.20883222296E+04  0.21142814535E+04  0.12699999809E+01 0.  1.
       -4    1    3    3    0  502 -0.29022884092E+03 -0.15767668532E+03  0.84367969664E+03  0.90603077245E+03  0.12699999809E+01 0. -1.
</event>
<event>
 5   0  0.2651061E-05  0.2373878E+04  0.7818609E-02  0.8449349E-01
        2   -1    0    0  501    0  0.00000000000E+00  0.00000000000E+00  0.91693340130E+03  0.91693340130E+03  0.25500000920E-02 0.  1.
       -2   -1    0    0    0  501  0.00000000000E+00  0.00000000000E+00 -0.15364516036E+04  0.15364516036E+04  0.25500000920E-02 0. -1.
    10030    2    1    2    0    0  0.00000000000E+00  0.00000000000E+00 -0.61951820228E+03  0.24533850049E+04  0.23738776673E+04 0.  0.
        3    1    3    3  502    0 -0.25193322191E+03  0.52842710063E+02  0.88773780220E+03  0.92430574809E+03  0.10100000352E+00 0.  1.
       -3    1    3    3    0  502  0.25193322191E+03 -0.52842710063E+02 -0.15072560045E+04  0.15290792568E+04  0.10100000352E+00 0. -1.
</event>
<event>
 5   0  0.2588048E-05  0.2578999E+04  0.7818609E-02  0.8375370E-01
        2   -1    0    0  501    0  0.00000000000E+00  0.00000000000E+00  0.11366662847E+04  0.11366662847E+04  0.25500000920E-02 0. -1.
       -2   -1    0    0    0  501  0.00000000000E+00  0.00000000000E+00 -0.14628826416E+04  0.14628826416E+04  0.25500000920E-02 0.  1.
    10030    2    1    2    0    0  0.00000000000E+00  0.00000000000E+00 -0.32621635689E+03  0.25995489263E+04  0.25789993232E+04 0.  0.
        2    1    3    3  502    0 -0.55307605842E+03 -0.39708331352E+03  0.94071629386E+03  0.11612559708E+04  0.25500000920E-02 0. -1.
       -2    1    3    3    0  502  0.55307605842E+03  0.39708331352E+03 -0.12669326508E+04  0.14382929555E+04  0.25500000920E-02 0.  1.
</event>
<event>
 5   0  0.2651061E-05  0.1390787E+04  0.7818609E-02  0.8960515E-01
        2   -1    0    0  501    0  0.00000000000E+00  0.00000000000E+00  0.70863303416E+03  0.70863303416E+03  0.25500000920E-02 0. -1.
       -2   -1    0    0    0  501  0.00000000000E+00  0.00000000000E+00 -0.68240115684E+03  0.68240115684E+03  0.25500000920E-02 0.  1.
    10030    2    1    2    0    0  0.00000000000E+00  0.00000000000E+00  0.26231877322E+02  0.13910341910E+04  0.13907868310E+04 0.  0.
        3    1    3    3  502    0 -0.34530698351E+03 -0.18895842362E+03  0.58648030924E+03  0.70632949963E+03  0.10100000352E+00 0. -1.
       -3    1    3    3    0  502  0.34530698351E+03  0.18895842362E+03 -0.56024843192E+03  0.68470469137E+03  0.10100000352E+00 0.  1.
</event>
<event>
 5   0  0.2588048E-05  0.2724820E+04  0.7818609E-02  0.8326996E-01
       -2   -1    0    0    0  501  0.00000000000E+00  0.00000000000E+00  0.87486004426E+03  0.87486004426E+03  0.25500000920E-02 0.  1.
        2   -1    0    0  501    0  0.00000000000E+00  0.00000000000E+00 -0.21216664077E+04  0.21216664077E+04  0.25500000920E-02 0. -1.
    10030    2    1    2    0    0  0.00000000000E+00  0.00000000000E+00 -0.12468063634E+04  0.29965264519E+04  0.27248201169E+04 0.  0.
        2    1    3    3  502    0 -0.63414100775E+03 -0.59452217914E+03  0.53028663802E+03  0.10182314853E+04  0.25500000920E-02 0.  1.
       -2    1    3    3    0  502  0.63414100775E+03  0.59452217914E+03 -0.17770930014E+04  0.19782949666E+04  0.25500000920E-02 0. -1.
</event>
<event>
 5   0  0.2651061E-05  0.1598436E+04  0.7818609E-02  0.8821509E-01
        2   -1    0    0  501    0  0.00000000000E+00  0.00000000000E+00  0.13325308082E+04  0.13325308082E+04  0.25500000920E-02 0.  1.
       -2   -1    0    0    0  501  0.00000000000E+00  0.00000000000E+00 -0.47935066168E+03  0.47935066168E+03  0.25500000920E-02 0. -1.
    10030    2    1    2    0    0  0.00000000000E+00  0.00000000000E+00  0.85318014651E+03  0.18118814699E+04  0.15984361415E+04 0.  0.
        3    1    3    3  502    0  0.68455030814E+03 -0.41096273942E+03  0.46666681688E+03  0.92481210294E+03  0.10100000352E+00 0. -1.
       -3    1    3    3    0  502 -0.68455030814E+03  0.41096273942E+03  0.38651332963E+03  0.88706936693E+03  0.10100000352E+00 0.  1.
</event>
<event>
 5   0  0.2518686E-05  0.2771882E+04  0.7818609E-02  0.8312051E-01
        2   -1    0    0  501    0  0.00000000000E+00  0.00000000000E+00  0.17868047113E+04  0.17868047113E+04  0.25500000920E-02 0.  1.
       -2   -1    0    0    0  501  0.00000000000E+00  0.00000000000E+00 -0.10750099555E+04  0.10750099555E+04  0.25500000920E-02 0. -1.
    10030    2    1    2    0    0  0.00000000000E+00  0.00000000000E+00  0.71179475582E+03  0.28618146668E+04  0.27718822869E+04 0.  0.
        5    1    3    3  502    0  0.99549350821E+03 -0.79154928972E+02 -0.63629089939E+03  0.11841288048E+04  0.46999998093E+01 0. -1.
       -5    1    3    3    0  502 -0.99549350821E+03  0.79154928972E+02  0.13480856552E+04  0.16776858620E+04  0.46999998093E+01 0.  1.
</event>
<event>
 5   0  0.2624815E-05  0.2178064E+04  0.7818609E-02  0.8527614E-01
        2   -1    0    0  501    0  0.00000000000E+00  0.00000000000E+00  0.11443474140E+04  0.11443474140E+04  0.25500000920E-02 0.  1.
       -2   -1    0    0    0  501  0.00000000000E+00  0.00000000000E+00 -0.10363905861E+04  0.10363905861E+04  0.25500000920E-02 0. -1.
    10030    2    1    2    0    0  0.00000000000E+00  0.00000000000E+00  0.10795682790E+03  0.21807380001E+04  0.21780641745E+04 0.  0.
        4    1    3    3  502    0 -0.10055872223E+04 -0.11589532840E+03 -0.34820100471E+03  0.10704592198E+04  0.12699999809E+01 0. -1.
       -4    1    3    3    0  502  0.10055872223E+04  0.11589532840E+03  0.45615783261E+03  0.11102787802E+04  0.12699999809E+01 0.  1.
</event>
<event>
 5   0  0.2624815E-05  0.2355417E+04  0.7818609E-02  0.8456386E-01
       -2   -1    0    0    0  501  0.00000000000E+00  0.00000000000E+00  0.12608850500E+04  0.12608850500E+04  0.25500000920E-02 0.  1.
        2   -1    0    0  501    0  0.00000000000E+00  0.00000000000E+00 -0.11000185746E+04  0.11000185746E+04  0.25500000920E-02 0. -1.
    10030    2    1    2    0    0  0.00000000000E+00  0.00000000000E+00  0.16086647533E+03  0.23609036246E+04  0.23554167151E+04 0.  0.
        4    1    3    3  502    0  0.48146151041E+03 -0.80437060492E+03 -0.63409349475E+03  0.11317656246E+04  0.12699999809E+01 0. -1.
       -4    1    3    3    0  502 -0.48146151041E+03  0.80437060492E+03  0.79495997008E+03  0.12291380000E+04  0.12699999809E+01 0.  1.
</event>
<event>
 5   0  0.1078103E-05  0.2509487E+04  0.7818609E-02  0.8399613E-01
       -1   -1    0    0    0  501  0.00000000000E+00  0.00000000000E+00  0.59286809919E+03  0.59286809921E+03  0.50400001928E-02 0.  1.
        1   -1    0    0  501    0  0.00000000000E+00  0.00000000000E+00 -0.26555344498E+04  0.26555344498E+04  0.50400001928E-02 0. -1.
    10030    2    1    2    0    0  0.00000000000E+00  0.00000000000E+00 -0.20626663506E+04  0.32484025490E+04  0.25094873274E+04 0.  0.
        1    1    3    3  502    0 -0.67994179528E+03 -0.51686304665E+03  0.15851332248E+03  0.86867412036E+03  0.50400001928E-02 0.  1.
       -1    1    3    3    0  502  0.67994179528E+03  0.51686304665E+03 -0.22211796731E+04  0.23797284287E+04  0.50400001928E-02 0. -1.
</event>
<event>
 5   0  0.2588048E-05  0.2793925E+04  0.7818609E-02  0.8305157E-01
        2   -1    0    0  501    0  0.00000000000E+00  0.00000000000E+00  0.20078042155E+04  0.20078042155E+04  0.25500000920E-02 0.  1.
       -2   -1    0    0    0  501  0.00000000000E+00  0.00000000000E+00 -0.97195925943E+03  0.97195925944E+03  0.25500000920E-02 0. -1.
    10030    2    1    2    0    0  0.00000000000E+00  0.00000000000E+00  0.10358449560E+04  0.29797634749E+04  0.27939247652E+04 0.  0.
        2    1    3    3  502    0 -0.88550888800E+03  0.46466537872E+03 -0.52238869780E+03  0.11282419317E+04  0.25500000920E-02 0. -1.
       -2    1    3    3    0  502  0.88550888800E+03 -0.46466537872E+03  0.15582336538E+04  0.18515215432E+04  0.25500000920E-02 0.  1.
</event>
<event>
 5   0  0.1017456E-05  0.2794165E+04  0.7818609E-02  0.8305082E-01
       -1   -1    0    0    0  501  0.00000000000E+00  0.00000000000E+00  0.86537060700E+03  0.86537060702E+03  0.50400001928E-02 0. -1.
        1   -1    0    0  501    0  0.00000000000E+00  0.00000000000E+00 -0.22554947837E+04  0.22554947837E+04  0.50400001928E-02 0.  1.
    10030    2    1    2    0    0  0.00000000000E+00  0.00000000000E+00 -0.13901241767E+04  0.31208653907E+04  0.27941645550E+04 0.  0.
        5    1    3    3  502    0  0.96554053982E+03 -0.10037726921E+04 -0.81735693976E+03  0.16149063776E+04  0.46999998093E+01 0.  1.
       -5    1    3    3    0  502 -0.96554053982E+03  0.10037726921E+04 -0.57276723695E+03  0.15059590131E+04  0.46999998093E+01 0. -1.
</event>
<event>
 5   0  0.1067434E-05  0.2625533E+04  0.7818609E-02  0.8359579E-01
       -1   -1    0    0    0  501  0.00000000000E+00  0.00000000000E+00  0.11976128147E+04  0.11976128147E+04  0.50400001928E-02 0.  1.
        1   -1    0    0  501    0  0.00000000000E+00  0.00000000000E+00 -0.14389928932E+04  0.14389928932E+04  0.50400001928E-02 0. -1.
    10030    2    1    2    0    0  0.00000000000E+00  0.00000000000E+00 -0.24138007851E+03  0.26366057079E+04  0.26255333394E+04 0.  0.
        4    1    3    3  502    0  0.24277383280E+03 -0.48295961255E+03 -0.13220484526E+04  0.14282866817E+04  0.12699999809E+01 0. -1.
       -4    1    3    3    0  502 -0.24277383280E+03  0.48295961255E+03  0.10806683741E+04  0.12083190261E+04  0.12699999809E+01 0.  1.
</event>
<event>
 5   0  0.1017456E-05  0.2456277E+04  0.7818609E-02  0.8418730E-01
       -1   -1    0    0    0  501  0.00000000000E+00  0.00000000000E+00  0.88180684959E+03  0.88180684961E+03  0.50400001928E-02 0. -1.
        1   -1    0    0  501    0  0.00000000000E+00  0.00000000000E+00 -0.17104920435E+04  0.17104920435E+04  0.50400001928E-02 0.  1.
    10030    2    1    2    0    0  0.00000000000E+00  0.00000000000E+00 -0.82868519392E+03  0.25922988931E+04  0.24562765318E+04 0.  0.
        5    1    3    3  502    0 -0.61863738102E+03 -0.30584757082E+03 -0.14864973169E+04  0.16388872166E+04  0.46999998093E+01 0.  1.
       -5    1    3    3    0  502  0.61863738102E+03  0.30584757082E+03  0.65781212295E+03  0.95341167649E+03  0.46999998093E+01 0. -1.
</event>
<event>
 5   0  0.2697964E-05  0.2809411E+04  0.7818609E-02  0.8300352E-01
        2   -1    0    0  501    0  0.00000000000E+00  0.00000000000E+00  0.16371563539E+04  0.16371563539E+04  0.25500000920E-02 0. -1.
       -2   -1    0    0    0  501  0.00000000000E+00  0.00000000000E+00 -0.12052593430E+04  0.12052593430E+04  0.25500000920E-02 0.  1.
    10030    2    1    2    0    0  0.00000000000E+00  0.00000000000E+00  0.43189701089E+03  0.28424156969E+04  0.28094113202E+04 0.  0.
        1    1    3    3  502    0  0.76897188302E+03 -0.19388355310E+03 -0.95710724355E+03  0.12429653514E+04  0.50400001928E-02 0.  1.
       -1    1    3    3    0  502 -0.76897188302E+03  0.19388355310E+03  0.13890042544E+04  0.15994503456E+04  0.50400001928E-02 0. -1.
</event>
<event>
 5   0  0.2651061E-05  0.2845698E+04  0.7818609E-02  0.8289220E-01
        2   -1    0    0  501    0  0.00000000000E+00  0.00000000000E+00  0.10435917612E+04  0.10435917612E+04  0.25500000920E-02 0.  1.
       -2   -1    0    0    0  501  0.00000000000E+00  0.00000000000E+00 -0.19399347354E+04  0.19399347354E+04  0.25500000920E-02 0. -1.
    10030    2    1    2    0    0  0.00000000000E+00  0.00000000000E+00 -0.89634297417E+03  0.29835264966E+04  0.28456984430E+04 0.  0.
        3    1    3    3  502    0  0.47893968488E+03  0.60314979916E+03  0.80615459799E+03  0.11149251760E+04  0.10100000352E+00 0.  1.
       -3    1    3    3    0  502 -0.47893968488E+03 -0.60314979916E+03 -0.17024975722E+04  0.18686013206E+04  0.10100000352E+00 0. -1.
</event>
<event>
 5   0  0.2518686E-05  0.2794445E+04  0.7818609E-02  0.8304995E-01
       -2   -1    0    0    0  501  0.00000000000E+00  0.00000000000E+00  0.11498908050E+04  0.11498908050E+04  0.25500000920E-02 0.  1.
        2   -1    0    0  501    0  0.00000000000E+00  0.00000000000E+00 -0.16977532125E+04  0.16977532125E+04  0.25500000920E-02 0. -1.
    10030    2    1    2    0    0  0.00000000000E+00  0.00000000000E+00 -0.54786240756E+03  0.28476440175E+04  0.27944450671E+04 0.  0.
        5    1    3    3  502    0 -0.66778089072E+03 -0.34681157399E+03 -0.14736282786E+04  0.16546334879E+04  0.46999998093E+01 0. -1.
       -5    1    3    3    0  502  0.66778089072E+03  0.34681157399E+03  0.92576587102E+03  0.11930105296E+04  0.46999998093E+01 0.  1.
</event>
<event>
 5   0  0.1017456E-05  0.2815429E+04  0.7818609E-02  0.8298494E-01
        1   -1    0    0  501    0  0.00000000000E+00  0.00000000000E+00  0.16838889369E+04  0.16838889369E+04  0.50400001928E-02 0. -1.
       -1   -1    0    0    0  501  0.00000000000E+00  0.00000000000E+00 -0.11768355914E+04  0.11768355914E+04  0.50400001928E-02 0.  1.
    10030    2    1    2    0    0  0.00000000000E+00  0.00000000000E+00  0.50705334550E+03  0.28607245283E+04  0.28154292269E+04 0.  0.
        5    1    3    3  502    0 -0.10316637784E+04  0.84964861581E+03  0.70268528230E+03  0.15099740455E+04  0.46999998093E+01 0. -1.
       -5    1    3    3    0  502  0.10316637784E+04 -0.84964861581E+03 -0.19563193681E+03  0.13507504828E+04  0.46999998093E+01 0.  1.
</event>
<event>
 5   0  0.2651061E-05  0.2592343E+04  0.7818609E-02  0.8370807E-01
        2   -1    0    0  501    0  0.00000000000E+00  0.00000000000E+00  0.25330610800E+04  0.25330610800E+04  0.25500000920E-02 0. -1.
       -2   -1    0    0    0  501  0.00000000000E+00  0.00000000000E+00 -0.66325312385E+03  0.66325312386E+03  0.25500000920E-02 0.  1.
    10030    2    1    2    0    0  0.00000000000E+00  0.00000000000E+00  0.18698079561E+04  0.31963142039E+04  0.25923430901E+04 0.  0.
        3    1    3    3  502    0 -0.12777026144E+04  0.19063378625E+03  0.80444384493E+03  0.15218393874E+04  0.10100000352E+00 0.  1.
       -3    1    3    3    0  502  0.12777026144E+04 -0.19063378625E+03  0.10653641112E+04  0.16744748164E+04  0.10100000352E+00 0. -1.
</event>
<event>
 5   0  0.2624815E-05  0.2877193E+04  0.7818609E-02  0.8279696E-01
       -2   -1    0    0    0  501  0.00000000000E+00  0.00000000000E+00  0.17507102293E+04  0.17507102293E+04  0.25500000920E-02 0.  1.
        2   -1    0    0  501    0  0.00000000000E+00  0.00000000000E+00 -0.11821258228E+04  0.11821258228E+04  0.25500000920E-02 0. -1.
    10030    2    1    2    0    0  0.00000000000E+00  0.00000000000E+00  0.56858440653E+03  0.29328360521E+04  0.28771929169E+04 0.  0.
        4    1    3    3  502    0 -0.47713010068E+03 -0.89113023623E+03  0.13277054058E+04  0.16687029359E+04  0.12699999809E+01 0. -1.
       -4    1    3    3    0  502  0.47713010068E+03  0.89113023623E+03 -0.75912099928E+03  0.12641331161E+04  0.12699999809E+01 0.  1.
</event>
<event>
 5   0  0.2518686E-05  0.2828976E+04  0.7818609E-02  0.8294329E-01
       -2   -1    0    0    0  501  0.00000000000E+00  0.00000000000E+00  0.98050317478E+03  0.98050317479E+03  0.25500000920E-02 0.  1.
        2   -1    0    0  501    0  0.00000000000E+00  0.00000000000E+00 -0.20405601660E+04  0.20405601660E+04  0.25500000920E-02 0. -1.
    10030    2    1    2    0    0  0.00000000000E+00  0.00000000000E+00 -0.10600569912E+04  0.30210633408E+04  0.28289755892E+04 0.  0.
        5    1    3    3  502    0  0.34671197522E+03  0.10764139168E+04  0.37729548383E+03  0.11921619379E+04  0.46999998093E+01 0.  1.
       -5    1    3    3    0  502 -0.34671197522E+03 -0.10764139168E+04 -0.14373524751E+04  0.18289014029E+04  0.46999998093E+01 0. -1.
</event>
<event>
 5   0  0.1017456E-05  0.2196687E+04  0.7818609E-02  0.8519808E-01
       -1   -1    0    0    0  501  0.00000000000E+00  0.00000000000E+00  0.12206471983E+04  0.12206471983E+04  0.50400001928E-02 0. -1.
        1   -1    0    0  501    0  0.00000000000E+00  0.00000000000E+00 -0.98829382932E+03  0.98829382933E+03  0.50400001928E-02 0.  1.
    10030    2    1    2    0    0  0.00000000000E+00  0.00000000000E+00  0.23235336896E+03  0.22089410276E+04  0.21966866812E+04 0.  0.
        5    1    3    3  502    0  0.95997927971E+03  0.20783635356E+03 -0.37807293802E+03  0.10524815456E+04  0.46999998093E+01 0.  1.
       -5    1    3    3    0  502 -0.95997927971E+03 -0.20783635356E+03  0.61042630698E+03  0.11564594820E+04  0.46999998093E+01 0. -1.
</event>
<event>
 5   0  0.2651061E-05  0.2794176E+04  0.7818609E-02  0.8305079E-01
       -2   -1    0    0    0  501  0.00000000000E+00  0.00000000000E+00  0.96198399686E+03  0.96198399687E+03  0.25500000920E-02 0.  1.
        2   -1    0    0  501    0  0.00000000000E+00  0.00000000000E+00 -0.20289883823E+04  0.20289883823E+04  0.25500000920E-02 0. -1.
    10030    2    1    2    0    0  0.00000000000E+00  0.00000000000E+00 -0.10670043855E+04  0.29909723792E+04  0.27941756234E+04 0.  0.
        3    1    3    3  502    0 -0.34113956360E+03  0.13286549811E+04 -0.24998122765E+03  0.13943424561E+04  0.10100000352E+00 0. -1.
       -3    1    3    3    0  502  0.34113956360E+03 -0.13286549811E+04 -0.81702315781E+03  0.15966299231E+04  0.10100000352E+00 0.  1.
</event>
<event>
 5   0  0.2697964E-05  0.2541288E+04  0.7818609E-02  0.8388422E-01
        2   -1    0    0  501    0  0.00000000000E+00  0.00000000000E+00  0.14271624806E+04  0.14271624806E+04  0.25500000920E-02 0. -1.
       -2   -1    0    0    0  501  0.00000000000E+00  0.00000000000E+00 -0.11312913657E+04  0.11312913657E+04  0.25500000920E-02 0.  1.
    10030    2    1    2    0    0  0.00000000000E+00  0.00000000000E+00  0.29587111496E+03  0.25584538463E+04  0.25412883282E+04 0.  0.
        1    1    3    3  502    0 -0.68797939335E+03 -0.74499422531E+03  0.91874715024E+03  0.13683670441E+04  0.50400001928E-02 0. -1.
       -1    1    3    3    0  502  0.68797939335E+03  0.74499422531E+03 -0.62287603528E+03  0.11900868022E+04  0.50400001928E-02 0.  1.
</event>
<event>
 5   0  0.2624815E-05  0.2828824E+04  0.7818609E-02  0.8294375E-01
       -2   -1    0    0    0  501  0.00000000000E+00  0.00000000000E+00  0.13135806322E+04  0.13135806322E+04  0.25500000920E-02 0. -1.
        2   -1    0    0  501    0  0.00000000000E+00  0.00000000000E+00 -0.15229831159E+04  0.15229831159E+04  0.25500000920E-02 0.  1.
    10030    2    1    2    0    0  0.00000000000E+00  0.00000000000E+00 -0.20940248374E+03  0.28365637481E+04  0.28288238717E+04 0.  0.
        4    1    3    3  502    0  0.87889929437E+03 -0.98394341933E+03 -0.61595003252E+03  0.14560235841E+04  0.12699999809E+01 0.  1.
       -4    1    3    3    0  502 -0.87889929437E+03  0.98394341933E+03  0.40654754878E+03  0.13805401640E+04  0.12699999809E+01 0. -1.
</event>
<event>
 5   0  0.2697964E-05  0.2718420E+04  0.7818609E-02  0.8329053E-01
        2   -1    0    0  501    0  0.00000000000E+00  0.00000000000E+00  0.17821418274E+04  0.17821418274E+04  0.25500000920E-02 0. -1.
       -2   -1    0    0    0  501  0.00000000000E+00  0.00000000000E+00 -0.10366472214E+04  0.10366472214E+04  0.25500000920E-02 0.  1.
    10030    2    1    2    0    0  0.00000000000E+00  0.00000000000E+00  0.74549460594E+03  0.28187890488E+04  0.27184204043E+04 0.  0.
        1    1    3    3  502    0 -0.74489568243E+03 -0.86842062360E+03  0.11336163912E+04  0.16106241274E+04  0.50400001928E-02 0. -1.
       -1    1    3    3    0  502  0.74489568243E+03  0.86842062360E+03 -0.38812178529E+03  0.12081649215E+04  0.50400001928E-02 0.  1.
</event>
<event>
 5   0  0.2651061E-05  0.2510583E+04  0.7818609E-02  0.8399225E-01
       -2   -1    0    0    0  501  0.00000000000E+00  0.00000000000E+00  0.56516542349E+03  0.56516542350E+03  0.25500000920E-02 0.  1.
        2   -1    0    0  501    0  0.00000000000E+00  0.00000000000E+00 -0.27881329625E+04  0.27881329625E+04  0.25500000920E-02 0. -1.
    10030    2    1    2    0    0  0.00000000000E+00  0.00000000000E+00 -0.22229675390E+04  0.33532983860E+04  0.25105826786E+04 0.  0.
        3    1    3    3  502    0 -0.95715291059E+03 -0.72867219002E+03 -0.63240704927E+03  0.13590598003E+04  0.10100000352E+00 0.  1.
       -3    1    3    3    0  502  0.95715291059E+03  0.72867219002E+03 -0.15905604897E+04  0.19942385856E+04  0.10100000352E+00 0. -1.
</event>
<event>
 5   0  0.2588048E-05  0.2488008E+04  0.7818609E-02  0.8407270E-01
        2   -1    0    0  501    0  0.00000000000E+00  0.00000000000E+00  0.11974199907E+04  0.11974199907E+04  0.25500000920E-02 0. -1.
       -2   -1    0    0    0  501  0.00000000000E+00  0.00000000000E+00 -0.12924006006E+04  0.12924006006E+04  0.25500000920E-02 0.  1.
    10030    2    1    2    0    0  0.00000000000E+00  0.00000000000E+00 -0.94980609883E+02  0.24898205913E+04  0.24880082919E+04 0.  0.
        2    1    3    3  502    0  0.52715455305E+03 -0.59594517221E+03 -0.10044837759E+04  0.12814172728E+04  0.25500000920E-02 0.  1.
       -2    1    3    3    0  502 -0.52715455305E+03  0.59594517221E+03  0.90950316601E+03  0.12084033185E+04  0.25500000920E-02 0. -1.
</event>
<event>
 5   0  0.2697964E-05  0.2760605E+04  0.7818609E-02  0.8315604E-01
        2   -1    0    0  501    0  0.00000000000E+00  0.00000000000E+00  0.11539027167E+04  0.11539027167E+04  0.25500000920E-02 0. -1.
       -2   -1    0    0    0  501  0.00000000000E+00  0.00000000000E+00 -0.16511230735E+04  0.16511230735E+04  0.25500000920E-02 0.  1.
    10030    2    1    2    0    0  0.00000000000E+00  0.00000000000E+00 -0.49722035683E+03  0.28050257901E+04  0.27606052960E+04 0.  0.
        1    1    3    3  502    0  0.10020258308E+04 -0.69531174243E+03  0.40810311602E+03  0.12861035488E+04  0.50400001928E-02 0. -1.
       -1    1    3    3    0  502 -0.10020258308E+04  0.69531174243E+03 -0.90532347285E+03  0.15189222414E+04  0.50400001928E-02 0.  1.
</event>
<event>
 5   0  0.2588048E-05  0.2797921E+04  0.7818609E-02  0.8303914E-01
        2   -1    0    0  501    0  0.00000000000E+00  0.00000000000E+00  0.21990019426E+04  0.21990019426E+04  0.25500000920E-02 0.  1.
       -2   -1    0    0    0  501  0.00000000000E+00  0.00000000000E+00 -0.88999022313E+03  0.88999022313E+03  0.25500000920E-02 0. -1.
    10030    2    1    2    0    0  0.00000000000E+00  0.00000000000E+00  0.13090117194E+04  0.30889921657E+04  0.27979208206E+04 0.  0.
        2    1    3    3  502    0  0.81937672434E+03 -0.78949022665E+02  0.19033204927E+04  0.20737020187E+04  0.25500000920E-02 0.  1.
       -2    1    3    3    0  502 -0.81937672434E+03  0.78949022665E+02 -0.59430877326E+03  0.10152901470E+04  0.25500000920E-02 0. -1.
</event>
<event>
 5   0  0.1078103E-05  0.1406446E+04  0.7818609E-02  0.8949166E-01
       -1   -1    0    0    0  501  0.00000000000E+00  0.00000000000E+00  0.54472128315E+03  0.54472128317E+03  0.50400001928E-02 0.  1.
        1   -1    0    0  501    0  0.00000000000E+00  0.00000000000E+00 -0.90784459484E+03  0.90784459486E+03  0.50400001928E-02 0. -1.
    10030    2    1    2    0    0  0.00000000000E+00  0.00000000000E+00 -0.36312331170E+03  0.14525658780E+04  0.14064455519E+04 0.  0.
        1    1    3    3  502    0 -0.35851527568E+03 -0.38697730335E+03  0.29870071112E+03  0.60622335079E+03  0.50400001928E-02 0.  1.
       -1    1    3    3    0  502  0.35851527568E+03  0.38697730335E+03 -0.66182402281E+03  0.84634252723E+03  0.50400001928E-02 0. -1.
</event>
<event>
 5   0  0.1075146E-05  0.2803157E+04  0.7818609E-02  0.8302289E-01
        1   -1    0    0  501    0  0.00000000000E+00  0.00000000000E+00  0.12908285901E+04  0.12908285901E+04  0.50400001928E-02 0. -1.
       -1   -1    0    0    0  501  0.00000000000E+00  0.00000000000E+00 -0.15218305988E+04  0.15218305988E+04  0.50400001928E-02 0.  1.
    10030    2    1    2    0    0  0.00000000000E+00  0.00000000000E+00 -0.23100200866E+03  0.28126591890E+04  0.28031571103E+04 0.  0.
        2    1    3    3  502    0  0.65328182252E+03  0.12189160321E+04 -0.34406476803E+03  0.14251013990E+04  0.25500000920E-02 0.  1.
       -2    1    3    3    0  502 -0.65328182252E+03 -0.12189160321E+04  0.11306275937E+03  0.13875577899E+04  0.25500000920E-02 0. -1.
</event>
<event>
 5   0  0.1067434E-05  0.2754274E+04  0.7818609E-02  0.8317607E-01
        1   -1    0    0  501    0  0.00000000000E+00  0.00000000000E+00  0.20714796104E+04  0.20714796104E+04  0.50400001928E-02 0. -1.
       -1   -1    0    0    0  501  0.00000000000E+00  0.00000000000E+00 -0.91553215155E+03  0.91553215157E+03  0.50400001928E-02 0.  1.
    10030    2    1    2    0    0  0.00000000000E+00  0.00000000000E+00  0.11559474588E+04  0.29870117620E+04  0.27542739040E+04 0.  0.
        4    1    3    3  502    0 -0.53356551512E+03 -0.53745184997E+03 -0.66941788733E+03  0.10107762219E+04  0.12699999809E+01 0.  1.
       -4    1    3    3    0  502  0.53356551512E+03  0.53745184997E+03  0.18253653462E+04  0.19762355401E+04  0.12699999809E+01 0. -1.
</event>
<event>
 5   0  0.1017456E-05  0.2731896E+04  0.7818609E-02  0.8324729E-01
        1   -1    0    0  501    0  0.00000000000E+00  0.00000000000E+00  0.18628757977E+04  0.18628757978E+04  0.50400001928E-02 0.  1.
       -1   -1    0    0    0  501  0.00000000000E+00  0.00000000000E+00 -0.10015772676E+04  0.10015772677E+04  0.50400001928E-02 0. -1.
    10030    2    1    2    0    0  0.00000000000E+00  0.00000000000E+00  0.86129853010E+03  0.28644530654E+04  0.27318960826E+04 0.  0.
        5    1    3    3  502    0 -0.46565811902E+03 -0.12606680977E+04  0.68677729050E+03  0.15092404292E+04  0.46999998093E+01 0. -1.
       -5    1    3    3    0  502  0.46565811902E+03  0.12606680977E+04  0.17452123960E+03  0.13552126362E+04  0.46999998093E+01 0.  1.
</event>
<event>
 5   0  0.2651061E-05  0.2884976E+04  0.7818609E-02  0.8277362E-01
        2   -1    0    0  501    0  0.00000000000E+00  0.00000000000E+00  0.98696422672E+03  0.98696422672E+03  0.25500000920E-02 0.  1.
       -2   -1    0    0    0  501  0.00000000000E+00  0.00000000000E+00 -0.21082539406E+04  0.21082539406E+04  0.25500000920E-02 0. -1.
    10030    2    1    2    0    0  0.00000000000E+00  0.00000000000E+00 -0.11212897138E+04  0.30952181673E+04  0.28849757158E+04 0.  0.
        3    1    3    3  502    0  0.95713253480E+03  0.10034004566E+03 -0.17134740220E+04  0.19652389290E+04  0.10100000352E+00 0. -1.
       -3    1    3    3    0  502 -0.95713253480E+03 -0.10034004566E+03  0.59218430812E+03  0.11299792383E+04  0.10100000352E+00 0.  1.
</event>
<event>
 5   0  0.2651061E-05  0.2228351E+04  0.7818609E-02  0.8506720E-01
       -2   -1    0    0    0  501  0.00000000000E+00  0.00000000000E+00  0.61467541940E+03  0.61467541941E+03  0.25500000920E-02 0. -1.
        2   -1    0    0  501    0  0.00000000000E+00  0.00000000000E+00 -0.20195818070E+04  0.20195818070E+04  0.25500000920E-02 0.  1.
    10030    2    1    2    0    0  0.00000000000E+00  0.00000000000E+00 -0.14049063876E+04  0.26342572264E+04  0.22283512239E+04 0.  0.
        3    1    3    3  502    0 -0.15319858793E+03 -0.11001384799E+04 -0.59930852181E+03  0.12621193274E+04  0.10100000352E+00 0. -1.
       -3    1    3    3    0  502  0.15319858793E+03  0.11001384799E+04 -0.80559786580E+03  0.13721378990E+04  0.10100000352E+00 0.  1.
</event>
<event>
 5   0  0.1105862E-05  0.1545063E+04  0.7818609E-02  0.8855027E-01
        1   -1    0    0  501    0  0.00000000000E+00  0.00000000000E+00  0.71587161832E+03  0.71587161834E+03  0.50400001928E-02 0. -1.
       -1   -1    0    0    0  501  0.00000000000E+00  0.00000000000E+00 -0.83367585663E+03  0.83367585664E+03  0.50400001928E-02 0.  1.
    10030    2    1    2    0    0  0.00000000000E+00  0.00000000000E+00 -0.11780423831E+03  0.15495474750E+04  0.15450629562E+04 0.  0.
        3    1    3    3  502    0  0.61250779399E+03  0.11283495042E+03 -0.51729257572E+03  0.80962283986E+03  0.10100000352E+00 0.  1.
       -3    1    3    3    0  502 -0.61250779399E+03 -0.11283495042E+03  0.39948833741E+03  0.73992463512E+03  0.10100000352E+00 0. -1.
</event>
<event>
 5   0  0.1067434E-05  0.2398048E+04  0.7818609E-02  0.8440235E-01
        1   -1    0    0  501    0  0.00000000000E+00  0.00000000000E+00  0.87193023498E+03  0.87193023499E+03  0.50400001928E-02 0. -1.
       -1   -1    0    0    0  501  0.00000000000E+00  0.00000000000E+00 -0.16488225910E+04  0.16488225910E+04  0.50400001928E-02 0.  1.
    10030    2    1    2    0    0  0.00000000000E+00  0.00000000000E+00 -0.77689235602E+03  0.25207528260E+04  0.23980477637E+04 0.  0.
        4    1    3    3  502    0 -0.39315946868E+03  0.10616221322E+04 -0.80367876596E+03  0.13883504929E+04  0.12699999809E+01 0.  1.
       -4    1    3    3    0  502  0.39315946868E+03 -0.10616221322E+04  0.26786409949E+02  0.11324023331E+04  0.12699999809E+01 0. -1.
</event>
<event>
 5   0  0.1017456E-05  0.1591196E+04  0.7818609E-02  0.8825975E-01
        1   -1    0    0  501    0  0.00000000000E+00  0.00000000000E+00  0.51685134104E+03  0.51685134107E+03  0.50400001928E-02 0. -1.
       -1   -1    0    0    0  501  0.00000000000E+00  0.00000000000E+00 -0.12246778292E+04  0.12246778292E+04  0.50400001928E-02 0.  1.
    10030    2    1    2    0    0  0.00000000000E+00  0.00000000000E+00 -0.70782648819E+03  0.17415291703E+04  0.15911962524E+04 0.  0.
        5    1    3    3  502    0  0.25349098745E+03  0.16207612270E+03  0.45216654278E+03  0.54314180716E+03  0.46999998093E+01 0. -1.
       -5    1    3    3    0  502 -0.25349098745E+03 -0.16207612270E+03 -0.11599930310E+04  0.11983873632E+04  0.46999998093E+01 0.  1.
</event>
<event>
 5   0  0.2624815E-05  0.2588535E+04  0.7818609E-02  0.8372106E-01
        2   -1    0    0  501    0  0.00000000000E+00  0.00000000000E+00  0.10414610310E+04  0.10414610310E+04  0.25500000920E-02 0. -1.
       -2   -1    0    0    0  501  0.00000000000E+00  0.00000000000E+00 -0.16084406069E+04  0.16084406069E+04  0.25500000920E-02 0.  1.
    10030    2    1    2    0    0  0.00000000000E+00  0.00000000000E+00 -0.56697957590E+03  0.26499016379E+04  0.25885348851E+04 0.  0.
        4    1    3    3  502    0  0.67330830811E+03 -0.10847738931E+04 -0.50076695079E+03  0.13714399837E+04  0.12699999809E+01 0.  1.
       -4    1    3    3    0  502 -0.67330830811E+03  0.10847738931E+04 -0.66212625112E+02  0.12784616543E+04  0.12699999809E+01 0. -1.
</event>
<event>
 5   0  0.2624815E-05  0.2734406E+04  0.7818609E-02  0.8323927E-01
       -2   -1    0    0    0  501  0.00000000000E+00  0.00000000000E+00  0.12624196098E+04  0.12624196098E+04  0.25500000920E-02 0.  1.
        2   -1    0    0  501    0  0.00000000000E+00  0.00000000000E+00 -0.14806840334E+04  0.14806840334E+04  0.25500000920E-02 0. -1.
    10030    2    1    2    0    0  0.00000000000E+00  0.00000000000E+00 -0.21826442357E+03  0.27431036431E+04  0.27344063777E+04 0.  0.
        4    1    3    3  502    0  0.24927773508E+02 -0.29950175035E+03  0.12288717476E+04  0.12650889602E+04  0.12699999809E+01 0.  1.
       -4    1    3    3    0  502 -0.24927773508E+02  0.29950175035E+03 -0.14471361711E+04  0.14780146830E+04  0.12699999809E+01 0. -1.
</event>
<event>
 5   0  0.2651061E-05  0.1391671E+04  0.7818609E-02  0.8959869E-01
       -2   -1    0    0    0  501  0.00000000000E+00  0.00000000000E+00  0.34488509473E+03  0.34488509473E+03  0.25500000920E-02 0. -1.
        2   -1    0    0  501    0  0.00000000000E+00  0.00000000000E+00 -0.14039087989E+04  0.14039087989E+04  0.25500000920E-02 0.  1.
    10030    2    1    2    0    0  0.00000000000E+00  0.00000000000E+00 -0.10590237041E+04  0.17487938936E+04  0.13916712530E+04 0.  0.
        3    1    3    3  502    0  0.45023153775E+03  0.38055252527E+03 -0.64974787862E+02  0.59308548737E+03  0.10100000352E+00 0. -1.
       -3    1    3    3    0  502 -0.45023153775E+03 -0.38055252527E+03 -0.99404891627E+03  0.11557084062E+04  0.10100000352E+00 0.  1.
</event>
<event>
 5   0  0.1078103E-05  0.2984928E+04  0.7818609E-02  0.8248048E-01
       -1   -1    0    0    0  501  0.00000000000E+00  0.00000000000E+00  0.18041646223E+04  0.18041646223E+04  0.50400001928E-02 0.  1.
        1   -1    0    0  501    0  0.00000000000E+00  0.00000000000E+00 -0.12346148724E+04  0.12346148724E+04  0.50400001928E-02 0. -1.
    10030    2    1    2    0    0  0.00000000000E+00  0.00000000000E+00  0.56954974991E+03  0.30387794947E+04  0.29849277880E+04 0.  0.
        1    1    3    3  502    0 -0.84575976795E+02  0.19889832670E+03  0.17881480217E+04  0.18011626766E+04  0.50400001928E-02 0.  1.
       -1    1    3    3    0  502  0.84575976795E+02 -0.19889832670E+03 -0.12185982718E+04  0.12376168180E+04  0.50400001928E-02 0. -1.
</event>
<event>
 5   0  0.2624815E-05  0.2733031E+04  0.7818609E-02  0.8324366E-01
       -2   -1    0    0    0  501  0.00000000000E+00  0.00000000000E+00  0.13769705724E+04  0.13769705724E+04  0.25500000920E-02 0. -1.
        2   -1    0    0  501    0  0.00000000000E+00  0.00000000000E+00 -0.13561401103E+04  0.13561401103E+04  0.25500000920E-02 0.  1.
    10030    2    1    2    0    0  0.00000000000E+00  0.00000000000E+00  0.20830462118E+02  0.27331106827E+04  0.27330313016E+04 0.  0.
        4    1    3    3  502    0  0.10327739564E+04  0.19416229333E+03 -0.86313310515E+03  0.13598975738E+04  0.12699999809E+01 0.  1.
       -4    1    3    3    0  502 -0.10327739564E+04 -0.19416229333E+03  0.88396356726E+03  0.13732131089E+04  0.12699999809E+01 0. -1.
</event>
<event>
 5   0  0.1067434E-05  0.2095556E+04  0.7818609E-02  0.8563204E-01
       -1   -1    0    0    0  501  0.00000000000E+00  0.00000000000E+00  0.12466169355E+04  0.12466169355E+04  0.50400001928E-02 0. -1.
        1   -1    0    0  501    0  0.00000000000E+00  0.00000000000E+00 -0.88065414685E+03  0.88065414686E+03  0.50400001928E-02 0.  1.
    10030    2    1    2    0    0  0.00000000000E+00  0.00000000000E+00  0.36596278861E+03  0.21272710823E+04  0.20955556531E+04 0.  0.
        4    1    3    3  502    0 -0.30269736141E+03 -0.86864559543E+03 -0.32627421614E+03  0.97602630092E+03  0.12699999809E+01 0.  1.
       -4    1    3    3    0  502  0.30269736141E+03  0.86864559543E+03  0.69223700475E+03  0.11512447814E+04  0.12699999809E+01 0. -1.
</event>
<event>
 5   0  0.2697964E-05  0.1868272E+04  0.7818609E-02  0.8670813E-01
        2   -1    0    0  501    0  0.00000000000E+00  0.00000000000E+00  0.16518312957E+04  0.16518312957E+04  0.25500000920E-02 0.  1.
       -2   -1    0    0    0  501  0.00000000000E+00  0.00000000000E+00 -0.52826805611E+03  0.52826805612E+03  0.25500000920E-02 0. -1.
    10030    2    1    2    0    0  0.00000000000E+00  0.00000000000E+00  0.11235632396E+04  0.21800993519E+04  0.18682716158E+04 0.  0.
        1    1    3    3  502    0  0.61858337830E+03  0.49544594669E+03  0.11387786702E+04  0.13874180847E+04  0.50400001928E-02 0.  1.
       -1    1    3    3    0  502 -0.61858337830E+03 -0.49544594669E+03 -0.15215430551E+02  0.79268126719E+03  0.50400001928E-02 0. -1.
</event>
<event>
 5   0  0.2518686E-05  0.2737471E+04  0.7818609E-02  0.8322948E-01
       -2   -1    0    0    0  501  0.00000000000E+00  0.00000000000E+00  0.57381181893E+03  0.57381181893E+03  0.25500000920E-02 0. -1.
        2   -1    0    0  501    0  0.00000000000E+00  0.00000000000E+00 -0.32648975423E+04  0.32648975423E+04  0.25500000920E-02 0.  1.
    10030    2    1    2    0    0  0.00000000000E+00  0.00000000000E+00 -0.26910857234E+04  0.38387093612E+04  0.27374709477E+04 0.  0.
        5    1    3    3  502    0  0.93377903845E+03  0.87667299570E+03 -0.20223037573E+04  0.23937905946E+04  0.46999998093E+01 0.  1.
       -5    1    3    3    0  502 -0.93377903845E+03 -0.87667299570E+03 -0.66878196609E+03  0.14449187666E+04  0.46999998093E+01 0. -1.
</event>
<event>
 5   0  0.1078103E-05  0.1776720E+04  0.7818609E-02  0.8718778E-01
        1   -1    0    0  501    0  0.00000000000E+00  0.00000000000E+00  0.16508964245E+04  0.16508964245E+04  0.50400001928E-02 0. -1.
       -1   -1    0    0    0  501  0.00000000000E+00  0.00000000000E+00 -0.47803341416E+03  0.47803341419E+03  0.50400001928E-02 0.  1.
    10030    2    1    2    0    0  0.00000000000E+00  0.00000000000E+00  0.11728630104E+04  0.21289298387E+04  0.17767201854E+04 0.  0.
        1    1    3    3  502    0 -0.11178866371E+03 -0.58340372761E+03 -0.20506386041E+03  0.62841690111E+03  0.50400001928E-02 0. -1.
       -1    1    3    3    0  502  0.11178866371E+03  0.58340372761E+03  0.13779268708E+04  0.15005129376E+04  0.50400001928E-02 0.  1.
</event>
<event>
 5   0  0.1078103E-05  0.2752018E+04  0.7818609E-02  0.8318321E-01
        1   -1    0    0  501    0  0.00000000000E+00  0.00000000000E+00  0.88525375085E+03  0.88525375086E+03  0.50400001928E-02 0. -1.
       -1   -1    0    0    0  501  0.00000000000E+00  0.00000000000E+00 -0.21388232140E+04  0.21388232140E+04  0.50400001928E-02 0.  1.
    10030    2    1    2    0    0  0.00000000000E+00  0.00000000000E+00 -0.12535694632E+04  0.30240769649E+04  0.27520183667E+04 0.  0.
        1    1    3    3  502    0 -0.19024743440E+03  0.28360753790E+03  0.83794535129E+03  0.90486448357E+03  0.50400001928E-02 0. -1.
       -1    1    3    3    0  502  0.19024743440E+03 -0.28360753790E+03 -0.20915148145E+04  0.21192124813E+04  0.50400001928E-02 0.  1.
</event>
<event>
 5   0  0.1067434E-05  0.2825031E+04  0.7818609E-02  0.8295539E-01
       -1   -1    0    0    0  501  0.00000000000E+00  0.00000000000E+00  0.90349962634E+03  0.90349962636E+03  0.50400001928E-02 0. -1.
        1   -1    0    0  501    0  0.00000000000E+00  0.00000000000E+00 -0.22083014701E+04  0.22083014701E+04  0.50400001928E-02 0.  1.
    10030    2    1    2    0    0  0.00000000000E+00  0.00000000000E+00 -0.13048018437E+04  0.31118010964E+04  0.28250306569E+04 0.  0.
        4    1    3    3  502    0 -0.12857937599E+04  0.12501305210E+03 -0.23184687672E+02  0.12920654003E+04  0.12699999809E+01 0. -1.
       -4    1    3    3    0  502  0.12857937599E+04 -0.12501305210E+03 -0.12816171560E+04  0.18197356961E+04  0.12699999809E+01 0.  1.
</event>
<event>
 5   0  0.2624815E-05  0.2893019E+04  0.7818609E-02  0.8274957E-01
       -2   -1    0    0    0  501  0.00000000000E+00  0.00000000000E+00  0.13648385232E+04  0.13648385232E+04  0.25500000920E-02 0.  1.
        2   -1    0    0  501    0  0.00000000000E+00  0.00000000000E+00 -0.15330680609E+04  0.15330680609E+04  0.25500000920E-02 0. -1.
    10030    2    1    2    0    0  0.00000000000E+00  0.00000000000E+00 -0.16822953768E+03  0.28979065840E+04  0.28930194248E+04 0.  0.
        4    1    3    3  502    0  0.11539242390E+04  0.47443072930E+03  0.64908010304E+03  0.14063897964E+04  0.12699999809E+01 0.  1.
       -4    1    3    3    0  502 -0.11539242390E+04 -0.47443072930E+03 -0.81730964073E+03  0.14915167877E+04  0.12699999809E+01 0. -1.
</event>
<event>
 5   0  0.1078103E-05  0.2701556E+04  0.7818609E-02  0.8334500E-01
       -1   -1    0    0    0  501  0.00000000000E+00  0.00000000000E+00  0.24848404066E+04  0.24848404066E+04  0.50400001928E-02 0.  1.
        1   -1    0    0  501    0  0.00000000000E+00  0.00000000000E+00 -0.73429333583E+03  0.73429333585E+03  0.50400001928E-02 0. -1.
    10030    2    1    2    0    0  0.00000000000E+00  0.00000000000E+00  0.17505470708E+04  0.32191337424E+04  0.27015564042E+04 0.  0.
        1    1    3    3  502    0  0.81477072902E+03 -0.97682036201E+03  0.33369540484E+03  0.13150596883E+04  0.50400001928E-02 0.  1.
       -1    1    3    3    0  502 -0.81477072902E+03  0.97682036201E+03  0.14168516659E+04  0.19040740542E+04  0.50400001928E-02 0. -1.
</event>
<event>
 5   0  0.2697964E-05  0.2808014E+04  0.7818609E-02  0.8300785E-01
       -2   -1    0    0    0  501  0.00000000000E+00  0.00000000000E+00  0.84363260806E+03  0.84363260807E+03  0.25500000920E-02 0.  1.
        2   -1    0    0  501    0  0.00000000000E+00  0.00000000000E+00 -0.23366046118E+04  0.23366046118E+04  0.25500000920E-02 0. -1.
    10030    2    1    2    0    0  0.00000000000E+00  0.00000000000E+00 -0.14929720037E+04  0.31802372198E+04  0.28080141329E+04 0.  0.
        1    1    3    3  502    0 -0.11939945499E+04 -0.51903205194E+03 -0.15125344697E+03  0.13106848826E+04  0.50400001928E-02 0.  1.
       -1    1    3    3    0  502  0.11939945499E+04  0.51903205194E+03 -0.13417185567E+04  0.18695523372E+04  0.50400001928E-02 0. -1.
</event>
<event>
 5   0  0.8958000E-06  0.2100100E+04  0.7818609E-02  0.8561199E-01
       -3   -1    0    0    0  501  0.00000000000E+00  0.00000000000E+00  0.10036265315E+04  0.10036265366E+04  0.10100000352E+00 0.  1.
        3   -1    0    0  501    0  0.00000000000E+00  0.00000000000E+00 -0.10986207157E+04  0.10986207203E+04  0.10100000352E+00 0. -1.
    10030    2    1    2    0    0  0.00000000000E+00  0.00000000000E+00 -0.94994184133E+02  0.21022472570E+04  0.21000999106E+04 0.  0.
        3    1    3    3  502    0 -0.78015958172E+03  0.32525293418E+03  0.57617001331E+03  0.10229420016E+04  0.10100000352E+00 0.  1.
       -3    1    3    3    0  502  0.78015958172E+03 -0.32525293418E+03 -0.67116419745E+03  0.10793052554E+04  0.10100000352E+00 0. -1.
</event>
<event>
 5   0  0.1017456E-05  0.2076718E+04  0.7818609E-02  0.8571569E-01
       -1   -1    0    0    0  501  0.00000000000E+00  0.00000000000E+00  0.71949359732E+03  0.71949359734E+03  0.50400001928E-02 0. -1.
        1   -1    0    0  501    0  0.00000000000E+00  0.00000000000E+00 -0.14985391278E+04  0.14985391278E+04  0.50400001928E-02 0.  1.
    10030    2    1    2    0    0  0.00000000000E+00  0.00000000000E+00 -0.77904553048E+03  0.22180327251E+04  0.20767178988E+04 0.  0.
        5    1    3    3  502    0 -0.84428928633E+03  0.45128447829E+03 -0.81898550952E+03  0.12598577039E+04  0.46999998093E+01 0.  1.
       -5    1    3    3    0  502  0.84428928633E+03 -0.45128447829E+03  0.39939979042E+02  0.95817502121E+03  0.46999998093E+01 0. -1.
</event>
<event>
 5   0  0.2651061E-05  0.2636017E+04  0.7818609E-02  0.8356069E-01
        2   -1    0    0  501    0  0.00000000000E+00  0.00000000000E+00  0.26985921118E+04  0.26985921118E+04  0.25500000920E-02 0.  1.
       -2   -1    0    0    0  501  0.00000000000E+00  0.00000000000E+00 -0.64372333478E+03  0.64372333479E+03  0.25500000920E-02 0. -1.
    10030    2    1    2    0    0  0.00000000000E+00  0.00000000000E+00  0.20548687770E+04  0.33423154466E+04  0.26360172332E+04 0.  0.
        3    1    3    3  502    0  0.70798311183E+03  0.47604758304E+03  0.23012488296E+04  0.24543038878E+04  0.10100000352E+00 0.  1.
       -3    1    3    3    0  502 -0.70798311183E+03 -0.47604758304E+03 -0.24638005258E+03  0.88801155874E+03  0.10100000352E+00 0. -1.
</event>
<event>
 5   0  0.1078103E-05  0.2838458E+04  0.7818609E-02  0.8291427E-01
       -1   -1    0    0    0  501  0.00000000000E+00  0.00000000000E+00  0.10811633966E+04  0.10811633966E+04  0.50400001928E-02 0. -1.
        1   -1    0    0  501    0  0.00000000000E+00  0.00000000000E+00 -0.18630026688E+04  0.18630026688E+04  0.50400001928E-02 0.  1.
    10030    2    1    2    0    0  0.00000000000E+00  0.00000000000E+00 -0.78183927215E+03  0.29441660654E+04  0.28384575342E+04 0.  0.
        1    1    3    3  502    0 -0.97938723480E+03  0.55128100689E+03 -0.12898557687E+04  0.17108003999E+04  0.50400001928E-02 0. -1.
       -1    1    3    3    0  502  0.97938723480E+03 -0.55128100689E+03  0.50801649650E+03  0.12333656656E+04  0.50400001928E-02 0.  1.
</event>
<event>
 5   0  0.1017456E-05  0.1982506E+04  0.7818609E-02  0.8614844E-01
       -1   -1    0    0    0  501  0.00000000000E+00  0.00000000000E+00  0.15490440604E+04  0.15490440604E+04  0.50400001928E-02 0. -1.
        1   -1    0    0  501    0  0.00000000000E+00  0.00000000000E+00 -0.63431532215E+03  0.63431532217E+03  0.50400001928E-02 0.  1.
    10030    2    1    2    0    0  0.00000000000E+00  0.00000000000E+00  0.91472873824E+03  0.21833593826E+04  0.19825058711E+04 0.  0.
        5    1    3    3  502    0 -0.70388631711E+03 -0.30502719289E+03  0.11487071625E+04  0.13813210239E+04  0.46999998093E+01 0. -1.
       -5    1    3    3    0  502  0.70388631711E+03  0.30502719289E+03 -0.23397842425E+03  0.80203835870E+03  0.46999998093E+01 0.  1.
</event>
<event>
 5   0  0.2518686E-05  0.2911636E+04  0.7818609E-02  0.8269424E-01
        2   -1    0    0  501    0  0.00000000000E+00  0.00000000000E+00  0.24365651279E+04  0.24365651279E+04  0.25500000920E-02 0. -1.
       -2   -1    0    0    0  501  0.00000000000E+00  0.00000000000E+00 -0.86983376111E+03  0.86983376111E+03  0.25500000920E-02 0.  1.
    10030    2    1    2    0    0  0.00000000000E+00  0.00000000000E+00  0.15667313668E+04  0.33063988890E+04  0.29116363849E+04 0.  0.
        5    1    3    3  502    0 -0.74035059957E+03  0.79862594411E+02  0.22039259586E+04  0.23263294619E+04  0.46999998093E+01 0. -1.
       -5    1    3    3    0  502  0.74035059957E+03 -0.79862594411E+02 -0.63719459177E+03  0.98006942716E+03  0.46999998093E+01 0.  1.
</event>
<event>
 5   0  0.1078103E-05  0.2792789E+04  0.7818609E-02  0.8305511E-01
        1   -1    0    0  501    0  0.00000000000E+00  0.00000000000E+00  0.17853446859E+04  0.17853446859E+04  0.50400001928E-02 0.  1.
       -1   -1    0    0    0  501  0.00000000000E+00  0.00000000000E+00 -0.10921799715E+04  0.10921799715E+04  0.50400001928E-02 0. -1.
    10030    2    1    2    0    0  0.00000000000E+00  0.00000000000E+00  0.69316471441E+03  0.28775246574E+04  0.27927890777E+04 0.  0.
        1    1    3    3  502    0 -0.48368733218E+03  0.90213953308E+03 -0.63202913713E+03  0.12030253541E+04  0.50400001928E-02 0. -1.
       -1    1    3    3    0  502  0.48368733218E+03 -0.90213953308E+03  0.13251938515E+04  0.16744993033E+04  0.50400001928E-02 0.  1.
</event>
<event>
 5   0  0.1017456E-05  0.2621163E+04  0.7818609E-02  0.8361048E-01
       -1   -1    0    0    0  501  0.00000000000E+00  0.00000000000E+00  0.10083544964E+04  0.10083544964E+04  0.50400001928E-02 0. -1.
        1   -1    0    0  501    0  0.00000000000E+00  0.00000000000E+00 -0.17033925168E+04  0.17033925168E+04  0.50400001928E-02 0.  1.
    10030    2    1    2    0    0  0.00000000000E+00  0.00000000000E+00 -0.69503802037E+03  0.27117470133E+04  0.26211627218E+04 0.  0.
        5    1    3    3  502    0 -0.10077642179E+04  0.63756852003E+02  0.51678523498E+03  0.11343468271E+04  0.46999998093E+01 0. -1.
       -5    1    3    3    0  502  0.10077642179E+04 -0.63756852003E+02 -0.12118232554E+04  0.15774001862E+04  0.46999998093E+01 0.  1.
</event>
<event>
 5   0  0.1105862E-05  0.1377490E+04  0.7818609E-02  0.8970275E-01
        1   -1    0    0  501    0  0.00000000000E+00  0.00000000000E+00  0.45411746161E+03  0.45411746164E+03  0.50400001928E-02 0.  1.
       -1   -1    0    0    0  501  0.00000000000E+00  0.00000000000E+00 -0.10445973758E+04  0.10445973758E+04  0.50400001928E-02 0. -1.
    10030    2    1    2    0    0  0.00000000000E+00  0.00000000000E+00 -0.59047991415E+03  0.14987148374E+04  0.13774903393E+04 0.  0.
        3    1    3    3  502    0 -0.67123095417E+03  0.38363116894E+02 -0.13259456295E+03  0.68527662364E+03  0.10100000352E+00 0. -1.
       -3    1    3    3    0  502  0.67123095417E+03 -0.38363116894E+02 -0.45788535120E+03  0.81343821377E+03  0.10100000352E+00 0.  1.
</event>
<event>
 5   0  0.2624815E-05  0.2822164E+04  0.7818609E-02  0.8296420E-01
        2   -1    0    0  501    0  0.00000000000E+00  0.00000000000E+00  0.13424706733E+04  0.13424706733E+04  0.25500000920E-02 0. -1.
       -2   -1    0    0    0  501  0.00000000000E+00  0.00000000000E+00 -0.14832004054E+04  0.14832004054E+04  0.25500000920E-02 0.  1.
    10030    2    1    2    0    0  0.00000000000E+00  0.00000000000E+00 -0.14072973213E+03  0.28256710788E+04  0.28221644509E+04 0.  0.
        4    1    3    3  502    0  0.10571552789E+02 -0.14109429031E+04 -0.87112890904E+02  0.14136696581E+04  0.12699999809E+01 0.  1.
       -4    1    3    3    0  502 -0.10571552789E+02  0.14109429031E+04 -0.53616841224E+02  0.14120014207E+04  0.12699999809E+01 0. -1.
</event>
<event>
 5   0  0.1075146E-05  0.2800398E+04  0.7818609E-02  0.8303145E-01
        1   -1    0    0  501    0  0.00000000000E+00  0.00000000000E+00  0.18899230616E+04  0.18899230616E+04  0.50400001928E-02 0. -1.
       -1   -1    0    0    0  501  0.00000000000E+00  0.00000000000E+00 -0.10373741051E+04  0.10373741051E+04  0.50400001928E-02 0.  1.
    10030    2    1    2    0    0  0.00000000000E+00  0.00000000000E+00  0.85254895648E+03  0.29272971668E+04  0.28003980037E+04 0.  0.
        2    1    3    3  502    0 -0.10794353958E+04  0.14739145040E+03 -0.49315821905E+03  0.11958720845E+04  0.25500000920E-02 0.  1.
       -2    1    3    3    0  502  0.10794353958E+04 -0.14739145040E+03  0.13457071755E+04  0.17314250823E+04  0.25500000920E-02 0. -1.
</event>
<event>
 5   0  0.8958000E-06  0.2817287E+04  0.7818609E-02  0.8297922E-01
       -3   -1    0    0    0  501  0.00000000000E+00  0.00000000000E+00  0.22109623784E+04  0.22109623807E+04  0.10100000352E+00 0.  1.
        3   -1    0    0  501    0  0.00000000000E+00  0.00000000000E+00 -0.89747175206E+03  0.89747175774E+03  0.10100000352E+00 0. -1.
    10030    2    1    2    0    0  0.00000000000E+00  0.00000000000E+00  0.13134906263E+04  0.31084341384E+04  0.28172868451E+04 0.  0.
        1    1    3    3  502    0  0.13361903162E+04 -0.28374222548E+02  0.11477846262E+04  0.17617091717E+04  0.50400001928E-02 0.  1.
       -1    1    3    3    0  502 -0.13361903162E+04  0.28374222548E+02  0.16570600011E+03  0.13467249667E+04  0.50400001928E-02 0. -1.
</event>
<event>
 5   0  0.2697964E-05  0.2777376E+04  0.7818609E-02  0.8310327E-01
        2   -1    0    0  501    0  0.00000000000E+00  0.00000000000E+00  0.21311417710E+04  0.21311417710E+04  0.25500000920E-02 0.  1.
       -2   -1    0    0    0  501  0.00000000000E+00  0.00000000000E+00 -0.90489265040E+03  0.90489265040E+03  0.25500000920E-02 0. -1.
    10030    2    1    2    0    0  0.00000000000E+00  0.00000000000E+00  0.12262491206E+04  0.30360344214E+04  0.27773761182E+04 0.  0.
        1    1    3    3  502    0  0.32727543432E+03  0.13767206756E+03 -0.85443787180E+03  0.92527124936E+03  0.50400001928E-02 0. -1.
       -1    1    3    3    0  502 -0.32727543432E+03 -0.13767206756E+03  0.20806869924E+04  0.21107631720E+04  0.50400001928E-02 0.  1.
</event>
<event>
 5   0  0.2624815E-05  0.2655958E+04  0.7818609E-02  0.8349438E-01
       -2   -1    0    0    0  501  0.00000000000E+00  0.00000000000E+00  0.97514486031E+03  0.97514486031E+03  0.25500000920E-02 0. -1.
        2   -1    0    0  501    0  0.00000000000E+00  0.00000000000E+00 -0.18084778091E+04  0.18084778091E+04  0.25500000920E-02 0.  1.
    10030    2    1    2    0    0  0.00000000000E+00  0.00000000000E+00 -0.83333294877E+03  0.27836226694E+04  0.26559577109E+04 0.  0.
        4    1    3    3  502    0 -0.54265033484E+03 -0.11856755603E+04 -0.68020969921E+03  0.14707082538E+04  0.12699999809E+01 0.  1.
       -4    1    3    3    0  502  0.54265033484E+03  0.11856755603E+04 -0.15312324955E+03  0.13129144155E+04  0.12699999809E+01 0. -1.
</event>
<event>
 5   0  0.2624815E-05  0.1491867E+04  0.7818609E-02  0.8889879E-01
        2   -1    0    0  501    0  0.00000000000E+00  0.00000000000E+00  0.20900101989E+04  0.20900101989E+04  0.25500000920E-02 0. -1.
       -2   -1    0    0    0  501  0.00000000000E+00  0.00000000000E+00 -0.26622699545E+03  0.26622699546E+03  0.25500000920E-02 0.  1.
    10030    2    1    2    0    0  0.00000000000E+00  0.00000000000E+00  0.18237832034E+04  0.23562371943E+04  0.14918674683E+04 0.  0.
        4    1    3    3  502    0  0.54268635648E+03  0.47452228388E+03  0.60917754451E+03  0.94381077184E+03  0.12699999809E+01 0.  1.
       -4    1    3    3    0  502 -0.54268635648E+03 -0.47452228388E+03  0.12146056589E+04  0.14124264225E+04  0.12699999809E+01 0. -1.
</event>
<event>
 5   0  0.2588048E-05  0.1664914E+04  0.7818609E-02  0.8781632E-01
       -2   -1    0    0    0  501  0.00000000000E+00  0.00000000000E+00  0.56134437958E+03  0.56134437959E+03  0.25500000920E-02 0. -1.
        2   -1    0    0  501    0  0.00000000000E+00  0.00000000000E+00 -0.12345096720E+04  0.12345096720E+04  0.25500000920E-02 0.  1.
    10030    2    1    2    0    0  0.00000000000E+00  0.00000000000E+00 -0.67316529246E+03  0.17958540516E+04  0.16649144914E+04 0.  0.
        2    1    3    3  502    0 -0.31717134150E+03 -0.75325124623E+03 -0.16603378833E+03  0.83399779298E+03  0.25500000920E-02 0. -1.
       -2    1    3    3    0  502  0.31717134150E+03  0.75325124623E+03 -0.50713150413E+03  0.96185625865E+03  0.25500000920E-02 0.  1.
</event>
<event>
 5   0  0.2651061E-05  0.2579797E+04  0.7818609E-02  0.8375096E-01
        2   -1    0    0  501    0  0.00000000000E+00  0.00000000000E+00  0.98927239335E+03  0.98927239336E+03  0.25500000920E-02 0.  1.
       -2   -1    0    0    0  501  0.00000000000E+00  0.00000000000E+00 -0.16818807807E+04  0.16818807808E+04  0.25500000920E-02 0. -1.
    10030    2    1    2    0    0  0.00000000000E+00  0.00000000000E+00 -0.69260838740E+03  0.26711531741E+04  0.25797970659E+04 0.  0.
        3    1    3    3  502    0 -0.10655475192E+04 -0.46580565071E+03  0.23155577721E+03  0.11857421760E+04  0.10100000352E+00 0.  1.
       -3    1    3    3    0  502  0.10655475192E+04  0.46580565071E+03 -0.92416416461E+03  0.14854109981E+04  0.10100000352E+00 0. -1.
</event>
<event>
 5   0  0.1105862E-05  0.2420603E+04  0.7818609E-02  0.8431830E-01
        1   -1    0    0  501    0  0.00000000000E+00  0.00000000000E+00  0.16745941258E+04  0.16745941258E+04  0.50400001928E-02 0.  1.
       -1   -1    0    0    0  501  0.00000000000E+00  0.00000000000E+00 -0.87473694899E+03  0.87473694901E+03  0.50400001928E-02 0. -1.
    10030    2    1    2    0    0  0.00000000000E+00  0.00000000000E+00  0.79985717683E+03  0.25493310748E+04  0.24206026989E+04 0.  0.
        3    1    3    3  502    0 -0.29613522467E+03  0.91257612690E+03 -0.37710016203E+03  0.10308713795E+04  0.10100000352E+00 0.  1.
       -3    1    3    3    0  502  0.29613522467E+03 -0.91257612690E+03  0.11769573389E+04  0.15184596953E+04  0.10100000352E+00 0. -1.
</event>
<event>
 5   0  0.1067434E-05  0.2776130E+04  0.7818609E-02  0.8310717E-01
        1   -1    0    0  501    0  0.00000000000E+00  0.00000000000E+00  0.16446195211E+04  0.16446195211E+04  0.50400001928E-02 0. -1.
       -1   -1    0    0    0  501  0.00000000000E+00  0.00000000000E+00 -0.11715323917E+04  0.11715323918E+04  0.50400001928E-02 0.  1.
    10030    2    1    2    0    0  0.00000000000E+00  0.00000000000E+00  0.47308712938E+03  0.28161519129E+04  0.27761304300E+04 0.  0.
        4    1    3    3  502    0 -0.71021383037E+03  0.44423008121E+03 -0.88620006787E+03  0.12194655481E+04  0.12699999809E+01 0.  1.
       -4    1    3    3    0  502  0.71021383037E+03 -0.44423008121E+03  0.13592871972E+04  0.15966863648E+04  0.12699999809E+01 0. -1.
</event>
<event>
 5   0  0.2651061E-05  0.2411290E+04  0.7818609E-02  0.8435289E-01
        2   -1    0    0  501    0  0.00000000000E+00  0.00000000000E+00  0.14619164075E+04  0.14619164075E+04  0.25500000920E-02 0. -1.
       -2   -1    0    0    0  501  0.00000000000E+00  0.00000000000E+00 -0.99429724276E+03  0.99429724277E+03  0.25500000920E-02 0.  1.
    10030    2    1    2    0    0  0.00000000000E+00  0.00000000000E+00  0.46761916475E+03  0.24562136503E+04  0.24112896575E+04 0.  0.
        3    1    3    3  502    0  0.55472661865E+02  0.88641546916E+03 -0.59671484792E+03  0.10699898224E+04  0.10100000352E+00 0.  1.
       -3    1    3    3    0  502 -0.55472661865E+02 -0.88641546916E+03  0.10643340127E+04  0.13862238278E+04  0.10100000352E+00 0. -1.
</event>
<event>
 5   0  0.2588048E-05  0.2741225E+04  0.7818609E-02  0.8321752E-01
       -2   -1    0    0    0  501  0.00000000000E+00  0.00000000000E+00  0.11698032275E+04  0.11698032275E+04  0.25500000920E-02 0. -1.
        2   -1    0    0  501    0  0.00000000000E+00  0.00000000000E+00 -0.16058926665E+04  0.16058926665E+04  0.25500000920E-02 0.  1.
    10030    2    1    2    0    0  0.00000000000E+00  0.00000000000E+00 -0.43608943895E+03  0.27756958940E+04  0.27412248535E+04 0.  0.
        2    1    3    3  502    0 -0.83364009220E+03 -0.10853262414E+04 -0.29442248857E+03  0.13998476544E+04  0.25500000920E-02 0.  1.
       -2    1    3    3    0  502  0.83364009220E+03  0.10853262414E+04 -0.14166695038E+03  0.13758482396E+04  0.25500000920E-02 0. -1.
</event>
<event>
 5   0  0.1078103E-05  0.2525090E+04  0.7818609E-02  0.8394101E-01
       -1   -1    0    0    0  501  0.00000000000E+00  0.00000000000E+00  0.22779247364E+04  0.22779247364E+04  0.50400001928E-02 0. -1.
        1   -1    0    0  501    0  0.00000000000E+00  0.00000000000E+00 -0.69976847769E+03  0.69976847771E+03  0.50400001928E-02 0.  1.
    10030    2    1    2    0    0  0.00000000000E+00  0.00000000000E+00  0.15781562587E+04  0.29776932141E+04  0.25250900381E+04 0.  0.
        1    1    3    3  502    0 -0.98151442844E+03 -0.35436707747E+02  0.17246221793E+04  0.19846783102E+04  0.50400001928E-02 0. -1.
       -1    1    3    3    0  502  0.98151442844E+03  0.35436707747E+02 -0.14646592062E+03  0.99301490393E+03  0.50400001928E-02 0.  1.
</event>
<event>
 5   0  0.2697964E-05  0.2810057E+04  0.7818609E-02  0.8300153E-01
       -2   -1    0    0    0  501  0.00000000000E+00  0.00000000000E+00  0.16149913796E+04  0.16149913796E+04  0.25500000920E-02 0.  1.
        2   -1    0    0  501    0  0.00000000000E+00  0.00000000000E+00 -0.12223623716E+04  0.12223623716E+04  0.25500000920E-02 0. -1.
    10030    2    1    2    0    0  0.00000000000E+00  0.00000000000E+00  0.39262900803E+03  0.28373537512E+04  0.28100567204E+04 0.  0.
        1    1    3    3  502    0  0.13492670817E+03  0.14886739529E+01  0.16084339008E+04  0.16140839650E+04  0.50400001928E-02 0.  1.
       -1    1    3    3    0  502 -0.13492670817E+03 -0.14886739529E+01 -0.12158048928E+04  0.12232697863E+04  0.50400001928E-02 0. -1.
</event>
<event>
 5   0  0.1075146E-05  0.2775689E+04  0.7818609E-02  0.8310856E-01
       -1   -1    0    0    0  501  0.00000000000E+00  0.00000000000E+00  0.13544117810E+04  0.13544117810E+04  0.50400001928E-02 0. -1.
        1   -1    0    0  501    0  0.00000000000E+00  0.00000000000E+00 -0.14221025074E+04  0.14221025074E+04  0.50400001928E-02 0.  1.
    10030    2    1    2    0    0  0.00000000000E+00  0.00000000000E+00 -0.67690726400E+02  0.27765142884E+04  0.27756890242E+04 0.  0.
        2    1    3    3  502    0 -0.80634217235E+03  0.61455391888E+03  0.91419597711E+03  0.13651441326E+04  0.25500000920E-02 0. -1.
       -2    1    3    3    0  502  0.80634217235E+03 -0.61455391888E+03 -0.98188670351E+03  0.14113701558E+04  0.25500000920E-02 0.  1.
</event>
<event>
 5   0  0.2518686E-05  0.2819314E+04  0.7818609E-02  0.8297297E-01
       -2   -1    0    0    0  501  0.00000000000E+00  0.00000000000E+00  0.11226234071E+04  0.11226234071E+04  0.25500000920E-02 0.  1.
        2   -1    0    0  501    0  0.00000000000E+00  0.00000000000E+00 -0.17700791769E+04  0.17700791769E+04  0.25500000920E-02 0. -1.
    10030    2    1    2    0    0  0.00000000000E+00  0.00000000000E+00 -0.64745576980E+03  0.28927025840E+04  0.28193136160E+04 0.  0.
        5    1    3    3  502    0  0.96547804331E+03 -0.58294253537E+02 -0.13758793916E+04  0.16818478714E+04  0.46999998093E+01 0. -1.
       -5    1    3    3    0  502 -0.96547804331E+03  0.58294253537E+02  0.72842362185E+03  0.12108547126E+04  0.46999998093E+01 0.  1.
</event>
<event>
 5   0  0.1075146E-05  0.2403341E+04  0.7818609E-02  0.8438254E-01
        1   -1    0    0  501    0  0.00000000000E+00  0.00000000000E+00  0.13749512914E+04  0.13749512914E+04  0.50400001928E-02 0. -1.
       -1   -1    0    0    0  501  0.00000000000E+00  0.00000000000E+00 -0.10502276208E+04  0.10502276208E+04  0.50400001928E-02 0.  1.
    10030    2    1    2    0    0  0.00000000000E+00  0.00000000000E+00  0.32472367058E+03  0.24251789122E+04  0.24033408610E+04 0.  0.
        2    1    3    3  502    0  0.42663699773E+03 -0.41250447070E+03  0.12167644469E+04  0.13537705808E+04  0.25500000920E-02 0. -1.
       -2    1    3    3    0  502 -0.42663699773E+03  0.41250447070E+03 -0.89204077628E+03  0.10714083315E+04  0.25500000920E-02 0.  1.
</event>
<event>
 5   0  0.1105862E-05  0.2812267E+04  0.7818609E-02  0.8299470E-01
       -1   -1    0    0    0  501  0.00000000000E+00  0.00000000000E+00  0.12027075607E+04  0.12027075607E+04  0.50400001928E-02 0. -1.
        1   -1    0    0  501    0  0.00000000000E+00  0.00000000000E+00 -0.16439671855E+04  0.16439671855E+04  0.50400001928E-02 0.  1.
    10030    2    1    2    0    0  0.00000000000E+00  0.00000000000E+00 -0.44125962478E+03  0.28466747462E+04  0.28122672444E+04 0.  0.
        3    1    3    3  502    0  0.51173510742E+03  0.58449191046E+02 -0.15450424799E+04  0.16286329860E+04  0.10100000352E+00 0.  1.
       -3    1    3    3    0  502 -0.51173510742E+03 -0.58449191046E+02  0.11037828551E+04  0.12180417602E+04  0.10100000352E+00 0. -1.
</event>
<event>
 5   0  0.1017456E-05  0.2744901E+04  0.7818609E-02  0.8320582E-01
       -1   -1    0    0    0  501  0.00000000000E+00  0.00000000000E+00  0.75914461122E+03  0.75914461124E+03  0.50400001928E-02 0. -1.
        1   -1    0    0  501    0  0.00000000000E+00  0.00000000000E+00 -0.24812402647E+04  0.24812402647E+04  0.50400001928E-02 0.  1.
    10030    2    1    2    0    0  0.00000000000E+00  0.00000000000E+00 -0.17220956535E+04  0.32403848759E+04  0.27449008551E+04 0.  0.
        5    1    3    3  502    0 -0.48402468388E+03  0.90218047339E+03  0.21793417978E+03  0.10467697444E+04  0.46999998093E+01 0.  1.
       -5    1    3    3    0  502  0.48402468388E+03 -0.90218047339E+03 -0.19400298332E+04  0.21936151315E+04  0.46999998093E+01 0. -1.
</event>
<event>
 5   0  0.2697964E-05  0.2823342E+04  0.7818609E-02  0.8296058E-01
        2   -1    0    0  501    0  0.00000000000E+00  0.00000000000E+00  0.24623218263E+04  0.24623218263E+04  0.25500000920E-02 0.  1.
       -2   -1    0    0    0  501  0.00000000000E+00  0.00000000000E+00 -0.80932352953E+03  0.80932352953E+03  0.25500000920E-02 0. -1.
    10030    2    1    2    0    0  0.00000000000E+00  0.00000000000E+00  0.16529982968E+04  0.32716453559E+04  0.28233419852E+04 0.  0.
        1    1    3    3  502    0 -0.37923213980E+03  0.53728220033E+02  0.24009592829E+04  0.24313184110E+04  0.50400001928E-02 0.  1.
       -1    1    3    3    0  502  0.37923213980E+03 -0.53728220033E+02 -0.74796098611E+03  0.84032694486E+03  0.50400001928E-02 0. -1.
</event>
<event>
 5   0  0.1105862E-05  0.2367478E+04  0.7818609E-02  0.8451781E-01
        1   -1    0    0  501    0  0.00000000000E+00  0.00000000000E+00  0.12531479651E+04  0.12531479651E+04  0.50400001928E-02 0.  1.
       -1   -1    0    0    0  501  0.00000000000E+00  0.00000000000E+00 -0.11181740384E+04  0.11181740384E+04  0.50400001928E-02 0. -1.
    10030    2    1    2    0    0  0.00000000000E+00  0.00000000000E+00  0.13497392676E+03  0.23713220035E+04  0.23674775782E+04 0.  0.
        3    1    3    3  502    0 -0.74168477520E+03  0.92132127067E+03  0.11560997183E+03  0.11884001285E+04  0.10100000352E+00 0. -1.
       -3    1    3    3    0  502  0.74168477520E+03 -0.92132127067E+03  0.19363954930E+02  0.11829218751E+04  0.10100000352E+00 0.  1.
</event>
<event>
 5   0  0.2588048E-05  0.1664016E+04  0.7818609E-02  0.8782158E-01
        2   -1    0    0  501    0  0.00000000000E+00  0.00000000000E+00  0.20104469022E+04  0.20104469022E+04  0.25500000920E-02 0. -1.
       -2   -1    0    0    0  501  0.00000000000E+00  0.00000000000E+00 -0.34432015198E+03  0.34432015199E+03  0.25500000920E-02 0.  1.
    10030    2    1    2    0    0  0.00000000000E+00  0.00000000000E+00  0.16661267502E+04  0.23547670542E+04  0.16640160852E+04 0.  0.
        2    1    3    3  502    0 -0.43614485060E+03 -0.66294541113E+03  0.47923351831E+03  0.92702951081E+03  0.25500000920E-02 0.  1.
       -2    1    3    3    0  502  0.43614485060E+03  0.66294541113E+03  0.11868932319E+04  0.14277375434E+04  0.25500000920E-02 0. -1.
</event>
<event>
 5   0  0.1067434E-05  0.2648381E+04  0.7818609E-02  0.8351950E-01
       -1   -1    0    0    0  501  0.00000000000E+00  0.00000000000E+00  0.12714183787E+04  0.12714183788E+04  0.50400001928E-02 0.  1.
        1   -1    0    0  501    0  0.00000000000E+00  0.00000000000E+00 -0.13791531198E+04  0.13791531198E+04  0.50400001928E-02 0. -1.
    10030    2    1    2    0    0  0.00000000000E+00  0.00000000000E+00 -0.10773474101E+03  0.26505714985E+04  0.26483811082E+04 0.  0.
        4    1    3    3  502    0  0.12887848561E+04  0.15430558076E+03  0.20846082690E+03  0.13146231958E+04  0.12699999809E+01 0.  1.
       -4    1    3    3    0  502 -0.12887848561E+04 -0.15430558076E+03 -0.31619556791E+03  0.13359483028E+04  0.12699999809E+01 0. -1.
</event>
<event>
 5   0  0.1017456E-05  0.2901149E+04  0.7818609E-02  0.8272536E-01
       -1   -1    0    0    0  501  0.00000000000E+00  0.00000000000E+00  0.12217234252E+04  0.12217234252E+04  0.50400001928E-02 0. -1.
        1   -1    0    0  501    0  0.00000000000E+00  0.00000000000E+00 -0.17222941261E+04  0.17222941261E+04  0.50400001928E-02 0.  1.
    10030    2    1    2    0    0  0.00000000000E+00  0.00000000000E+00 -0.50057070093E+03  0.29440175513E+04  0.29011494818E+04 0.  0.
        5    1    3    3  502    0  0.74715407601E+02  0.59936884111E+03 -0.15886053947E+04  0.16995630585E+04  0.46999998093E+01 0.  1.
       -5    1    3    3    0  502 -0.74715407601E+02 -0.59936884111E+03  0.10880346938E+04  0.12444544928E+04  0.46999998093E+01 0. -1.
</event>
<event>
 5   0  0.2518686E-05  0.2687201E+04  0.7818609E-02  0.8339170E-01
       -2   -1    0    0    0  501  0.00000000000E+00  0.00000000000E+00  0.91461679367E+03  0.91461679368E+03  0.25500000920E-02 0. -1.
        2   -1    0    0  501    0  0.00000000000E+00  0.00000000000E+00 -0.19737904876E+04  0.19737904876E+04  0.25500000920E-02 0.  1.
    10030    2    1    2    0    0  0.00000000000E+00  0.00000000000E+00 -0.10591736939E+04  0.28884072813E+04  0.26872007198E+04 0.  0.
        5    1    3    3  502    0  0.46447578881E+03 -0.47292600606E+03  0.72661297044E+03  0.98355745354E+03  0.46999998093E+01 0. -1.
       -5    1    3    3    0  502 -0.46447578881E+03  0.47292600606E+03 -0.17857866644E+04  0.19048498277E+04  0.46999998093E+01 0.  1.
</event>
<event>
 5   0  0.1017456E-05  0.2779237E+04  0.7818609E-02  0.8309744E-01
        1   -1    0    0  501    0  0.00000000000E+00  0.00000000000E+00  0.16310882456E+04  0.16310882456E+04  0.50400001928E-02 0.  1.
       -1   -1    0    0    0  501  0.00000000000E+00  0.00000000000E+00 -0.11838964860E+04  0.11838964860E+04  0.50400001928E-02 0. -1.
    10030    2    1    2    0    0  0.00000000000E+00  0.00000000000E+00  0.44719175962E+03  0.28149847316E+04  0.27792370480E+04 0.  0.
        5    1    3    3  502    0 -0.11141852071E+04 -0.80451180451E+03  0.15109444215E+02  0.13743719673E+04  0.46999998093E+01 0. -1.
       -5    1    3    3    0  502  0.11141852071E+04  0.80451180451E+03  0.43208231541E+03  0.14406127642E+04  0.46999998093E+01 0.  1.
</event>
<event>
 5   0  0.1075146E-05  0.2918955E+04  0.7818609E-02  0.8267260E-01
       -1   -1    0    0    0  501  0.00000000000E+00  0.00000000000E+00  0.18107320951E+04  0.18107320951E+04  0.50400001928E-02 0. -1.
        1   -1    0    0  501    0  0.00000000000E+00  0.00000000000E+00 -0.11763609043E+04  0.11763609043E+04  0.50400001928E-02 0.  1.
    10030    2    1    2    0    0  0.00000000000E+00  0.00000000000E+00  0.63437119082E+03  0.29870929995E+04  0.29189549122E+04 0.  0.
        2    1    3    3  502    0  0.17657871243E+03 -0.56603878733E+03 -0.10475471744E+04  0.12037171732E+04  0.25500000920E-02 0.  1.
       -2    1    3    3    0  502 -0.17657871243E+03  0.56603878733E+03  0.16819183652E+04  0.17833758263E+04  0.25500000920E-02 0. -1.
</event>
<event>
 5   0  0.2697964E-05  0.2702772E+04  0.7818609E-02  0.8334106E-01
        2   -1    0    0  501    0  0.00000000000E+00  0.00000000000E+00  0.10332083609E+04  0.10332083609E+04  0.25500000920E-02 0. -1.
       -2   -1    0    0    0  501  0.00000000000E+00  0.00000000000E+00 -0.17675471884E+04  0.17675471884E+04  0.25500000920E-02 0.  1.
    10030    2    1    2    0    0  0.00000000000E+00  0.00000000000E+00 -0.73433882754E+03  0.28007555493E+04  0.27027723051E+04 0.  0.
        1    1    3    3  502    0  0.39018570918E+03 -0.33167312210E+03 -0.16631040280E+04  0.17401629106E+04  0.50400001928E-02 0.  1.
       -1    1    3    3    0  502 -0.39018570918E+03  0.33167312210E+03  0.92876520046E+03  0.10605926387E+04  0.50400001928E-02 0. -1.
</event>
<event>
 5   0  0.1067434E-05  0.2788405E+04  0.7818609E-02  0.8306877E-01
       -1   -1    0    0    0  501  0.00000000000E+00  0.00000000000E+00  0.12646096734E+04  0.12646096734E+04  0.50400001928E-02 0.  1.
        1   -1    0    0  501    0  0.00000000000E+00  0.00000000000E+00 -0.15370753044E+04  0.15370753044E+04  0.50400001928E-02 0. -1.
    10030    2    1    2    0    0  0.00000000000E+00  0.00000000000E+00 -0.27246563096E+03  0.28016849778E+04  0.27884047760E+04 0.  0.
        4    1    3    3  502    0  0.47482530802E+03  0.83238085326E+03  0.88125085220E+03  0.13018915605E+04  0.12699999809E+01 0.  1.
       -4    1    3    3    0  502 -0.47482530802E+03 -0.83238085326E+03 -0.11537164832E+04  0.14997934172E+04  0.12699999809E+01 0. -1.
</event>
<event>
 5   0  0.2697964E-05  0.2741426E+04  0.7818609E-02  0.8321687E-01
       -2   -1    0    0    0  501  0.00000000000E+00  0.00000000000E+00  0.68537272857E+03  0.68537272858E+03  0.25500000920E-02 0. -1.
        2   -1    0    0  501    0  0.00000000000E+00  0.00000000000E+00 -0.27413617382E+04  0.27413617382E+04  0.25500000920E-02 0.  1.
    10030    2    1    2    0    0  0.00000000000E+00  0.00000000000E+00 -0.20559890096E+04  0.34267344668E+04  0.27414263255E+04 0.  0.
        1    1    3    3  502    0  0.11016946739E+04  0.30634576560E+03 -0.83223086351E+02  0.11465186282E+04  0.50400001928E-02 0. -1.
       -1    1    3    3    0  502 -0.11016946739E+04 -0.30634576560E+03 -0.19727659233E+04  0.22802158386E+04  0.50400001928E-02 0.  1.
</event>
<event>
 5   0  0.2697964E-05  0.2772225E+04  0.7818609E-02  0.8311944E-01
        2   -1    0    0  501    0  0.00000000000E+00  0.00000000000E+00  0.24667910674E+04  0.24667910674E+04  0.25500000920E-02 0. -1.
       -2   -1    0    0    0  501  0.00000000000E+00  0.00000000000E+00 -0.77886945133E+03  0.77886945133E+03  0.25500000920E-02 0.  1.
    10030    2    1    2    0    0  0.00000000000E+00  0.00000000000E+00  0.16879216161E+04  0.32456605187E+04  0.27722252471E+04 0.  0.
        1    1    3    3  502    0  0.46800927645E+03 -0.11843624408E+04  0.20316847150E+03  0.12895830729E+04  0.50400001928E-02 0.  1.
       -1    1    3    3    0  502 -0.46800927645E+03  0.11843624408E+04  0.14847531446E+04  0.19560774459E+04  0.50400001928E-02 0. -1.
</event>
<event>
 5   0  0.1067434E-05  0.2676773E+04  0.7818609E-02  0.8342581E-01
       -1   -1    0    0    0  501  0.00000000000E+00  0.00000000000E+00  0.73145012604E+03  0.73145012606E+03  0.50400001928E-02 0.  1.
        1   -1    0    0  501    0  0.00000000000E+00  0.00000000000E+00 -0.24489406190E+04  0.24489406190E+04  0.50400001928E-02 0. -1.
    10030    2    1    2    0    0  0.00000000000E+00  0.00000000000E+00 -0.17174904930E+04  0.31803907451E+04  0.26767726272E+04 0.  0.
        4    1    3    3  502    0 -0.60616496939E+03  0.13940346609E+03  0.54929637777E+03  0.82981770287E+03  0.12699999809E+01 0.  1.
       -4    1    3    3    0  502  0.60616496939E+03 -0.13940346609E+03 -0.22667868707E+04  0.23505730422E+04  0.12699999809E+01 0. -1.
</event>
<event>
 5   0  0.1105862E-05  0.2795113E+04  0.7818609E-02  0.8304787E-01
       -1   -1    0    0    0  501  0.00000000000E+00  0.00000000000E+00  0.13750295140E+04  0.13750295141E+04  0.50400001928E-02 0. -1.
        1   -1    0    0  501    0  0.00000000000E+00  0.00000000000E+00 -0.14204529346E+04  0.14204529346E+04  0.50400001928E-02 0.  1.
    10030    2    1    2    0    0  0.00000000000E+00  0.00000000000E+00 -0.45423420584E+02  0.27954824487E+04  0.27951133848E+04 0.  0.
        3    1    3    3  502    0 -0.11171274537E+04 -0.88875216593E+02 -0.85786217456E+03  0.14113114726E+04  0.10100000352E+00 0.  1.
       -3    1    3    3    0  502  0.11171274537E+04  0.88875216593E+02  0.81243875398E+03  0.13841709761E+04  0.10100000352E+00 0. -1.
</event>
<event>
 5   0  0.2624815E-05  0.1596080E+04  0.7818609E-02  0.8822960E-01
        2   -1    0    0  501    0  0.00000000000E+00  0.00000000000E+00  0.12058068907E+04  0.12058068907E+04  0.25500000920E-02 0.  1.
       -2   -1    0    0    0  501  0.00000000000E+00  0.00000000000E+00 -0.52816766623E+03  0.52816766623E+03  0.25500000920E-02 0. -1.
    10030    2    1    2    0    0  0.00000000000E+00  0.00000000000E+00  0.67763922448E+03  0.17339745570E+04  0.15960804634E+04 0.  0.
        4    1    3    3  502    0  0.50007744521E+03  0.19258151080E+03  0.98126570497E+03  0.11180559405E+04  0.12699999809E+01 0.  1.
       -4    1    3    3    0  502 -0.50007744521E+03 -0.19258151080E+03 -0.30362648048E+03  0.61591861642E+03  0.12699999809E+01 0. -1.
</event>
<event>
 5   0  0.1067434E-05  0.2697487E+04  0.7818609E-02  0.8335821E-01
        1   -1    0    0  501    0  0.00000000000E+00  0.00000000000E+00  0.11059322511E+04  0.11059322512E+04  0.50400001928E-02 0.  1.
       -1   -1    0    0    0  501  0.00000000000E+00  0.00000000000E+00 -0.16448646264E+04  0.16448646264E+04  0.50400001928E-02 0. -1.
    10030    2    1    2    0    0  0.00000000000E+00  0.00000000000E+00 -0.53893237526E+03  0.27507968776E+04  0.26974868594E+04 0.  0.
        4    1    3    3  502    0 -0.10603507996E+03  0.33537551571E+03 -0.15972690971E+04  0.16355397752E+04  0.12699999809E+01 0. -1.
       -4    1    3    3    0  502  0.10603507996E+03 -0.33537551571E+03  0.10583367219E+04  0.11152571024E+04  0.12699999809E+01 0.  1.
</event>
<event>
 5   0  0.1078103E-05  0.2809598E+04  0.7818609E-02  0.8300295E-01
        1   -1    0    0  501    0  0.00000000000E+00  0.00000000000E+00  0.11727234238E+04  0.11727234238E+04  0.50400001928E-02 0. -1.
       -1   -1    0    0    0  501  0.00000000000E+00  0.00000000000E+00 -0.16828012326E+04  0.16828012326E+04  0.50400001928E-02 0.  1.
    10030    2    1    2    0    0  0.00000000000E+00  0.00000000000E+00 -0.51007780873E+03  0.28555246564E+04  0.28095981372E+04 0.  0.
        1    1    3    3  502    0 -0.10666626632E+04  0.90113105076E+03 -0.98726247179E+02  0.13998404479E+04  0.50400001928E-02 0. -1.
       -1    1    3    3    0  502  0.10666626632E+04 -0.90113105076E+03 -0.41135156155E+03  0.14556842085E+04  0.50400001928E-02 0.  1.
</event>
<event>
 5   0  0.1017456E-05  0.2223201E+04  0.7818609E-02  0.8508833E-01
       -1   -1    0    0    0  501  0.00000000000E+00  0.00000000000E+00  0.22482208492E+04  0.22482208492E+04  0.50400001928E-02 0. -1.
        1   -1    0    0  501    0  0.00000000000E+00  0.00000000000E+00 -0.54961468267E+03  0.54961468269E+03  0.50400001928E-02 0.  1.
    10030    2    1    2    0    0  0.00000000000E+00  0.00000000000E+00  0.16986061666E+04  0.27978355319E+04  0.22232005655E+04 0.  0.
        5    1    3    3  502    0  0.10444871892E+04 -0.32511206767E+03  0.10977732342E+04  0.15497675660E+04  0.46999998093E+01 0.  1.
       -5    1    3    3    0  502 -0.10444871892E+04  0.32511206767E+03  0.60083293237E+03  0.12480679659E+04  0.46999998093E+01 0. -1.
</event>
<event>
 5   0  0.2624815E-05  0.2586326E+04  0.7818609E-02  0.8372861E-01
       -2   -1    0    0    0  501  0.00000000000E+00  0.00000000000E+00  0.94772976913E+03  0.94772976913E+03  0.25500000920E-02 0.  1.
        2   -1    0    0  501    0  0.00000000000E+00  0.00000000000E+00 -0.17645019152E+04  0.17645019152E+04  0.25500000920E-02 0. -1.
    10030    2    1    2    0    0  0.00000000000E+00  0.00000000000E+00 -0.81677214607E+03  0.27122316843E+04  0.25863263466E+04 0.  0.
        4    1    3    3  502    0 -0.78995357620E+02 -0.11904669079E+04  0.11471312845E+03  0.11985876856E+04  0.12699999809E+01 0.  1.
       -4    1    3    3    0  502  0.78995357620E+02  0.11904669079E+04 -0.93148527452E+03  0.15136439987E+04  0.12699999809E+01 0. -1.
</event>
<event>
 5   0  0.2588048E-05  0.2761885E+04  0.7818609E-02  0.8315200E-01
        2   -1    0    0  501    0  0.00000000000E+00  0.00000000000E+00  0.66627892325E+03  0.66627892325E+03  0.25500000920E-02 0.  1.
       -2   -1    0    0    0  501  0.00000000000E+00  0.00000000000E+00 -0.28621673576E+04  0.28621673577E+04  0.25500000920E-02 0. -1.
    10030    2    1    2    0    0  0.00000000000E+00  0.00000000000E+00 -0.21958884344E+04  0.35284462809E+04  0.27618847081E+04 0.  0.
        2    1    3    3  502    0 -0.12093476969E+04  0.63153567736E+03 -0.13708817456E+04  0.19340827087E+04  0.25500000920E-02 0. -1.
       -2    1    3    3    0  502  0.12093476969E+04 -0.63153567736E+03 -0.82500668875E+03  0.15943635722E+04  0.25500000920E-02 0.  1.
</event>
<event>
 5   0  0.1017456E-05  0.2716343E+04  0.7818609E-02  0.8329722E-01
        1   -1    0    0  501    0  0.00000000000E+00  0.00000000000E+00  0.21992391270E+04  0.21992391270E+04  0.50400001928E-02 0.  1.
       -1   -1    0    0    0  501  0.00000000000E+00  0.00000000000E+00 -0.83875794567E+03  0.83875794568E+03  0.50400001928E-02 0. -1.
    10030    2    1    2    0    0  0.00000000000E+00  0.00000000000E+00  0.13604811814E+04  0.30379970727E+04  0.27163426089E+04 0.  0.
        5    1    3    3  502    0 -0.17441639431E+03 -0.56910615687E+03 -0.68509774081E+03  0.90757032832E+03  0.46999998093E+01 0. -1.
       -5    1    3    3    0  502  0.17441639431E+03  0.56910615687E+03  0.20455789222E+04  0.21304267444E+04  0.46999998093E+01 0.  1.
</event>
<event>
 5   0  0.1078103E-05  0.2715789E+04  0.7818609E-02  0.8329900E-01
        1   -1    0    0  501    0  0.00000000000E+00  0.00000000000E+00  0.17752147421E+04  0.17752147421E+04  0.50400001928E-02 0. -1.
       -1   -1    0    0    0  501  0.00000000000E+00  0.00000000000E+00 -0.10386783911E+04  0.10386783911E+04  0.50400001928E-02 0.  1.
    10030    2    1    2    0    0  0.00000000000E+00  0.00000000000E+00  0.73653635105E+03  0.28138931332E+04  0.27157887931E+04 0.  0.
        1    1    3    3  502    0  0.11433976493E+04  0.11889581156E+03 -0.38060114625E+03  0.12109300686E+04  0.50400001928E-02 0.  1.
       -1    1    3    3    0  502 -0.11433976493E+04 -0.11889581156E+03  0.11171374973E+04  0.16029630646E+04  0.50400001928E-02 0. -1.
</event>
<event>
 5   0  0.2651061E-05  0.2806896E+04  0.7818609E-02  0.8301131E-01
        2   -1    0    0  501    0  0.00000000000E+00  0.00000000000E+00  0.19525399111E+04  0.19525399111E+04  0.25500000920E-02 0. -1.
       -2   -1    0    0    0  501  0.00000000000E+00  0.00000000000E+00 -0.10087710737E+04  0.10087710737E+04  0.25500000920E-02 0.  1.
    10030    2    1    2    0    0  0.00000000000E+00  0.00000000000E+00  0.94376883738E+03  0.29613109848E+04  0.28068956394E+04 0.  0.
        3    1    3    3  502    0 -0.76808729777E+03  0.76161058872E+03 -0.47154544574E+03  0.11799847048E+04  0.10100000352E+00 0.  1.
       -3    1    3    3    0  502  0.76808729777E+03 -0.76161058872E+03  0.14153142831E+04  0.17813262801E+04  0.10100000352E+00 0. -1.
</event>
<event>
 5   0  0.2624815E-05  0.2765698E+04  0.7818609E-02  0.8313998E-01
       -2   -1    0    0    0  501  0.00000000000E+00  0.00000000000E+00  0.14756560432E+04  0.14756560432E+04  0.25500000920E-02 0. -1.
        2   -1    0    0  501    0  0.00000000000E+00  0.00000000000E+00 -0.12958788558E+04  0.12958788558E+04  0.25500000920E-02 0.  1.
    10030    2    1    2    0    0  0.00000000000E+00  0.00000000000E+00  0.17977718736E+03  0.27715348990E+04  0.27656980781E+04 0.  0.
        4    1    3    3  502    0 -0.41191040812E+02 -0.48859407994E+03 -0.12058401867E+04  0.13017192653E+04  0.12699999809E+01 0.  1.
       -4    1    3    3    0  502  0.41191040812E+02  0.48859407994E+03  0.13856173741E+04  0.14698156337E+04  0.12699999809E+01 0. -1.
</event>
<event>
 5   0  0.2624815E-05  0.2838959E+04  0.7818609E-02  0.8291274E-01
        2   -1    0    0  501    0  0.00000000000E+00  0.00000000000E+00  0.13054824206E+04  0.13054824206E+04  0.25500000920E-02 0.  1.
       -2   -1    0    0    0  501  0.00000000000E+00  0.00000000000E+00 -0.15434315163E+04  0.15434315163E+04  0.25500000920E-02 0. -1.
    10030    2    1    2    0    0  0.00000000000E+00  0.00000000000E+00 -0.23794909577E+03  0.28489139369E+04  0.28389594656E+04 0.  0.
        4    1    3    3  502    0 -0.72801390910E+03 -0.43881399660E+03  0.10218313153E+04  0.13291737378E+04  0.12699999809E+01 0.  1.
       -4    1    3    3    0  502  0.72801390910E+03  0.43881399660E+03 -0.12597804111E+04  0.15197401990E+04  0.12699999809E+01 0. -1.
</event>
<event>
 5   0  0.1105862E-05  0.2113752E+04  0.7818609E-02  0.8555209E-01
       -1   -1    0    0    0  501  0.00000000000E+00  0.00000000000E+00  0.84935907202E+03  0.84935907204E+03  0.50400001928E-02 0. -1.
        1   -1    0    0  501    0  0.00000000000E+00  0.00000000000E+00 -0.13150943649E+04  0.13150943649E+04  0.50400001928E-02 0.  1.
    10030    2    1    2    0    0  0.00000000000E+00  0.00000000000E+00 -0.46573529284E+03  0.21644534369E+04  0.21137524258E+04 0.  0.
        3    1    3    3  502    0 -0.38174144122E+03  0.44588218895E+03 -0.11328402294E+04  0.12758779134E+04  0.10100000352E+00 0.  1.
       -3    1    3    3    0  502  0.38174144122E+03 -0.44588218895E+03  0.66710493657E+03  0.88857552350E+03  0.10100000352E+00 0. -1.
</event>
<event>
 5   0  0.1105862E-05  0.2440927E+04  0.7818609E-02  0.8424338E-01
       -1   -1    0    0    0  501  0.00000000000E+00  0.00000000000E+00  0.25257278605E+04  0.25257278606E+04  0.50400001928E-02 0.  1.
        1   -1    0    0  501    0  0.00000000000E+00  0.00000000000E+00 -0.58974324239E+03  0.58974324241E+03  0.50400001928E-02 0. -1.
    10030    2    1    2    0    0  0.00000000000E+00  0.00000000000E+00  0.19359846182E+04  0.31154711030E+04  0.24409268223E+04 0.  0.
        3    1    3    3  502    0  0.61968058281E+03 -0.98968640998E+03  0.14211365373E+04  0.18393238656E+04  0.10100000352E+00 0.  1.
       -3    1    3    3    0  502 -0.61968058281E+03  0.98968640998E+03  0.51484808088E+03  0.12761472374E+04  0.10100000352E+00 0. -1.
</event>
<event>
 5   0  0.1078103E-05  0.1498550E+04  0.7818609E-02  0.8885417E-01
       -1   -1    0    0    0  501  0.00000000000E+00  0.00000000000E+00  0.70117568603E+03  0.70117568605E+03  0.50400001928E-02 0.  1.
        1   -1    0    0  501    0  0.00000000000E+00  0.00000000000E+00 -0.80067436697E+03  0.80067436698E+03  0.50400001928E-02 0. -1.
    10030    2    1    2    0    0  0.00000000000E+00  0.00000000000E+00 -0.99498680936E+02  0.15018500530E+04  0.14985504977E+04 0.  0.
        1    1    3    3  502    0 -0.59385920702E+03  0.34021439551E+03  0.25587917928E+03  0.73067691019E+03  0.50400001928E-02 0.  1.
       -1    1    3    3    0  502  0.59385920702E+03 -0.34021439551E+03 -0.35537786022E+03  0.77117314284E+03  0.50400001928E-02 0. -1.
</event>
<event>
 5   0  0.1075146E-05  0.2663798E+04  0.7818609E-02  0.8346848E-01
        1   -1    0    0  501    0  0.00000000000E+00  0.00000000000E+00  0.19181665183E+04  0.19181665183E+04  0.50400001928E-02 0.  1.
       -1   -1    0    0    0  501  0.00000000000E+00  0.00000000000E+00 -0.92481810345E+03  0.92481810346E+03  0.50400001928E-02 0. -1.
    10030    2    1    2    0    0  0.00000000000E+00  0.00000000000E+00  0.99334841486E+03  0.28429846218E+04  0.26637981317E+04 0.  0.
        2    1    3    3  502    0 -0.39067454913E+03  0.11773365947E+04  0.10142791064E+04  0.16023452082E+04  0.25500000920E-02 0.  1.
       -2    1    3    3    0  502  0.39067454913E+03 -0.11773365947E+04 -0.20930691492E+02  0.12406394136E+04  0.25500000920E-02 0. -1.
</event>
<event>
 5   0  0.2651061E-05  0.2615929E+04  0.7818609E-02  0.8362810E-01
       -2   -1    0    0    0  501  0.00000000000E+00  0.00000000000E+00  0.10984707071E+04  0.10984707071E+04  0.25500000920E-02 0. -1.
        2   -1    0    0  501    0  0.00000000000E+00  0.00000000000E+00 -0.15574118897E+04  0.15574118897E+04  0.25500000920E-02 0.  1.
    10030    2    1    2    0    0  0.00000000000E+00  0.00000000000E+00 -0.45894118260E+03  0.26558825967E+04  0.26159291578E+04 0.  0.
        3    1    3    3  502    0 -0.10944803035E+04  0.63928454280E+02  0.49472406145E+03  0.12027991890E+04  0.10100000352E+00 0. -1.
       -3    1    3    3    0  502  0.10944803035E+04 -0.63928454280E+02 -0.95366524405E+03  0.14530834077E+04  0.10100000352E+00 0.  1.
</event>
<event>
 5   0  0.2651061E-05  0.2779856E+04  0.7818609E-02  0.8309550E-01
       -2   -1    0    0    0  501  0.00000000000E+00  0.00000000000E+00  0.10506492090E+04  0.10506492090E+04  0.25500000920E-02 0. -1.
        2   -1    0    0  501    0  0.00000000000E+00  0.00000000000E+00 -0.18387682183E+04  0.18387682183E+04  0.25500000920E-02 0.  1.
    10030    2    1    2    0    0  0.00000000000E+00  0.00000000000E+00 -0.78811900932E+03  0.28894174273E+04  0.27798563806E+04 0.  0.
        3    1    3    3  502    0 -0.11390231061E+04 -0.55663410460E+03  0.19820973317E+03  0.12831610465E+04  0.10100000352E+00 0. -1.
       -3    1    3    3    0  502  0.11390231061E+04  0.55663410460E+03 -0.98632874249E+03  0.16062563809E+04  0.10100000352E+00 0.  1.
</event>
<event>
 5   0  0.1105862E-05  0.2301956E+04  0.7818609E-02  0.8477150E-01
        1   -1    0    0  501    0  0.00000000000E+00  0.00000000000E+00  0.19267847696E+04  0.19267847696E+04  0.50400001928E-02 0.  1.
       -1   -1    0    0    0  501  0.00000000000E+00  0.00000000000E+00 -0.68754468708E+03  0.68754468709E+03  0.50400001928E-02 0. -1.
    10030    2    1    2    0    0  0.00000000000E+00  0.00000000000E+00  0.12392400825E+04  0.26143294567E+04  0.23019562390E+04 0.  0.
        3    1    3    3  502    0  0.79672701924E+03 -0.33642371509E+03  0.14821501883E+04  0.17160198280E+04  0.10100000352E+00 0.  1.
       -3    1    3    3    0  502 -0.79672701924E+03  0.33642371509E+03 -0.24291010579E+03  0.89830962867E+03  0.10100000352E+00 0. -1.
</event>
<event>
 5   0  0.2588048E-05  0.2805950E+04  0.7818609E-02  0.8301424E-01
        2   -1    0    0  501    0  0.00000000000E+00  0.00000000000E+00  0.19010173475E+04  0.19010173475E+04  0.25500000920E-02 0. -1.
       -2   -1    0    0    0  501  0.00000000000E+00  0.00000000000E+00 -0.10354134123E+04  0.10354134123E+04  0.25500000920E-02 0.  1.
    10030    2    1    2    0    0  0.00000000000E+00  0.00000000000E+00  0.86560393516E+03  0.29364307598E+04  0.28059500057E+04 0.  0.
        2    1    3    3  502    0 -0.46267116327E+03  0.13100984916E+03  0.18120855925E+04  0.18748019576E+04  0.25500000920E-02 0. -1.
       -2    1    3    3    0  502  0.46267116327E+03 -0.13100984916E+03 -0.94648165733E+03  0.10616288022E+04  0.25500000920E-02 0.  1.
</event>
<event>
 5   0  0.2697964E-05  0.2807315E+04  0.7818609E-02  0.8301001E-01
       -2   -1    0    0    0  501  0.00000000000E+00  0.00000000000E+00  0.11244676118E+04  0.11244676118E+04  0.25500000920E-02 0.  1.
        2   -1    0    0  501    0  0.00000000000E+00  0.00000000000E+00 -0.17521669156E+04  0.17521669156E+04  0.25500000920E-02 0. -1.
    10030    2    1    2    0    0  0.00000000000E+00  0.00000000000E+00 -0.62769930385E+03  0.28766345274E+04  0.28073154059E+04 0.  0.
        1    1    3    3  502    0 -0.74150858525E+03  0.71977259416E+03  0.65952573463E+03  0.12259207821E+04  0.50400001928E-02 0.  1.
       -1    1    3    3    0  502  0.74150858525E+03 -0.71977259416E+03 -0.12872250385E+04  0.16507137453E+04  0.50400001928E-02 0. -1.
</event>
<event>
 5   0  0.2624815E-05  0.2579227E+04  0.7818609E-02  0.8375292E-01
       -2   -1    0    0    0  501  0.00000000000E+00  0.00000000000E+00  0.92029051669E+03  0.92029051669E+03  0.25500000920E-02 0. -1.
        2   -1    0    0  501    0  0.00000000000E+00  0.00000000000E+00 -0.18071495260E+04  0.18071495260E+04  0.25500000920E-02 0.  1.
    10030    2    1    2    0    0  0.00000000000E+00  0.00000000000E+00 -0.88685900929E+03  0.27274400427E+04  0.25792266833E+04 0.  0.
        4    1    3    3  502    0  0.15222159214E+03 -0.69429061567E+03  0.69445810083E+03  0.99372256633E+03  0.12699999809E+01 0.  1.
       -4    1    3    3    0  502 -0.15222159214E+03  0.69429061567E+03 -0.15813171101E+04  0.17337174763E+04  0.12699999809E+01 0. -1.
</event>
<event>
 5   0  0.1017456E-05  0.1720769E+04  0.7818609E-02  0.8749607E-01
        1   -1    0    0  501    0  0.00000000000E+00  0.00000000000E+00  0.80119318670E+03  0.80119318671E+03  0.50400001928E-02 0. -1.
       -1   -1    0    0    0  501  0.00000000000E+00  0.00000000000E+00 -0.92394901758E+03  0.92394901760E+03  0.50400001928E-02 0.  1.
    10030    2    1    2    0    0  0.00000000000E+00  0.00000000000E+00 -0.12275583088E+03  0.17251422043E+04  0.17207691975E+04 0.  0.
        5    1    3    3  502    0  0.50931112893E+03 -0.44843617889E+03 -0.59163293695E+03  0.90030242400E+03  0.46999998093E+01 0.  1.
       -5    1    3    3    0  502 -0.50931112893E+03  0.44843617889E+03  0.46887710606E+03  0.82483978031E+03  0.46999998093E+01 0. -1.
</event>
<event>
 5   0  0.2697964E-05  0.2537635E+04  0.7818609E-02  0.8389699E-01
       -2   -1    0    0    0  501  0.00000000000E+00  0.00000000000E+00  0.99936711662E+03  0.99936711662E+03  0.25500000920E-02 0.  1.
        2   -1    0    0  501    0  0.00000000000E+00  0.00000000000E+00 -0.16109174830E+04  0.16109174830E+04  0.25500000920E-02 0. -1.
    10030    2    1    2    0    0  0.00000000000E+00  0.00000000000E+00 -0.61155036640E+03  0.26102845996E+04  0.25376350881E+04 0.  0.
        1    1    3    3  502    0  0.42549645874E+03  0.10665382350E+04  0.24944328531E+03  0.11750629752E+04  0.50400001928E-02 0. -1.
       -1    1    3    3    0  502 -0.42549645874E+03 -0.10665382350E+04 -0.86099365171E+03  0.14352216245E+04  0.50400001928E-02 0.  1.
</event>
<event>
 5   0  0.2651061E-05  0.1448899E+04  0.7818609E-02  0.8919164E-01
       -2   -1    0    0    0  501  0.00000000000E+00  0.00000000000E+00  0.31757378738E+03  0.31757378739E+03  0.25500000920E-02 0. -1.
        2   -1    0    0  501    0  0.00000000000E+00  0.00000000000E+00 -0.16526137496E+04  0.16526137496E+04  0.25500000920E-02 0.  1.
    10030    2    1    2    0    0  0.00000000000E+00  0.00000000000E+00 -0.13350399623E+04  0.19701875370E+04  0.14488986266E+04 0.  0.
        3    1    3    3  502    0 -0.67704629079E+03  0.22825819008E+03 -0.50472428970E+03  0.87478002951E+03  0.10100000352E+00 0. -1.
       -3    1    3    3    0  502  0.67704629079E+03 -0.22825819008E+03 -0.83031567255E+03  0.10954075075E+04  0.10100000352E+00 0.  1.
</event>
<event>
 5   0  0.1067434E-05  0.2822544E+04  0.7818609E-02  0.8296303E-01
       -1   -1    0    0    0  501  0.00000000000E+00  0.00000000000E+00  0.24414078264E+04  0.24414078264E+04  0.50400001928E-02 0. -1.
        1   -1    0    0  501    0  0.00000000000E+00  0.00000000000E+00 -0.81579502348E+03  0.81579502349E+03  0.50400001928E-02 0.  1.
    10030    2    1    2    0    0  0.00000000000E+00  0.00000000000E+00  0.16256128029E+04  0.32572028498E+04  0.28225437853E+04 0.  0.
        4    1    3    3  502    0 -0.66789410519E+03 -0.63989410566E+01  0.22474615165E+04  0.23446126254E+04  0.12699999809E+01 0. -1.
       -4    1    3    3    0  502  0.66789410519E+03  0.63989410566E+01 -0.62184871363E+03  0.91259022443E+03  0.12699999809E+01 0.  1.
</event>
<event>
 5   0  0.2518686E-05  0.2783089E+04  0.7818609E-02  0.8308538E-01
        2   -1    0    0  501    0  0.00000000000E+00  0.00000000000E+00  0.22516636065E+04  0.22516636065E+04  0.25500000920E-02 0.  1.
       -2   -1    0    0    0  501  0.00000000000E+00  0.00000000000E+00 -0.85998467724E+03  0.85998467724E+03  0.25500000920E-02 0. -1.
    10030    2    1    2    0    0  0.00000000000E+00  0.00000000000E+00  0.13916789292E+04  0.31116482837E+04  0.27830890750E+04 0.  0.
        5    1    3    3  502    0  0.79431241176E+03 -0.31680150934E+03  0.19231970234E+04  0.21047575358E+04  0.46999998093E+01 0.  1.
       -5    1    3    3    0  502 -0.79431241176E+03  0.31680150934E+03 -0.53151809415E+03  0.10068907479E+04  0.46999998093E+01 0. -1.
</event>
<event>
 5   0  0.2588048E-05  0.2821485E+04  0.7818609E-02  0.8296629E-01
        2   -1    0    0  501    0  0.00000000000E+00  0.00000000000E+00  0.18106400513E+04  0.18106400513E+04  0.25500000920E-02 0.  1.
       -2   -1    0    0    0  501  0.00000000000E+00  0.00000000000E+00 -0.10991659281E+04  0.10991659281E+04  0.25500000920E-02 0. -1.
    10030    2    1    2    0    0  0.00000000000E+00  0.00000000000E+00  0.71147412314E+03  0.29098059794E+04  0.28214846109E+04 0.  0.
        2    1    3    3  502    0 -0.11841821033E+02  0.14084990866E+04  0.43683675660E+03  0.14747326054E+04  0.25500000920E-02 0.  1.
       -2    1    3    3    0  502  0.11841821033E+02 -0.14084990866E+04  0.27463736654E+03  0.14350733740E+04  0.25500000920E-02 0. -1.
</event>
<event>
 5   0  0.2588048E-05  0.2735900E+04  0.7818609E-02  0.8323450E-01
        2   -1    0    0  501    0  0.00000000000E+00  0.00000000000E+00  0.13747121006E+04  0.13747121006E+04  0.25500000920E-02 0.  1.
       -2   -1    0    0    0  501  0.00000000000E+00  0.00000000000E+00 -0.13612206800E+04  0.13612206800E+04  0.25500000920E-02 0. -1.
    10030    2    1    2    0    0  0.00000000000E+00  0.00000000000E+00  0.13491420600E+02  0.27359327806E+04  0.27358995159E+04 0.  0.
        2    1    3    3  502    0 -0.36423944935E+03 -0.93507939484E+02 -0.13085164289E+04  0.13614805750E+04  0.25500000920E-02 0. -1.
       -2    1    3    3    0  502  0.36423944935E+03  0.93507939484E+02  0.13220078495E+04  0.13744522056E+04  0.25500000920E-02 0.  1.
</event>
<event>
 5   0  0.1105862E-05  0.2889546E+04  0.7818609E-02  0.8275995E-01
        1   -1    0    0  501    0  0.00000000000E+00  0.00000000000E+00  0.15778353708E+04  0.15778353708E+04  0.50400001928E-02 0. -1.
       -1   -1    0    0    0  501  0.00000000000E+00  0.00000000000E+00 -0.13229320049E+04  0.13229320049E+04  0.50400001928E-02 0.  1.
    10030    2    1    2    0    0  0.00000000000E+00  0.00000000000E+00  0.25490336596E+03  0.29007673757E+04  0.28895459232E+04 0.  0.
        3    1    3    3  502    0 -0.82551166015E+03 -0.19429440815E+02 -0.10626994358E+04  0.13457998013E+04  0.10100000352E+00 0.  1.
       -3    1    3    3    0  502  0.82551166015E+03  0.19429440815E+02  0.13176028017E+04  0.15549675744E+04  0.10100000352E+00 0. -1.
</event>
<event>
 5   0  0.1075146E-05  0.2823549E+04  0.7818609E-02  0.8295994E-01
        1   -1    0    0  501    0  0.00000000000E+00  0.00000000000E+00  0.12165218371E+04  0.12165218371E+04  0.50400001928E-02 0.  1.
       -1   -1    0    0    0  501  0.00000000000E+00  0.00000000000E+00 -0.16383651612E+04  0.16383651612E+04  0.50400001928E-02 0. -1.
    10030    2    1    2    0    0  0.00000000000E+00  0.00000000000E+00 -0.42184332411E+03  0.28548869984E+04  0.28235488279E+04 0.  0.
        2    1    3    3  502    0  0.82906450783E+03  0.74930050616E+03  0.66138643202E+03  0.12985496599E+04  0.25500000920E-02 0.  1.
       -2    1    3    3    0  502 -0.82906450783E+03 -0.74930050616E+03 -0.10832297561E+04  0.15563373385E+04  0.25500000920E-02 0. -1.
</event>
<event>
 5   0  0.2697964E-05  0.2730419E+04  0.7818609E-02  0.8325202E-01
        2   -1    0    0  501    0  0.00000000000E+00  0.00000000000E+00  0.20550992395E+04  0.20550992395E+04  0.25500000920E-02 0.  1.
       -2   -1    0    0    0  501  0.00000000000E+00  0.00000000000E+00 -0.90691338883E+03  0.90691338883E+03  0.25500000920E-02 0. -1.
    10030    2    1    2    0    0  0.00000000000E+00  0.00000000000E+00  0.11481858507E+04  0.29620126283E+04  0.27304190269E+04 0.  0.
        1    1    3    3  502    0  0.60898060073E+03  0.21006985910E+03 -0.73166709180E+03  0.97484534723E+03  0.50400001928E-02 0. -1.
       -1    1    3    3    0  502 -0.60898060073E+03 -0.21006985910E+03  0.18798529425E+04  0.19871672811E+04  0.50400001928E-02 0.  1.
</event>
<event>
 5   0  0.1075146E-05  0.2933349E+04  0.7818609E-02  0.8263024E-01
        1   -1    0    0  501    0  0.00000000000E+00  0.00000000000E+00  0.10142620205E+04  0.10142620205E+04  0.50400001928E-02 0.  1.
       -1   -1    0    0    0  501  0.00000000000E+00  0.00000000000E+00 -0.21208861159E+04  0.21208861159E+04  0.50400001928E-02 0. -1.
    10030    2    1    2    0    0  0.00000000000E+00  0.00000000000E+00 -0.11066240954E+04  0.31351481364E+04  0.29333491011E+04 0.  0.
        2    1    3    3  502    0  0.43599588967E+02  0.10424006839E+03  0.10096033459E+04  0.10159064091E+04  0.25500000920E-02 0.  1.
       -2    1    3    3    0  502 -0.43599588967E+02 -0.10424006839E+03 -0.21162274412E+04  0.21192417274E+04  0.25500000920E-02 0. -1.
</event>
<event>
 5   0  0.1017456E-05  0.2833468E+04  0.7818609E-02  0.8292953E-01
       -1   -1    0    0    0  501  0.00000000000E+00  0.00000000000E+00  0.23382341426E+04  0.23382341426E+04  0.50400001928E-02 0. -1.
        1   -1    0    0  501    0  0.00000000000E+00  0.00000000000E+00 -0.85839784145E+03  0.85839784147E+03  0.50400001928E-02 0.  1.
    10030    2    1    2    0    0  0.00000000000E+00  0.00000000000E+00  0.14798363011E+04  0.31966319841E+04  0.28334679394E+04 0.  0.
        5    1    3    3  502    0 -0.82637713046E+03  0.11025198980E+04  0.36802625957E+03  0.14261538154E+04  0.46999998093E+01 0.  1.
       -5    1    3    3    0  502  0.82637713046E+03 -0.11025198980E+04  0.11118100416E+04  0.17704781687E+04  0.46999998093E+01 0. -1.
</event>
<event>
 5   0  0.2518686E-05  0.2890104E+04  0.7818609E-02  0.8275828E-01
        2   -1    0    0  501    0  0.00000000000E+00  0.00000000000E+00  0.31378720532E+04  0.31378720532E+04  0.25500000920E-02 0.  1.
       -2   -1    0    0    0  501  0.00000000000E+00  0.00000000000E+00 -0.66547477209E+03  0.66547477209E+03  0.25500000920E-02 0. -1.
    10030    2    1    2    0    0  0.00000000000E+00  0.00000000000E+00  0.24723972811E+04  0.38033468253E+04  0.28901035895E+04 0.  0.
        5    1    3    3  502    0 -0.75615263034E+03 -0.12189684886E+04  0.10063647891E+04  0.17522680033E+04  0.46999998093E+01 0. -1.
       -5    1    3    3    0  502  0.75615263034E+03  0.12189684886E+04  0.14660324920E+04  0.20510788220E+04  0.46999998093E+01 0.  1.
</event>
<event>
 5   0  0.1075146E-05  0.2759174E+04  0.7818609E-02  0.8316056E-01
       -1   -1    0    0    0  501  0.00000000000E+00  0.00000000000E+00  0.13773671024E+04  0.13773671025E+04  0.50400001928E-02 0.  1.
        1   -1    0    0  501    0  0.00000000000E+00  0.00000000000E+00 -0.13818109493E+04  0.13818109493E+04  0.50400001928E-02 0. -1.
    10030    2    1    2    0    0  0.00000000000E+00  0.00000000000E+00 -0.44438468795E+01  0.27591780518E+04  0.27591744732E+04 0.  0.
        2    1    3    3  502    0  0.10526460667E+03 -0.13666049996E+04  0.15452993416E+03  0.13793365662E+04  0.25500000920E-02 0. -1.
       -2    1    3    3    0  502 -0.10526460667E+03  0.13666049996E+04 -0.15897378104E+03  0.13798414856E+04  0.25500000920E-02 0.  1.
</event>
<event>
 5   0  0.1105862E-05  0.2955965E+04  0.7818609E-02  0.8256418E-01
       -1   -1    0    0    0  501  0.00000000000E+00  0.00000000000E+00  0.19491242741E+04  0.19491242741E+04  0.50400001928E-02 0. -1.
        1   -1    0    0  501    0  0.00000000000E+00  0.00000000000E+00 -0.11207253097E+04  0.11207253097E+04  0.50400001928E-02 0.  1.
    10030    2    1    2    0    0  0.00000000000E+00  0.00000000000E+00  0.82839896441E+03  0.30698495838E+04  0.29559654300E+04 0.  0.
        3    1    3    3  502    0 -0.94099389591E+03 -0.71001313229E+03 -0.51168945884E+03  0.12850736448E+04  0.10100000352E+00 0.  1.
       -3    1    3    3    0  502  0.94099389591E+03  0.71001313229E+03  0.13400884232E+04  0.17847759390E+04  0.10100000352E+00 0. -1.
</event>
<event>
 5   0  0.1017456E-05  0.2828003E+04  0.7818609E-02  0.8294627E-01
       -1   -1    0    0    0  501  0.00000000000E+00  0.00000000000E+00  0.16304015879E+04  0.16304015879E+04  0.50400001928E-02 0. -1.
        1   -1    0    0  501    0  0.00000000000E+00  0.00000000000E+00 -0.12263238447E+04  0.12263238447E+04  0.50400001928E-02 0.  1.
    10030    2    1    2    0    0  0.00000000000E+00  0.00000000000E+00  0.40407774318E+03  0.28567254326E+04  0.28280030719E+04 0.  0.
        5    1    3    3  502    0  0.91490251298E+03 -0.47012628959E+03  0.11821055721E+04  0.15669910689E+04  0.46999998093E+01 0. -1.
       -5    1    3    3    0  502 -0.91490251298E+03  0.47012628959E+03 -0.77802782892E+03  0.12897343637E+04  0.46999998093E+01 0.  1.
</event>
<event>
 5   0  0.2588048E-05  0.2696898E+04  0.7818609E-02  0.8336012E-01
        2   -1    0    0  501    0  0.00000000000E+00  0.00000000000E+00  0.25921837256E+04  0.25921837256E+04  0.25500000920E-02 0.  1.
       -2   -1    0    0    0  501  0.00000000000E+00  0.00000000000E+00 -0.70146068725E+03  0.70146068725E+03  0.25500000920E-02 0. -1.
    10030    2    1    2    0    0  0.00000000000E+00  0.00000000000E+00  0.18907230383E+04  0.32936444128E+04  0.26968982017E+04 0.  0.
        2    1    3    3  502    0  0.96083099671E+03  0.94431668719E+03  0.87430947314E+03  0.16060346400E+04  0.25500000920E-02 0.  1.
       -2    1    3    3    0  502 -0.96083099671E+03 -0.94431668719E+03  0.10164135652E+04  0.16876097729E+04  0.25500000920E-02 0. -1.
</event>
<event>
 5   0  0.2697964E-05  0.2779943E+04  0.7818609E-02  0.8309522E-01
       -2   -1    0    0    0  501  0.00000000000E+00  0.00000000000E+00  0.83131674205E+03  0.83131674206E+03  0.25500000920E-02 0.  1.
        2   -1    0    0  501    0  0.00000000000E+00  0.00000000000E+00 -0.23240490846E+04  0.23240490846E+04  0.25500000920E-02 0. -1.
    10030    2    1    2    0    0  0.00000000000E+00  0.00000000000E+00 -0.14927323425E+04  0.31553658266E+04  0.27799431026E+04 0.  0.
        1    1    3    3  502    0 -0.10142294102E+04 -0.91081066689E+03 -0.43805193985E+03  0.14318264104E+04  0.50400001928E-02 0. -1.
       -1    1    3    3    0  502  0.10142294102E+04  0.91081066689E+03 -0.10546804027E+04  0.17235394162E+04  0.50400001928E-02 0.  1.
</event>
<event>
 5   0  0.1105862E-05  0.2824984E+04  0.7818609E-02  0.8295553E-01
        1   -1    0    0  501    0  0.00000000000E+00  0.00000000000E+00  0.20573396117E+04  0.20573396117E+04  0.50400001928E-02 0. -1.
       -1   -1    0    0    0  501  0.00000000000E+00  0.00000000000E+00 -0.96976400073E+03  0.96976400074E+03  0.50400001928E-02 0.  1.
    10030    2    1    2    0    0  0.00000000000E+00  0.00000000000E+00  0.10875756109E+04  0.30271036124E+04  0.28249841718E+04 0.  0.
        3    1    3    3  502    0 -0.12693321722E+04 -0.18631992872E+02  0.12074402504E+04  0.17519883798E+04  0.10100000352E+00 0. -1.
       -3    1    3    3    0  502  0.12693321722E+04  0.18631992872E+02 -0.11986463941E+03  0.12751152326E+04  0.10100000352E+00 0.  1.
</event>
<event>
 5   0  0.2697964E-05  0.2866485E+04  0.7818609E-02  0.8282919E-01
       -2   -1    0    0    0  501  0.00000000000E+00  0.00000000000E+00  0.92089569121E+03  0.92089569121E+03  0.25500000920E-02 0.  1.
        2   -1    0    0  501    0  0.00000000000E+00  0.00000000000E+00 -0.22306374388E+04  0.22306374388E+04  0.25500000920E-02 0. -1.
    10030    2    1    2    0    0  0.00000000000E+00  0.00000000000E+00 -0.13097417476E+04  0.31515331300E+04  0.28664852388E+04 0.  0.
        1    1    3    3  502    0 -0.94465424238E+03 -0.50590661441E+03 -0.17012893743E+04  0.20106463328E+04  0.50400001928E-02 0. -1.
       -1    1    3    3    0  502  0.94465424238E+03  0.50590661441E+03  0.39154762674E+03  0.11408867973E+04  0.50400001928E-02 0.  1.
</event>
<event>
 5   0  0.2697964E-05  0.2441886E+04  0.7818609E-02  0.8423987E-01
        2   -1    0    0  501    0  0.00000000000E+00  0.00000000000E+00  0.17905472233E+04  0.17905472233E+04  0.25500000920E-02 0.  1.
       -2   -1    0    0    0  501  0.00000000000E+00  0.00000000000E+00 -0.83253945277E+03  0.83253945277E+03  0.25500000920E-02 0. -1.
    10030    2    1    2    0    0  0.00000000000E+00  0.00000000000E+00  0.95800777054E+03  0.26230866761E+04  0.24418855055E+04 0.  0.
        1    1    3    3  502    0 -0.70660856422E+03  0.93651775392E+02  0.15438416230E+04  0.17004450226E+04  0.50400001928E-02 0.  1.
       -1    1    3    3    0  502  0.70660856422E+03 -0.93651775392E+02 -0.58583385243E+03  0.92264165348E+03  0.50400001928E-02 0. -1.
</event>
<event>
 5   0  0.2518686E-05  0.2725717E+04  0.7818609E-02  0.8326709E-01
        2   -1    0    0  501    0  0.00000000000E+00  0.00000000000E+00  0.17528915748E+04  0.17528915748E+04  0.25500000920E-02 0.  1.
       -2   -1    0    0    0  501  0.00000000000E+00  0.00000000000E+00 -0.10596109642E+04  0.10596109642E+04  0.25500000920E-02 0. -1.
    10030    2    1    2    0    0  0.00000000000E+00  0.00000000000E+00  0.69328061065E+03  0.28125025390E+04  0.27257168831E+04 0.  0.
        5    1    3    3  502    0  0.37895750957E+03  0.47538558888E+03 -0.91193362955E+03  0.10960133607E+04  0.46999998093E+01 0. -1.
       -5    1    3    3    0  502 -0.37895750957E+03 -0.47538558888E+03  0.16052142402E+04  0.17164891783E+04  0.46999998093E+01 0.  1.
</event>
<event>
 5   0  0.2651061E-05  0.2813885E+04  0.7818609E-02  0.8298970E-01
       -2   -1    0    0    0  501  0.00000000000E+00  0.00000000000E+00  0.11582682326E+04  0.11582682326E+04  0.25500000920E-02 0. -1.
        2   -1    0    0  501    0  0.00000000000E+00  0.00000000000E+00 -0.17090064398E+04  0.17090064398E+04  0.25500000920E-02 0.  1.
    10030    2    1    2    0    0  0.00000000000E+00  0.00000000000E+00 -0.55073820725E+03  0.28672746724E+04  0.28138854764E+04 0.  0.
        3    1    3    3  502    0 -0.32756039680E+03 -0.59735095853E+03  0.97898843938E+03  0.11927038006E+04  0.10100000352E+00 0. -1.
       -3    1    3    3    0  502  0.32756039680E+03  0.59735095853E+03 -0.15297266466E+04  0.16745708718E+04  0.10100000352E+00 0.  1.
</event>
<event>
 5   0  0.1078103E-05  0.2825676E+04  0.7818609E-02  0.8295341E-01
        1   -1    0    0  501    0  0.00000000000E+00  0.00000000000E+00  0.27870812165E+04  0.27870812165E+04  0.50400001928E-02 0. -1.
       -1   -1    0    0    0  501  0.00000000000E+00  0.00000000000E+00 -0.71620112335E+03  0.71620112337E+03  0.50400001928E-02 0.  1.
    10030    2    1    2    0    0  0.00000000000E+00  0.00000000000E+00  0.20708800932E+04  0.35032823399E+04  0.28256756347E+04 0.  0.
        1    1    3    3  502    0 -0.37236608792E+02  0.13453844155E+04  0.15682164963E+04  0.20665790016E+04  0.50400001928E-02 0. -1.
       -1    1    3    3    0  502  0.37236608792E+02 -0.13453844155E+04  0.50266359691E+03  0.14367033383E+04  0.50400001928E-02 0.  1.
</event>
<event>
 5   0  0.1078103E-05  0.2831542E+04  0.7818609E-02  0.8293542E-01
        1   -1    0    0  501    0  0.00000000000E+00  0.00000000000E+00  0.20839380497E+04  0.20839380497E+04  0.50400001928E-02 0.  1.
       -1   -1    0    0    0  501  0.00000000000E+00  0.00000000000E+00 -0.96183652483E+03  0.96183652484E+03  0.50400001928E-02 0. -1.
    10030    2    1    2    0    0  0.00000000000E+00  0.00000000000E+00  0.11221015249E+04  0.30457745745E+04  0.28315421464E+04 0.  0.
        1    1    3    3  502    0 -0.61518296450E+02 -0.62368070673E+03  0.19266067191E+04  0.20259752157E+04  0.50400001928E-02 0.  1.
       -1    1    3    3    0  502  0.61518296450E+02  0.62368070673E+03 -0.80450519419E+03  0.10197993588E+04  0.50400001928E-02 0. -1.
</event>
<event>
 5   0  0.1078103E-05  0.2900024E+04  0.7818609E-02  0.8272870E-01
       -1   -1    0    0    0  501  0.00000000000E+00  0.00000000000E+00  0.20275591551E+04  0.20275591551E+04  0.50400001928E-02 0. -1.
        1   -1    0    0  501    0  0.00000000000E+00  0.00000000000E+00 -0.10369779214E+04  0.10369779214E+04  0.50400001928E-02 0.  1.
    10030    2    1    2    0    0  0.00000000000E+00  0.00000000000E+00  0.99058123372E+03  0.30645370765E+04  0.29000235020E+04 0.  0.
        1    1    3    3  502    0 -0.56545371866E+03 -0.12857097926E+04  0.87592777920E+03  0.16553057280E+04  0.50400001928E-02 0.  1.
       -1    1    3    3    0  502  0.56545371866E+03  0.12857097926E+04  0.11465345452E+03  0.14092313484E+04  0.50400001928E-02 0. -1.
</event>
<event>
 5   0  0.2518686E-05  0.1568150E+04  0.7818609E-02  0.8840357E-01
       -2   -1    0    0    0  501  0.00000000000E+00  0.00000000000E+00  0.73077531357E+03  0.73077531357E+03  0.25500000920E-02 0. -1.
        2   -1    0    0  501    0  0.00000000000E+00  0.00000000000E+00 -0.84126238714E+03  0.84126238714E+03  0.25500000920E-02 0.  1.
    10030    2    1    2    0    0  0.00000000000E+00  0.00000000000E+00 -0.11048707358E+03  0.15720377007E+04  0.15681502285E+04 0.  0.
        5    1    3    3  502    0 -0.32756394758E+03 -0.65885857187E+03  0.21627645202E+03  0.76693568908E+03  0.46999998093E+01 0. -1.
       -5    1    3    3    0  502  0.32756394758E+03  0.65885857187E+03 -0.32676352560E+03  0.80510201164E+03  0.46999998093E+01 0.  1.
</event>
<event>
 5   0  0.2697964E-05  0.2776400E+04  0.7818609E-02  0.8310633E-01
       -2   -1    0    0    0  501  0.00000000000E+00  0.00000000000E+00  0.10135476888E+04  0.10135476888E+04  0.25500000920E-02 0.  1.
        2   -1    0    0  501    0  0.00000000000E+00  0.00000000000E+00 -0.19013402899E+04  0.19013402899E+04  0.25500000920E-02 0. -1.
    10030    2    1    2    0    0  0.00000000000E+00  0.00000000000E+00 -0.88779260110E+03  0.29148879786E+04  0.27763998677E+04 0.  0.
        1    1    3    3  502    0  0.12588398982E+04 -0.49699354433E+03 -0.76820331173E+03  0.15562187509E+04  0.50400001928E-02 0. -1.
       -1    1    3    3    0  502 -0.12588398982E+04  0.49699354433E+03 -0.11958928936E+03  0.13586692278E+04  0.50400001928E-02 0.  1.
</event>
<event>
 5   0  0.1017456E-05  0.2798463E+04  0.7818609E-02  0.8303746E-01
        1   -1    0    0  501    0  0.00000000000E+00  0.00000000000E+00  0.11252492972E+04  0.11252492972E+04  0.50400001928E-02 0.  1.
       -1   -1    0    0    0  501  0.00000000000E+00  0.00000000000E+00 -0.17399242541E+04  0.17399242542E+04  0.50400001928E-02 0. -1.
    10030    2    1    2    0    0  0.00000000000E+00  0.00000000000E+00 -0.61467495695E+03  0.28651735514E+04  0.27984628239E+04 0.  0.
        5    1    3    3  502    0  0.13644553441E+04  0.28565170712E+03 -0.43058639829E+03  0.14590277654E+04  0.46999998093E+01 0. -1.
       -5    1    3    3    0  502 -0.13644553441E+04 -0.28565170712E+03 -0.18408855866E+03  0.14061457859E+04  0.46999998093E+01 0.  1.
</event>
<event>
 5   0  0.1017456E-05  0.2566516E+04  0.7818609E-02  0.8379665E-01
       -1   -1    0    0    0  501  0.00000000000E+00  0.00000000000E+00  0.12947592394E+04  0.12947592394E+04  0.50400001928E-02 0.  1.
        1   -1    0    0  501    0  0.00000000000E+00  0.00000000000E+00 -0.12718587403E+04  0.12718587403E+04  0.50400001928E-02 0. -1.
    10030    2    1    2    0    0  0.00000000000E+00  0.00000000000E+00  0.22900499088E+02  0.25666179796E+04  0.25665158134E+04 0.  0.
        5    1    3    3  502    0 -0.12046208630E+04  0.18396167098E+03  0.41367944427E+03  0.12868978563E+04  0.46999998093E+01 0.  1.
       -5    1    3    3    0  502  0.12046208630E+04 -0.18396167098E+03 -0.39077894518E+03  0.12797201233E+04  0.46999998093E+01 0. -1.
</event>
<event>
 5   0  0.2697964E-05  0.2775722E+04  0.7818609E-02  0.8310846E-01
       -2   -1    0    0    0  501  0.00000000000E+00  0.00000000000E+00  0.10940722137E+04  0.10940722137E+04  0.25500000920E-02 0. -1.
        2   -1    0    0  501    0  0.00000000000E+00  0.00000000000E+00 -0.17605396528E+04  0.17605396528E+04  0.25500000920E-02 0.  1.
    10030    2    1    2    0    0  0.00000000000E+00  0.00000000000E+00 -0.66646743908E+03  0.28546118666E+04  0.27757215389E+04 0.  0.
        1    1    3    3  502    0  0.93878501261E+03 -0.49282391106E+03  0.58774337032E+03  0.12122850228E+04  0.50400001928E-02 0. -1.
       -1    1    3    3    0  502 -0.93878501261E+03  0.49282391106E+03 -0.12542108094E+04  0.16423268437E+04  0.50400001928E-02 0.  1.
</event>
<event>
 5   0  0.1078103E-05  0.2959629E+04  0.7818609E-02  0.8255354E-01
        1   -1    0    0  501    0  0.00000000000E+00  0.00000000000E+00  0.13013234952E+04  0.13013234952E+04  0.50400001928E-02 0.  1.
       -1   -1    0    0    0  501  0.00000000000E+00  0.00000000000E+00 -0.16827870312E+04  0.16827870312E+04  0.50400001928E-02 0. -1.
    10030    2    1    2    0    0  0.00000000000E+00  0.00000000000E+00 -0.38146353606E+03  0.29841105264E+04  0.29596285585E+04 0.  0.
        1    1    3    3  502    0 -0.30795219182E+03 -0.39712030426E+03 -0.15941185809E+04  0.16714524039E+04  0.50400001928E-02 0. -1.
       -1    1    3    3    0  502  0.30795219182E+03  0.39712030426E+03  0.12126550449E+04  0.13126581224E+04  0.50400001928E-02 0.  1.
</event>
<event>
 5   0  0.1075146E-05  0.2856331E+04  0.7818609E-02  0.8285990E-01
       -1   -1    0    0    0  501  0.00000000000E+00  0.00000000000E+00  0.11153990866E+04  0.11153990867E+04  0.50400001928E-02 0.  1.
        1   -1    0    0  501    0  0.00000000000E+00  0.00000000000E+00 -0.18286341514E+04  0.18286341514E+04  0.50400001928E-02 0. -1.
    10030    2    1    2    0    0  0.00000000000E+00  0.00000000000E+00 -0.71323506474E+03  0.29440332380E+04  0.28563311169E+04 0.  0.
        2    1    3    3  502    0  0.99054763626E+03  0.91711879947E+03  0.12392221464E+03  0.13555988445E+04  0.25500000920E-02 0.  1.
       -2    1    3    3    0  502 -0.99054763626E+03 -0.91711879947E+03 -0.83715727938E+03  0.15884343935E+04  0.25500000920E-02 0. -1.
</event>
<event>
 5   0  0.1067434E-05  0.2717319E+04  0.7818609E-02  0.8329407E-01
        1   -1    0    0  501    0  0.00000000000E+00  0.00000000000E+00  0.15680533228E+04  0.15680533228E+04  0.50400001928E-02 0. -1.
       -1   -1    0    0    0  501  0.00000000000E+00  0.00000000000E+00 -0.11772279717E+04  0.11772279717E+04  0.50400001928E-02 0.  1.
    10030    2    1    2    0    0  0.00000000000E+00  0.00000000000E+00  0.39082535109E+03  0.27452812945E+04  0.27173194385E+04 0.  0.
        4    1    3    3  502    0  0.17246506462E+03 -0.95477014938E+03  0.11563173369E+04  0.15094375221E+04  0.12699999809E+01 0. -1.
       -4    1    3    3    0  502 -0.17246506462E+03  0.95477014938E+03 -0.76549198576E+03  0.12358437724E+04  0.12699999809E+01 0.  1.
</event>
<event>
 5   0  0.1067434E-05  0.2703005E+04  0.7818609E-02  0.8334031E-01
        1   -1    0    0  501    0  0.00000000000E+00  0.00000000000E+00  0.77736372003E+03  0.77736372004E+03  0.50400001928E-02 0. -1.
       -1   -1    0    0    0  501  0.00000000000E+00  0.00000000000E+00 -0.23496843933E+04  0.23496843934E+04  0.50400001928E-02 0.  1.
    10030    2    1    2    0    0  0.00000000000E+00  0.00000000000E+00 -0.15723206733E+04  0.31270481134E+04  0.27030052911E+04 0.  0.
        4    1    3    3  502    0 -0.13300874888E+04  0.71784642233E+02 -0.52166237407E+03  0.14305310232E+04  0.12699999809E+01 0. -1.
       -4    1    3    3    0  502  0.13300874888E+04 -0.71784642233E+02 -0.10506582993E+04  0.16965170902E+04  0.12699999809E+01 0.  1.
</event>
<event>
 5   0  0.1078103E-05  0.2784526E+04  0.7818609E-02  0.8308088E-01
       -1   -1    0    0    0  501  0.00000000000E+00  0.00000000000E+00  0.10463187803E+04  0.10463187803E+04  0.50400001928E-02 0. -1.
        1   -1    0    0  501    0  0.00000000000E+00  0.00000000000E+00 -0.18525873499E+04  0.18525873499E+04  0.50400001928E-02 0.  1.
    10030    2    1    2    0    0  0.00000000000E+00  0.00000000000E+00 -0.80626856961E+03  0.28989061303E+04  0.27845264850E+04 0.  0.
        1    1    3    3  502    0  0.18079143833E+03 -0.11971662050E+04 -0.11187597071E+04  0.16484889289E+04  0.50400001928E-02 0. -1.
       -1    1    3    3    0  502 -0.18079143833E+03  0.11971662050E+04  0.31249113747E+03  0.12504172014E+04  0.50400001928E-02 0.  1.
</event>
<event>
 5   0  0.1105862E-05  0.2177330E+04  0.7818609E-02  0.8527924E-01
        1   -1    0    0  501    0  0.00000000000E+00  0.00000000000E+00  0.16573667310E+04  0.16573667310E+04  0.50400001928E-02 0. -1.
       -1   -1    0    0    0  501  0.00000000000E+00  0.00000000000E+00 -0.71510493400E+03  0.71510493401E+03  0.50400001928E-02 0.  1.
    10030    2    1    2    0    0  0.00000000000E+00  0.00000000000E+00  0.94226179698E+03  0.23724716650E+04  0.21773296735E+04 0.  0.
        3    1    3    3  502    0 -0.13917102977E+03  0.10117332189E+04  0.60213253535E+02  0.10230338840E+04  0.10100000352E+00 0.  1.
       -3    1    3    3    0  502  0.13917102977E+03 -0.10117332189E+04  0.88204854345E+03  0.13494377810E+04  0.10100000352E+00 0. -1.
</event>
<event>
 5   0  0.1067434E-05  0.2299563E+04  0.7818609E-02  0.8478093E-01
       -1   -1    0    0    0  501  0.00000000000E+00  0.00000000000E+00  0.12454305587E+04  0.12454305587E+04  0.50400001928E-02 0.  1.
        1   -1    0    0  501    0  0.00000000000E+00  0.00000000000E+00 -0.10614784469E+04  0.10614784469E+04  0.50400001928E-02 0. -1.
    10030    2    1    2    0    0  0.00000000000E+00  0.00000000000E+00  0.18395211179E+03  0.23069090055E+04  0.22995631716E+04 0.  0.
        4    1    3    3  502    0  0.74041098234E+02  0.59087662564E+03  0.10786721411E+04  0.12321333012E+04  0.12699999809E+01 0.  1.
       -4    1    3    3    0  502 -0.74041098234E+02 -0.59087662564E+03 -0.89472002931E+03  0.10747757044E+04  0.12699999809E+01 0. -1.
</event>
<event>
 5   0  0.2651061E-05  0.2751654E+04  0.7818609E-02  0.8318437E-01
        2   -1    0    0  501    0  0.00000000000E+00  0.00000000000E+00  0.26375651332E+04  0.26375651332E+04  0.25500000920E-02 0. -1.
       -2   -1    0    0    0  501  0.00000000000E+00  0.00000000000E+00 -0.71766927328E+03  0.71766927329E+03  0.25500000920E-02 0.  1.
    10030    2    1    2    0    0  0.00000000000E+00  0.00000000000E+00  0.19198958599E+04  0.33552344064E+04  0.27516536500E+04 0.  0.
        3    1    3    3  502    0 -0.11204828563E+04  0.74191996104E+03  0.13195480111E+04  0.18833836634E+04  0.10100000352E+00 0.  1.
       -3    1    3    3    0  502  0.11204828563E+04 -0.74191996104E+03  0.60034784878E+03  0.14718507430E+04  0.10100000352E+00 0. -1.
</event>
<event>
 5   0  0.1075146E-05  0.2851033E+04  0.7818609E-02  0.8287597E-01
        1   -1    0    0  501    0  0.00000000000E+00  0.00000000000E+00  0.16499585290E+04  0.16499585290E+04  0.50400001928E-02 0.  1.
       -1   -1    0    0    0  501  0.00000000000E+00  0.00000000000E+00 -0.12316050939E+04  0.12316050939E+04  0.50400001928E-02 0. -1.
    10030    2    1    2    0    0  0.00000000000E+00  0.00000000000E+00  0.41835343510E+03  0.28815636229E+04  0.28510330261E+04 0.  0.
        2    1    3    3  502    0  0.10442047227E+04  0.37774105765E+03  0.11126425336E+04  0.15719494958E+04  0.25500000920E-02 0.  1.
       -2    1    3    3    0  502 -0.10442047227E+04 -0.37774105765E+03 -0.69428909854E+03  0.13096141271E+04  0.25500000920E-02 0. -1.
</event>
<event>
 5   0  0.1105862E-05  0.2816030E+04  0.7818609E-02  0.8298309E-01
       -1   -1    0    0    0  501  0.00000000000E+00  0.00000000000E+00  0.83245531181E+03  0.83245531182E+03  0.50400001928E-02 0.  1.
        1   -1    0    0  501    0  0.00000000000E+00  0.00000000000E+00 -0.23815169292E+04  0.23815169292E+04  0.50400001928E-02 0. -1.
    10030    2    1    2    0    0  0.00000000000E+00  0.00000000000E+00 -0.15490616174E+04  0.32139722410E+04  0.28160301262E+04 0.  0.
        3    1    3    3  502    0 -0.36833945476E+02  0.17528475531E+03  0.81939992159E+03  0.83874771337E+03  0.10100000352E+00 0.  1.
       -3    1    3    3    0  502  0.36833945476E+02 -0.17528475531E+03 -0.23684615390E+04  0.23752245277E+04  0.10100000352E+00 0. -1.
</event>
<event>
 5   0  0.1075146E-05  0.2721023E+04  0.7818609E-02  0.8328216E-01
        1   -1    0    0  501    0  0.00000000000E+00  0.00000000000E+00  0.14369423544E+04  0.14369423544E+04  0.50400001928E-02 0. -1.
       -1   -1    0    0    0  501  0.00000000000E+00  0.00000000000E+00 -0.12881463142E+04  0.12881463142E+04  0.50400001928E-02 0.  1.
    10030    2    1    2    0    0  0.00000000000E+00  0.00000000000E+00  0.14879604021E+03  0.27250886687E+04  0.27210233352E+04 0.  0.
        2    1    3    3  502    0  0.63592848293E+03 -0.97834604071E+01  0.12788965561E+04  0.14283126943E+04  0.25500000920E-02 0. -1.
       -2    1    3    3    0  502 -0.63592848293E+03  0.97834604071E+01 -0.11301005159E+04  0.12967759743E+04  0.25500000920E-02 0.  1.
</event>
<event>
 5   0  0.2697964E-05  0.2796822E+04  0.7818609E-02  0.8304256E-01
        2   -1    0    0  501    0  0.00000000000E+00  0.00000000000E+00  0.17794956088E+04  0.17794956088E+04  0.25500000920E-02 0. -1.
       -2   -1    0    0    0  501  0.00000000000E+00  0.00000000000E+00 -0.10989367406E+04  0.10989367406E+04  0.25500000920E-02 0.  1.
    10030    2    1    2    0    0  0.00000000000E+00  0.00000000000E+00  0.68055886818E+03  0.28784323494E+04  0.27968218422E+04 0.  0.
        1    1    3    3  502    0  0.66178035080E+03  0.29618361390E+03  0.15709456590E+04  0.17301873394E+04  0.50400001928E-02 0. -1.
       -1    1    3    3    0  502 -0.66178035080E+03 -0.29618361390E+03 -0.89038679080E+03  0.11482450101E+04  0.50400001928E-02 0.  1.
</event>
<event>
 5   0  0.1078103E-05  0.2674531E+04  0.7818609E-02  0.8343317E-01
       -1   -1    0    0    0  501  0.00000000000E+00  0.00000000000E+00  0.68318730968E+03  0.68318730969E+03  0.50400001928E-02 0.  1.
        1   -1    0    0  501    0  0.00000000000E+00  0.00000000000E+00 -0.26175520767E+04  0.26175520767E+04  0.50400001928E-02 0. -1.
    10030    2    1    2    0    0  0.00000000000E+00  0.00000000000E+00 -0.19343647670E+04  0.33007393864E+04  0.26745305093E+04 0.  0.
        1    1    3    3  502    0 -0.12602377012E+04 -0.33697523480E+03 -0.13302098409E+04  0.18631182446E+04  0.50400001928E-02 0. -1.
       -1    1    3    3    0  502  0.12602377012E+04  0.33697523480E+03 -0.60415492608E+03  0.14376211418E+04  0.50400001928E-02 0.  1.
</event>
<event>
 5   0  0.2588048E-05  0.2777713E+04  0.7818609E-02  0.8310221E-01
       -2   -1    0    0    0  501  0.00000000000E+00  0.00000000000E+00  0.17757732497E+04  0.17757732497E+04  0.25500000920E-02 0. -1.
        2   -1    0    0  501    0  0.00000000000E+00  0.00000000000E+00 -0.10862437935E+04  0.10862437935E+04  0.25500000920E-02 0.  1.
    10030    2    1    2    0    0  0.00000000000E+00  0.00000000000E+00  0.68952945621E+03  0.28620170432E+04  0.27777132113E+04 0.  0.
        2    1    3    3  502    0 -0.72128484848E+03 -0.12117706930E+03  0.15612704787E+04  0.17240943195E+04  0.25500000920E-02 0. -1.
       -2    1    3    3    0  502  0.72128484848E+03  0.12117706930E+03 -0.87174102251E+03  0.11379227237E+04  0.25500000920E-02 0.  1.
</event>
<event>
 5   0  0.1017456E-05  0.2802495E+04  0.7818609E-02  0.8302494E-01
       -1   -1    0    0    0  501  0.00000000000E+00  0.00000000000E+00  0.15496988437E+04  0.15496988437E+04  0.50400001928E-02 0. -1.
        1   -1    0    0  501    0  0.00000000000E+00  0.00000000000E+00 -0.12670165026E+04  0.12670165026E+04  0.50400001928E-02 0.  1.
    10030    2    1    2    0    0  0.00000000000E+00  0.00000000000E+00  0.28268234109E+03  0.28167153463E+04  0.28024946095E+04 0.  0.
        5    1    3    3  502    0  0.13126489501E+04 -0.38326044458E+03 -0.16604743631E+03  0.13775085030E+04  0.46999998093E+01 0.  1.
       -5    1    3    3    0  502 -0.13126489501E+04  0.38326044458E+03  0.44872977740E+03  0.14392068433E+04  0.46999998093E+01 0. -1.
</event>
<event>
 5   0  0.1078103E-05  0.2658338E+04  0.7818609E-02  0.8348651E-01
        1   -1    0    0  501    0  0.00000000000E+00  0.00000000000E+00  0.11090908790E+04  0.11090908790E+04  0.50400001928E-02 0. -1.
       -1   -1    0    0    0  501  0.00000000000E+00  0.00000000000E+00 -0.15929177315E+04  0.15929177315E+04  0.50400001928E-02 0.  1.
    10030    2    1    2    0    0  0.00000000000E+00  0.00000000000E+00 -0.48382685248E+03  0.27020086105E+04  0.26583382231E+04 0.  0.
        1    1    3    3  502    0 -0.18092964004E+03 -0.48490415551E+03  0.10024626711E+04  0.11281839308E+04  0.50400001928E-02 0. -1.
       -1    1    3    3    0  502  0.18092964004E+03  0.48490415551E+03 -0.14862895236E+04  0.15738246798E+04  0.50400001928E-02 0.  1.
</event>
<event>
 5   0  0.1105862E-05  0.2809957E+04  0.7818609E-02  0.8300184E-01
       -1   -1    0    0    0  501  0.00000000000E+00  0.00000000000E+00  0.25063149188E+04  0.25063149188E+04  0.50400001928E-02 0. -1.
        1   -1    0    0  501    0  0.00000000000E+00  0.00000000000E+00 -0.78759665905E+03  0.78759665906E+03  0.50400001928E-02 0.  1.
    10030    2    1    2    0    0  0.00000000000E+00  0.00000000000E+00  0.17187182597E+04  0.32939115778E+04  0.28099574777E+04 0.  0.
        3    1    3    3  502    0  0.30734085287E+03 -0.95695822455E+03 -0.29141909674E+03  0.10464953624E+04  0.10100000352E+00 0. -1.
       -3    1    3    3    0  502 -0.30734085287E+03  0.95695822455E+03  0.20101373565E+04  0.22474162154E+04  0.10100000352E+00 0.  1.
</event>
<event>
 5   0  0.2651061E-05  0.2858202E+04  0.7818609E-02  0.8285423E-01
        2   -1    0    0  501    0  0.00000000000E+00  0.00000000000E+00  0.32175254337E+04  0.32175254337E+04  0.25500000920E-02 0. -1.
       -2   -1    0    0    0  501  0.00000000000E+00  0.00000000000E+00 -0.63475180599E+03  0.63475180600E+03  0.25500000920E-02 0.  1.
    10030    2    1    2    0    0  0.00000000000E+00  0.00000000000E+00  0.25827736277E+04  0.38522772397E+04  0.28582022881E+04 0.  0.
        3    1    3    3  502    0  0.52975948594E+03  0.90470004247E+03  0.26003490299E+04  0.28037372144E+04  0.10100000352E+00 0. -1.
       -3    1    3    3    0  502 -0.52975948594E+03 -0.90470004247E+03 -0.17575402165E+02  0.10485400253E+04  0.10100000352E+00 0.  1.
</event>
<event>
 5   0  0.2624815E-05  0.2678107E+04  0.7818609E-02  0.8342143E-01
        2   -1    0    0  501    0  0.00000000000E+00  0.00000000000E+00  0.13707014992E+04  0.13707014992E+04  0.25500000920E-02 0. -1.
       -2   -1    0    0    0  501  0.00000000000E+00  0.00000000000E+00 -0.13081366324E+04  0.13081366324E+04  0.25500000920E-02 0.  1.
    10030    2    1    2    0    0  0.00000000000E+00  0.00000000000E+00  0.62564866753E+02  0.26788381316E+04  0.26781074237E+04 0.  0.
        4    1    3    3  502    0 -0.91722305596E+03 -0.81044081472E+03 -0.51195946059E+03  0.13267315293E+04  0.12699999809E+01 0.  1.
       -4    1    3    3    0  502  0.91722305596E+03  0.81044081472E+03  0.57452432734E+03  0.13521066024E+04  0.12699999809E+01 0. -1.
</event>
<event>
 5   0  0.1078103E-05  0.2888071E+04  0.7818609E-02  0.8276436E-01
       -1   -1    0    0    0  501  0.00000000000E+00  0.00000000000E+00  0.10150847456E+04  0.10150847456E+04  0.50400001928E-02 0.  1.
        1   -1    0    0  501    0  0.00000000000E+00  0.00000000000E+00 -0.20542500610E+04  0.20542500610E+04  0.50400001928E-02 0. -1.
    10030    2    1    2    0    0  0.00000000000E+00  0.00000000000E+00 -0.10391653154E+04  0.30693348066E+04  0.28880705674E+04 0.  0.
        1    1    3    3  502    0  0.81436697951E+03  0.63205586698E+02  0.74597559569E+03  0.11061953322E+04  0.50400001928E-02 0.  1.
       -1    1    3    3    0  502 -0.81436697951E+03 -0.63205586698E+02 -0.17851409111E+04  0.19631394744E+04  0.50400001928E-02 0. -1.
</event>
<event>
 5   0  0.1017456E-05  0.3042115E+04  0.7818609E-02  0.8231806E-01
       -1   -1    0    0    0  501  0.00000000000E+00  0.00000000000E+00  0.19121528229E+04  0.19121528229E+04  0.50400001928E-02 0.  1.
        1   -1    0    0  501    0  0.00000000000E+00  0.00000000000E+00 -0.12099533859E+04  0.12099533859E+04  0.50400001928E-02 0. -1.
    10030    2    1    2    0    0  0.00000000000E+00  0.00000000000E+00  0.70219943701E+03  0.31221062089E+04  0.30421149107E+04 0.  0.
        5    1    3    3  502    0  0.57903422064E+03  0.12482491408E+04 -0.31416338840E+03  0.14114273877E+04  0.46999998093E+01 0. -1.
       -5    1    3    3    0  502 -0.57903422064E+03 -0.12482491408E+04  0.10163628254E+04  0.17106788211E+04  0.46999998093E+01 0.  1.
</event>
<event>
 5   0  0.2651061E-05  0.2821273E+04  0.7818609E-02  0.8296694E-01
        2   -1    0    0  501    0  0.00000000000E+00  0.00000000000E+00  0.29604448276E+04  0.29604448276E+04  0.25500000920E-02 0.  1.
       -2   -1    0    0    0  501  0.00000000000E+00  0.00000000000E+00 -0.67216094577E+03  0.67216094578E+03  0.25500000920E-02 0. -1.
    10030    2    1    2    0    0  0.00000000000E+00  0.00000000000E+00  0.22882838819E+04  0.36326057734E+04  0.28212730426E+04 0.  0.
        3    1    3    3  502    0  0.97708780326E+03 -0.96598402644E+03  0.15555014168E+04  0.20754301680E+04  0.10100000352E+00 0.  1.
       -3    1    3    3    0  502 -0.97708780326E+03  0.96598402644E+03  0.73278246510E+03  0.15571756054E+04  0.10100000352E+00 0. -1.
</event>
<event>
 5   0  0.1067434E-05  0.2859364E+04  0.7818609E-02  0.8285071E-01
        1   -1    0    0  501    0  0.00000000000E+00  0.00000000000E+00  0.15289977044E+04  0.15289977044E+04  0.50400001928E-02 0. -1.
       -1   -1    0    0    0  501  0.00000000000E+00  0.00000000000E+00 -0.13368177682E+04  0.13368177682E+04  0.50400001928E-02 0.  1.
    10030    2    1    2    0    0  0.00000000000E+00  0.00000000000E+00  0.19217993620E+03  0.28658154726E+04  0.28593644740E+04 0.  0.
        4    1    3    3  502    0 -0.12126870059E+03 -0.26277596587E+03 -0.13071517429E+04  0.13388071548E+04  0.12699999809E+01 0.  1.
       -4    1    3    3    0  502  0.12126870059E+03  0.26277596587E+03  0.14993316791E+04  0.15270083178E+04  0.12699999809E+01 0. -1.
</event>
<event>
 5   0  0.2651061E-05  0.2947098E+04  0.7818609E-02  0.8259001E-01
       -2   -1    0    0    0  501  0.00000000000E+00  0.00000000000E+00  0.13288370368E+04  0.13288370368E+04  0.25500000920E-02 0.  1.
        2   -1    0    0  501    0  0.00000000000E+00  0.00000000000E+00 -0.16340198751E+04  0.16340198752E+04  0.25500000920E-02 0. -1.
    10030    2    1    2    0    0  0.00000000000E+00  0.00000000000E+00 -0.30518283840E+03  0.29628569119E+04  0.29470976427E+04 0.  0.
        3    1    3    3  502    0  0.32907514032E+03  0.14213100398E+04 -0.36090328254E+03  0.15028851809E+04  0.10100000352E+00 0. -1.
       -3    1    3    3    0  502 -0.32907514032E+03 -0.14213100398E+04  0.55720444144E+02  0.14599717310E+04  0.10100000352E+00 0.  1.
</event>
<event>
 5   0  0.1017456E-05  0.2745809E+04  0.7818609E-02  0.8320293E-01
        1   -1    0    0  501    0  0.00000000000E+00  0.00000000000E+00  0.16187116824E+04  0.16187116824E+04  0.50400001928E-02 0.  1.
       -1   -1    0    0    0  501  0.00000000000E+00  0.00000000000E+00 -0.11644239486E+04  0.11644239486E+04  0.50400001928E-02 0. -1.
    10030    2    1    2    0    0  0.00000000000E+00  0.00000000000E+00  0.45428773385E+03  0.27831356310E+04  0.27458089146E+04 0.  0.
        5    1    3    3  502    0  0.10715447464E+04 -0.78356443839E+03 -0.12785027079E+03  0.13336225682E+04  0.46999998093E+01 0. -1.
       -5    1    3    3    0  502 -0.10715447464E+04  0.78356443839E+03  0.58213800465E+03  0.14495130628E+04  0.46999998093E+01 0.  1.
</event>
<event>
 5   0  0.1075146E-05  0.2799034E+04  0.7818609E-02  0.8303568E-01
        1   -1    0    0  501    0  0.00000000000E+00  0.00000000000E+00  0.26145664717E+04  0.26145664717E+04  0.50400001928E-02 0. -1.
       -1   -1    0    0    0  501  0.00000000000E+00  0.00000000000E+00 -0.74912927434E+03  0.74912927436E+03  0.50400001928E-02 0.  1.
    10030    2    1    2    0    0  0.00000000000E+00  0.00000000000E+00  0.18654371974E+04  0.33636957461E+04  0.27990343218E+04 0.  0.
        2    1    3    3  502    0  0.64589387931E+03 -0.12353265040E+04  0.10820328681E+04  0.17646545278E+04  0.25500000920E-02 0.  1.
       -2    1    3    3    0  502 -0.64589387931E+03  0.12353265040E+04  0.78340432926E+03  0.15990412183E+04  0.25500000920E-02 0. -1.
</event>
<event>
 5   0  0.2518686E-05  0.2770544E+04  0.7818609E-02  0.8312472E-01
       -2   -1    0    0    0  501  0.00000000000E+00  0.00000000000E+00  0.83955585974E+03  0.83955585974E+03  0.25500000920E-02 0.  1.
        2   -1    0    0  501    0  0.00000000000E+00  0.00000000000E+00 -0.22857060567E+04  0.22857060567E+04  0.25500000920E-02 0. -1.
    10030    2    1    2    0    0  0.00000000000E+00  0.00000000000E+00 -0.14461501970E+04  0.31252619165E+04  0.27705435666E+04 0.  0.
        5    1    3    3  502    0 -0.65888432395E+03 -0.40219193822E+03 -0.20205909408E+04  0.21630295300E+04  0.46999998093E+01 0. -1.
       -5    1    3    3    0  502  0.65888432395E+03  0.40219193822E+03  0.57444074380E+03  0.96223238651E+03  0.46999998093E+01 0.  1.
</event>
<event>
 5   0  0.1078103E-05  0.1384315E+04  0.7818609E-02  0.8965251E-01
        1   -1    0    0  501    0  0.00000000000E+00  0.00000000000E+00  0.73024525721E+03  0.73024525722E+03  0.50400001928E-02 0. -1.
       -1   -1    0    0    0  501  0.00000000000E+00  0.00000000000E+00 -0.65605636127E+03  0.65605636129E+03  0.50400001928E-02 0.  1.
    10030    2    1    2    0    0  0.00000000000E+00  0.00000000000E+00  0.74188895936E+02  0.13863016185E+04  0.13843150600E+04 0.  0.
        1    1    3    3  502    0  0.13621846756E+03 -0.60531749035E+03  0.34432014804E+03  0.70959220642E+03  0.50400001928E-02 0. -1.
       -1    1    3    3    0  502 -0.13621846756E+03  0.60531749035E+03 -0.27013125211E+03  0.67670941210E+03  0.50400001928E-02 0.  1.
</event>
<event>
 5   0  0.1078103E-05  0.2802118E+04  0.7818609E-02  0.8302611E-01
        1   -1    0    0  501    0  0.00000000000E+00  0.00000000000E+00  0.24152915969E+04  0.24152915969E+04  0.50400001928E-02 0. -1.
       -1   -1    0    0    0  501  0.00000000000E+00  0.00000000000E+00 -0.81272440905E+03  0.81272440906E+03  0.50400001928E-02 0.  1.
    10030    2    1    2    0    0  0.00000000000E+00  0.00000000000E+00  0.16025671879E+04  0.32280160060E+04  0.28021180816E+04 0.  0.
        1    1    3    3  502    0  0.67316916432E+03 -0.11792571856E+04  0.11989496364E+04  0.18114316063E+04  0.50400001928E-02 0. -1.
       -1    1    3    3    0  502 -0.67316916432E+03  0.11792571856E+04  0.40361755144E+03  0.14165843997E+04  0.50400001928E-02 0.  1.
</event>
<event>
 5   0  0.2651061E-05  0.2684552E+04  0.7818609E-02  0.8340035E-01
        2   -1    0    0  501    0  0.00000000000E+00  0.00000000000E+00  0.15490407438E+04  0.15490407438E+04  0.25500000920E-02 0. -1.
       -2   -1    0    0    0  501  0.00000000000E+00  0.00000000000E+00 -0.11631101817E+04  0.11631101817E+04  0.25500000920E-02 0.  1.
    10030    2    1    2    0    0  0.00000000000E+00  0.00000000000E+00  0.38593056216E+03  0.27121509255E+04  0.26845521496E+04 0.  0.
        3    1    3    3  502    0  0.36868824560E+03 -0.98508536204E+03  0.10354332044E+04  0.14759560034E+04  0.10100000352E+00 0. -1.
       -3    1    3    3    0  502 -0.36868824560E+03  0.98508536204E+03 -0.64950264226E+03  0.12361949221E+04  0.10100000352E+00 0.  1.
</event>
<event>
 5   0  0.1067434E-05  0.2761804E+04  0.7818609E-02  0.8315226E-01
       -1   -1    0    0    0  501  0.00000000000E+00  0.00000000000E+00  0.16701071744E+04  0.16701071744E+04  0.50400001928E-02 0. -1.
        1   -1    0    0  501    0  0.00000000000E+00  0.00000000000E+00 -0.11417772831E+04  0.11417772831E+04  0.50400001928E-02 0.  1.
    10030    2    1    2    0    0  0.00000000000E+00  0.00000000000E+00  0.52832989124E+03  0.28118844575E+04  0.27618040713E+04 0.  0.
        4    1    3    3  502    0  0.12397943324E+04 -0.50034085762E+03 -0.87729140914E+02  0.13398242330E+04  0.12699999809E+01 0.  1.
       -4    1    3    3    0  502 -0.12397943324E+04  0.50034085762E+03  0.61605903216E+03  0.14720602244E+04  0.12699999809E+01 0. -1.
</event>
<event>
 5   0  0.1078103E-05  0.2805900E+04  0.7818609E-02  0.8301439E-01
        1   -1    0    0  501    0  0.00000000000E+00  0.00000000000E+00  0.15395802006E+04  0.15395802006E+04  0.50400001928E-02 0.  1.
       -1   -1    0    0    0  501  0.00000000000E+00  0.00000000000E+00 -0.12784447674E+04  0.12784447674E+04  0.50400001928E-02 0. -1.
    10030    2    1    2    0    0  0.00000000000E+00  0.00000000000E+00  0.26113543319E+03  0.28180249680E+04  0.28058996785E+04 0.  0.
        1    1    3    3  502    0  0.50094063930E+03  0.32595334549E+03  0.14053364555E+04  0.15271403539E+04  0.50400001928E-02 0.  1.
       -1    1    3    3    0  502 -0.50094063930E+03 -0.32595334549E+03 -0.11442010223E+04  0.12908846141E+04  0.50400001928E-02 0. -1.
</event>
<event>
 5   0  0.2518686E-05  0.2743094E+04  0.7818609E-02  0.8321156E-01
       -2   -1    0    0    0  501  0.00000000000E+00  0.00000000000E+00  0.13766169364E+04  0.13766169364E+04  0.25500000920E-02 0. -1.
        2   -1    0    0  501    0  0.00000000000E+00  0.00000000000E+00 -0.13664955039E+04  0.13664955039E+04  0.25500000920E-02 0.  1.
    10030    2    1    2    0    0  0.00000000000E+00  0.00000000000E+00  0.10121432459E+02  0.27431124403E+04  0.27430937674E+04 0.  0.
        5    1    3    3  502    0  0.42454574934E+03 -0.45352780824E+03  0.12278495591E+04  0.13760680201E+04  0.46999998093E+01 0. -1.
       -5    1    3    3    0  502 -0.42454574934E+03  0.45352780824E+03 -0.12177281267E+04  0.13670444201E+04  0.46999998093E+01 0.  1.
</event>
<event>
 5   0  0.1017456E-05  0.1949172E+04  0.7818609E-02  0.8630760E-01
       -1   -1    0    0    0  501  0.00000000000E+00  0.00000000000E+00  0.10209923464E+04  0.10209923465E+04  0.50400001928E-02 0. -1.
        1   -1    0    0  501    0  0.00000000000E+00  0.00000000000E+00 -0.93028893281E+03  0.93028893283E+03  0.50400001928E-02 0.  1.
    10030    2    1    2    0    0  0.00000000000E+00  0.00000000000E+00  0.90703413636E+02  0.19512812793E+04  0.19491720093E+04 0.  0.
        5    1    3    3  502    0 -0.94430871145E+03  0.16620026546E+03  0.22005221278E+03  0.98376142286E+03  0.46999998093E+01 0. -1.
       -5    1    3    3    0  502  0.94430871145E+03 -0.16620026546E+03 -0.12934879915E+03  0.96751985643E+03  0.46999998093E+01 0.  1.
</event>
<event>
 5   0  0.2651061E-05  0.2873129E+04  0.7818609E-02  0.8280917E-01
        2   -1    0    0  501    0  0.00000000000E+00  0.00000000000E+00  0.16240621353E+04  0.16240621353E+04  0.25500000920E-02 0. -1.
       -2   -1    0    0    0  501  0.00000000000E+00  0.00000000000E+00 -0.12707137744E+04  0.12707137744E+04  0.25500000920E-02 0.  1.
    10030    2    1    2    0    0  0.00000000000E+00  0.00000000000E+00  0.35334836090E+03  0.28947759096E+04  0.28731293919E+04 0.  0.
        3    1    3    3  502    0 -0.63304501111E+03 -0.10979514621E+04 -0.50479043925E+03  0.13642055552E+04  0.10100000352E+00 0.  1.
       -3    1    3    3    0  502  0.63304501111E+03  0.10979514621E+04  0.85813880015E+03  0.15305703544E+04  0.10100000352E+00 0. -1.
</event>
<event>
 5   0  0.1075146E-05  0.2718820E+04  0.7818609E-02  0.8328924E-01
        1   -1    0    0  501    0  0.00000000000E+00  0.00000000000E+00  0.61677047597E+03  0.61677047599E+03  0.50400001928E-02 0. -1.
       -1   -1    0    0    0  501  0.00000000000E+00  0.00000000000E+00 -0.29962443826E+04  0.29962443826E+04  0.50400001928E-02 0.  1.
    10030    2    1    2    0    0  0.00000000000E+00  0.00000000000E+00 -0.23794739066E+04  0.36130148586E+04  0.27188196513E+04 0.  0.
        2    1    3    3  502    0 -0.55248694457E+03  0.77713082291E+03 -0.24773362473E+04  0.26544997687E+04  0.25500000920E-02 0.  1.
       -2    1    3    3    0  502  0.55248694457E+03 -0.77713082291E+03  0.97862340657E+02  0.95851508990E+03  0.25500000920E-02 0. -1.
</event>
<event>
 5   0  0.1067434E-05  0.2717453E+04  0.7818609E-02  0.8329364E-01
        1   -1    0    0  501    0  0.00000000000E+00  0.00000000000E+00  0.13129104046E+04  0.13129104046E+04  0.50400001928E-02 0. -1.
       -1   -1    0    0    0  501  0.00000000000E+00  0.00000000000E+00 -0.14061415784E+04  0.14061415784E+04  0.50400001928E-02 0.  1.
    10030    2    1    2    0    0  0.00000000000E+00  0.00000000000E+00 -0.93231173848E+02  0.27190519830E+04  0.27174531522E+04 0.  0.
        4    1    3    3  502    0  0.10660142630E+03  0.23788472224E+03 -0.13808855435E+04  0.14052755965E+04  0.12699999809E+01 0.  1.
       -4    1    3    3    0  502 -0.10660142630E+03 -0.23788472224E+03  0.12876543696E+04  0.13137763865E+04  0.12699999809E+01 0. -1.
</event>
<event>
 5   0  0.1078103E-05  0.2627505E+04  0.7818609E-02  0.8358918E-01
       -1   -1    0    0    0  501  0.00000000000E+00  0.00000000000E+00  0.20640739670E+04  0.20640739670E+04  0.50400001928E-02 0. -1.
        1   -1    0    0  501    0  0.00000000000E+00  0.00000000000E+00 -0.83618413736E+03  0.83618413737E+03  0.50400001928E-02 0.  1.
    10030    2    1    2    0    0  0.00000000000E+00  0.00000000000E+00  0.12278898297E+04  0.29002581044E+04  0.26275052119E+04 0.  0.
        1    1    3    3  502    0 -0.96701084556E+03  0.84284221589E+03  0.30085865807E+03  0.13175769080E+04  0.50400001928E-02 0. -1.
       -1    1    3    3    0  502  0.96701084556E+03 -0.84284221589E+03  0.92703117160E+03  0.15826811964E+04  0.50400001928E-02 0.  1.
</event>
<event>
 5   0  0.1067434E-05  0.2180612E+04  0.7818609E-02  0.8526541E-01
       -1   -1    0    0    0  501  0.00000000000E+00  0.00000000000E+00  0.12714049207E+04  0.12714049207E+04  0.50400001928E-02 0. -1.
        1   -1    0    0  501    0  0.00000000000E+00  0.00000000000E+00 -0.93500270950E+03  0.93500270952E+03  0.50400001928E-02 0.  1.
    10030    2    1    2    0    0  0.00000000000E+00  0.00000000000E+00  0.33640221116E+03  0.22064076302E+04  0.21806118827E+04 0.  0.
        4    1    3    3  502    0  0.64117126384E+03  0.62471970056E+03 -0.46156844286E+03  0.10071853524E+04  0.12699999809E+01 0.  1.
       -4    1    3    3    0  502 -0.64117126384E+03 -0.62471970056E+03  0.79797065402E+03  0.11992222777E+04  0.12699999809E+01 0. -1.
</event>
<event>
 5   0  0.2588048E-05  0.2791174E+04  0.7818609E-02  0.8306014E-01
       -2   -1    0    0    0  501  0.00000000000E+00  0.00000000000E+00  0.13384113311E+04  0.13384113311E+04  0.25500000920E-02 0. -1.
        2   -1    0    0  501    0  0.00000000000E+00  0.00000000000E+00 -0.14552048390E+04  0.14552048390E+04  0.25500000920E-02 0.  1.
    10030    2    1    2    0    0  0.00000000000E+00  0.00000000000E+00 -0.11679350796E+03  0.27936161701E+04  0.27911736926E+04 0.  0.
        2    1    3    3  502    0  0.13739204582E+04  0.79472009186E+01  0.18664817120E+03  0.13865634220E+04  0.25500000920E-02 0. -1.
       -2    1    3    3    0  502 -0.13739204582E+04 -0.79472009186E+01 -0.30344167916E+03  0.14070527481E+04  0.25500000920E-02 0.  1.
</event>
<event>
 5   0  0.2697964E-05  0.2667205E+04  0.7818609E-02  0.8345725E-01
       -2   -1    0    0    0  501  0.00000000000E+00  0.00000000000E+00  0.84863226754E+03  0.84863226755E+03  0.25500000920E-02 0.  1.
        2   -1    0    0  501    0  0.00000000000E+00  0.00000000000E+00 -0.20957193945E+04  0.20957193945E+04  0.25500000920E-02 0. -1.
    10030    2    1    2    0    0  0.00000000000E+00  0.00000000000E+00 -0.12470871269E+04  0.29443516620E+04  0.26672046055E+04 0.  0.
        1    1    3    3  502    0  0.79186140822E+03  0.82360926817E+03 -0.13828520596E+04  0.17937827447E+04  0.50400001928E-02 0. -1.
       -1    1    3    3    0  502 -0.79186140822E+03 -0.82360926817E+03  0.13576493271E+03  0.11505689173E+04  0.50400001928E-02 0.  1.
</event>
<event>
 5   0  0.2651061E-05  0.2112003E+04  0.7818609E-02  0.8555974E-01
        2   -1    0    0  501    0  0.00000000000E+00  0.00000000000E+00  0.10135118663E+04  0.10135118663E+04  0.25500000920E-02 0.  1.
       -2   -1    0    0    0  501  0.00000000000E+00  0.00000000000E+00 -0.11002724300E+04  0.11002724300E+04  0.25500000920E-02 0. -1.
    10030    2    1    2    0    0  0.00000000000E+00  0.00000000000E+00 -0.86760563669E+02  0.21137842963E+04  0.21120029962E+04 0.  0.
        3    1    3    3  502    0 -0.36624543446E+03 -0.66015489463E+03  0.69561836431E+03  0.10265598483E+04  0.10100000352E+00 0.  1.
       -3    1    3    3    0  502  0.36624543446E+03  0.66015489463E+03 -0.78237892798E+03  0.10872244480E+04  0.10100000352E+00 0. -1.
</event>
<event>
 5   0  0.2697964E-05  0.1593620E+04  0.7818609E-02  0.8824477E-01
        2   -1    0    0  501    0  0.00000000000E+00  0.00000000000E+00  0.20500788235E+04  0.20500788235E+04  0.25500000920E-02 0.  1.
       -2   -1    0    0    0  501  0.00000000000E+00  0.00000000000E+00 -0.30969841046E+03  0.30969841048E+03  0.25500000920E-02 0. -1.
    10030    2    1    2    0    0  0.00000000000E+00  0.00000000000E+00  0.17403804130E+04  0.23597772340E+04  0.15936199710E+04 0.  0.
        1    1    3    3  502    0  0.41973278392E+03  0.72502560840E+02 -0.12696417462E+03  0.44446837108E+03  0.50400001928E-02 0. -1.
       -1    1    3    3    0  502 -0.41973278392E+03 -0.72502560840E+02  0.18673445877E+04  0.19153088629E+04  0.50400001928E-02 0.  1.
</event>
<event>
 5   0  0.2624815E-05  0.2767778E+04  0.7818609E-02  0.8313342E-01
       -2   -1    0    0    0  501  0.00000000000E+00  0.00000000000E+00  0.10090767983E+04  0.10090767983E+04  0.25500000920E-02 0. -1.
        2   -1    0    0  501    0  0.00000000000E+00  0.00000000000E+00 -0.18979211766E+04  0.18979211766E+04  0.25500000920E-02 0.  1.
    10030    2    1    2    0    0  0.00000000000E+00  0.00000000000E+00 -0.88884437828E+03  0.29069979750E+04  0.27677776099E+04 0.  0.
        4    1    3    3  502    0  0.96697283409E+03  0.27748365340E+03 -0.14425463712E+04  0.17586856700E+04  0.12699999809E+01 0.  1.
       -4    1    3    3    0  502 -0.96697283409E+03 -0.27748365340E+03  0.55370199297E+03  0.11483123049E+04  0.12699999809E+01 0. -1.
</event>
<event>
 5   0  0.1105862E-05  0.2820447E+04  0.7818609E-02  0.8296948E-01
        1   -1    0    0  501    0  0.00000000000E+00  0.00000000000E+00  0.11614478380E+04  0.11614478380E+04  0.50400001928E-02 0.  1.
       -1   -1    0    0    0  501  0.00000000000E+00  0.00000000000E+00 -0.17122860902E+04  0.17122860902E+04  0.50400001928E-02 0. -1.
    10030    2    1    2    0    0  0.00000000000E+00  0.00000000000E+00 -0.55083825222E+03  0.28737339282E+04  0.28204474662E+04 0.  0.
        3    1    3    3  502    0 -0.21614802371E+03 -0.13923403783E+04 -0.33482390352E+03  0.14482536911E+04  0.10100000352E+00 0.  1.
       -3    1    3    3    0  502  0.21614802371E+03  0.13923403783E+04 -0.21601434869E+03  0.14254802371E+04  0.10100000352E+00 0. -1.
</event>
<event>
 5   0  0.1078103E-05  0.2642954E+04  0.7818609E-02  0.8353755E-01
        1   -1    0    0  501    0  0.00000000000E+00  0.00000000000E+00  0.18840767646E+04  0.18840767646E+04  0.50400001928E-02 0. -1.
       -1   -1    0    0    0  501  0.00000000000E+00  0.00000000000E+00 -0.92687371422E+03  0.92687371423E+03  0.50400001928E-02 0.  1.
    10030    2    1    2    0    0  0.00000000000E+00  0.00000000000E+00  0.95720305036E+03  0.28109504788E+04  0.26429538238E+04 0.  0.
        1    1    3    3  502    0  0.13159772008E+04  0.11435795007E+03  0.43841773358E+03  0.13917915946E+04  0.50400001928E-02 0. -1.
       -1    1    3    3    0  502 -0.13159772008E+04 -0.11435795007E+03  0.51878531678E+03  0.14191588842E+04  0.50400001928E-02 0.  1.
</event>
<event>
 5   0  0.8958000E-06  0.2806426E+04  0.7818609E-02  0.8301276E-01
        3   -1    0    0  501    0  0.00000000000E+00  0.00000000000E+00  0.86636289910E+03  0.86636290498E+03  0.10100000352E+00 0. -1.
       -3   -1    0    0    0  501  0.00000000000E+00  0.00000000000E+00 -0.22727277318E+04  0.22727277340E+04  0.10100000352E+00 0.  1.
    10030    2    1    2    0    0  0.00000000000E+00  0.00000000000E+00 -0.14063648327E+04  0.31390906390E+04  0.28064261966E+04 0.  0.
        2    1    3    3  502    0  0.48590139402E+03  0.58780958404E+03 -0.20206774837E+04  0.21598050294E+04  0.25500000920E-02 0.  1.
       -2    1    3    3    0  502 -0.48590139402E+03 -0.58780958404E+03  0.61431265109E+03  0.97928560956E+03  0.25500000920E-02 0. -1.
</event>
<event>
 5   0  0.1078103E-05  0.2892954E+04  0.7818609E-02  0.8274977E-01
       -1   -1    0    0    0  501  0.00000000000E+00  0.00000000000E+00  0.11635240076E+04  0.11635240076E+04  0.50400001928E-02 0. -1.
        1   -1    0    0  501    0  0.00000000000E+00  0.00000000000E+00 -0.17982396769E+04  0.17982396769E+04  0.50400001928E-02 0.  1.
    10030    2    1    2    0    0  0.00000000000E+00  0.00000000000E+00 -0.63471566933E+03  0.29617636845E+04  0.28929535327E+04 0.  0.
        1    1    3    3  502    0 -0.14268615995E+04  0.23730812345E+03 -0.31042431687E+03  0.14793959667E+04  0.50400001928E-02 0.  1.
       -1    1    3    3    0  502  0.14268615995E+04 -0.23730812345E+03 -0.32429135246E+03  0.14823677179E+04  0.50400001928E-02 0. -1.
</event>
<event>
 5   0  0.1067434E-05  0.2731743E+04  0.7818609E-02  0.8324778E-01
        1   -1    0    0  501    0  0.00000000000E+00  0.00000000000E+00  0.20979862840E+04  0.20979862840E+04  0.50400001928E-02 0. -1.
       -1   -1    0    0    0  501  0.00000000000E+00  0.00000000000E+00 -0.88923577492E+03  0.88923577494E+03  0.50400001928E-02 0.  1.
    10030    2    1    2    0    0  0.00000000000E+00  0.00000000000E+00  0.12087505091E+04  0.29872220590E+04  0.27317426373E+04 0.  0.
        4    1    3    3  502    0  0.69836684661E+03  0.11617999586E+04  0.78770732784E+03  0.15677945795E+04  0.12699999809E+01 0. -1.
       -4    1    3    3    0  502 -0.69836684661E+03 -0.11617999586E+04  0.42104318127E+03  0.14194274795E+04  0.12699999809E+01 0.  1.
</event>
<event>
 5   0  0.1105862E-05  0.2742012E+04  0.7818609E-02  0.8321501E-01
        1   -1    0    0  501    0  0.00000000000E+00  0.00000000000E+00  0.14367436723E+04  0.14367436723E+04  0.50400001928E-02 0. -1.
       -1   -1    0    0    0  501  0.00000000000E+00  0.00000000000E+00 -0.13082765423E+04  0.13082765423E+04  0.50400001928E-02 0.  1.
    10030    2    1    2    0    0  0.00000000000E+00  0.00000000000E+00  0.12846713007E+03  0.27450202146E+04  0.27420124316E+04 0.  0.
        3    1    3    3  502    0 -0.10770162031E+04 -0.13617820222E+03 -0.77403172140E+03  0.13332792357E+04  0.10100000352E+00 0.  1.
       -3    1    3    3    0  502  0.10770162031E+04  0.13617820222E+03  0.90249885147E+03  0.14117409789E+04  0.10100000352E+00 0. -1.
</event>
<event>
 5   0  0.2624815E-05  0.2737644E+04  0.7818609E-02  0.8322893E-01
        2   -1    0    0  501    0  0.00000000000E+00  0.00000000000E+00  0.58090882904E+03  0.58090882905E+03  0.25500000920E-02 0. -1.
       -2   -1    0    0    0  501  0.00000000000E+00  0.00000000000E+00 -0.32254180695E+04  0.32254180695E+04  0.25500000920E-02 0.  1.
    10030    2    1    2    0    0  0.00000000000E+00  0.00000000000E+00 -0.26445092404E+04  0.38063268985E+04  0.27376441214E+04 0.  0.
        4    1    3    3  502    0 -0.21807527599E+03 -0.33775550226E+02 -0.32005223865E+04  0.32081213776E+04  0.12699999809E+01 0.  1.
       -4    1    3    3    0  502  0.21807527599E+03  0.33775550226E+02  0.55601314607E+03  0.59820552095E+03  0.12699999809E+01 0. -1.
</event>
<event>
 5   0  0.1075146E-05  0.2801363E+04  0.7818609E-02  0.8302845E-01
        1   -1    0    0  501    0  0.00000000000E+00  0.00000000000E+00  0.82646733284E+03  0.82646733286E+03  0.50400001928E-02 0. -1.
       -1   -1    0    0    0  501  0.00000000000E+00  0.00000000000E+00 -0.23738485980E+04  0.23738485980E+04  0.50400001928E-02 0.  1.
    10030    2    1    2    0    0  0.00000000000E+00  0.00000000000E+00 -0.15473812652E+04  0.32003159309E+04  0.28013627537E+04 0.  0.
        2    1    3    3  502    0 -0.35944422912E+03  0.28726533547E+03 -0.22850429088E+04  0.23309102561E+04  0.25500000920E-02 0.  1.
       -2    1    3    3    0  502  0.35944422912E+03 -0.28726533547E+03  0.73766164365E+03  0.86940567478E+03  0.25500000920E-02 0. -1.
</event>
<event>
 5   0  0.1105862E-05  0.2856092E+04  0.7818609E-02  0.8286063E-01
        1   -1    0    0  501    0  0.00000000000E+00  0.00000000000E+00  0.15776915497E+04  0.15776915497E+04  0.50400001928E-02 0.  1.
       -1   -1    0    0    0  501  0.00000000000E+00  0.00000000000E+00 -0.12925944912E+04  0.12925944912E+04  0.50400001928E-02 0. -1.
    10030    2    1    2    0    0  0.00000000000E+00  0.00000000000E+00  0.28509705850E+03  0.28702860409E+04  0.28560920195E+04 0.  0.
        3    1    3    3  502    0  0.77416453435E+03 -0.55499605025E+02  0.13472152973E+04  0.15547990224E+04  0.10100000352E+00 0.  1.
       -3    1    3    3    0  502 -0.77416453435E+03  0.55499605025E+02 -0.10621182388E+04  0.13154870185E+04  0.10100000352E+00 0. -1.
</event>
<event>
 5   0  0.2518686E-05  0.2749143E+04  0.7818609E-02  0.8319234E-01
       -2   -1    0    0    0  501  0.00000000000E+00  0.00000000000E+00  0.14366966099E+04  0.14366966099E+04  0.25500000920E-02 0. -1.
        2   -1    0    0  501    0  0.00000000000E+00  0.00000000000E+00 -0.13151328959E+04  0.13151328959E+04  0.25500000920E-02 0.  1.
    10030    2    1    2    0    0  0.00000000000E+00  0.00000000000E+00  0.12156371401E+03  0.27518295058E+04  0.27491431197E+04 0.  0.
        5    1    3    3  502    0  0.11536668460E+04 -0.66722478601E+03  0.39769473885E+03  0.13907980809E+04  0.46999998093E+01 0. -1.
       -5    1    3    3    0  502 -0.11536668460E+04  0.66722478601E+03 -0.27613102484E+03  0.13610314249E+04  0.46999998093E+01 0.  1.
</event>
<event>
 5   0  0.1075146E-05  0.2795303E+04  0.7818609E-02  0.8304728E-01
       -1   -1    0    0    0  501  0.00000000000E+00  0.00000000000E+00  0.10518373469E+04  0.10518373469E+04  0.50400001928E-02 0.  1.
        1   -1    0    0  501    0  0.00000000000E+00  0.00000000000E+00 -0.18571599285E+04  0.18571599285E+04  0.50400001928E-02 0. -1.
    10030    2    1    2    0    0  0.00000000000E+00  0.00000000000E+00 -0.80532258157E+03  0.29089972754E+04  0.27953033267E+04 0.  0.
        2    1    3    3  502    0  0.22852195097E+03 -0.68308101675E+03 -0.16491289929E+04  0.17995689464E+04  0.25500000920E-02 0. -1.
       -2    1    3    3    0  502 -0.22852195097E+03  0.68308101675E+03  0.84380641133E+03  0.11094283291E+04  0.25500000920E-02 0.  1.
</event>
<event>
 5   0  0.1017456E-05  0.2792180E+04  0.7818609E-02  0.8305700E-01
       -1   -1    0    0    0  501  0.00000000000E+00  0.00000000000E+00  0.12195207940E+04  0.12195207940E+04  0.50400001928E-02 0.  1.
        1   -1    0    0  501    0  0.00000000000E+00  0.00000000000E+00 -0.15982239525E+04  0.15982239525E+04  0.50400001928E-02 0. -1.
    10030    2    1    2    0    0  0.00000000000E+00  0.00000000000E+00 -0.37870315846E+03  0.28177447465E+04  0.27921800397E+04 0.  0.
        5    1    3    3  502    0 -0.42153196883E+03 -0.12619819798E+04 -0.61601991079E+03  0.14662163342E+04  0.46999998093E+01 0.  1.
       -5    1    3    3    0  502  0.42153196883E+03  0.12619819798E+04  0.23731675234E+03  0.13515284123E+04  0.46999998093E+01 0. -1.
</event>
<event>
 5   0  0.1017456E-05  0.2274161E+04  0.7818609E-02  0.8488179E-01
        1   -1    0    0  501    0  0.00000000000E+00  0.00000000000E+00  0.13991895874E+04  0.13991895874E+04  0.50400001928E-02 0. -1.
       -1   -1    0    0    0  501  0.00000000000E+00  0.00000000000E+00 -0.92407231214E+03  0.92407231216E+03  0.50400001928E-02 0.  1.
    10030    2    1    2    0    0  0.00000000000E+00  0.00000000000E+00  0.47511727529E+03  0.23232618996E+04  0.22741612583E+04 0.  0.
        5    1    3    3  502    0  0.75435044553E+03 -0.21302847057E+03  0.10790570356E+04  0.13337210728E+04  0.46999998093E+01 0. -1.
       -5    1    3    3    0  502 -0.75435044553E+03  0.21302847057E+03 -0.60393976027E+03  0.98954082684E+03  0.46999998093E+01 0.  1.
</event>
<event>
 5   0  0.2588048E-05  0.2823936E+04  0.7818609E-02  0.8295875E-01
       -2   -1    0    0    0  501  0.00000000000E+00  0.00000000000E+00  0.90625271153E+03  0.90625271153E+03  0.25500000920E-02 0.  1.
        2   -1    0    0  501    0  0.00000000000E+00  0.00000000000E+00 -0.21998877604E+04  0.21998877604E+04  0.25500000920E-02 0. -1.
    10030    2    1    2    0    0  0.00000000000E+00  0.00000000000E+00 -0.12936350488E+04  0.31061404719E+04  0.28239364355E+04 0.  0.
        2    1    3    3  502    0  0.98534216851E+03  0.12764617394E+03  0.45666322607E+03  0.10934962445E+04  0.25500000920E-02 0.  1.
       -2    1    3    3    0  502 -0.98534216851E+03 -0.12764617394E+03 -0.17502982749E+04  0.20126442273E+04  0.25500000920E-02 0. -1.
</event>
<event>
 5   0  0.2588048E-05  0.1472094E+04  0.7818609E-02  0.8903225E-01
       -2   -1    0    0    0  501  0.00000000000E+00  0.00000000000E+00  0.42545512891E+03  0.42545512892E+03  0.25500000920E-02 0. -1.
        2   -1    0    0  501    0  0.00000000000E+00  0.00000000000E+00 -0.12733776142E+04  0.12733776142E+04  0.25500000920E-02 0.  1.
    10030    2    1    2    0    0  0.00000000000E+00  0.00000000000E+00 -0.84792248528E+03  0.16988327431E+04  0.14720937973E+04 0.  0.
        2    1    3    3  502    0 -0.39752737304E+03 -0.41647088390E+03 -0.95316564273E+03  0.11135532102E+04  0.25500000920E-02 0.  1.
       -2    1    3    3    0  502  0.39752737304E+03  0.41647088390E+03  0.10524315745E+03  0.58527953292E+03  0.25500000920E-02 0. -1.
</event>
<event>
 5   0  0.2518686E-05  0.2773524E+04  0.7818609E-02  0.8311536E-01
       -2   -1    0    0    0  501  0.00000000000E+00  0.00000000000E+00  0.11762572318E+04  0.11762572318E+04  0.25500000920E-02 0. -1.
        2   -1    0    0  501    0  0.00000000000E+00  0.00000000000E+00 -0.16349386163E+04  0.16349386163E+04  0.25500000920E-02 0.  1.
    10030    2    1    2    0    0  0.00000000000E+00  0.00000000000E+00 -0.45868138448E+03  0.28111958481E+04  0.27735236584E+04 0.  0.
        5    1    3    3  502    0 -0.11294392867E+04  0.52365099538E+03 -0.84857492219E+03  0.15066336502E+04  0.46999998093E+01 0.  1.
       -5    1    3    3    0  502  0.11294392867E+04 -0.52365099538E+03  0.38989353771E+03  0.13045621979E+04  0.46999998093E+01 0. -1.
</event>
<event>
 5   0  0.2624815E-05  0.2822057E+04  0.7818609E-02  0.8296453E-01
       -2   -1    0    0    0  501  0.00000000000E+00  0.00000000000E+00  0.11942114146E+04  0.11942114146E+04  0.25500000920E-02 0. -1.
        2   -1    0    0  501    0  0.00000000000E+00  0.00000000000E+00 -0.16672098282E+04  0.16672098282E+04  0.25500000920E-02 0.  1.
    10030    2    1    2    0    0  0.00000000000E+00  0.00000000000E+00 -0.47299841359E+03  0.28614212428E+04  0.28220567020E+04 0.  0.
        4    1    3    3  502    0 -0.87133232157E+03  0.26166047771E+03  0.85711560750E+03  0.12499339973E+04  0.12699999809E+01 0. -1.
       -4    1    3    3    0  502  0.87133232157E+03 -0.26166047771E+03 -0.13301140211E+04  0.16114872454E+04  0.12699999809E+01 0.  1.
</event>
<event>
 5   0  0.1078103E-05  0.2819344E+04  0.7818609E-02  0.8297288E-01
       -1   -1    0    0    0  501  0.00000000000E+00  0.00000000000E+00  0.14902326486E+04  0.14902326486E+04  0.50400001928E-02 0.  1.
        1   -1    0    0  501    0  0.00000000000E+00  0.00000000000E+00 -0.13334666362E+04  0.13334666362E+04  0.50400001928E-02 0. -1.
    10030    2    1    2    0    0  0.00000000000E+00  0.00000000000E+00  0.15676601237E+03  0.28236992848E+04  0.28193442622E+04 0.  0.
        1    1    3    3  502    0  0.12138852409E+04  0.63119102470E+03 -0.26163519161E+03  0.13929725271E+04  0.50400001928E-02 0. -1.
       -1    1    3    3    0  502 -0.12138852409E+04 -0.63119102470E+03  0.41840120398E+03  0.14307267577E+04  0.50400001928E-02 0.  1.
</event>
<event>
 5   0  0.2624815E-05  0.2919878E+04  0.7818609E-02  0.8266988E-01
        2   -1    0    0  501    0  0.00000000000E+00  0.00000000000E+00  0.14895159795E+04  0.14895159795E+04  0.25500000920E-02 0. -1.
       -2   -1    0    0    0  501  0.00000000000E+00  0.00000000000E+00 -0.14309497832E+04  0.14309497832E+04  0.25500000920E-02 0.  1.
    10030    2    1    2    0    0  0.00000000000E+00  0.00000000000E+00  0.58566196362E+02  0.29204657627E+04  0.29198784686E+04 0.  0.
        4    1    3    3  502    0  0.13748696890E+04  0.27676983682E+03 -0.37644951400E+03  0.14520964340E+04  0.12699999809E+01 0. -1.
       -4    1    3    3    0  502 -0.13748696890E+04 -0.27676983682E+03  0.43501571036E+03  0.14683693287E+04  0.12699999809E+01 0.  1.
</event>
<event>
 5   0  0.1067434E-05  0.2147241E+04  0.7818609E-02  0.8540714E-01
        1   -1    0    0  501    0  0.00000000000E+00  0.00000000000E+00  0.16402849248E+04  0.16402849248E+04  0.50400001928E-02 0. -1.
       -1   -1    0    0    0  501  0.00000000000E+00  0.00000000000E+00 -0.70271992848E+03  0.70271992850E+03  0.50400001928E-02 0.  1.
    10030    2    1    2    0    0  0.00000000000E+00  0.00000000000E+00  0.93756499635E+03  0.23430048533E+04  0.21472409321E+04 0.  0.
        4    1    3    3  502    0  0.85846200122E+03  0.64376783001E+03  0.50759604028E+03  0.11870338578E+04  0.12699999809E+01 0. -1.
       -4    1    3    3    0  502 -0.85846200122E+03 -0.64376783001E+03  0.42996895607E+03  0.11559709956E+04  0.12699999809E+01 0.  1.
</event>
<event>
 5   0  0.2697964E-05  0.2800723E+04  0.7818609E-02  0.8303044E-01
       -2   -1    0    0    0  501  0.00000000000E+00  0.00000000000E+00  0.12380246413E+04  0.12380246413E+04  0.25500000920E-02 0. -1.
        2   -1    0    0  501    0  0.00000000000E+00  0.00000000000E+00 -0.15839844589E+04  0.15839844589E+04  0.25500000920E-02 0.  1.
    10030    2    1    2    0    0  0.00000000000E+00  0.00000000000E+00 -0.34595981759E+03  0.28220091002E+04  0.28007226150E+04 0.  0.
        1    1    3    3  502    0 -0.69789356159E+03  0.11067016882E+04 -0.67594080305E+03  0.14726642589E+04  0.50400001928E-02 0.  1.
       -1    1    3    3    0  502  0.69789356159E+03 -0.11067016882E+04  0.32998098546E+03  0.13493448413E+04  0.50400001928E-02 0. -1.
</event>
<event>
 5   0  0.1105862E-05  0.2644082E+04  0.7818609E-02  0.8353380E-01
       -1   -1    0    0    0  501  0.00000000000E+00  0.00000000000E+00  0.11688951875E+04  0.11688951875E+04  0.50400001928E-02 0.  1.
        1   -1    0    0  501    0  0.00000000000E+00  0.00000000000E+00 -0.14952511308E+04  0.14952511308E+04  0.50400001928E-02 0. -1.
    10030    2    1    2    0    0  0.00000000000E+00  0.00000000000E+00 -0.32635594331E+03  0.26641463184E+04  0.26440815804E+04 0.  0.
        3    1    3    3  502    0 -0.52867869374E+02 -0.28811160478E+03  0.11357863838E+04  0.11729509914E+04  0.10100000352E+00 0.  1.
       -3    1    3    3    0  502  0.52867869374E+02  0.28811160478E+03 -0.14621423271E+04  0.14911953270E+04  0.10100000352E+00 0. -1.
</event>
<event>
 5   0  0.2651061E-05  0.1689003E+04  0.7818609E-02  0.8767661E-01
        2   -1    0    0  501    0  0.00000000000E+00  0.00000000000E+00  0.16058024852E+04  0.16058024852E+04  0.25500000920E-02 0.  1.
       -2   -1    0    0    0  501  0.00000000000E+00  0.00000000000E+00 -0.44412871371E+03  0.44412871371E+03  0.25500000920E-02 0. -1.
    10030    2    1    2    0    0  0.00000000000E+00  0.00000000000E+00  0.11616737715E+04  0.20499311989E+04  0.16890032472E+04 0.  0.
        3    1    3    3  502    0  0.78793545234E+03  0.17673202527E+03  0.88085846446E+03  0.11949845733E+04  0.10100000352E+00 0.  1.
       -3    1    3    3    0  502 -0.78793545234E+03 -0.17673202527E+03  0.28081530706E+03  0.85494662564E+03  0.10100000352E+00 0. -1.
</event>
<event>
 5   0  0.1017456E-05  0.2760452E+04  0.7818609E-02  0.8315653E-01
        1   -1    0    0  501    0  0.00000000000E+00  0.00000000000E+00  0.78853225882E+03  0.78853225883E+03  0.50400001928E-02 0. -1.
       -1   -1    0    0    0  501  0.00000000000E+00  0.00000000000E+00 -0.24159117041E+04  0.24159117041E+04  0.50400001928E-02 0.  1.
    10030    2    1    2    0    0  0.00000000000E+00  0.00000000000E+00 -0.16273794453E+04  0.32044439629E+04  0.27604523638E+04 0.  0.
        5    1    3    3  502    0 -0.12304343004E+04  0.21147122995E+03 -0.14968257372E+04  0.19491531562E+04  0.46999998093E+01 0.  1.
       -5    1    3    3    0  502  0.12304343004E+04 -0.21147122995E+03 -0.13055370810E+03  0.12552908067E+04  0.46999998093E+01 0. -1.
</event>
<event>
 5   0  0.2697964E-05  0.2764385E+04  0.7818609E-02  0.8314411E-01
       -2   -1    0    0    0  501  0.00000000000E+00  0.00000000000E+00  0.10484966299E+04  0.10484966299E+04  0.25500000920E-02 0. -1.
        2   -1    0    0  501    0  0.00000000000E+00  0.00000000000E+00 -0.18220912740E+04  0.18220912740E+04  0.25500000920E-02 0.  1.
    10030    2    1    2    0    0  0.00000000000E+00  0.00000000000E+00 -0.77359464415E+03  0.28705879039E+04  0.27643853278E+04 0.  0.
        1    1    3    3  502    0 -0.41858976351E+03 -0.11388822416E+03  0.97597316111E+03  0.10680409772E+04  0.50400001928E-02 0. -1.
       -1    1    3    3    0  502  0.41858976351E+03  0.11388822416E+03 -0.17495678053E+04  0.18025469267E+04  0.50400001928E-02 0.  1.
</event>
<event>
 5   0  0.2651061E-05  0.2867276E+04  0.7818609E-02  0.8282681E-01
       -2   -1    0    0    0  501  0.00000000000E+00  0.00000000000E+00  0.11840725457E+04  0.11840725457E+04  0.25500000920E-02 0.  1.
        2   -1    0    0  501    0  0.00000000000E+00  0.00000000000E+00 -0.17358035425E+04  0.17358035425E+04  0.25500000920E-02 0. -1.
    10030    2    1    2    0    0  0.00000000000E+00  0.00000000000E+00 -0.55173099681E+03  0.29198760883E+04  0.28672755846E+04 0.  0.
        3    1    3    3  502    0 -0.27937459273E+03  0.61654858531E+03 -0.15628277150E+04  0.17031185508E+04  0.10100000352E+00 0. -1.
       -3    1    3    3    0  502  0.27937459273E+03 -0.61654858531E+03  0.10110967182E+04  0.12167575374E+04  0.10100000352E+00 0.  1.
</event>
<event>
 5   0  0.8958000E-06  0.2647472E+04  0.7818609E-02  0.8352252E-01
        3   -1    0    0  501    0  0.00000000000E+00  0.00000000000E+00  0.75737827719E+03  0.75737828392E+03  0.10100000352E+00 0. -1.
       -3   -1    0    0    0  501  0.00000000000E+00  0.00000000000E+00 -0.23136088872E+04  0.23136088894E+04  0.10100000352E+00 0.  1.
    10030    2    1    2    0    0  0.00000000000E+00  0.00000000000E+00 -0.15562306100E+04  0.30709871733E+04  0.26474720975E+04 0.  0.
        2    1    3    3  502    0 -0.77499389657E+03  0.10788497434E+03  0.46040550160E+03  0.90786999802E+03  0.25500000920E-02 0. -1.
       -2    1    3    3    0  502  0.77499389657E+03 -0.10788497434E+03 -0.20166361116E+04  0.21631171753E+04  0.25500000920E-02 0.  1.
</event>
<event>
 5   0  0.1067434E-05  0.2748072E+04  0.7818609E-02  0.8319574E-01
        1   -1    0    0  501    0  0.00000000000E+00  0.00000000000E+00  0.11123332596E+04  0.11123332596E+04  0.50400001928E-02 0.  1.
       -1   -1    0    0    0  501  0.00000000000E+00  0.00000000000E+00 -0.16973107861E+04  0.16973107861E+04  0.50400001928E-02 0. -1.
    10030    2    1    2    0    0  0.00000000000E+00  0.00000000000E+00 -0.58497752650E+03  0.28096440458E+04  0.27480722257E+04 0.  0.
        4    1    3    3  502    0  0.40155689608E+03 -0.82808344491E+03 -0.13356447463E+04  0.16220106763E+04  0.12699999809E+01 0. -1.
       -4    1    3    3    0  502 -0.40155689608E+03  0.82808344491E+03  0.75066721985E+03  0.11876333695E+04  0.12699999809E+01 0.  1.
</event>
<event>
 5   0  0.1075146E-05  0.2723053E+04  0.7818609E-02  0.8327564E-01
       -1   -1    0    0    0  501  0.00000000000E+00  0.00000000000E+00  0.13466839885E+04  0.13466839885E+04  0.50400001928E-02 0.  1.
        1   -1    0    0  501    0  0.00000000000E+00  0.00000000000E+00 -0.13765329214E+04  0.13765329214E+04  0.50400001928E-02 0. -1.
    10030    2    1    2    0    0  0.00000000000E+00  0.00000000000E+00 -0.29848932957E+02  0.27232169099E+04  0.27230533193E+04 0.  0.
        2    1    3    3  502    0 -0.99844332840E+03  0.92504913800E+03  0.18987114145E+02  0.13612367532E+04  0.25500000920E-02 0.  1.
       -2    1    3    3    0  502  0.99844332840E+03 -0.92504913800E+03 -0.48836047101E+02  0.13619801567E+04  0.25500000920E-02 0. -1.
</event>
<event>
 5   0  0.2624815E-05  0.2917087E+04  0.7818609E-02  0.8267812E-01
       -2   -1    0    0    0  501  0.00000000000E+00  0.00000000000E+00  0.11001834340E+04  0.11001834340E+04  0.25500000920E-02 0. -1.
        2   -1    0    0  501    0  0.00000000000E+00  0.00000000000E+00 -0.19336318419E+04  0.19336318419E+04  0.25500000920E-02 0.  1.
    10030    2    1    2    0    0  0.00000000000E+00  0.00000000000E+00 -0.83344840792E+03  0.30338152759E+04  0.29170873966E+04 0.  0.
        4    1    3    3  502    0 -0.55851772380E+03  0.46956386779E+03  0.89671077353E+03  0.11560813544E+04  0.12699999809E+01 0. -1.
       -4    1    3    3    0  502  0.55851772380E+03 -0.46956386779E+03 -0.17301591815E+04  0.18777339215E+04  0.12699999809E+01 0.  1.
</event>
<event>
 5   0  0.2697964E-05  0.2813889E+04  0.7818609E-02  0.8298969E-01
       -2   -1    0    0    0  501  0.00000000000E+00  0.00000000000E+00  0.95011401536E+03  0.95011401536E+03  0.25500000920E-02 0.  1.
        2   -1    0    0  501    0  0.00000000000E+00  0.00000000000E+00 -0.20834265419E+04  0.20834265419E+04  0.25500000920E-02 0. -1.
    10030    2    1    2    0    0  0.00000000000E+00  0.00000000000E+00 -0.11333125265E+04  0.30335405572E+04  0.28138889512E+04 0.  0.
        1    1    3    3  502    0  0.11730254105E+04  0.66831057085E+03 -0.13967772023E+03  0.13572536603E+04  0.50400001928E-02 0.  1.
       -1    1    3    3    0  502 -0.11730254105E+04 -0.66831057085E+03 -0.99363480629E+03  0.16762868970E+04  0.50400001928E-02 0. -1.
</event>
<event>
 5   0  0.1078103E-05  0.2646674E+04  0.7818609E-02  0.8352518E-01
       -1   -1    0    0    0  501  0.00000000000E+00  0.00000000000E+00  0.11544343742E+04  0.11544343742E+04  0.50400001928E-02 0. -1.
        1   -1    0    0  501    0  0.00000000000E+00  0.00000000000E+00 -0.15169511556E+04  0.15169511556E+04  0.50400001928E-02 0.  1.
    10030    2    1    2    0    0  0.00000000000E+00  0.00000000000E+00 -0.36251678145E+03  0.26713855298E+04  0.26466738053E+04 0.  0.
        1    1    3    3  502    0  0.19340472359E+03  0.16129039826E+03  0.11300254694E+04  0.11577467518E+04  0.50400001928E-02 0. -1.
       -1    1    3    3    0  502 -0.19340472359E+03 -0.16129039826E+03 -0.14925422509E+04  0.15136387780E+04  0.50400001928E-02 0.  1.
</event>
<event>
 5   0  0.2518686E-05  0.2827855E+04  0.7818609E-02  0.8294672E-01
        2   -1    0    0  501    0  0.00000000000E+00  0.00000000000E+00  0.16375214372E+04  0.16375214372E+04  0.25500000920E-02 0.  1.
       -2   -1    0    0    0  501  0.00000000000E+00  0.00000000000E+00 -0.12208637525E+04  0.12208637525E+04  0.25500000920E-02 0. -1.
    10030    2    1    2    0    0  0.00000000000E+00  0.00000000000E+00  0.41665768468E+03  0.28583851897E+04  0.28278547109E+04 0.  0.
        5    1    3    3  502    0 -0.12193207739E+04 -0.70245142829E+03  0.34761099500E+03  0.14494953096E+04  0.46999998093E+01 0. -1.
       -5    1    3    3    0  502  0.12193207739E+04  0.70245142829E+03  0.69046689683E+02  0.14088898800E+04  0.46999998093E+01 0.  1.
</event>
<event>
 5   0  0.1067434E-05  0.2477634E+04  0.7818609E-02  0.8410997E-01
        1   -1    0    0  501    0  0.00000000000E+00  0.00000000000E+00  0.12522972230E+04  0.12522972230E+04  0.50400001928E-02 0.  1.
       -1   -1    0    0    0  501  0.00000000000E+00  0.00000000000E+00 -0.12254818788E+04  0.12254818789E+04  0.50400001928E-02 0. -1.
    10030    2    1    2    0    0  0.00000000000E+00  0.00000000000E+00  0.26815344114E+02  0.24777791018E+04  0.24776339953E+04 0.  0.
        4    1    3    3  502    0  0.11092362541E+04 -0.52448454239E+03  0.18422996538E+03  0.12407382462E+04  0.12699999809E+01 0.  1.
       -4    1    3    3    0  502 -0.11092362541E+04  0.52448454239E+03 -0.15741462127E+03  0.12370408556E+04  0.12699999809E+01 0. -1.
</event>
<event>
 5   0  0.1105862E-05  0.2839423E+04  0.7818609E-02  0.8291133E-01
        1   -1    0    0  501    0  0.00000000000E+00  0.00000000000E+00  0.17870564186E+04  0.17870564186E+04  0.50400001928E-02 0. -1.
       -1   -1    0    0    0  501  0.00000000000E+00  0.00000000000E+00 -0.11278774514E+04  0.11278774514E+04  0.50400001928E-02 0.  1.
    10030    2    1    2    0    0  0.00000000000E+00  0.00000000000E+00  0.65917896717E+03  0.29149338700E+04  0.28394229266E+04 0.  0.
        3    1    3    3  502    0 -0.13899083715E+04 -0.25494232421E+03  0.47012322943E+03  0.14892470349E+04  0.10100000352E+00 0. -1.
       -3    1    3    3    0  502  0.13899083715E+04  0.25494232421E+03  0.18905573774E+03  0.14256868352E+04  0.10100000352E+00 0.  1.
</event>
<event>
 5   0  0.1075146E-05  0.1521724E+04  0.7818609E-02  0.8870134E-01
       -1   -1    0    0    0  501  0.00000000000E+00  0.00000000000E+00  0.35521023731E+03  0.35521023734E+03  0.50400001928E-02 0. -1.
        1   -1    0    0  501    0  0.00000000000E+00  0.00000000000E+00 -0.16297703210E+04  0.16297703210E+04  0.50400001928E-02 0.  1.
    10030    2    1    2    0    0  0.00000000000E+00  0.00000000000E+00 -0.12745600837E+04  0.19849805583E+04  0.15217241570E+04 0.  0.
        2    1    3    3  502    0  0.63506506132E+03  0.12935856435E+03 -0.11735463426E+03  0.65864510965E+03  0.25500000920E-02 0. -1.
       -2    1    3    3    0  502 -0.63506506132E+03 -0.12935856435E+03 -0.11572054494E+04  0.13263354487E+04  0.25500000920E-02 0.  1.
</event>
<event>
 5   0  0.2624815E-05  0.2838436E+04  0.7818609E-02  0.8291434E-01
       -2   -1    0    0    0  501  0.00000000000E+00  0.00000000000E+00  0.15342040729E+04  0.15342040729E+04  0.25500000920E-02 0. -1.
        2   -1    0    0  501    0  0.00000000000E+00  0.00000000000E+00 -0.13128499176E+04  0.13128499176E+04  0.25500000920E-02 0.  1.
    10030    2    1    2    0    0  0.00000000000E+00  0.00000000000E+00  0.22135415532E+03  0.28470539905E+04  0.28384359712E+04 0.  0.
        4    1    3    3  502    0 -0.68027674791E+03 -0.47718296287E+03 -0.10433368881E+04  0.13338041493E+04  0.12699999809E+01 0.  1.
       -4    1    3    3    0  502  0.68027674791E+03  0.47718296287E+03  0.12646910434E+04  0.15132498412E+04  0.12699999809E+01 0. -1.
</event>
<event>
 5   0  0.1078103E-05  0.2749526E+04  0.7818609E-02  0.8319112E-01
        1   -1    0    0  501    0  0.00000000000E+00  0.00000000000E+00  0.57615372220E+03  0.57615372222E+03  0.50400001928E-02 0. -1.
       -1   -1    0    0    0  501  0.00000000000E+00  0.00000000000E+00 -0.32803284387E+04  0.32803284388E+04  0.50400001928E-02 0.  1.
    10030    2    1    2    0    0  0.00000000000E+00  0.00000000000E+00 -0.27041747166E+04  0.38564821610E+04  0.27495260974E+04 0.  0.
        1    1    3    3  502    0 -0.69942303096E+03 -0.11583005489E+04 -0.16931257504E+04  0.21673780345E+04  0.50400001928E-02 0.  1.
       -1    1    3    3    0  502  0.69942303096E+03  0.11583005489E+04 -0.10110489662E+04  0.16891041264E+04  0.50400001928E-02 0. -1.
</event>
<event>
 5   0  0.1105862E-05  0.2872405E+04  0.7818609E-02  0.8281135E-01
       -1   -1    0    0    0  501  0.00000000000E+00  0.00000000000E+00  0.72797998797E+03  0.72797998799E+03  0.50400001928E-02 0. -1.
        1   -1    0    0  501    0  0.00000000000E+00  0.00000000000E+00 -0.28334258411E+04  0.28334258411E+04  0.50400001928E-02 0.  1.
    10030    2    1    2    0    0  0.00000000000E+00  0.00000000000E+00 -0.21054458531E+04  0.35614058291E+04  0.28724047833E+04 0.  0.
        3    1    3    3  502    0 -0.13629737313E+04  0.82183514147E+02 -0.50070155908E+03  0.14543567595E+04  0.10100000352E+00 0. -1.
       -3    1    3    3    0  502  0.13629737313E+04 -0.82183514147E+02 -0.16047442940E+04  0.21070490696E+04  0.10100000352E+00 0.  1.
</event>
<event>
 5   0  0.2588048E-05  0.2808435E+04  0.7818609E-02  0.8300654E-01
       -2   -1    0    0    0  501  0.00000000000E+00  0.00000000000E+00  0.88199286470E+03  0.88199286470E+03  0.25500000920E-02 0. -1.
        2   -1    0    0  501    0  0.00000000000E+00  0.00000000000E+00 -0.22356490554E+04  0.22356490554E+04  0.25500000920E-02 0.  1.
    10030    2    1    2    0    0  0.00000000000E+00  0.00000000000E+00 -0.13536561907E+04  0.31176419201E+04  0.28084348060E+04 0.  0.
        2    1    3    3  502    0  0.12166446840E+04 -0.52934729261E+03 -0.11872248174E+04  0.17804312990E+04  0.25500000920E-02 0.  1.
       -2    1    3    3    0  502 -0.12166446840E+04  0.52934729261E+03 -0.16643137328E+03  0.13372106211E+04  0.25500000920E-02 0. -1.
</event>
<event>
 5   0  0.2624815E-05  0.2794767E+04  0.7818609E-02  0.8304895E-01
       -2   -1    0    0    0  501  0.00000000000E+00  0.00000000000E+00  0.14616152492E+04  0.14616152492E+04  0.25500000920E-02 0. -1.
        2   -1    0    0  501    0  0.00000000000E+00  0.00000000000E+00 -0.13359744250E+04  0.13359744250E+04  0.25500000920E-02 0.  1.
    10030    2    1    2    0    0  0.00000000000E+00  0.00000000000E+00  0.12564082420E+03  0.27975896742E+04  0.27947669614E+04 0.  0.
        4    1    3    3  502    0  0.61735855853E+03 -0.25309305958E+03  0.12918598585E+04  0.14539914696E+04  0.12699999809E+01 0. -1.
       -4    1    3    3    0  502 -0.61735855853E+03  0.25309305958E+03 -0.11662190343E+04  0.13435982046E+04  0.12699999809E+01 0.  1.
</event>
<event>
 5   0  0.1017456E-05  0.2802577E+04  0.7818609E-02  0.8302469E-01
        1   -1    0    0  501    0  0.00000000000E+00  0.00000000000E+00  0.18070827260E+04  0.18070827260E+04  0.50400001928E-02 0. -1.
       -1   -1    0    0    0  501  0.00000000000E+00  0.00000000000E+00 -0.10866180980E+04  0.10866180980E+04  0.50400001928E-02 0.  1.
    10030    2    1    2    0    0  0.00000000000E+00  0.00000000000E+00  0.72046462799E+03  0.28937008240E+04  0.28025765251E+04 0.  0.
        5    1    3    3  502    0  0.46237981890E+02  0.33975458356E+03 -0.10426260592E+04  0.10975710990E+04  0.46999998093E+01 0.  1.
       -5    1    3    3    0  502 -0.46237981890E+02 -0.33975458356E+03  0.17630906872E+04  0.17961297251E+04  0.46999998093E+01 0. -1.
</event>
<event>
 5   0  0.2624815E-05  0.1415832E+04  0.7818609E-02  0.8942437E-01
        2   -1    0    0  501    0  0.00000000000E+00  0.00000000000E+00  0.16752809260E+04  0.16752809260E+04  0.25500000920E-02 0.  1.
       -2   -1    0    0    0  501  0.00000000000E+00  0.00000000000E+00 -0.29914102391E+03  0.29914102392E+03  0.25500000920E-02 0. -1.
    10030    2    1    2    0    0  0.00000000000E+00  0.00000000000E+00  0.13761399021E+04  0.19744219500E+04  0.14158322663E+04 0.  0.
        4    1    3    3  502    0 -0.50606683918E+03  0.31412518290E+03  0.12215857949E+04  0.13590628181E+04  0.12699999809E+01 0.  1.
       -4    1    3    3    0  502  0.50606683918E+03 -0.31412518290E+03  0.15455410724E+03  0.61535913190E+03  0.12699999809E+01 0. -1.
</event>
<event>
 5   0  0.1075146E-05  0.2771774E+04  0.7818609E-02  0.8312085E-01
       -1   -1    0    0    0  501  0.00000000000E+00  0.00000000000E+00  0.13635719023E+04  0.13635719023E+04  0.50400001928E-02 0. -1.
        1   -1    0    0  501    0  0.00000000000E+00  0.00000000000E+00 -0.14085671229E+04  0.14085671229E+04  0.50400001928E-02 0.  1.
    10030    2    1    2    0    0  0.00000000000E+00  0.00000000000E+00 -0.44995220588E+02  0.27721390252E+04  0.27717738373E+04 0.  0.
        2    1    3    3  502    0 -0.56873178067E+03 -0.12517437569E+04 -0.19677406251E+03  0.13888982335E+04  0.25500000920E-02 0. -1.
       -2    1    3    3    0  502  0.56873178067E+03  0.12517437569E+04  0.15177884192E+03  0.13832407918E+04  0.25500000920E-02 0.  1.
</event>
<event>
 5   0  0.2518686E-05  0.2807331E+04  0.7818609E-02  0.8300996E-01
        2   -1    0    0  501    0  0.00000000000E+00  0.00000000000E+00  0.10747631805E+04  0.10747631805E+04  0.25500000920E-02 0. -1.
       -2   -1    0    0    0  501  0.00000000000E+00  0.00000000000E+00 -0.18332196698E+04  0.18332196698E+04  0.25500000920E-02 0.  1.
    10030    2    1    2    0    0  0.00000000000E+00  0.00000000000E+00 -0.75845648930E+03  0.29079828504E+04  0.28073311190E+04 0.  0.
        5    1    3    3  502    0 -0.22408409238E+03  0.59870270013E+02  0.10547670169E+04  0.10799785552E+04  0.46999998093E+01 0. -1.
       -5    1    3    3    0  502  0.22408409238E+03 -0.59870270013E+02 -0.18132235062E+04  0.18280042952E+04  0.46999998093E+01 0.  1.
</event>
<event>
 5   0  0.1067434E-05  0.1445024E+04  0.7818609E-02  0.8921858E-01
        1   -1    0    0  501    0  0.00000000000E+00  0.00000000000E+00  0.21073098935E+04  0.21073098935E+04  0.50400001928E-02 0. -1.
       -1   -1    0    0    0  501  0.00000000000E+00  0.00000000000E+00 -0.24772023926E+03  0.24772023931E+03  0.50400001928E-02 0.  1.
    10030    2    1    2    0    0  0.00000000000E+00  0.00000000000E+00  0.18595896543E+04  0.23550301328E+04  0.14450236138E+04 0.  0.
        4    1    3    3  502    0  0.40033900915E+03 -0.31480815485E+03  0.94562901368E+02  0.51799541679E+03  0.12699999809E+01 0.  1.
       -4    1    3    3    0  502 -0.40033900915E+03  0.31480815485E+03  0.17650267529E+04  0.18370347161E+04  0.12699999809E+01 0. -1.
</event>
<event>
 5   0  0.2651061E-05  0.2811013E+04  0.7818609E-02  0.8299857E-01
       -2   -1    0    0    0  501  0.00000000000E+00  0.00000000000E+00  0.13462112889E+04  0.13462112889E+04  0.25500000920E-02 0. -1.
        2   -1    0    0  501    0  0.00000000000E+00  0.00000000000E+00 -0.14674131734E+04  0.14674131734E+04  0.25500000920E-02 0.  1.
    10030    2    1    2    0    0  0.00000000000E+00  0.00000000000E+00 -0.12120188442E+03  0.28136244623E+04  0.28110127567E+04 0.  0.
        3    1    3    3  502    0 -0.10638584286E+04  0.89622211126E+03 -0.26188313136E+03  0.14154828199E+04  0.10100000352E+00 0.  1.
       -3    1    3    3    0  502  0.10638584286E+04 -0.89622211126E+03  0.14068124695E+03  0.13981416424E+04  0.10100000352E+00 0. -1.
</event>
<event>
 5   0  0.8958000E-06  0.2159914E+04  0.7818609E-02  0.8535300E-01
       -4   -1    0    0    0  501  0.00000000000E+00  0.00000000000E+00  0.10026759244E+04  0.10026767287E+04  0.12699999809E+01 0. -1.
        4   -1    0    0  501    0  0.00000000000E+00  0.00000000000E+00 -0.11631929981E+04  0.11631936914E+04  0.12699999809E+01 0.  1.
    10030    2    1    2    0    0  0.00000000000E+00  0.00000000000E+00 -0.16051707366E+03  0.21658704201E+04  0.21599141061E+04 0.  0.
        4    1    3    3  502    0 -0.10370361687E+02 -0.12339364561E+03 -0.11560507217E+04  0.11626643627E+04  0.12699999809E+01 0.  1.
       -4    1    3    3    0  502  0.10370361687E+02  0.12339364561E+03  0.99553364809E+03  0.10032060574E+04  0.12699999809E+01 0. -1.
</event>
<event>
 5   0  0.2588048E-05  0.2911212E+04  0.7818609E-02  0.8269549E-01
       -2   -1    0    0    0  501  0.00000000000E+00  0.00000000000E+00  0.80395137703E+03  0.80395137704E+03  0.25500000920E-02 0. -1.
        2   -1    0    0  501    0  0.00000000000E+00  0.00000000000E+00 -0.26354686927E+04  0.26354686927E+04  0.25500000920E-02 0.  1.
    10030    2    1    2    0    0  0.00000000000E+00  0.00000000000E+00 -0.18315173157E+04  0.34394200698E+04  0.29112119021E+04 0.  0.
        2    1    3    3  502    0 -0.55679118950E+03  0.13397833243E+04 -0.77720801562E+03  0.16459307654E+04  0.25500000920E-02 0. -1.
       -2    1    3    3    0  502  0.55679118950E+03 -0.13397833243E+04 -0.10543093001E+04  0.17934893044E+04  0.25500000920E-02 0.  1.
</event>
<event>
 5   0  0.8958000E-06  0.2710158E+04  0.7818609E-02  0.8331717E-01
        3   -1    0    0  501    0  0.00000000000E+00  0.00000000000E+00  0.20233374661E+04  0.20233374687E+04  0.10100000352E+00 0.  1.
       -3   -1    0    0    0  501  0.00000000000E+00  0.00000000000E+00 -0.90752965149E+03  0.90752965711E+03  0.10100000352E+00 0. -1.
    10030    2    1    2    0    0  0.00000000000E+00  0.00000000000E+00  0.11158078147E+04  0.29308671258E+04  0.27101577500E+04 0.  0.
        1    1    3    3  502    0  0.10316223536E+04 -0.83521498647E+03  0.85290065037E+03  0.15777415103E+04  0.50400001928E-02 0.  1.
       -1    1    3    3    0  502 -0.10316223536E+04  0.83521498647E+03  0.26290716429E+03  0.13531256154E+04  0.50400001928E-02 0. -1.
</event>
<event>
 5   0  0.2624815E-05  0.2882877E+04  0.7818609E-02  0.8277990E-01
        2   -1    0    0  501    0  0.00000000000E+00  0.00000000000E+00  0.18780373919E+04  0.18780373919E+04  0.25500000920E-02 0.  1.
       -2   -1    0    0    0  501  0.00000000000E+00  0.00000000000E+00 -0.11063387983E+04  0.11063387983E+04  0.25500000920E-02 0. -1.
    10030    2    1    2    0    0  0.00000000000E+00  0.00000000000E+00  0.77169859366E+03  0.29843761902E+04  0.28828774731E+04 0.  0.
        4    1    3    3  502    0  0.97181786615E+03  0.15276790837E+03  0.14764962237E+04  0.17742070652E+04  0.12699999809E+01 0. -1.
       -4    1    3    3    0  502 -0.97181786615E+03 -0.15276790837E+03 -0.70479763003E+03  0.12101691250E+04  0.12699999809E+01 0.  1.
</event>
<event>
 5   0  0.2518686E-05  0.2752718E+04  0.7818609E-02  0.8318100E-01
        2   -1    0    0  501    0  0.00000000000E+00  0.00000000000E+00  0.16437206657E+04  0.16437206657E+04  0.25500000920E-02 0.  1.
       -2   -1    0    0    0  501  0.00000000000E+00  0.00000000000E+00 -0.11524850972E+04  0.11524850972E+04  0.25500000920E-02 0. -1.
    10030    2    1    2    0    0  0.00000000000E+00  0.00000000000E+00  0.49123556847E+03  0.27962057629E+04  0.27527176181E+04 0.  0.
        5    1    3    3  502    0 -0.13733631534E+03 -0.92367567160E+03  0.12726814883E+04  0.15785367498E+04  0.46999998093E+01 0.  1.
       -5    1    3    3    0  502  0.13733631534E+03  0.92367567160E+03 -0.78144591984E+03  0.12176690131E+04  0.46999998093E+01 0. -1.
</event>
<event>
 5   0  0.1067434E-05  0.2803761E+04  0.7818609E-02  0.8302102E-01
       -1   -1    0    0    0  501  0.00000000000E+00  0.00000000000E+00  0.14998841975E+04  0.14998841975E+04  0.50400001928E-02 0. -1.
        1   -1    0    0  501    0  0.00000000000E+00  0.00000000000E+00 -0.13102804476E+04  0.13102804476E+04  0.50400001928E-02 0.  1.
    10030    2    1    2    0    0  0.00000000000E+00  0.00000000000E+00  0.18960374990E+03  0.28101646450E+04  0.28037610009E+04 0.  0.
        4    1    3    3  502    0 -0.63478580486E+00 -0.31598501020E+03  0.14637252373E+04  0.14974445274E+04  0.12699999809E+01 0. -1.
       -4    1    3    3    0  502  0.63478580486E+00  0.31598501020E+03 -0.12741214874E+04  0.13127201176E+04  0.12699999809E+01 0.  1.
</event>
<event>
 5   0  0.8958000E-06  0.1414340E+04  0.7818609E-02  0.8943503E-01
       -4   -1    0    0    0  501  0.00000000000E+00  0.00000000000E+00  0.98399679123E+03  0.98399761079E+03  0.12699999809E+01 0. -1.
        4   -1    0    0  501    0  0.00000000000E+00  0.00000000000E+00 -0.50822113121E+03  0.50822271801E+03  0.12699999809E+01 0.  1.
    10030    2    1    2    0    0  0.00000000000E+00  0.00000000000E+00  0.47577566002E+03  0.14922203288E+04  0.14143404933E+04 0.  0.
        5    1    3    3  502    0 -0.16253597492E+02 -0.44596897602E+03 -0.34087550569E+03  0.56157876329E+03  0.46999998093E+01 0.  1.
       -5    1    3    3    0  502  0.16253597492E+02  0.44596897602E+03  0.81665116571E+03  0.93064156551E+03  0.46999998093E+01 0. -1.
</event>
<event>
 5   0  0.2518686E-05  0.2928075E+04  0.7818609E-02  0.8264573E-01
       -2   -1    0    0    0  501  0.00000000000E+00  0.00000000000E+00  0.24070079003E+04  0.24070079003E+04  0.25500000920E-02 0.  1.
        2   -1    0    0  501    0  0.00000000000E+00  0.00000000000E+00 -0.89048583546E+03  0.89048583547E+03  0.25500000920E-02 0. -1.
    10030    2    1    2    0    0  0.00000000000E+00  0.00000000000E+00  0.15165220649E+04  0.32974937358E+04  0.29280754369E+04 0.  0.
        5    1    3    3  502    0 -0.53567563636E+03 -0.69053784148E+03 -0.56448747509E+03  0.10404129456E+04  0.46999998093E+01 0. -1.
       -5    1    3    3    0  502  0.53567563636E+03  0.69053784148E+03  0.20810095400E+04  0.22570807902E+04  0.46999998093E+01 0.  1.
</event>
<event>
 5   0  0.1105862E-05  0.1391047E+04  0.7818609E-02  0.8960325E-01
       -1   -1    0    0    0  501  0.00000000000E+00  0.00000000000E+00  0.52259747742E+03  0.52259747744E+03  0.50400001928E-02 0.  1.
        1   -1    0    0  501    0  0.00000000000E+00  0.00000000000E+00 -0.92567075698E+03  0.92567075699E+03  0.50400001928E-02 0. -1.
    10030    2    1    2    0    0  0.00000000000E+00  0.00000000000E+00 -0.40307327956E+03  0.14482682344E+04  0.13910473788E+04 0.  0.
        3    1    3    3  502    0 -0.18210850095E+03 -0.15170700773E+03 -0.88232648259E+03  0.91360743998E+03  0.10100000352E+00 0. -1.
       -3    1    3    3    0  502  0.18210850095E+03  0.15170700773E+03  0.47925320303E+03  0.53466079445E+03  0.10100000352E+00 0.  1.
</event>
<event>
 5   0  0.2697964E-05  0.2763910E+04  0.7818609E-02  0.8314561E-01
        2   -1    0    0  501    0  0.00000000000E+00  0.00000000000E+00  0.94391660642E+03  0.94391660642E+03  0.25500000920E-02 0.  1.
       -2   -1    0    0    0  501  0.00000000000E+00  0.00000000000E+00 -0.20232718745E+04  0.20232718745E+04  0.25500000920E-02 0. -1.
    10030    2    1    2    0    0  0.00000000000E+00  0.00000000000E+00 -0.10793552681E+04  0.29671884809E+04  0.27639102168E+04 0.  0.
        1    1    3    3  502    0 -0.81291771505E+03  0.59222922328E+03  0.47777640813E+03  0.11134814595E+04  0.50400001928E-02 0.  1.
       -1    1    3    3    0  502  0.81291771505E+03 -0.59222922328E+03 -0.15571316762E+04  0.18537070215E+04  0.50400001928E-02 0. -1.
</event>
<event>
 5   0  0.1078103E-05  0.1900328E+04  0.7818609E-02  0.8654693E-01
       -1   -1    0    0    0  501  0.00000000000E+00  0.00000000000E+00  0.88755252084E+03  0.88755252086E+03  0.50400001928E-02 0. -1.
        1   -1    0    0  501    0  0.00000000000E+00  0.00000000000E+00 -0.10171924026E+04  0.10171924027E+04  0.50400001928E-02 0.  1.
    10030    2    1    2    0    0  0.00000000000E+00  0.00000000000E+00 -0.12963988180E+03  0.19047449235E+04  0.19003280571E+04 0.  0.
        1    1    3    3  502    0 -0.44629018122E+02 -0.71569547672E+03 -0.68964666434E+03  0.99489913374E+03  0.50400001928E-02 0.  1.
       -1    1    3    3    0  502  0.44629018122E+02  0.71569547672E+03  0.56000678254E+03  0.90984578977E+03  0.50400001928E-02 0. -1.
</event>
<event>
 5   0  0.2697964E-05  0.2790519E+04  0.7818609E-02  0.8306218E-01
       -2   -1    0    0    0  501  0.00000000000E+00  0.00000000000E+00  0.15494866007E+04  0.15494866007E+04  0.25500000920E-02 0.  1.
        2   -1    0    0  501    0  0.00000000000E+00  0.00000000000E+00 -0.12563833017E+04  0.12563833017E+04  0.25500000920E-02 0. -1.
    10030    2    1    2    0    0  0.00000000000E+00  0.00000000000E+00  0.29310329904E+03  0.28058699024E+04  0.27905190136E+04 0.  0.
        1    1    3    3  502    0 -0.23247735129E+03  0.34307588607E+03 -0.11930695318E+04  0.12629971061E+04  0.50400001928E-02 0. -1.
       -1    1    3    3    0  502  0.23247735129E+03 -0.34307588607E+03  0.14861728308E+04  0.15428727963E+04  0.50400001928E-02 0.  1.
</event>
<event>
 5   0  0.2697964E-05  0.2780314E+04  0.7818609E-02  0.8309406E-01
        2   -1    0    0  501    0  0.00000000000E+00  0.00000000000E+00  0.19162340559E+04  0.19162340559E+04  0.25500000920E-02 0.  1.
       -2   -1    0    0    0  501  0.00000000000E+00  0.00000000000E+00 -0.10085078790E+04  0.10085078790E+04  0.25500000920E-02 0. -1.
    10030    2    1    2    0    0  0.00000000000E+00  0.00000000000E+00  0.90772617691E+03  0.29247419349E+04  0.27803144738E+04 0.  0.
        1    1    3    3  502    0  0.90056213507E+03 -0.98572145574E+03  0.86111474530E+03  0.15887660470E+04  0.50400001928E-02 0.  1.
       -1    1    3    3    0  502 -0.90056213507E+03  0.98572145574E+03  0.46611431610E+02  0.13359758879E+04  0.50400001928E-02 0. -1.
</event>
<event>
 5   0  0.2518686E-05  0.2832696E+04  0.7818609E-02  0.8293189E-01
        2   -1    0    0  501    0  0.00000000000E+00  0.00000000000E+00  0.69950785552E+03  0.69950785553E+03  0.25500000920E-02 0. -1.
       -2   -1    0    0    0  501  0.00000000000E+00  0.00000000000E+00 -0.28677895024E+04  0.28677895024E+04  0.25500000920E-02 0.  1.
    10030    2    1    2    0    0  0.00000000000E+00  0.00000000000E+00 -0.21682816469E+04  0.35672973579E+04  0.28326957372E+04 0.  0.
        5    1    3    3  502    0  0.39611961197E+03 -0.43904402415E+03 -0.27048880269E+04  0.27687744095E+04  0.46999998093E+01 0.  1.
       -5    1    3    3    0  502 -0.39611961197E+03  0.43904402415E+03  0.53660638006E+03  0.79852294848E+03  0.46999998093E+01 0. -1.
</event>
<event>
 5   0  0.2651061E-05  0.2235054E+04  0.7818609E-02  0.8503978E-01
        2   -1    0    0  501    0  0.00000000000E+00  0.00000000000E+00  0.93418553825E+03  0.93418553825E+03  0.25500000920E-02 0.  1.
       -2   -1    0    0    0  501  0.00000000000E+00  0.00000000000E+00 -0.13368512062E+04  0.13368512062E+04  0.25500000920E-02 0. -1.
    10030    2    1    2    0    0  0.00000000000E+00  0.00000000000E+00 -0.40266566790E+03  0.22710367444E+04  0.22350544187E+04 0.  0.
        3    1    3    3  502    0  0.46637693686E+03 -0.75095266222E+03 -0.89602789856E+03  0.12586911271E+04  0.10100000352E+00 0. -1.
       -3    1    3    3    0  502 -0.46637693686E+03  0.75095266222E+03  0.49336223066E+03  0.10123456174E+04  0.10100000352E+00 0.  1.
</event>
<event>
 5   0  0.1075146E-05  0.2790667E+04  0.7818609E-02  0.8306172E-01
       -1   -1    0    0    0  501  0.00000000000E+00  0.00000000000E+00  0.78554930195E+03  0.78554930196E+03  0.50400001928E-02 0. -1.
        1   -1    0    0  501    0  0.00000000000E+00  0.00000000000E+00 -0.24784647327E+04  0.24784647327E+04  0.50400001928E-02 0.  1.
    10030    2    1    2    0    0  0.00000000000E+00  0.00000000000E+00 -0.16929154308E+04  0.32640140347E+04  0.27906674762E+04 0.  0.
        2    1    3    3  502    0  0.68549239152E+03  0.89793260769E+03  0.11146806180E+03  0.11351686727E+04  0.25500000920E-02 0. -1.
       -2    1    3    3    0  502 -0.68549239152E+03 -0.89793260769E+03 -0.18043834926E+04  0.21288453619E+04  0.25500000920E-02 0.  1.
</event>
<event>
 5   0  0.1105862E-05  0.2153299E+04  0.7818609E-02  0.8538121E-01
       -1   -1    0    0    0  501  0.00000000000E+00  0.00000000000E+00  0.10448816609E+04  0.10448816609E+04  0.50400001928E-02 0.  1.
        1   -1    0    0  501    0  0.00000000000E+00  0.00000000000E+00 -0.11093835510E+04  0.11093835510E+04  0.50400001928E-02 0. -1.
    10030    2    1    2    0    0  0.00000000000E+00  0.00000000000E+00 -0.64501890133E+02  0.21542652119E+04  0.21532993543E+04 0.  0.
        3    1    3    3  502    0  0.25396180163E+03 -0.32346122649E+03 -0.10277101982E+04  0.11069381299E+04  0.10100000352E+00 0. -1.
       -3    1    3    3    0  502 -0.25396180163E+03  0.32346122649E+03  0.96320830806E+03  0.10473270820E+04  0.10100000352E+00 0.  1.
</event>
<event>
 5   0  0.8958000E-06  0.2834624E+04  0.7818609E-02  0.8292599E-01
        3   -1    0    0  501    0  0.00000000000E+00  0.00000000000E+00  0.11854717939E+04  0.11854717982E+04  0.10100000352E+00 0. -1.
       -3   -1    0    0    0  501  0.00000000000E+00  0.00000000000E+00 -0.16944930474E+04  0.16944930504E+04  0.10100000352E+00 0.  1.
    10030    2    1    2    0    0  0.00000000000E+00  0.00000000000E+00 -0.50902125348E+03  0.28799648487E+04  0.28346242949E+04 0.  0.
        3    1    3    3  502    0  0.13462161862E+04  0.44553912335E+02 -0.70257564314E+03  0.15191759660E+04  0.10100000352E+00 0.  1.
       -3    1    3    3    0  502 -0.13462161862E+04 -0.44553912335E+02  0.19355438966E+03  0.13607888827E+04  0.10100000352E+00 0. -1.
</event>
<event>
 5   0  0.1075146E-05  0.2793386E+04  0.7818609E-02  0.8305325E-01
        1   -1    0    0  501    0  0.00000000000E+00  0.00000000000E+00  0.16124639774E+04  0.16124639774E+04  0.50400001928E-02 0. -1.
       -1   -1    0    0    0  501  0.00000000000E+00  0.00000000000E+00 -0.12097952879E+04  0.12097952880E+04  0.50400001928E-02 0.  1.
    10030    2    1    2    0    0  0.00000000000E+00  0.00000000000E+00  0.40266868942E+03  0.28222592653E+04  0.27933859897E+04 0.  0.
        2    1    3    3  502    0 -0.55481473120E+03 -0.60656052157E+02 -0.10922326356E+04  0.12265686580E+04  0.25500000920E-02 0.  1.
       -2    1    3    3    0  502  0.55481473120E+03  0.60656052157E+02  0.14949013250E+04  0.15956906073E+04  0.25500000920E-02 0. -1.
</event>
<event>
 5   0  0.1078103E-05  0.2675711E+04  0.7818609E-02  0.8342929E-01
        1   -1    0    0  501    0  0.00000000000E+00  0.00000000000E+00  0.15208311547E+04  0.15208311548E+04  0.50400001928E-02 0.  1.
       -1   -1    0    0    0  501  0.00000000000E+00  0.00000000000E+00 -0.11768938623E+04  0.11768938623E+04  0.50400001928E-02 0. -1.
    10030    2    1    2    0    0  0.00000000000E+00  0.00000000000E+00  0.34393729244E+03  0.26977250171E+04  0.26757106358E+04 0.  0.
        1    1    3    3  502    0 -0.28335317174E+03 -0.11524339964E+04  0.79467765933E+03  0.14282526801E+04  0.50400001928E-02 0.  1.
       -1    1    3    3    0  502  0.28335317174E+03  0.11524339964E+04 -0.45074036689E+03  0.12694723370E+04  0.50400001928E-02 0. -1.
</event>
<event>
 5   0  0.2624815E-05  0.2790955E+04  0.7818609E-02  0.8306082E-01
        2   -1    0    0  501    0  0.00000000000E+00  0.00000000000E+00  0.15941556975E+04  0.15941556975E+04  0.25500000920E-02 0. -1.
       -2   -1    0    0    0  501  0.00000000000E+00  0.00000000000E+00 -0.12215606256E+04  0.12215606256E+04  0.25500000920E-02 0.  1.
    10030    2    1    2    0    0  0.00000000000E+00  0.00000000000E+00  0.37259507186E+03  0.28157163232E+04  0.27909552710E+04 0.  0.
        4    1    3    3  502    0 -0.15532977817E+03  0.70714363075E+03 -0.10172560865E+04  0.12485956163E+04  0.12699999809E+01 0.  1.
       -4    1    3    3    0  502  0.15532977817E+03 -0.70714363075E+03  0.13898511584E+04  0.15671207069E+04  0.12699999809E+01 0. -1.
</event>
<event>
 5   0  0.1105862E-05  0.2797069E+04  0.7818609E-02  0.8304179E-01
       -1   -1    0    0    0  501  0.00000000000E+00  0.00000000000E+00  0.13633535261E+04  0.13633535262E+04  0.50400001928E-02 0. -1.
        1   -1    0    0  501    0  0.00000000000E+00  0.00000000000E+00 -0.14346231449E+04  0.14346231450E+04  0.50400001928E-02 0.  1.
    10030    2    1    2    0    0  0.00000000000E+00  0.00000000000E+00 -0.71269618807E+02  0.27979766711E+04  0.27970688396E+04 0.  0.
        3    1    3    3  502    0 -0.19901073148E+03 -0.97050026465E+03 -0.10230835971E+04  0.14241404747E+04  0.10100000352E+00 0.  1.
       -3    1    3    3    0  502  0.19901073148E+03  0.97050026465E+03  0.95181397831E+03  0.13738361964E+04  0.10100000352E+00 0. -1.
</event>
<event>
 5   0  0.2588048E-05  0.2708253E+04  0.7818609E-02  0.8332332E-01
        2   -1    0    0  501    0  0.00000000000E+00  0.00000000000E+00  0.16166080369E+04  0.16166080369E+04  0.25500000920E-02 0. -1.
       -2   -1    0    0    0  501  0.00000000000E+00  0.00000000000E+00 -0.11342627094E+04  0.11342627094E+04  0.25500000920E-02 0.  1.
    10030    2    1    2    0    0  0.00000000000E+00  0.00000000000E+00  0.48234532745E+03  0.27508707463E+04  0.27082527297E+04 0.  0.
        2    1    3    3  502    0 -0.37057133934E+03 -0.80993157590E+03  0.12771968232E+04  0.15570947307E+04  0.25500000920E-02 0. -1.
       -2    1    3    3    0  502  0.37057133934E+03  0.80993157590E+03 -0.79485149576E+03  0.11937760156E+04  0.25500000920E-02 0.  1.
</event>
<event>
 5   0  0.1017456E-05  0.2782089E+04  0.7818609E-02  0.8308851E-01
        1   -1    0    0  501    0  0.00000000000E+00  0.00000000000E+00  0.28844714222E+04  0.28844714222E+04  0.50400001928E-02 0. -1.
       -1   -1    0    0    0  501  0.00000000000E+00  0.00000000000E+00 -0.67083502260E+03  0.67083502262E+03  0.50400001928E-02 0.  1.
    10030    2    1    2    0    0  0.00000000000E+00  0.00000000000E+00  0.22136363996E+04  0.35553064448E+04  0.27820887489E+04 0.  0.
        5    1    3    3  502    0 -0.15983101117E+03  0.16679973670E+03 -0.64613918276E+03  0.68621136524E+03  0.46999998093E+01 0.  1.
       -5    1    3    3    0  502  0.15983101117E+03 -0.16679973670E+03  0.28597755823E+04  0.28690950796E+04  0.46999998093E+01 0. -1.
</event>
<event>
 5   0  0.2624815E-05  0.2722959E+04  0.7818609E-02  0.8327594E-01
       -2   -1    0    0    0  501  0.00000000000E+00  0.00000000000E+00  0.11546971062E+04  0.11546971062E+04  0.25500000920E-02 0.  1.
        2   -1    0    0  501    0  0.00000000000E+00  0.00000000000E+00 -0.16052920788E+04  0.16052920788E+04  0.25500000920E-02 0. -1.
    10030    2    1    2    0    0  0.00000000000E+00  0.00000000000E+00 -0.45059497254E+03  0.27599891850E+04  0.27229587716E+04 0.  0.
        4    1    3    3  502    0  0.91214771285E+03  0.86541071472E+03  0.30398710899E+03  0.12935837548E+04  0.12699999809E+01 0.  1.
       -4    1    3    3    0  502 -0.91214771285E+03 -0.86541071472E+03 -0.75458208154E+03  0.14664054303E+04  0.12699999809E+01 0. -1.
</event>
<event>
 5   0  0.2697964E-05  0.2593358E+04  0.7818609E-02  0.8370461E-01
        2   -1    0    0  501    0  0.00000000000E+00  0.00000000000E+00  0.25614815475E+04  0.25614815475E+04  0.25500000920E-02 0.  1.
       -2   -1    0    0    0  501  0.00000000000E+00  0.00000000000E+00 -0.65640755290E+03  0.65640755291E+03  0.25500000920E-02 0. -1.
    10030    2    1    2    0    0  0.00000000000E+00  0.00000000000E+00  0.19050739946E+04  0.32178891004E+04  0.25933575414E+04 0.  0.
        1    1    3    3  502    0 -0.20028434860E+03  0.12270457656E+04  0.49558385035E+03  0.13384164090E+04  0.50400001928E-02 0. -1.
       -1    1    3    3    0  502  0.20028434860E+03 -0.12270457656E+04  0.14094901443E+04  0.18794726915E+04  0.50400001928E-02 0.  1.
</event>
<event>
 5   0  0.2697964E-05  0.2628463E+04  0.7818609E-02  0.8358597E-01
       -2   -1    0    0    0  501  0.00000000000E+00  0.00000000000E+00  0.67067061996E+03  0.67067061996E+03  0.25500000920E-02 0. -1.
        2   -1    0    0  501    0  0.00000000000E+00  0.00000000000E+00 -0.25753391227E+04  0.25753391227E+04  0.25500000920E-02 0.  1.
    10030    2    1    2    0    0  0.00000000000E+00  0.00000000000E+00 -0.19046685027E+04  0.32460097427E+04  0.26284628862E+04 0.  0.
        1    1    3    3  502    0 -0.56173544471E+03  0.11090577089E+04 -0.42599717126E+03  0.13141648684E+04  0.50400001928E-02 0. -1.
       -1    1    3    3    0  502  0.56173544471E+03 -0.11090577089E+04 -0.14786713315E+04  0.19318448742E+04  0.50400001928E-02 0.  1.
</event>
<event>
 5   0  0.1067434E-05  0.2778108E+04  0.7818609E-02  0.8310097E-01
        1   -1    0    0  501    0  0.00000000000E+00  0.00000000000E+00  0.16965449168E+04  0.16965449169E+04  0.50400001928E-02 0. -1.
       -1   -1    0    0    0  501  0.00000000000E+00  0.00000000000E+00 -0.11372940163E+04  0.11372940163E+04  0.50400001928E-02 0.  1.
    10030    2    1    2    0    0  0.00000000000E+00  0.00000000000E+00  0.55925090059E+03  0.28338389331E+04  0.27781075445E+04 0.  0.
        4    1    3    3  502    0 -0.76704039274E+03 -0.45862216924E+03 -0.80509004028E+03  0.12028536254E+04  0.12699999809E+01 0.  1.
       -4    1    3    3    0  502  0.76704039274E+03  0.45862216924E+03  0.13643409409E+04  0.16309853077E+04  0.12699999809E+01 0. -1.
</event>
<event>
 5   0  0.2624815E-05  0.2836482E+04  0.7818609E-02  0.8292031E-01
        2   -1    0    0  501    0  0.00000000000E+00  0.00000000000E+00  0.15302501219E+04  0.15302501219E+04  0.25500000920E-02 0. -1.
       -2   -1    0    0    0  501  0.00000000000E+00  0.00000000000E+00 -0.13144301877E+04  0.13144301877E+04  0.25500000920E-02 0.  1.
    10030    2    1    2    0    0  0.00000000000E+00  0.00000000000E+00  0.21581993424E+03  0.28446803096E+04  0.28364815916E+04 0.  0.
        4    1    3    3  502    0 -0.27584819243E+03  0.10276624049E+04 -0.83246929190E+03  0.13509955509E+04  0.12699999809E+01 0.  1.
       -4    1    3    3    0  502  0.27584819243E+03 -0.10276624049E+04  0.10482892261E+04  0.14936847587E+04  0.12699999809E+01 0. -1.
</event>
<event>
 5   0  0.2624815E-05  0.2725668E+04  0.7818609E-02  0.8326724E-01
       -2   -1    0    0    0  501  0.00000000000E+00  0.00000000000E+00  0.85184144472E+03  0.85184144472E+03  0.25500000920E-02 0. -1.
        2   -1    0    0  501    0  0.00000000000E+00  0.00000000000E+00 -0.21803540153E+04  0.21803540153E+04  0.25500000920E-02 0.  1.
    10030    2    1    2    0    0  0.00000000000E+00  0.00000000000E+00 -0.13285125706E+04  0.30321954600E+04  0.27256675618E+04 0.  0.
        4    1    3    3  502    0 -0.98895221869E+03  0.76911634640E+03 -0.12610034386E+04  0.17775538614E+04  0.12699999809E+01 0. -1.
       -4    1    3    3    0  502  0.98895221869E+03 -0.76911634640E+03 -0.67509131989E+02  0.12546415986E+04  0.12699999809E+01 0.  1.
</event>
<event>
 5   0  0.1075146E-05  0.2898596E+04  0.7818609E-02  0.8273295E-01
        1   -1    0    0  501    0  0.00000000000E+00  0.00000000000E+00  0.13603186780E+04  0.13603186780E+04  0.50400001928E-02 0. -1.
       -1   -1    0    0    0  501  0.00000000000E+00  0.00000000000E+00 -0.15440978260E+04  0.15440978260E+04  0.50400001928E-02 0.  1.
    10030    2    1    2    0    0  0.00000000000E+00  0.00000000000E+00 -0.18377914802E+03  0.29044165040E+04  0.28985962902E+04 0.  0.
        2    1    3    3  502    0 -0.10913668139E+04 -0.81398732436E+03 -0.58968508932E+03  0.14837066392E+04  0.25500000920E-02 0.  1.
       -2    1    3    3    0  502  0.10913668139E+04  0.81398732436E+03  0.40590594129E+03  0.14207098648E+04  0.25500000920E-02 0. -1.
</event>
<event>
 5   0  0.2624815E-05  0.1474364E+04  0.7818609E-02  0.8901682E-01
       -2   -1    0    0    0  501  0.00000000000E+00  0.00000000000E+00  0.51948762121E+03  0.51948762122E+03  0.25500000920E-02 0.  1.
        2   -1    0    0  501    0  0.00000000000E+00  0.00000000000E+00 -0.10461024811E+04  0.10461024811E+04  0.25500000920E-02 0. -1.
    10030    2    1    2    0    0  0.00000000000E+00  0.00000000000E+00 -0.52661485989E+03  0.15655901023E+04  0.14743639842E+04 0.  0.
        4    1    3    3  502    0  0.12623876028E+03 -0.62843828556E+02 -0.10316457244E+04  0.10412396866E+04  0.12699999809E+01 0. -1.
       -4    1    3    3    0  502 -0.12623876028E+03  0.62843828556E+02  0.50503086454E+03  0.52435041568E+03  0.12699999809E+01 0.  1.
</event>
<event>
 5   0  0.1017456E-05  0.2880358E+04  0.7818609E-02  0.8278746E-01
        1   -1    0    0  501    0  0.00000000000E+00  0.00000000000E+00  0.18461611526E+04  0.18461611526E+04  0.50400001928E-02 0. -1.
       -1   -1    0    0    0  501  0.00000000000E+00  0.00000000000E+00 -0.11234751054E+04  0.11234751054E+04  0.50400001928E-02 0.  1.
    10030    2    1    2    0    0  0.00000000000E+00  0.00000000000E+00  0.72268604715E+03  0.29696362580E+04  0.28803583774E+04 0.  0.
        5    1    3    3  502    0  0.98676359754E+03  0.29433273915E+03 -0.67672131920E+03  0.12321964099E+04  0.46999998093E+01 0.  1.
       -5    1    3    3    0  502 -0.98676359754E+03 -0.29433273915E+03  0.13994073663E+04  0.17374398481E+04  0.46999998093E+01 0. -1.
</event>
<event>
 5   0  0.1017456E-05  0.2800481E+04  0.7818609E-02  0.8303119E-01
        1   -1    0    0  501    0  0.00000000000E+00  0.00000000000E+00  0.16971568168E+04  0.16971568168E+04  0.50400001928E-02 0. -1.
       -1   -1    0    0    0  501  0.00000000000E+00  0.00000000000E+00 -0.11552691087E+04  0.11552691087E+04  0.50400001928E-02 0.  1.
    10030    2    1    2    0    0  0.00000000000E+00  0.00000000000E+00  0.54188770807E+03  0.28524259255E+04  0.28004805610E+04 0.  0.
        5    1    3    3  502    0  0.77008004410E+03 -0.64663718138E+03  0.12634347117E+04  0.16147607499E+04  0.46999998093E+01 0. -1.
       -5    1    3    3    0  502 -0.77008004410E+03  0.64663718138E+03 -0.72154700360E+03  0.12376651757E+04  0.46999998093E+01 0.  1.
</event>
<event>
 5   0  0.1017456E-05  0.1759881E+04  0.7818609E-02  0.8727930E-01
       -1   -1    0    0    0  501  0.00000000000E+00  0.00000000000E+00  0.63920122320E+03  0.63920122322E+03  0.50400001928E-02 0. -1.
        1   -1    0    0  501    0  0.00000000000E+00  0.00000000000E+00 -0.12113487543E+04  0.12113487543E+04  0.50400001928E-02 0.  1.
    10030    2    1    2    0    0  0.00000000000E+00  0.00000000000E+00 -0.57214753109E+03  0.18505499775E+04  0.17598813659E+04 0.  0.
        5    1    3    3  502    0 -0.53921143767E+03  0.24556429697E+03  0.39799838661E+03  0.71377559793E+03  0.46999998093E+01 0. -1.
       -5    1    3    3    0  502  0.53921143767E+03 -0.24556429697E+03 -0.97014591770E+03  0.11367743796E+04  0.46999998093E+01 0.  1.
</event>
<event>
 5   0  0.1075146E-05  0.2408067E+04  0.7818609E-02  0.8436490E-01
        1   -1    0    0  501    0  0.00000000000E+00  0.00000000000E+00  0.11855033362E+04  0.11855033363E+04  0.50400001928E-02 0. -1.
       -1   -1    0    0    0  501  0.00000000000E+00  0.00000000000E+00 -0.12228531736E+04  0.12228531736E+04  0.50400001928E-02 0.  1.
    10030    2    1    2    0    0  0.00000000000E+00  0.00000000000E+00 -0.37349837382E+02  0.24083565099E+04  0.24080668737E+04 0.  0.
        2    1    3    3  502    0  0.12104524225E+03 -0.76477752756E+03  0.90347714154E+03  0.11898771208E+04  0.25500000920E-02 0. -1.
       -2    1    3    3    0  502 -0.12104524225E+03  0.76477752756E+03 -0.94082697892E+03  0.12184793891E+04  0.25500000920E-02 0.  1.
</event>
<event>
 5   0  0.2651061E-05  0.2778126E+04  0.7818609E-02  0.8310092E-01
       -2   -1    0    0    0  501  0.00000000000E+00  0.00000000000E+00  0.16906322737E+04  0.16906322737E+04  0.25500000920E-02 0. -1.
        2   -1    0    0  501    0  0.00000000000E+00  0.00000000000E+00 -0.11412863149E+04  0.11412863149E+04  0.25500000920E-02 0.  1.
    10030    2    1    2    0    0  0.00000000000E+00  0.00000000000E+00  0.54934595881E+03  0.28319185886E+04  0.27781256109E+04 0.  0.
        3    1    3    3  502    0 -0.20774498208E+03  0.89274707549E+03 -0.78925110731E+03  0.12095753962E+04  0.10100000352E+00 0.  1.
       -3    1    3    3    0  502  0.20774498208E+03 -0.89274707549E+03  0.13385970661E+04  0.16223431924E+04  0.10100000352E+00 0. -1.
</event>
<event>
 5   0  0.2518686E-05  0.2550418E+04  0.7818609E-02  0.8385241E-01
        2   -1    0    0  501    0  0.00000000000E+00  0.00000000000E+00  0.19520787026E+04  0.19520787026E+04  0.25500000920E-02 0. -1.
       -2   -1    0    0    0  501  0.00000000000E+00  0.00000000000E+00 -0.83303892681E+03  0.83303892682E+03  0.25500000920E-02 0.  1.
    10030    2    1    2    0    0  0.00000000000E+00  0.00000000000E+00  0.11190397758E+04  0.27851176294E+04  0.25504176501E+04 0.  0.
        5    1    3    3  502    0  0.92310155464E+03 -0.18243108046E+03  0.14993828030E+04  0.17701888203E+04  0.46999998093E+01 0. -1.
       -5    1    3    3    0  502 -0.92310155464E+03  0.18243108046E+03 -0.38034302725E+03  0.10149288092E+04  0.46999998093E+01 0.  1.
</event>
<event>
 5   0  0.2588048E-05  0.1453246E+04  0.7818609E-02  0.8916153E-01
        2   -1    0    0  501    0  0.00000000000E+00  0.00000000000E+00  0.19766419290E+04  0.19766419290E+04  0.25500000920E-02 0.  1.
       -2   -1    0    0    0  501  0.00000000000E+00  0.00000000000E+00 -0.26711005443E+03  0.26711005444E+03  0.25500000920E-02 0. -1.
    10030    2    1    2    0    0  0.00000000000E+00  0.00000000000E+00  0.17095318746E+04  0.22437519835E+04  0.14532459300E+04 0.  0.
        2    1    3    3  502    0 -0.99002619085E+02  0.57894935618E+03  0.19428880147E+03  0.61865338760E+03  0.25500000920E-02 0. -1.
       -2    1    3    3    0  502  0.99002619085E+02 -0.57894935618E+03  0.15152430731E+04  0.16250985959E+04  0.25500000920E-02 0.  1.
</event>
<event>
 5   0  0.1075146E-05  0.3021911E+04  0.7818609E-02  0.8237502E-01
       -1   -1    0    0    0  501  0.00000000000E+00  0.00000000000E+00  0.12117771342E+04  0.12117771342E+04  0.50400001928E-02 0.  1.
        1   -1    0    0  501    0  0.00000000000E+00  0.00000000000E+00 -0.18839989363E+04  0.18839989363E+04  0.50400001928E-02 0. -1.
    10030    2    1    2    0    0  0.00000000000E+00  0.00000000000E+00 -0.67222180210E+03  0.30957760705E+04  0.30219112045E+04 0.  0.
        2    1    3    3  502    0 -0.23490037746E+03  0.30705148549E+03 -0.18324740921E+04  0.18728107487E+04  0.25500000920E-02 0. -1.
       -2    1    3    3    0  502  0.23490037746E+03 -0.30705148549E+03  0.11602522900E+04  0.12229653219E+04  0.25500000920E-02 0.  1.
</event>
<event>
 5   0  0.2697964E-05  0.2779207E+04  0.7818609E-02  0.8309753E-01
       -2   -1    0    0    0  501  0.00000000000E+00  0.00000000000E+00  0.10333402416E+04  0.10333402416E+04  0.25500000920E-02 0.  1.
        2   -1    0    0  501    0  0.00000000000E+00  0.00000000000E+00 -0.18686949456E+04  0.18686949456E+04  0.25500000920E-02 0. -1.
    10030    2    1    2    0    0  0.00000000000E+00  0.00000000000E+00 -0.83535470392E+03  0.29020351872E+04  0.27792068556E+04 0.  0.
        1    1    3    3  502    0 -0.99727090880E+03 -0.91706153869E+03 -0.74027554548E+03  0.15438779144E+04  0.50400001928E-02 0. -1.
       -1    1    3    3    0  502  0.99727090880E+03  0.91706153869E+03 -0.95079158448E+02  0.13581572728E+04  0.50400001928E-02 0.  1.
</event>
<event>
 5   0  0.8958000E-06  0.1703187E+04  0.7818609E-02  0.8759549E-01
        4   -1    0    0  501    0  0.00000000000E+00  0.00000000000E+00  0.71267712205E+03  0.71267825362E+03  0.12699999809E+01 0.  1.
       -4   -1    0    0    0  501  0.00000000000E+00  0.00000000000E+00 -0.10175856754E+04  0.10175864680E+04  0.12699999809E+01 0. -1.
    10030    2    1    2    0    0  0.00000000000E+00  0.00000000000E+00 -0.30490855339E+03  0.17302647216E+04  0.17031872418E+04 0.  0.
        5    1    3    3  502    0 -0.44947440929E+02 -0.80374736019E+03 -0.43464640747E+03  0.91486047077E+03  0.46999998093E+01 0. -1.
       -5    1    3    3    0  502  0.44947440929E+02  0.80374736019E+03  0.12973785408E+03  0.81540425081E+03  0.46999998093E+01 0.  1.
</event>
<event>
 5   0  0.1078103E-05  0.2722936E+04  0.7818609E-02  0.8327601E-01
       -1   -1    0    0    0  501  0.00000000000E+00  0.00000000000E+00  0.63554280944E+03  0.63554280946E+03  0.50400001928E-02 0. -1.
        1   -1    0    0  501    0  0.00000000000E+00  0.00000000000E+00 -0.29165546352E+04  0.29165546352E+04  0.50400001928E-02 0.  1.
    10030    2    1    2    0    0  0.00000000000E+00  0.00000000000E+00 -0.22810118257E+04  0.35520974446E+04  0.27229361555E+04 0.  0.
        1    1    3    3  502    0 -0.71268823558E+03  0.42912713983E+03  0.26541499761E+03  0.87322376528E+03  0.50400001928E-02 0. -1.
       -1    1    3    3    0  502  0.71268823558E+03 -0.42912713983E+03 -0.25464268233E+04  0.26788736794E+04  0.50400001928E-02 0.  1.
</event>
<event>
 5   0  0.1105862E-05  0.2889686E+04  0.7818609E-02  0.8275953E-01
        1   -1    0    0  501    0  0.00000000000E+00  0.00000000000E+00  0.11214562167E+04  0.11214562167E+04  0.50400001928E-02 0. -1.
       -1   -1    0    0    0  501  0.00000000000E+00  0.00000000000E+00 -0.18614827312E+04  0.18614827312E+04  0.50400001928E-02 0.  1.
    10030    2    1    2    0    0  0.00000000000E+00  0.00000000000E+00 -0.74002651451E+03  0.29829389480E+04  0.28896860600E+04 0.  0.
        3    1    3    3  502    0  0.11379275829E+04  0.57129775436E+03  0.33489331749E+03  0.13165917562E+04  0.10100000352E+00 0. -1.
       -3    1    3    3    0  502 -0.11379275829E+04 -0.57129775436E+03 -0.10749198320E+04  0.16663471918E+04  0.10100000352E+00 0.  1.
</event>
<event>
 5   0  0.1075146E-05  0.2700313E+04  0.7818609E-02  0.8334903E-01
       -1   -1    0    0    0  501  0.00000000000E+00  0.00000000000E+00  0.16745566898E+04  0.16745566898E+04  0.50400001928E-02 0. -1.
        1   -1    0    0  501    0  0.00000000000E+00  0.00000000000E+00 -0.10886001347E+04  0.10886001347E+04  0.50400001928E-02 0.  1.
    10030    2    1    2    0    0  0.00000000000E+00  0.00000000000E+00  0.58595655518E+03  0.27631568245E+04  0.27003130471E+04 0.  0.
        2    1    3    3  502    0  0.72661359549E+03  0.95609062397E+03  0.92446778859E+03  0.15154924251E+04  0.25500000920E-02 0. -1.
       -2    1    3    3    0  502 -0.72661359549E+03 -0.95609062397E+03 -0.33851123341E+03  0.12476643994E+04  0.25500000920E-02 0.  1.
</event>
<event>
 5   0  0.1105862E-05  0.2570283E+04  0.7818609E-02  0.8378366E-01
       -1   -1    0    0    0  501  0.00000000000E+00  0.00000000000E+00  0.10003849021E+04  0.10003849021E+04  0.50400001928E-02 0.  1.
        1   -1    0    0  501    0  0.00000000000E+00  0.00000000000E+00 -0.16509526724E+04  0.16509526724E+04  0.50400001928E-02 0. -1.
    10030    2    1    2    0    0  0.00000000000E+00  0.00000000000E+00 -0.65056777033E+03  0.26513375746E+04  0.25702825740E+04 0.  0.
        3    1    3    3  502    0 -0.83432287353E+03 -0.52544746640E+03  0.52496568522E+03  0.11170401417E+04  0.10100000352E+00 0.  1.
       -3    1    3    3    0  502  0.83432287353E+03  0.52544746640E+03 -0.11755334556E+04  0.15342974329E+04  0.10100000352E+00 0. -1.
</event>
<event>
 5   0  0.1067434E-05  0.2883263E+04  0.7818609E-02  0.8277875E-01
       -1   -1    0    0    0  501  0.00000000000E+00  0.00000000000E+00  0.12982332861E+04  0.12982332861E+04  0.50400001928E-02 0. -1.
        1   -1    0    0  501    0  0.00000000000E+00  0.00000000000E+00 -0.16008688051E+04  0.16008688051E+04  0.50400001928E-02 0.  1.
    10030    2    1    2    0    0  0.00000000000E+00  0.00000000000E+00 -0.30263551904E+03  0.28991020912E+04  0.28832628527E+04 0.  0.
        4    1    3    3  502    0 -0.96865104571E+03 -0.68045237585E+03 -0.97863747422E+03  0.15359144517E+04  0.12699999809E+01 0.  1.
       -4    1    3    3    0  502  0.96865104571E+03  0.68045237585E+03  0.67600195518E+03  0.13631876395E+04  0.12699999809E+01 0. -1.
</event>
<event>
 5   0  0.1075146E-05  0.2795005E+04  0.7818609E-02  0.8304821E-01
       -1   -1    0    0    0  501  0.00000000000E+00  0.00000000000E+00  0.16967931129E+04  0.16967931129E+04  0.50400001928E-02 0. -1.
        1   -1    0    0  501    0  0.00000000000E+00  0.00000000000E+00 -0.11510029053E+04  0.11510029053E+04  0.50400001928E-02 0.  1.
    10030    2    1    2    0    0  0.00000000000E+00  0.00000000000E+00  0.54579020760E+03  0.28477960182E+04  0.27950054044E+04 0.  0.
        2    1    3    3  502    0  0.71201093023E+02  0.39102036473E+03  0.16379941797E+04  0.16855240888E+04  0.25500000920E-02 0. -1.
       -2    1    3    3    0  502 -0.71201093023E+02 -0.39102036473E+03 -0.10922039720E+04  0.11622719294E+04  0.25500000920E-02 0.  1.
</event>
<event>
 5   0  0.2588048E-05  0.1784230E+04  0.7818609E-02  0.8714731E-01
       -2   -1    0    0    0  501  0.00000000000E+00  0.00000000000E+00  0.42384868092E+03  0.42384868093E+03  0.25500000920E-02 0.  1.
        2   -1    0    0  501    0  0.00000000000E+00  0.00000000000E+00 -0.18777191299E+04  0.18777191299E+04  0.25500000920E-02 0. -1.
    10030    2    1    2    0    0  0.00000000000E+00  0.00000000000E+00 -0.14538704490E+04  0.23015678109E+04  0.17842295552E+04 0.  0.
        2    1    3    3  502    0 -0.38231003448E+02 -0.38382710421E+02 -0.18755953575E+04  0.18763775705E+04  0.25500000920E-02 0. -1.
       -2    1    3    3    0  502  0.38231003448E+02  0.38382710421E+02  0.42172490846E+03  0.42519024037E+03  0.25500000920E-02 0.  1.
</event>
<event>
 5   0  0.1075146E-05  0.2664173E+04  0.7818609E-02  0.8346724E-01
        1   -1    0    0  501    0  0.00000000000E+00  0.00000000000E+00  0.14004809054E+04  0.14004809054E+04  0.50400001928E-02 0. -1.
       -1   -1    0    0    0  501  0.00000000000E+00  0.00000000000E+00 -0.12670319612E+04  0.12670319612E+04  0.50400001928E-02 0.  1.
    10030    2    1    2    0    0  0.00000000000E+00  0.00000000000E+00  0.13344894424E+03  0.26675128666E+04  0.26641727183E+04 0.  0.
        2    1    3    3  502    0  0.23585052164E+02 -0.43875456722E+03  0.13258352698E+04  0.13967465725E+04  0.25500000920E-02 0. -1.
       -2    1    3    3    0  502 -0.23585052164E+02  0.43875456722E+03 -0.11923863256E+04  0.12707662942E+04  0.25500000920E-02 0.  1.
</event>
<event>
 5   0  0.1017456E-05  0.2848206E+04  0.7818609E-02  0.8288457E-01
        1   -1    0    0  501    0  0.00000000000E+00  0.00000000000E+00  0.24390347964E+04  0.24390347964E+04  0.50400001928E-02 0.  1.
       -1   -1    0    0    0  501  0.00000000000E+00  0.00000000000E+00 -0.83150468980E+03  0.83150468981E+03  0.50400001928E-02 0. -1.
    10030    2    1    2    0    0  0.00000000000E+00  0.00000000000E+00  0.16075301066E+04  0.32705394862E+04  0.28482056610E+04 0.  0.
        5    1    3    3  502    0 -0.12332107747E+03 -0.93070994569E+03 -0.42581658924E+03  0.10309078275E+04  0.46999998093E+01 0. -1.
       -5    1    3    3    0  502  0.12332107747E+03  0.93070994569E+03  0.20333466959E+04  0.22396316587E+04  0.46999998093E+01 0.  1.
</event>
<event>
 5   0  0.8958000E-06  0.2535257E+04  0.7818609E-02  0.8390532E-01
        3   -1    0    0  501    0  0.00000000000E+00  0.00000000000E+00  0.24372586753E+04  0.24372586774E+04  0.10100000352E+00 0. -1.
       -3   -1    0    0    0  501  0.00000000000E+00  0.00000000000E+00 -0.65929870578E+03  0.65929871352E+03  0.10100000352E+00 0.  1.
    10030    2    1    2    0    0  0.00000000000E+00  0.00000000000E+00  0.17779599695E+04  0.30965573909E+04  0.25352565988E+04 0.  0.
        3    1    3    3  502    0  0.34021766901E+03  0.29959244398E+02  0.23800042766E+04  0.24043847415E+04  0.10100000352E+00 0. -1.
       -3    1    3    3    0  502 -0.34021766901E+03 -0.29959244398E+02 -0.60204430708E+03  0.69217264935E+03  0.10100000352E+00 0.  1.
</event>
<event>
 5   0  0.2651061E-05  0.2012723E+04  0.7818609E-02  0.8600695E-01
       -2   -1    0    0    0  501  0.00000000000E+00  0.00000000000E+00  0.61027018780E+03  0.61027018781E+03  0.25500000920E-02 0. -1.
        2   -1    0    0  501    0  0.00000000000E+00  0.00000000000E+00 -0.16595325618E+04  0.16595325618E+04  0.25500000920E-02 0.  1.
    10030    2    1    2    0    0  0.00000000000E+00  0.00000000000E+00 -0.10492623739E+04  0.22698027496E+04  0.20127227808E+04 0.  0.
        3    1    3    3  502    0  0.12370353819E+03  0.83870704117E+02  0.59768507234E+03  0.61608791278E+03  0.10100000352E+00 0. -1.
       -3    1    3    3    0  502 -0.12370353819E+03 -0.83870704117E+02 -0.16469474463E+04  0.16537148368E+04  0.10100000352E+00 0.  1.
</event>
<event>
 5   0  0.2651061E-05  0.2867907E+04  0.7818609E-02  0.8282491E-01
        2   -1    0    0  501    0  0.00000000000E+00  0.00000000000E+00  0.21049548984E+04  0.21049548984E+04  0.25500000920E-02 0. -1.
       -2   -1    0    0    0  501  0.00000000000E+00  0.00000000000E+00 -0.97684894357E+03  0.97684894357E+03  0.25500000920E-02 0.  1.
    10030    2    1    2    0    0  0.00000000000E+00  0.00000000000E+00  0.11281059548E+04  0.30818038420E+04  0.28679072292E+04 0.  0.
        3    1    3    3  502    0 -0.57962066240E+03 -0.10761718869E+04 -0.24160965501E+03  0.12459860666E+04  0.10100000352E+00 0.  1.
       -3    1    3    3    0  502  0.57962066240E+03  0.10761718869E+04  0.13697156098E+04  0.18358177754E+04  0.10100000352E+00 0. -1.
</event>
<event>
 5   0  0.2624815E-05  0.2857198E+04  0.7818609E-02  0.8285727E-01
        2   -1    0    0  501    0  0.00000000000E+00  0.00000000000E+00  0.10277277044E+04  0.10277277044E+04  0.25500000920E-02 0. -1.
       -2   -1    0    0    0  501  0.00000000000E+00  0.00000000000E+00 -0.19858322286E+04  0.19858322286E+04  0.25500000920E-02 0.  1.
    10030    2    1    2    0    0  0.00000000000E+00  0.00000000000E+00 -0.95810452427E+03  0.30135599330E+04  0.28571977863E+04 0.  0.
        4    1    3    3  502    0 -0.90385960563E+03 -0.94294616103E+03  0.13121710905E+03  0.13127563338E+04  0.12699999809E+01 0. -1.
       -4    1    3    3    0  502  0.90385960563E+03  0.94294616103E+03 -0.10893216333E+04  0.17008035992E+04  0.12699999809E+01 0.  1.
</event>
<event>
 5   0  0.2651061E-05  0.2816996E+04  0.7818609E-02  0.8298011E-01
       -2   -1    0    0    0  501  0.00000000000E+00  0.00000000000E+00  0.12699704511E+04  0.12699704511E+04  0.25500000920E-02 0.  1.
        2   -1    0    0  501    0  0.00000000000E+00  0.00000000000E+00 -0.15621364029E+04  0.15621364029E+04  0.25500000920E-02 0. -1.
    10030    2    1    2    0    0  0.00000000000E+00  0.00000000000E+00 -0.29216595181E+03  0.28321068540E+04  0.28169963240E+04 0.  0.
        3    1    3    3  502    0  0.11358393248E+04 -0.63154573866E+03 -0.69202997580E+03  0.14723744393E+04  0.10100000352E+00 0. -1.
       -3    1    3    3    0  502 -0.11358393248E+04  0.63154573866E+03  0.39986402399E+03  0.13597324148E+04  0.10100000352E+00 0.  1.
</event>
<event>
 5   0  0.2697964E-05  0.2875636E+04  0.7818609E-02  0.8280164E-01
        2   -1    0    0  501    0  0.00000000000E+00  0.00000000000E+00  0.19923142452E+04  0.19923142452E+04  0.25500000920E-02 0.  1.
       -2   -1    0    0    0  501  0.00000000000E+00  0.00000000000E+00 -0.10376474936E+04  0.10376474936E+04  0.25500000920E-02 0. -1.
    10030    2    1    2    0    0  0.00000000000E+00  0.00000000000E+00  0.95466675167E+03  0.30299617388E+04  0.28756355005E+04 0.  0.
        1    1    3    3  502    0 -0.91457515688E+03  0.11076720939E+03  0.16404798061E+04  0.18814598285E+04  0.50400001928E-02 0.  1.
       -1    1    3    3    0  502  0.91457515688E+03 -0.11076720939E+03 -0.68581305440E+03  0.11485019103E+04  0.50400001928E-02 0. -1.
</event>
<event>
 5   0  0.2651061E-05  0.2830241E+04  0.7818609E-02  0.8293941E-01
        2   -1    0    0  501    0  0.00000000000E+00  0.00000000000E+00  0.11360681013E+04  0.11360681013E+04  0.25500000920E-02 0. -1.
       -2   -1    0    0    0  501  0.00000000000E+00  0.00000000000E+00 -0.17627163222E+04  0.17627163222E+04  0.25500000920E-02 0.  1.
    10030    2    1    2    0    0  0.00000000000E+00  0.00000000000E+00 -0.62664822083E+03  0.28987844235E+04  0.28302408275E+04 0.  0.
        3    1    3    3  502    0  0.74890440652E+03  0.36417165932E+03  0.85853871389E+03  0.11960633516E+04  0.10100000352E+00 0. -1.
       -3    1    3    3    0  502 -0.74890440652E+03 -0.36417165932E+03 -0.14851869347E+04  0.17027210719E+04  0.10100000352E+00 0.  1.
</event>
<event>
 5   0  0.2964448E-05  0.1378803E+04  0.7818609E-02  0.8969307E-01
        2   -1    0    0  501    0  0.00000000000E+00  0.00000000000E+00  0.98400923633E+03  0.98400923634E+03  0.25500000920E-02 0. -1.
       -2   -1    0    0    0  501  0.00000000000E+00  0.00000000000E+00 -0.48299773977E+03  0.48299773978E+03  0.25500000920E-02 0.  1.
    10030    2    1    2    0    0  0.00000000000E+00  0.00000000000E+00  0.50101149656E+03  0.14670069761E+04  0.13788027228E+04 0.  0.
        5    1    3    3  502    0  0.34917242530E+03  0.33078867649E+03  0.77597161212E+03  0.91296032986E+03  0.46999998093E+01 0. -1.
       -5    1    3    3    0  502 -0.34917242530E+03 -0.33078867649E+03 -0.27496011556E+03  0.55404664626E+03  0.46999998093E+01 0.  1.
</event>
<event>
 5   0  0.1105862E-05  0.2593295E+04  0.7818609E-02  0.8370482E-01
        1   -1    0    0  501    0  0.00000000000E+00  0.00000000000E+00  0.10255581672E+04  0.10255581672E+04  0.50400001928E-02 0. -1.
       -1   -1    0    0    0  501  0.00000000000E+00  0.00000000000E+00 -0.16393943122E+04  0.16393943123E+04  0.50400001928E-02 0.  1.
    10030    2    1    2    0    0  0.00000000000E+00  0.00000000000E+00 -0.61383614507E+03  0.26649524794E+04  0.25932946043E+04 0.  0.
        3    1    3    3  502    0 -0.58869267447E+02 -0.87294201921E+03  0.67649988743E+03  0.11059590713E+04  0.10100000352E+00 0. -1.
       -3    1    3    3    0  502  0.58869267447E+02  0.87294201921E+03 -0.12903360325E+04  0.15589934081E+04  0.10100000352E+00 0.  1.
</event>
<event>
 5   0  0.1078103E-05  0.2054191E+04  0.7818609E-02  0.8581696E-01
       -1   -1    0    0    0  501  0.00000000000E+00  0.00000000000E+00  0.90313759127E+03  0.90313759128E+03  0.50400001928E-02 0. -1.
        1   -1    0    0  501    0  0.00000000000E+00  0.00000000000E+00 -0.11680665738E+04  0.11680665738E+04  0.50400001928E-02 0.  1.
    10030    2    1    2    0    0  0.00000000000E+00  0.00000000000E+00 -0.26492898256E+03  0.20712041651E+04  0.20541906746E+04 0.  0.
        1    1    3    3  502    0  0.10743511559E+03 -0.21194339170E+03 -0.11399714221E+04  0.11644729059E+04  0.50400001928E-02 0.  1.
       -1    1    3    3    0  502 -0.10743511559E+03  0.21194339170E+03  0.87504243956E+03  0.90673125920E+03  0.50400001928E-02 0. -1.
</event>
<event>
 5   0  0.1105862E-05  0.1687507E+04  0.7818609E-02  0.8768522E-01
       -1   -1    0    0    0  501  0.00000000000E+00  0.00000000000E+00  0.54084794626E+03  0.54084794629E+03  0.50400001928E-02 0.  1.
        1   -1    0    0  501    0  0.00000000000E+00  0.00000000000E+00 -0.13163033526E+04  0.13163033526E+04  0.50400001928E-02 0. -1.
    10030    2    1    2    0    0  0.00000000000E+00  0.00000000000E+00 -0.77545540633E+03  0.18571512989E+04  0.16875069955E+04 0.  0.
        3    1    3    3  502    0 -0.20638014341E+03 -0.87720874936E+02 -0.12829070091E+04  0.13023586756E+04  0.10100000352E+00 0. -1.
       -3    1    3    3    0  502  0.20638014341E+03  0.87720874936E+02  0.50745160282E+03  0.55479262333E+03  0.10100000352E+00 0.  1.
</event>
<event>
 5   0  0.1078103E-05  0.2807345E+04  0.7818609E-02  0.8300992E-01
       -1   -1    0    0    0  501  0.00000000000E+00  0.00000000000E+00  0.10553674412E+04  0.10553674412E+04  0.50400001928E-02 0.  1.
        1   -1    0    0  501    0  0.00000000000E+00  0.00000000000E+00 -0.18669300209E+04  0.18669300209E+04  0.50400001928E-02 0. -1.
    10030    2    1    2    0    0  0.00000000000E+00  0.00000000000E+00 -0.81156257967E+03  0.29222974621E+04  0.28073454786E+04 0.  0.
        1    1    3    3  502    0 -0.45930870182E+02  0.65997004086E+03  0.88290380126E+03  0.11032629886E+04  0.50400001928E-02 0.  1.
       -1    1    3    3    0  502  0.45930870182E+02 -0.65997004086E+03 -0.16944663809E+04  0.18190344735E+04  0.50400001928E-02 0. -1.
</event>
<event>
 5   0  0.1067434E-05  0.2807411E+04  0.7818609E-02  0.8300971E-01
        1   -1    0    0  501    0  0.00000000000E+00  0.00000000000E+00  0.17842411585E+04  0.17842411585E+04  0.50400001928E-02 0.  1.
       -1   -1    0    0    0  501  0.00000000000E+00  0.00000000000E+00 -0.11043287855E+04  0.11043287855E+04  0.50400001928E-02 0. -1.
    10030    2    1    2    0    0  0.00000000000E+00  0.00000000000E+00  0.67991237302E+03  0.28885699440E+04  0.28074108154E+04 0.  0.
        4    1    3    3  502    0 -0.22636985200E+03  0.11875132381E+04 -0.39407945664E+03  0.12715074642E+04  0.12699999809E+01 0. -1.
       -4    1    3    3    0  502  0.22636985200E+03 -0.11875132381E+04  0.10739918297E+04  0.16170624798E+04  0.12699999809E+01 0.  1.
</event>
<event>
 5   0  0.2624815E-05  0.2813888E+04  0.7818609E-02  0.8298970E-01
        2   -1    0    0  501    0  0.00000000000E+00  0.00000000000E+00  0.24582647766E+04  0.24582647766E+04  0.25500000920E-02 0.  1.
       -2   -1    0    0    0  501  0.00000000000E+00  0.00000000000E+00 -0.80523918752E+03  0.80523918752E+03  0.25500000920E-02 0. -1.
    10030    2    1    2    0    0  0.00000000000E+00  0.00000000000E+00  0.16530255891E+04  0.32635039641E+04  0.28138877955E+04 0.  0.
        4    1    3    3  502    0  0.54141206352E+03 -0.85401775253E+03  0.19610977162E+04  0.22064403934E+04  0.12699999809E+01 0.  1.
       -4    1    3    3    0  502 -0.54141206352E+03  0.85401775253E+03 -0.30807212712E+03  0.10570635707E+04  0.12699999809E+01 0. -1.
</event>
<event>
 5   0  0.2518686E-05  0.2744657E+04  0.7818609E-02  0.8320659E-01
        2   -1    0    0  501    0  0.00000000000E+00  0.00000000000E+00  0.19396949738E+04  0.19396949738E+04  0.25500000920E-02 0. -1.
       -2   -1    0    0    0  501  0.00000000000E+00  0.00000000000E+00 -0.97091828023E+03  0.97091828023E+03  0.25500000920E-02 0.  1.
    10030    2    1    2    0    0  0.00000000000E+00  0.00000000000E+00  0.96877669358E+03  0.29106132540E+04  0.27446568515E+04 0.  0.
        5    1    3    3  502    0 -0.53971087431E+03 -0.34658687965E+03  0.17709442310E+04  0.18835275024E+04  0.46999998093E+01 0. -1.
       -5    1    3    3    0  502  0.53971087431E+03  0.34658687965E+03 -0.80216753746E+03  0.10270857516E+04  0.46999998093E+01 0.  1.
</event>
<event>
 5   0  0.1078103E-05  0.1874768E+04  0.7818609E-02  0.8667519E-01
        1   -1    0    0  501    0  0.00000000000E+00  0.00000000000E+00  0.14106319590E+04  0.14106319590E+04  0.50400001928E-02 0.  1.
       -1   -1    0    0    0  501  0.00000000000E+00  0.00000000000E+00 -0.62290462670E+03  0.62290462672E+03  0.50400001928E-02 0. -1.
    10030    2    1    2    0    0  0.00000000000E+00  0.00000000000E+00  0.78772733232E+03  0.20335365857E+04  0.18747684378E+04 0.  0.
        1    1    3    3  502    0 -0.40240092991E+02 -0.86237732926E+03 -0.22702079331E+01  0.86331864162E+03  0.50400001928E-02 0. -1.
       -1    1    3    3    0  502  0.40240092991E+02  0.86237732926E+03  0.78999754025E+03  0.11702179441E+04  0.50400001928E-02 0.  1.
</event>
<event>
 5   0  0.2651061E-05  0.2750056E+04  0.7818609E-02  0.8318944E-01
        2   -1    0    0  501    0  0.00000000000E+00  0.00000000000E+00  0.17220793883E+04  0.17220793883E+04  0.25500000920E-02 0. -1.
       -2   -1    0    0    0  501  0.00000000000E+00  0.00000000000E+00 -0.10979179109E+04  0.10979179109E+04  0.25500000920E-02 0.  1.
    10030    2    1    2    0    0  0.00000000000E+00  0.00000000000E+00  0.62416147738E+03  0.28199972992E+04  0.27500558572E+04 0.  0.
        3    1    3    3  502    0 -0.32194075584E+03  0.10489639264E+04  0.11618487629E+04  0.15980812643E+04  0.10100000352E+00 0. -1.
       -3    1    3    3    0  502  0.32194075584E+03 -0.10489639264E+04 -0.53768728549E+03  0.12219160349E+04  0.10100000352E+00 0.  1.
</event>
<event>
 5   0  0.2697964E-05  0.2745694E+04  0.7818609E-02  0.8320329E-01
        2   -1    0    0  501    0  0.00000000000E+00  0.00000000000E+00  0.23106389376E+04  0.23106389376E+04  0.25500000920E-02 0.  1.
       -2   -1    0    0    0  501  0.00000000000E+00  0.00000000000E+00 -0.81566557483E+03  0.81566557484E+03  0.25500000920E-02 0. -1.
    10030    2    1    2    0    0  0.00000000000E+00  0.00000000000E+00  0.14949733628E+04  0.31263045125E+04  0.27456938193E+04 0.  0.
        1    1    3    3  502    0 -0.22284425402E+03  0.12967358575E+04  0.30134890790E+03  0.13498128055E+04  0.50400001928E-02 0. -1.
       -1    1    3    3    0  502  0.22284425402E+03 -0.12967358575E+04  0.11936244549E+04  0.17764917070E+04  0.50400001928E-02 0.  1.
</event>
<event>
 5   0  0.2588048E-05  0.2655066E+04  0.7818609E-02  0.8349733E-01
        2   -1    0    0  501    0  0.00000000000E+00  0.00000000000E+00  0.10815541005E+04  0.10815541005E+04  0.25500000920E-02 0. -1.
       -2   -1    0    0    0  501  0.00000000000E+00  0.00000000000E+00 -0.16294550730E+04  0.16294550730E+04  0.25500000920E-02 0.  1.
    10030    2    1    2    0    0  0.00000000000E+00  0.00000000000E+00 -0.54790097250E+03  0.27110091734E+04  0.26550659620E+04 0.  0.
        2    1    3    3  502    0 -0.87226268297E+03 -0.70892027653E+03 -0.99518595807E+03  0.15012678767E+04  0.25500000920E-02 0.  1.
       -2    1    3    3    0  502  0.87226268297E+03  0.70892027653E+03  0.44728498557E+03  0.12097412967E+04  0.25500000920E-02 0. -1.
</event>
<event>
 5   0  0.1075146E-05  0.2436145E+04  0.7818609E-02  0.8426094E-01
        1   -1    0    0  501    0  0.00000000000E+00  0.00000000000E+00  0.66064506421E+03  0.66064506423E+03  0.50400001928E-02 0.  1.
       -1   -1    0    0    0  501  0.00000000000E+00  0.00000000000E+00 -0.22458356361E+04  0.22458356361E+04  0.50400001928E-02 0. -1.
    10030    2    1    2    0    0  0.00000000000E+00  0.00000000000E+00 -0.15851905719E+04  0.29064807003E+04  0.24361446821E+04 0.  0.
        2    1    3    3  502    0  0.10019256972E+04  0.55803726096E+03 -0.12822459979E+04  0.17202951742E+04  0.25500000920E-02 0.  1.
       -2    1    3    3    0  502 -0.10019256972E+04 -0.55803726096E+03 -0.30294457396E+03  0.11861855261E+04  0.25500000920E-02 0. -1.
</event>
<event>
 5   0  0.1067434E-05  0.2943625E+04  0.7818609E-02  0.8260015E-01
        1   -1    0    0  501    0  0.00000000000E+00  0.00000000000E+00  0.23151941901E+04  0.23151941901E+04  0.50400001928E-02 0. -1.
       -1   -1    0    0    0  501  0.00000000000E+00  0.00000000000E+00 -0.93565912154E+03  0.93565912156E+03  0.50400001928E-02 0.  1.
    10030    2    1    2    0    0  0.00000000000E+00  0.00000000000E+00  0.13795350686E+04  0.32508533117E+04  0.29436253581E+04 0.  0.
        4    1    3    3  502    0 -0.11713263226E+04 -0.35159093775E+03  0.15941448460E+04  0.20092090345E+04  0.12699999809E+01 0. -1.
       -4    1    3    3    0  502  0.11713263226E+04  0.35159093775E+03 -0.21460977744E+03  0.12416442771E+04  0.12699999809E+01 0.  1.
</event>
<event>
 5   0  0.2518686E-05  0.1790845E+04  0.7818609E-02  0.8711183E-01
       -2   -1    0    0    0  501  0.00000000000E+00  0.00000000000E+00  0.93482181290E+03  0.93482181290E+03  0.25500000920E-02 0.  1.
        2   -1    0    0  501    0  0.00000000000E+00  0.00000000000E+00 -0.85768379889E+03  0.85768379889E+03  0.25500000920E-02 0. -1.
    10030    2    1    2    0    0  0.00000000000E+00  0.00000000000E+00  0.77138014014E+02  0.17925056118E+04  0.17908450785E+04 0.  0.
        5    1    3    3  502    0 -0.25359438590E+03 -0.16091074721E+03 -0.80575156298E+03  0.85991863125E+03  0.46999998093E+01 0. -1.
       -5    1    3    3    0  502  0.25359438590E+03  0.16091074721E+03  0.88288957699E+03  0.93258698055E+03  0.46999998093E+01 0.  1.
</event>
<event>
 5   0  0.8958000E-06  0.2748576E+04  0.7818609E-02  0.8319414E-01
        4   -1    0    0  501    0  0.00000000000E+00  0.00000000000E+00  0.14398956118E+04  0.14398961719E+04  0.12699999809E+01 0.  1.
       -4   -1    0    0    0  501  0.00000000000E+00  0.00000000000E+00 -0.13116689522E+04  0.13116695671E+04  0.12699999809E+01 0. -1.
    10030    2    1    2    0    0  0.00000000000E+00  0.00000000000E+00  0.12822665955E+03  0.27515657389E+04  0.27485763477E+04 0.  0.
        4    1    3    3  502    0 -0.89475623937E+02  0.12076525186E+03  0.14316430694E+04  0.14395115923E+04  0.12699999809E+01 0.  1.
       -4    1    3    3    0  502  0.89475623937E+02 -0.12076525186E+03 -0.13034164098E+04  0.13120541466E+04  0.12699999809E+01 0. -1.
</event>
<event>
 5   0  0.1017456E-05  0.2135442E+04  0.7818609E-02  0.8545790E-01
       -1   -1    0    0    0  501  0.00000000000E+00  0.00000000000E+00  0.75491633278E+03  0.75491633280E+03  0.50400001928E-02 0. -1.
        1   -1    0    0  501    0  0.00000000000E+00  0.00000000000E+00 -0.15101384513E+04  0.15101384514E+04  0.50400001928E-02 0.  1.
    10030    2    1    2    0    0  0.00000000000E+00  0.00000000000E+00 -0.75522211856E+03  0.22650547842E+04  0.21354420448E+04 0.  0.
        5    1    3    3  502    0 -0.10488561736E+04  0.95445801959E+02 -0.19146898583E+03  0.10704632813E+04  0.46999998093E+01 0.  1.
       -5    1    3    3    0  502  0.10488561736E+04 -0.95445801959E+02 -0.56375313274E+03  0.11945915029E+04  0.46999998093E+01 0. -1.
</event>
<event>
 5   0  0.1067434E-05  0.2617817E+04  0.7818609E-02  0.8362174E-01
        1   -1    0    0  501    0  0.00000000000E+00  0.00000000000E+00  0.16923440787E+04  0.16923440787E+04  0.50400001928E-02 0.  1.
       -1   -1    0    0    0  501  0.00000000000E+00  0.00000000000E+00 -0.10123480291E+04  0.10123480291E+04  0.50400001928E-02 0. -1.
    10030    2    1    2    0    0  0.00000000000E+00  0.00000000000E+00  0.67999604955E+03  0.27046921078E+04  0.26178167947E+04 0.  0.
        4    1    3    3  502    0  0.49528937335E+03 -0.12115213433E+04  0.32759759089E+03  0.13492284177E+04  0.12699999809E+01 0.  1.
       -4    1    3    3    0  502 -0.49528937335E+03  0.12115213433E+04  0.35239845866E+03  0.13554636901E+04  0.12699999809E+01 0. -1.
</event>
<event>
 5   0  0.1105862E-05  0.2736958E+04  0.7818609E-02  0.8323112E-01
       -1   -1    0    0    0  501  0.00000000000E+00  0.00000000000E+00  0.95498379519E+03  0.95498379520E+03  0.50400001928E-02 0.  1.
        1   -1    0    0  501    0  0.00000000000E+00  0.00000000000E+00 -0.19610122628E+04  0.19610122628E+04  0.50400001928E-02 0. -1.
    10030    2    1    2    0    0  0.00000000000E+00  0.00000000000E+00 -0.10060284676E+04  0.29159960580E+04  0.27369581167E+04 0.  0.
        3    1    3    3  502    0 -0.42376354008E+03  0.23298167751E+03 -0.18669446550E+04  0.19285586211E+04  0.10100000352E+00 0. -1.
       -3    1    3    3    0  502  0.42376354008E+03 -0.23298167751E+03  0.86091618738E+03  0.98743743693E+03  0.10100000352E+00 0.  1.
</event>
<event>
 5   0  0.1017456E-05  0.2786281E+04  0.7818609E-02  0.8307540E-01
        1   -1    0    0  501    0  0.00000000000E+00  0.00000000000E+00  0.12080687468E+04  0.12080687468E+04  0.50400001928E-02 0.  1.
       -1   -1    0    0    0  501  0.00000000000E+00  0.00000000000E+00 -0.16065646178E+04  0.16065646178E+04  0.50400001928E-02 0. -1.
    10030    2    1    2    0    0  0.00000000000E+00  0.00000000000E+00 -0.39849587097E+03  0.28146333646E+04  0.27862810371E+04 0.  0.
        5    1    3    3  502    0  0.62301117744E+03 -0.47412016765E+03  0.96481707488E+03  0.12425083254E+04  0.46999998093E+01 0.  1.
       -5    1    3    3    0  502 -0.62301117744E+03  0.47412016765E+03 -0.13633129459E+04  0.15721250392E+04  0.46999998093E+01 0. -1.
</event>
<event>
 5   0  0.1078103E-05  0.2811245E+04  0.7818609E-02  0.8299786E-01
        1   -1    0    0  501    0  0.00000000000E+00  0.00000000000E+00  0.12499041675E+04  0.12499041675E+04  0.50400001928E-02 0. -1.
       -1   -1    0    0    0  501  0.00000000000E+00  0.00000000000E+00 -0.15807405237E+04  0.15807405237E+04  0.50400001928E-02 0.  1.
    10030    2    1    2    0    0  0.00000000000E+00  0.00000000000E+00 -0.33083635623E+03  0.28306446912E+04  0.28112446840E+04 0.  0.
        1    1    3    3  502    0  0.10693777225E+04 -0.91091161783E+03 -0.21521122696E+03  0.14211419919E+04  0.50400001928E-02 0.  1.
       -1    1    3    3    0  502 -0.10693777225E+04  0.91091161783E+03 -0.11562512928E+03  0.14095026993E+04  0.50400001928E-02 0. -1.
</event>
<event>
 5   0  0.8958000E-06  0.2388111E+04  0.7818609E-02  0.8443968E-01
        3   -1    0    0  501    0  0.00000000000E+00  0.00000000000E+00  0.15471434604E+04  0.15471434637E+04  0.10100000352E+00 0.  1.
       -3   -1    0    0    0  501  0.00000000000E+00  0.00000000000E+00 -0.92154933976E+03  0.92154934529E+03  0.10100000352E+00 0. -1.
    10030    2    1    2    0    0  0.00000000000E+00  0.00000000000E+00  0.62559412064E+03  0.24686928090E+04  0.23881114257E+04 0.  0.
        3    1    3    3  502    0  0.45305922523E+03 -0.10617868117E+04  0.62824131081E+03  0.13142834739E+04  0.10100000352E+00 0.  1.
       -3    1    3    3    0  502 -0.45305922523E+03  0.10617868117E+04 -0.26471901639E+01  0.11544093351E+04  0.10100000352E+00 0. -1.
</event>
<event>
 5   0  0.2697964E-05  0.2834088E+04  0.7818609E-02  0.8292763E-01
        2   -1    0    0  501    0  0.00000000000E+00  0.00000000000E+00  0.25126927235E+04  0.25126927235E+04  0.25500000920E-02 0. -1.
       -2   -1    0    0    0  501  0.00000000000E+00  0.00000000000E+00 -0.79914817507E+03  0.79914817507E+03  0.25500000920E-02 0.  1.
    10030    2    1    2    0    0  0.00000000000E+00  0.00000000000E+00  0.17135445484E+04  0.33118408985E+04  0.28340880752E+04 0.  0.
        1    1    3    3  502    0  0.45305259025E+01  0.13851473859E+04  0.12060956897E+04  0.18366601806E+04  0.50400001928E-02 0. -1.
       -1    1    3    3    0  502 -0.45305259025E+01 -0.13851473859E+04  0.50744885871E+03  0.14751807179E+04  0.50400001928E-02 0.  1.
</event>
<event>
 5   0  0.1078103E-05  0.2864969E+04  0.7818609E-02  0.8283377E-01
       -1   -1    0    0    0  501  0.00000000000E+00  0.00000000000E+00  0.13315715196E+04  0.13315715196E+04  0.50400001928E-02 0.  1.
        1   -1    0    0  501    0  0.00000000000E+00  0.00000000000E+00 -0.15410449661E+04  0.15410449661E+04  0.50400001928E-02 0. -1.
    10030    2    1    2    0    0  0.00000000000E+00  0.00000000000E+00 -0.20947344645E+03  0.28726164857E+04  0.28649688217E+04 0.  0.
        1    1    3    3  502    0  0.11906832000E+04  0.62984241697E+03  0.38398991279E+03  0.14006699134E+04  0.50400001928E-02 0.  1.
       -1    1    3    3    0  502 -0.11906832000E+04 -0.62984241697E+03 -0.59346335924E+03  0.14719465724E+04  0.50400001928E-02 0. -1.
</event>
<event>
 5   0  0.2624815E-05  0.2430938E+04  0.7818609E-02  0.8428011E-01
       -2   -1    0    0    0  501  0.00000000000E+00  0.00000000000E+00  0.22166889420E+04  0.22166889420E+04  0.25500000920E-02 0. -1.
        2   -1    0    0  501    0  0.00000000000E+00  0.00000000000E+00 -0.66647350887E+03  0.66647350887E+03  0.25500000920E-02 0.  1.
    10030    2    1    2    0    0  0.00000000000E+00  0.00000000000E+00  0.15502154332E+04  0.28831624509E+04  0.24309376440E+04 0.  0.
        4    1    3    3  502    0 -0.13697531277E+03  0.60941270366E+03 -0.46156097107E+03  0.77665064386E+03  0.12699999809E+01 0.  1.
       -4    1    3    3    0  502  0.13697531277E+03 -0.60941270366E+03  0.20117764042E+04  0.21065118070E+04  0.12699999809E+01 0. -1.
</event>
<event>
 5   0  0.2518686E-05  0.2742345E+04  0.7818609E-02  0.8321395E-01
       -2   -1    0    0    0  501  0.00000000000E+00  0.00000000000E+00  0.12507840902E+04  0.12507840902E+04  0.25500000920E-02 0.  1.
        2   -1    0    0  501    0  0.00000000000E+00  0.00000000000E+00 -0.15031481402E+04  0.15031481402E+04  0.25500000920E-02 0. -1.
    10030    2    1    2    0    0  0.00000000000E+00  0.00000000000E+00 -0.25236405005E+03  0.27539322304E+04  0.27423448207E+04 0.  0.
        5    1    3    3  502    0  0.81109524272E+03 -0.88923388861E+03 -0.78582837465E+03  0.14374145977E+04  0.46999998093E+01 0. -1.
       -5    1    3    3    0  502 -0.81109524272E+03  0.88923388861E+03  0.53346432460E+03  0.13165176326E+04  0.46999998093E+01 0.  1.
</event>
<event>
 5   0  0.1075146E-05  0.2788488E+04  0.7818609E-02  0.8306851E-01
        1   -1    0    0  501    0  0.00000000000E+00  0.00000000000E+00  0.19807498096E+04  0.19807498096E+04  0.50400001928E-02 0. -1.
       -1   -1    0    0    0  501  0.00000000000E+00  0.00000000000E+00 -0.98140450568E+03  0.98140450569E+03  0.50400001928E-02 0.  1.
    10030    2    1    2    0    0  0.00000000000E+00  0.00000000000E+00  0.99934530396E+03  0.29621543153E+04  0.27884883273E+04 0.  0.
        2    1    3    3  502    0  0.71615112923E+03  0.60321448718E+03  0.15970525536E+04  0.18513014386E+04  0.25500000920E-02 0. -1.
       -2    1    3    3    0  502 -0.71615112923E+03 -0.60321448718E+03 -0.59770724968E+03  0.11108528767E+04  0.25500000920E-02 0.  1.
</event>
<event>
 5   0  0.1078103E-05  0.1509596E+04  0.7818609E-02  0.8878097E-01
        1   -1    0    0  501    0  0.00000000000E+00  0.00000000000E+00  0.20409635058E+04  0.20409635058E+04  0.50400001928E-02 0. -1.
       -1   -1    0    0    0  501  0.00000000000E+00  0.00000000000E+00 -0.27914267412E+03  0.27914267416E+03  0.50400001928E-02 0.  1.
    10030    2    1    2    0    0  0.00000000000E+00  0.00000000000E+00  0.17618208317E+04  0.23201061800E+04  0.15095959868E+04 0.  0.
        1    1    3    3  502    0  0.44581944626E+03  0.27494724455E+02  0.18160375458E+04  0.18701613049E+04  0.50400001928E-02 0. -1.
       -1    1    3    3    0  502 -0.44581944626E+03 -0.27494724455E+02 -0.54216714077E+02  0.44994487512E+03  0.50400001928E-02 0.  1.
</event>
<event>
 5   0  0.2588048E-05  0.2766084E+04  0.7818609E-02  0.8313876E-01
       -2   -1    0    0    0  501  0.00000000000E+00  0.00000000000E+00  0.12109096056E+04  0.12109096056E+04  0.25500000920E-02 0.  1.
        2   -1    0    0  501    0  0.00000000000E+00  0.00000000000E+00 -0.15796428233E+04  0.15796428233E+04  0.25500000920E-02 0. -1.
    10030    2    1    2    0    0  0.00000000000E+00  0.00000000000E+00 -0.36873321768E+03  0.27905524289E+04  0.27660836345E+04 0.  0.
        2    1    3    3  502    0 -0.35142258935E+03  0.87778895182E+03 -0.12026483070E+04  0.15298281703E+04  0.25500000920E-02 0. -1.
       -2    1    3    3    0  502  0.35142258935E+03 -0.87778895182E+03  0.83391508930E+03  0.12607242587E+04  0.25500000920E-02 0.  1.
</event>
<event>
 5   0  0.1105862E-05  0.2256443E+04  0.7818609E-02  0.8495296E-01
       -1   -1    0    0    0  501  0.00000000000E+00  0.00000000000E+00  0.99561690386E+03  0.99561690387E+03  0.50400001928E-02 0.  1.
        1   -1    0    0  501    0  0.00000000000E+00  0.00000000000E+00 -0.12784879686E+04  0.12784879686E+04  0.50400001928E-02 0. -1.
    10030    2    1    2    0    0  0.00000000000E+00  0.00000000000E+00 -0.28287106478E+03  0.22741048725E+04  0.22564434254E+04 0.  0.
        3    1    3    3  502    0  0.92601839781E+03  0.25360023554E+03 -0.73857719885E+03  0.12113296172E+04  0.10100000352E+00 0. -1.
       -3    1    3    3    0  502 -0.92601839781E+03 -0.25360023554E+03  0.45570613407E+03  0.10627752554E+04  0.10100000352E+00 0.  1.
</event>
<event>
 5   0  0.1105862E-05  0.1873963E+04  0.7818609E-02  0.8667926E-01
       -1   -1    0    0    0  501  0.00000000000E+00  0.00000000000E+00  0.67032039562E+03  0.67032039564E+03  0.50400001928E-02 0.  1.
        1   -1    0    0  501    0  0.00000000000E+00  0.00000000000E+00 -0.13097230937E+04  0.13097230937E+04  0.50400001928E-02 0. -1.
    10030    2    1    2    0    0  0.00000000000E+00  0.00000000000E+00 -0.63940269811E+03  0.19800434894E+04  0.18739627556E+04 0.  0.
        3    1    3    3  502    0 -0.50503029391E+03 -0.31561022693E+03 -0.10840229684E+04  0.12368392052E+04  0.10100000352E+00 0. -1.
       -3    1    3    3    0  502  0.50503029391E+03  0.31561022693E+03  0.44462027032E+03  0.74320428423E+03  0.10100000352E+00 0.  1.
</event>
<event>
 5   0  0.2588048E-05  0.2932802E+04  0.7818609E-02  0.8263184E-01
       -2   -1    0    0    0  501  0.00000000000E+00  0.00000000000E+00  0.12272293739E+04  0.12272293739E+04  0.25500000920E-02 0.  1.
        2   -1    0    0  501    0  0.00000000000E+00  0.00000000000E+00 -0.17521838361E+04  0.17521838361E+04  0.25500000920E-02 0. -1.
    10030    2    1    2    0    0  0.00000000000E+00  0.00000000000E+00 -0.52495446225E+03  0.29794132100E+04  0.29328017131E+04 0.  0.
        2    1    3    3  502    0 -0.11335037553E+04  0.92720454296E+03 -0.33979493843E+03  0.15033295141E+04  0.25500000920E-02 0.  1.
       -2    1    3    3    0  502  0.11335037553E+04 -0.92720454296E+03 -0.18515952382E+03  0.14760836958E+04  0.25500000920E-02 0. -1.
</event>
<event>
 5   0  0.1017456E-05  0.2348308E+04  0.7818609E-02  0.8459114E-01
        1   -1    0    0  501    0  0.00000000000E+00  0.00000000000E+00  0.10857052507E+04  0.10857052507E+04  0.50400001928E-02 0. -1.
       -1   -1    0    0    0  501  0.00000000000E+00  0.00000000000E+00 -0.12698080871E+04  0.12698080872E+04  0.50400001928E-02 0.  1.
    10030    2    1    2    0    0  0.00000000000E+00  0.00000000000E+00 -0.18410283644E+03  0.23555133379E+04  0.23483077376E+04 0.  0.
        5    1    3    3  502    0 -0.10586716645E+04  0.10638223926E+03  0.40597214805E+03  0.11388320109E+04  0.46999998093E+01 0. -1.
       -5    1    3    3    0  502  0.10586716645E+04 -0.10638223926E+03 -0.59007498449E+03  0.12166813270E+04  0.46999998093E+01 0.  1.
</event>
<event>
 5   0  0.2651061E-05  0.2849374E+04  0.7818609E-02  0.8288102E-01
        2   -1    0    0  501    0  0.00000000000E+00  0.00000000000E+00  0.21423943898E+04  0.21423943898E+04  0.25500000920E-02 0. -1.
       -2   -1    0    0    0  501  0.00000000000E+00  0.00000000000E+00 -0.94741302421E+03  0.94741302421E+03  0.25500000920E-02 0.  1.
    10030    2    1    2    0    0  0.00000000000E+00  0.00000000000E+00  0.11949813656E+04  0.30898074140E+04  0.28493735086E+04 0.  0.
        3    1    3    3  502    0  0.53752647238E+03  0.10266574231E+04  0.14961361148E+04  0.18924543475E+04  0.10100000352E+00 0. -1.
       -3    1    3    3    0  502 -0.53752647238E+03 -0.10266574231E+04 -0.30115474923E+03  0.11973530666E+04  0.10100000352E+00 0.  1.
</event>
<event>
 5   0  0.2651061E-05  0.2747297E+04  0.7818609E-02  0.8319820E-01
        2   -1    0    0  501    0  0.00000000000E+00  0.00000000000E+00  0.72569555141E+03  0.72569555142E+03  0.25500000920E-02 0.  1.
       -2   -1    0    0    0  501  0.00000000000E+00  0.00000000000E+00 -0.26001401679E+04  0.26001401679E+04  0.25500000920E-02 0. -1.
    10030    2    1    2    0    0  0.00000000000E+00  0.00000000000E+00 -0.18744446165E+04  0.33258357193E+04  0.27472969646E+04 0.  0.
        3    1    3    3  502    0 -0.46863133351E+02 -0.11550433320E+04 -0.38948143407E+02  0.11566495667E+04  0.10100000352E+00 0.  1.
       -3    1    3    3    0  502  0.46863133351E+02  0.11550433320E+04 -0.18354964731E+04  0.21691861526E+04  0.10100000352E+00 0. -1.
</event>
<event>
 5   0  0.2588048E-05  0.2719442E+04  0.7818609E-02  0.8328724E-01
       -2   -1    0    0    0  501  0.00000000000E+00  0.00000000000E+00  0.88559158030E+03  0.88559158030E+03  0.25500000920E-02 0.  1.
        2   -1    0    0  501    0  0.00000000000E+00  0.00000000000E+00 -0.20876900175E+04  0.20876900175E+04  0.25500000920E-02 0. -1.
    10030    2    1    2    0    0  0.00000000000E+00  0.00000000000E+00 -0.12020984372E+04  0.29732815978E+04  0.27194416352E+04 0.  0.
        2    1    3    3  502    0  0.86256842961E+03 -0.84094068801E+03 -0.12904927367E+04  0.17653829726E+04  0.25500000920E-02 0. -1.
       -2    1    3    3    0  502 -0.86256842961E+03  0.84094068801E+03  0.88394299515E+02  0.12078986252E+04  0.25500000920E-02 0.  1.
</event>
<event>
 5   0  0.1067434E-05  0.2796216E+04  0.7818609E-02  0.8304444E-01
        1   -1    0    0  501    0  0.00000000000E+00  0.00000000000E+00  0.12368698958E+04  0.12368698958E+04  0.50400001928E-02 0. -1.
       -1   -1    0    0    0  501  0.00000000000E+00  0.00000000000E+00 -0.15803655658E+04  0.15803655658E+04  0.50400001928E-02 0.  1.
    10030    2    1    2    0    0  0.00000000000E+00  0.00000000000E+00 -0.34349566995E+03  0.28172354616E+04  0.27962164385E+04 0.  0.
        4    1    3    3  502    0 -0.62777901524E+03 -0.41274398596E+03  0.10162000558E+04  0.12637753979E+04  0.12699999809E+01 0. -1.
       -4    1    3    3    0  502  0.62777901524E+03  0.41274398596E+03 -0.13596957258E+04  0.15534600637E+04  0.12699999809E+01 0.  1.
</event>
<event>
 5   0  0.2697964E-05  0.2174132E+04  0.7818609E-02  0.8529273E-01
        2   -1    0    0  501    0  0.00000000000E+00  0.00000000000E+00  0.17200862337E+04  0.17200862338E+04  0.25500000920E-02 0. -1.
       -2   -1    0    0    0  501  0.00000000000E+00  0.00000000000E+00 -0.68700773085E+03  0.68700773086E+03  0.25500000920E-02 0.  1.
    10030    2    1    2    0    0  0.00000000000E+00  0.00000000000E+00  0.10330785029E+04  0.24070939646E+04  0.21741320478E+04 0.  0.
        1    1    3    3  502    0 -0.68570090129E+03  0.84178298254E+03  0.57645063062E+03  0.12292597957E+04  0.50400001928E-02 0. -1.
       -1    1    3    3    0  502  0.68570090129E+03 -0.84178298254E+03  0.45662787228E+03  0.11778341689E+04  0.50400001928E-02 0.  1.
</event>
<event>
 5   0  0.2588048E-05  0.2789834E+04  0.7818609E-02  0.8306431E-01
        2   -1    0    0  501    0  0.00000000000E+00  0.00000000000E+00  0.16831697014E+04  0.16831697014E+04  0.25500000920E-02 0. -1.
       -2   -1    0    0    0  501  0.00000000000E+00  0.00000000000E+00 -0.11560291997E+04  0.11560291997E+04  0.25500000920E-02 0.  1.
    10030    2    1    2    0    0  0.00000000000E+00  0.00000000000E+00  0.52714050167E+03  0.28391989011E+04  0.27898339182E+04 0.  0.
        2    1    3    3  502    0  0.81465934752E+03 -0.66549414919E+03 -0.66874076667E+03  0.12465017161E+04  0.25500000920E-02 0.  1.
       -2    1    3    3    0  502 -0.81465934752E+03  0.66549414919E+03  0.11958812683E+04  0.15926971850E+04  0.25500000920E-02 0. -1.
</event>
<event>
 5   0  0.2697964E-05  0.2714981E+04  0.7818609E-02  0.8330161E-01
        2   -1    0    0  501    0  0.00000000000E+00  0.00000000000E+00  0.17830493431E+04  0.17830493431E+04  0.25500000920E-02 0.  1.
       -2   -1    0    0    0  501  0.00000000000E+00  0.00000000000E+00 -0.10334992942E+04  0.10334992942E+04  0.25500000920E-02 0. -1.
    10030    2    1    2    0    0  0.00000000000E+00  0.00000000000E+00  0.74955004892E+03  0.28165486374E+04  0.27149808380E+04 0.  0.
        1    1    3    3  502    0 -0.10736242852E+04  0.12631948667E+03 -0.47701041427E+03  0.11815941155E+04  0.50400001928E-02 0. -1.
       -1    1    3    3    0  502  0.10736242852E+04 -0.12631948667E+03  0.12265604632E+04  0.16349545218E+04  0.50400001928E-02 0.  1.
</event>
<event>
 5   0  0.2651061E-05  0.3116861E+04  0.7818609E-02  0.8211126E-01
       -2   -1    0    0    0  501  0.00000000000E+00  0.00000000000E+00  0.12718324839E+04  0.12718324839E+04  0.25500000920E-02 0. -1.
        2   -1    0    0  501    0  0.00000000000E+00  0.00000000000E+00 -0.19096107695E+04  0.19096107695E+04  0.25500000920E-02 0.  1.
    10030    2    1    2    0    0  0.00000000000E+00  0.00000000000E+00 -0.63777828566E+03  0.31814432534E+04  0.31168606053E+04 0.  0.
        3    1    3    3  502    0  0.14710716727E+04 -0.47359650054E+03 -0.52394851204E+03  0.16318295147E+04  0.10100000352E+00 0. -1.
       -3    1    3    3    0  502 -0.14710716727E+04  0.47359650054E+03 -0.11382977361E+03  0.15496137387E+04  0.10100000352E+00 0.  1.
</event>
<event>
 5   0  0.1075146E-05  0.1735311E+04  0.7818609E-02  0.8741478E-01
        1   -1    0    0  501    0  0.00000000000E+00  0.00000000000E+00  0.11816765437E+04  0.11816765437E+04  0.50400001928E-02 0. -1.
       -1   -1    0    0    0  501  0.00000000000E+00  0.00000000000E+00 -0.63708266480E+03  0.63708266482E+03  0.50400001928E-02 0.  1.
    10030    2    1    2    0    0  0.00000000000E+00  0.00000000000E+00  0.54459387889E+03  0.18187592085E+04  0.17353105099E+04 0.  0.
        2    1    3    3  502    0 -0.75030380803E+03  0.61626609482E+02  0.72440111561E+03  0.10447538560E+04  0.25500000920E-02 0. -1.
       -2    1    3    3    0  502  0.75030380803E+03 -0.61626609482E+02 -0.17980723673E+03  0.77400535252E+03  0.25500000920E-02 0.  1.
</event>
<event>
 5   0  0.2697964E-05  0.2787478E+04  0.7818609E-02  0.8307167E-01
        2   -1    0    0  501    0  0.00000000000E+00  0.00000000000E+00  0.15557756090E+04  0.15557756090E+04  0.25500000920E-02 0. -1.
       -2   -1    0    0    0  501  0.00000000000E+00  0.00000000000E+00 -0.12485783728E+04  0.12485783728E+04  0.25500000920E-02 0.  1.
    10030    2    1    2    0    0  0.00000000000E+00  0.00000000000E+00  0.30719723617E+03  0.28043539818E+04  0.27874775539E+04 0.  0.
        1    1    3    3  502    0 -0.35414864937E+03  0.11468004624E+04  0.86636184410E+03  0.14802551845E+04  0.50400001928E-02 0. -1.
       -1    1    3    3    0  502  0.35414864937E+03 -0.11468004624E+04 -0.55916460793E+03  0.13240987973E+04  0.50400001928E-02 0.  1.
</event>
<event>
 5   0  0.2624815E-05  0.2789239E+04  0.7818609E-02  0.8306617E-01
       -2   -1    0    0    0  501  0.00000000000E+00  0.00000000000E+00  0.10928516469E+04  0.10928516469E+04  0.25500000920E-02 0. -1.
        2   -1    0    0  501    0  0.00000000000E+00  0.00000000000E+00 -0.17797143729E+04  0.17797143729E+04  0.25500000920E-02 0.  1.
    10030    2    1    2    0    0  0.00000000000E+00  0.00000000000E+00 -0.68686272598E+03  0.28725660198E+04  0.27892391675E+04 0.  0.
        4    1    3    3  502    0  0.91363961623E+03 -0.40588170051E+02  0.74091313064E+03  0.11770040900E+04  0.12699999809E+01 0. -1.
       -4    1    3    3    0  502 -0.91363961623E+03  0.40588170051E+02 -0.14277758566E+04  0.16955619297E+04  0.12699999809E+01 0.  1.
</event>
<event>
 5   0  0.1078103E-05  0.2815623E+04  0.7818609E-02  0.8298434E-01
       -1   -1    0    0    0  501  0.00000000000E+00  0.00000000000E+00  0.12348112793E+04  0.12348112793E+04  0.50400001928E-02 0.  1.
        1   -1    0    0  501    0  0.00000000000E+00  0.00000000000E+00 -0.16050494867E+04  0.16050494867E+04  0.50400001928E-02 0. -1.
    10030    2    1    2    0    0  0.00000000000E+00  0.00000000000E+00 -0.37023820736E+03  0.28398607660E+04  0.28156229932E+04 0.  0.
        1    1    3    3  502    0 -0.10795385061E+04 -0.87921238148E+03  0.25280101516E+02  0.13925002267E+04  0.50400001928E-02 0. -1.
       -1    1    3    3    0  502  0.10795385061E+04  0.87921238148E+03 -0.39551830887E+03  0.14473605393E+04  0.50400001928E-02 0.  1.
</event>
<event>
 5   0  0.1075146E-05  0.2795839E+04  0.7818609E-02  0.8304561E-01
        1   -1    0    0  501    0  0.00000000000E+00  0.00000000000E+00  0.24121570309E+04  0.24121570309E+04  0.50400001928E-02 0.  1.
       -1   -1    0    0    0  501  0.00000000000E+00  0.00000000000E+00 -0.81013769508E+03  0.81013769510E+03  0.50400001928E-02 0. -1.
    10030    2    1    2    0    0  0.00000000000E+00  0.00000000000E+00  0.16020193358E+04  0.32222947260E+04  0.27958392924E+04 0.  0.
        2    1    3    3  502    0 -0.26443668175E+03  0.37764371439E+02  0.23824696233E+04  0.23973974247E+04  0.25500000920E-02 0.  1.
       -2    1    3    3    0  502  0.26443668175E+03 -0.37764371439E+02 -0.78045028745E+03  0.82489730124E+03  0.25500000920E-02 0. -1.
</event>
<event>
 5   0  0.1017456E-05  0.2819100E+04  0.7818609E-02  0.8297363E-01
       -1   -1    0    0    0  501  0.00000000000E+00  0.00000000000E+00  0.88451315830E+03  0.88451315832E+03  0.50400001928E-02 0.  1.
        1   -1    0    0  501    0  0.00000000000E+00  0.00000000000E+00 -0.22462423454E+04  0.22462423454E+04  0.50400001928E-02 0. -1.
    10030    2    1    2    0    0  0.00000000000E+00  0.00000000000E+00 -0.13617291871E+04  0.31307555038E+04  0.28190997934E+04 0.  0.
        5    1    3    3  502    0 -0.12018727658E+04  0.19641441216E+03 -0.14690683440E+04  0.19082087558E+04  0.46999998093E+01 0. -1.
       -5    1    3    3    0  502  0.12018727658E+04 -0.19641441216E+03  0.10733915683E+03  0.12225467480E+04  0.46999998093E+01 0.  1.
</event>
<event>
 5   0  0.8958000E-06  0.2963747E+04  0.7818609E-02  0.8254160E-01
        3   -1    0    0  501    0  0.00000000000E+00  0.00000000000E+00  0.17022403886E+04  0.17022403916E+04  0.10100000352E+00 0.  1.
       -3   -1    0    0    0  501  0.00000000000E+00  0.00000000000E+00 -0.12900346570E+04  0.12900346610E+04  0.10100000352E+00 0. -1.
    10030    2    1    2    0    0  0.00000000000E+00  0.00000000000E+00  0.41220573159E+03  0.29922750525E+04  0.29637470244E+04 0.  0.
        1    1    3    3  502    0  0.12690250489E+04 -0.62313094214E+03 -0.24228047332E+03  0.14343697479E+04  0.50400001928E-02 0. -1.
       -1    1    3    3    0  502 -0.12690250489E+04  0.62313094214E+03  0.65448620491E+03  0.15579053047E+04  0.50400001928E-02 0.  1.
</event>
<event>
 5   0  0.1105862E-05  0.2788074E+04  0.7818609E-02  0.8306980E-01
       -1   -1    0    0    0  501  0.00000000000E+00  0.00000000000E+00  0.10580367987E+04  0.10580367987E+04  0.50400001928E-02 0.  1.
        1   -1    0    0  501    0  0.00000000000E+00  0.00000000000E+00 -0.18367410684E+04  0.18367410684E+04  0.50400001928E-02 0. -1.
    10030    2    1    2    0    0  0.00000000000E+00  0.00000000000E+00 -0.77870426965E+03  0.28947778671E+04  0.27880743463E+04 0.  0.
        3    1    3    3  502    0  0.50339642924E+03  0.83792589574E+03 -0.14212768417E+04  0.17249798964E+04  0.10100000352E+00 0. -1.
       -3    1    3    3    0  502 -0.50339642924E+03 -0.83792589574E+03  0.64257257210E+03  0.11697979707E+04  0.10100000352E+00 0.  1.
</event>
<event>
 5   0  0.2624815E-05  0.2386148E+04  0.7818609E-02  0.8444708E-01
       -2   -1    0    0    0  501  0.00000000000E+00  0.00000000000E+00  0.78303068686E+03  0.78303068687E+03  0.25500000920E-02 0. -1.
        2   -1    0    0  501    0  0.00000000000E+00  0.00000000000E+00 -0.18178421016E+04  0.18178421016E+04  0.25500000920E-02 0.  1.
    10030    2    1    2    0    0  0.00000000000E+00  0.00000000000E+00 -0.10348114148E+04  0.26008727885E+04  0.23861484861E+04 0.  0.
        4    1    3    3  502    0 -0.65966913019E+03 -0.98028419816E+03 -0.33729675162E+03  0.12287762946E+04  0.12699999809E+01 0.  1.
       -4    1    3    3    0  502  0.65966913019E+03  0.98028419816E+03 -0.69751466316E+03  0.13720964940E+04  0.12699999809E+01 0. -1.
</event>
<event>
 5   0  0.1078103E-05  0.2753539E+04  0.7818609E-02  0.8317840E-01
        1   -1    0    0  501    0  0.00000000000E+00  0.00000000000E+00  0.12446899085E+04  0.12446899085E+04  0.50400001928E-02 0. -1.
       -1   -1    0    0    0  501  0.00000000000E+00  0.00000000000E+00 -0.15228642959E+04  0.15228642959E+04  0.50400001928E-02 0.  1.
    10030    2    1    2    0    0  0.00000000000E+00  0.00000000000E+00 -0.27817438738E+03  0.27675542045E+04  0.27535386841E+04 0.  0.
        1    1    3    3  502    0 -0.17066618708E+03 -0.47052205003E+03  0.11500072004E+04  0.12542067246E+04  0.50400001928E-02 0. -1.
       -1    1    3    3    0  502  0.17066618708E+03  0.47052205003E+03 -0.14281815878E+04  0.15133474799E+04  0.50400001928E-02 0.  1.
</event>
<event>
 5   0  0.2518686E-05  0.2687100E+04  0.7818609E-02  0.8339203E-01
       -2   -1    0    0    0  501  0.00000000000E+00  0.00000000000E+00  0.14663405169E+04  0.14663405169E+04  0.25500000920E-02 0. -1.
        2   -1    0    0  501    0  0.00000000000E+00  0.00000000000E+00 -0.12310419477E+04  0.12310419477E+04  0.25500000920E-02 0.  1.
    10030    2    1    2    0    0  0.00000000000E+00  0.00000000000E+00  0.23529856922E+03  0.26973824646E+04  0.26871000621E+04 0.  0.
        5    1    3    3  502    0 -0.75271995133E+03  0.49444979870E+03 -0.88317974362E+03  0.12613867282E+04  0.46999998093E+01 0.  1.
       -5    1    3    3    0  502  0.75271995133E+03 -0.49444979870E+03  0.11184783128E+04  0.14359957364E+04  0.46999998093E+01 0. -1.
</event>
<event>
 5   0  0.2518686E-05  0.1736055E+04  0.7818609E-02  0.8741064E-01
        2   -1    0    0  501    0  0.00000000000E+00  0.00000000000E+00  0.10951044334E+04  0.10951044334E+04  0.25500000920E-02 0. -1.
       -2   -1    0    0    0  501  0.00000000000E+00  0.00000000000E+00 -0.68803653824E+03  0.68803653824E+03  0.25500000920E-02 0.  1.
    10030    2    1    2    0    0  0.00000000000E+00  0.00000000000E+00  0.40706789521E+03  0.17831409717E+04  0.17360551413E+04 0.  0.
        5    1    3    3  502    0 -0.57217270583E+03 -0.16683271881E+03  0.85170836137E+03  0.10395402754E+04  0.46999998093E+01 0. -1.
       -5    1    3    3    0  502  0.57217270583E+03  0.16683271881E+03 -0.44464046616E+03  0.74360069628E+03  0.46999998093E+01 0.  1.
</event>
<event>
 5   0  0.2518686E-05  0.2508851E+04  0.7818609E-02  0.8399839E-01
       -2   -1    0    0    0  501  0.00000000000E+00  0.00000000000E+00  0.11220651217E+04  0.11220651217E+04  0.25500000920E-02 0.  1.
        2   -1    0    0  501    0  0.00000000000E+00  0.00000000000E+00 -0.14023995084E+04  0.14023995084E+04  0.25500000920E-02 0. -1.
    10030    2    1    2    0    0  0.00000000000E+00  0.00000000000E+00 -0.28033438669E+03  0.25244646301E+04  0.25088511913E+04 0.  0.
        5    1    3    3  502    0 -0.10870756719E+04 -0.58006424719E+03 -0.37690449145E+03  0.12885212970E+04  0.46999998093E+01 0. -1.
       -5    1    3    3    0  502  0.10870756719E+04  0.58006424719E+03  0.96570104760E+02  0.12359433330E+04  0.46999998093E+01 0.  1.
</event>
<event>
 5   0  0.2588048E-05  0.2924662E+04  0.7818609E-02  0.8265577E-01
       -2   -1    0    0    0  501  0.00000000000E+00  0.00000000000E+00  0.10223716455E+04  0.10223716455E+04  0.25500000920E-02 0.  1.
        2   -1    0    0  501    0  0.00000000000E+00  0.00000000000E+00 -0.20916195251E+04  0.20916195251E+04  0.25500000920E-02 0. -1.
    10030    2    1    2    0    0  0.00000000000E+00  0.00000000000E+00 -0.10692478796E+04  0.31139911706E+04  0.29246623707E+04 0.  0.
        2    1    3    3  502    0  0.13871626418E+03 -0.56156405563E+03 -0.19646296428E+04  0.20480151425E+04  0.25500000920E-02 0. -1.
       -2    1    3    3    0  502 -0.13871626418E+03  0.56156405563E+03  0.89538176325E+03  0.10659760281E+04  0.25500000920E-02 0.  1.
</event>
<event>
 5   0  0.1067434E-05  0.2802241E+04  0.7818609E-02  0.8302573E-01
        1   -1    0    0  501    0  0.00000000000E+00  0.00000000000E+00  0.17214241830E+04  0.17214241831E+04  0.50400001928E-02 0.  1.
       -1   -1    0    0    0  501  0.00000000000E+00  0.00000000000E+00 -0.11404156729E+04  0.11404156729E+04  0.50400001928E-02 0. -1.
    10030    2    1    2    0    0  0.00000000000E+00  0.00000000000E+00  0.58100851019E+03  0.28618398559E+04  0.28022413301E+04 0.  0.
        4    1    3    3  502    0 -0.12456518844E+04  0.88671142928E+02  0.93933217636E+03  0.15626444698E+04  0.12699999809E+01 0.  1.
       -4    1    3    3    0  502  0.12456518844E+04 -0.88671142928E+02 -0.35832366616E+03  0.12991953861E+04  0.12699999809E+01 0. -1.
</event>
<event>
 5   0  0.2697964E-05  0.2838068E+04  0.7818609E-02  0.8291546E-01
        2   -1    0    0  501    0  0.00000000000E+00  0.00000000000E+00  0.21806581695E+04  0.21806581695E+04  0.25500000920E-02 0.  1.
       -2   -1    0    0    0  501  0.00000000000E+00  0.00000000000E+00 -0.92341727381E+03  0.92341727381E+03  0.25500000920E-02 0. -1.
    10030    2    1    2    0    0  0.00000000000E+00  0.00000000000E+00  0.12572408957E+04  0.31040754433E+04  0.28380679499E+04 0.  0.
        1    1    3    3  502    0 -0.11829714028E+04 -0.51204930931E+03  0.12775633158E+04  0.18148784701E+04  0.50400001928E-02 0.  1.
       -1    1    3    3    0  502  0.11829714028E+04  0.51204930931E+03 -0.20322420112E+02  0.12891969733E+04  0.50400001928E-02 0. -1.
</event>
<event>
 5   0  0.2518686E-05  0.2737555E+04  0.7818609E-02  0.8322922E-01
       -2   -1    0    0    0  501  0.00000000000E+00  0.00000000000E+00  0.77463471173E+03  0.77463471174E+03  0.25500000920E-02 0.  1.
        2   -1    0    0  501    0  0.00000000000E+00  0.00000000000E+00 -0.24186257203E+04  0.24186257204E+04  0.25500000920E-02 0. -1.
    10030    2    1    2    0    0  0.00000000000E+00  0.00000000000E+00 -0.16439910086E+04  0.31932604321E+04  0.27375547028E+04 0.  0.
        5    1    3    3  502    0 -0.80269372771E+03 -0.54647996701E+03 -0.19472388956E+04  0.21759409416E+04  0.46999998093E+01 0. -1.
       -5    1    3    3    0  502  0.80269372771E+03  0.54647996701E+03  0.30324788694E+03  0.10173194905E+04  0.46999998093E+01 0.  1.
</event>
<event>
 5   0  0.2624815E-05  0.2954742E+04  0.7818609E-02  0.8256774E-01
        2   -1    0    0  501    0  0.00000000000E+00  0.00000000000E+00  0.14440653492E+04  0.14440653492E+04  0.25500000920E-02 0.  1.
       -2   -1    0    0    0  501  0.00000000000E+00  0.00000000000E+00 -0.15114446748E+04  0.15114446748E+04  0.25500000920E-02 0. -1.
    10030    2    1    2    0    0  0.00000000000E+00  0.00000000000E+00 -0.67379325552E+02  0.29555100240E+04  0.29547418718E+04 0.  0.
        4    1    3    3  502    0 -0.13160772263E+04  0.50961395114E+03 -0.47067578727E+03  0.14877173637E+04  0.12699999809E+01 0. -1.
       -4    1    3    3    0  502  0.13160772263E+04 -0.50961395114E+03  0.40329646171E+03  0.14677926603E+04  0.12699999809E+01 0.  1.
</event>
<event>
 5   0  0.2651061E-05  0.1808980E+04  0.7818609E-02  0.8701538E-01
       -2   -1    0    0    0  501  0.00000000000E+00  0.00000000000E+00  0.43108445419E+03  0.43108445420E+03  0.25500000920E-02 0.  1.
        2   -1    0    0  501    0  0.00000000000E+00  0.00000000000E+00 -0.18977773880E+04  0.18977773880E+04  0.25500000920E-02 0. -1.
    10030    2    1    2    0    0  0.00000000000E+00  0.00000000000E+00 -0.14666929338E+04  0.23288618422E+04  0.18089801873E+04 0.  0.
        3    1    3    3  502    0 -0.42201930570E+02 -0.22968123965E+03 -0.18582977887E+04  0.18729135475E+04  0.10100000352E+00 0. -1.
       -3    1    3    3    0  502  0.42201930570E+02  0.22968123965E+03  0.39160485493E+03  0.45594829465E+03  0.10100000352E+00 0.  1.
</event>
<event>
 5   0  0.2518686E-05  0.2787362E+04  0.7818609E-02  0.8307203E-01
       -2   -1    0    0    0  501  0.00000000000E+00  0.00000000000E+00  0.15036606521E+04  0.15036606521E+04  0.25500000920E-02 0. -1.
        2   -1    0    0  501    0  0.00000000000E+00  0.00000000000E+00 -0.12917455076E+04  0.12917455076E+04  0.25500000920E-02 0.  1.
    10030    2    1    2    0    0  0.00000000000E+00  0.00000000000E+00  0.21191514447E+03  0.27954061598E+04  0.27873621167E+04 0.  0.
        5    1    3    3  502    0 -0.12200319457E+04  0.48370859842E+03  0.57621679660E+03  0.14333526584E+04  0.46999998093E+01 0. -1.
       -5    1    3    3    0  502  0.12200319457E+04 -0.48370859842E+03 -0.36430165213E+03  0.13620535013E+04  0.46999998093E+01 0.  1.
</event>
<event>
 5   0  0.1067434E-05  0.2656402E+04  0.7818609E-02  0.8349291E-01
       -1   -1    0    0    0  501  0.00000000000E+00  0.00000000000E+00  0.97673021978E+03  0.97673021979E+03  0.50400001928E-02 0.  1.
        1   -1    0    0  501    0  0.00000000000E+00  0.00000000000E+00 -0.18061463909E+04  0.18061463909E+04  0.50400001928E-02 0. -1.
    10030    2    1    2    0    0  0.00000000000E+00  0.00000000000E+00 -0.82941617107E+03  0.27828766107E+04  0.26564018983E+04 0.  0.
        4    1    3    3  502    0 -0.11061666887E+04 -0.67239169143E+03 -0.10322941527E+03  0.12986043489E+04  0.12699999809E+01 0. -1.
       -4    1    3    3    0  502  0.11061666887E+04  0.67239169143E+03 -0.72618675580E+03  0.14842722618E+04  0.12699999809E+01 0.  1.
</event>
<event>
 5   0  0.1105862E-05  0.2048191E+04  0.7818609E-02  0.8584416E-01
        1   -1    0    0  501    0  0.00000000000E+00  0.00000000000E+00  0.85995499576E+03  0.85995499577E+03  0.50400001928E-02 0.  1.
       -1   -1    0    0    0  501  0.00000000000E+00  0.00000000000E+00 -0.12195651816E+04  0.12195651816E+04  0.50400001928E-02 0. -1.
    10030    2    1    2    0    0  0.00000000000E+00  0.00000000000E+00 -0.35961018581E+03  0.20795201773E+04  0.20481905874E+04 0.  0.
        3    1    3    3  502    0 -0.19716328347E+03  0.32465190458E+03  0.78579389967E+03  0.87277962995E+03  0.10100000352E+00 0.  1.
       -3    1    3    3    0  502  0.19716328347E+03 -0.32465190458E+03 -0.11454040855E+04  0.12067405474E+04  0.10100000352E+00 0. -1.
</event>
<event>
 5   0  0.1017456E-05  0.2792542E+04  0.7818609E-02  0.8305588E-01
       -1   -1    0    0    0  501  0.00000000000E+00  0.00000000000E+00  0.15160923623E+04  0.15160923623E+04  0.50400001928E-02 0.  1.
        1   -1    0    0  501    0  0.00000000000E+00  0.00000000000E+00 -0.12859194386E+04  0.12859194386E+04  0.50400001928E-02 0. -1.
    10030    2    1    2    0    0  0.00000000000E+00  0.00000000000E+00  0.23017292364E+03  0.28020118009E+04  0.27925419527E+04 0.  0.
        5    1    3    3  502    0 -0.62953603365E+03  0.11313567829E+04 -0.40943547811E+03  0.13579187341E+04  0.46999998093E+01 0. -1.
       -5    1    3    3    0  502  0.62953603365E+03 -0.11313567829E+04  0.63960840175E+03  0.14440930667E+04  0.46999998093E+01 0.  1.
</event>
<event>
 5   0  0.2697964E-05  0.2839955E+04  0.7818609E-02  0.8290970E-01
        2   -1    0    0  501    0  0.00000000000E+00  0.00000000000E+00  0.10197820378E+04  0.10197820378E+04  0.25500000920E-02 0.  1.
       -2   -1    0    0    0  501  0.00000000000E+00  0.00000000000E+00 -0.19772232888E+04  0.19772232888E+04  0.25500000920E-02 0. -1.
    10030    2    1    2    0    0  0.00000000000E+00  0.00000000000E+00 -0.95744125098E+03  0.29970053267E+04  0.28399554889E+04 0.  0.
        1    1    3    3  502    0  0.39572152149E+03  0.12192607299E+04 -0.11233565877E+04  0.17044419243E+04  0.50400001928E-02 0. -1.
       -1    1    3    3    0  502 -0.39572152149E+03 -0.12192607299E+04  0.16591533674E+03  0.12925634024E+04  0.50400001928E-02 0.  1.
</event>
<event>
 5   0  0.2518686E-05  0.2772582E+04  0.7818609E-02  0.8311831E-01
        2   -1    0    0  501    0  0.00000000000E+00  0.00000000000E+00  0.15440304942E+04  0.15440304942E+04  0.25500000920E-02 0.  1.
       -2   -1    0    0    0  501  0.00000000000E+00  0.00000000000E+00 -0.12446663645E+04  0.12446663645E+04  0.25500000920E-02 0. -1.
    10030    2    1    2    0    0  0.00000000000E+00  0.00000000000E+00  0.29936412965E+03  0.27886968587E+04  0.27725820615E+04 0.  0.
        5    1    3    3  502    0 -0.46014320550E+03 -0.30991503459E+03  0.14274997173E+04  0.15315210188E+04  0.46999998093E+01 0.  1.
       -5    1    3    3    0  502  0.46014320550E+03  0.30991503459E+03 -0.11281355876E+04  0.12571758399E+04  0.46999998093E+01 0. -1.
</event>
<event>
 5   0  0.1017456E-05  0.2764082E+04  0.7818609E-02  0.8314507E-01
        1   -1    0    0  501    0  0.00000000000E+00  0.00000000000E+00  0.26432657728E+04  0.26432657728E+04  0.50400001928E-02 0.  1.
       -1   -1    0    0    0  501  0.00000000000E+00  0.00000000000E+00 -0.72260529771E+03  0.72260529773E+03  0.50400001928E-02 0. -1.
    10030    2    1    2    0    0  0.00000000000E+00  0.00000000000E+00  0.19206604751E+04  0.33658710705E+04  0.27640823799E+04 0.  0.
        5    1    3    3  502    0  0.11529105990E+04 -0.14270248289E+03  0.48708842065E+02  0.11627387880E+04  0.46999998093E+01 0. -1.
       -5    1    3    3    0  502 -0.11529105990E+04  0.14270248289E+03  0.18719516330E+04  0.22031322825E+04  0.46999998093E+01 0.  1.
</event>
<event>
 5   0  0.1078103E-05  0.2756528E+04  0.7818609E-02  0.8316893E-01
       -1   -1    0    0    0  501  0.00000000000E+00  0.00000000000E+00  0.10635689349E+04  0.10635689349E+04  0.50400001928E-02 0.  1.
        1   -1    0    0  501    0  0.00000000000E+00  0.00000000000E+00 -0.17860734249E+04  0.17860734249E+04  0.50400001928E-02 0. -1.
    10030    2    1    2    0    0  0.00000000000E+00  0.00000000000E+00 -0.72250449003E+03  0.28496423598E+04  0.27565284037E+04 0.  0.
        1    1    3    3  502    0  0.32009277772E+03 -0.17816216019E+03 -0.17348222821E+04  0.17730790993E+04  0.50400001928E-02 0. -1.
       -1    1    3    3    0  502 -0.32009277772E+03  0.17816216019E+03  0.10123177921E+04  0.10765632605E+04  0.50400001928E-02 0.  1.
</event>
<event>
 5   0  0.2588048E-05  0.2295584E+04  0.7818609E-02  0.8479664E-01
        2   -1    0    0  501    0  0.00000000000E+00  0.00000000000E+00  0.77727502259E+03  0.77727502260E+03  0.25500000920E-02 0. -1.
       -2   -1    0    0    0  501  0.00000000000E+00  0.00000000000E+00 -0.16949303785E+04  0.16949303785E+04  0.25500000920E-02 0.  1.
    10030    2    1    2    0    0  0.00000000000E+00  0.00000000000E+00 -0.91765535587E+03  0.24722054011E+04  0.22955844992E+04 0.  0.
        2    1    3    3  502    0 -0.52077854419E+02  0.76717975629E+03  0.45888025968E+03  0.89545964404E+03  0.25500000920E-02 0. -1.
       -2    1    3    3    0  502  0.52077854419E+02 -0.76717975629E+03 -0.13765356156E+04  0.15767457570E+04  0.25500000920E-02 0.  1.
</event>
<event>
 5   0  0.1078103E-05  0.2716498E+04  0.7818609E-02  0.8329672E-01
       -1   -1    0    0    0  501  0.00000000000E+00  0.00000000000E+00  0.11160913692E+04  0.11160913693E+04  0.50400001928E-02 0. -1.
        1   -1    0    0  501    0  0.00000000000E+00  0.00000000000E+00 -0.16529478338E+04  0.16529478338E+04  0.50400001928E-02 0.  1.
    10030    2    1    2    0    0  0.00000000000E+00  0.00000000000E+00 -0.53685646455E+03  0.27690392031E+04  0.27164983424E+04 0.  0.
        1    1    3    3  502    0 -0.10197108338E+04 -0.77403234703E+03  0.19411532294E+03  0.12948424682E+04  0.50400001928E-02 0. -1.
       -1    1    3    3    0  502  0.10197108338E+04  0.77403234703E+03 -0.73097178749E+03  0.14741967348E+04  0.50400001928E-02 0.  1.
</event>
<event>
 5   0  0.2624815E-05  0.2790802E+04  0.7818609E-02  0.8306130E-01
        2   -1    0    0  501    0  0.00000000000E+00  0.00000000000E+00  0.24417491315E+04  0.24417491315E+04  0.25500000920E-02 0.  1.
       -2   -1    0    0    0  501  0.00000000000E+00  0.00000000000E+00 -0.79743809204E+03  0.79743809204E+03  0.25500000920E-02 0. -1.
    10030    2    1    2    0    0  0.00000000000E+00  0.00000000000E+00  0.16443110394E+04  0.32391872235E+04  0.27908018695E+04 0.  0.
        4    1    3    3  502    0 -0.16091959901E+03  0.46120947624E+03  0.23392712563E+04  0.23897282108E+04  0.12699999809E+01 0.  1.
       -4    1    3    3    0  502  0.16091959901E+03 -0.46120947624E+03 -0.69496021685E+03  0.84945901268E+03  0.12699999809E+01 0. -1.
</event>
<event>
 5   0  0.2697964E-05  0.2792552E+04  0.7818609E-02  0.8305585E-01
       -2   -1    0    0    0  501  0.00000000000E+00  0.00000000000E+00  0.11613845518E+04  0.11613845518E+04  0.25500000920E-02 0.  1.
        2   -1    0    0  501    0  0.00000000000E+00  0.00000000000E+00 -0.16786740223E+04  0.16786740223E+04  0.25500000920E-02 0. -1.
    10030    2    1    2    0    0  0.00000000000E+00  0.00000000000E+00 -0.51728947043E+03  0.28400585741E+04  0.27925515766E+04 0.  0.
        1    1    3    3  502    0 -0.72479337269E+03 -0.72520731927E+03  0.70528472025E+03  0.12444587682E+04  0.50400001928E-02 0.  1.
       -1    1    3    3    0  502  0.72479337269E+03  0.72520731927E+03 -0.12225741907E+04  0.15955998060E+04  0.50400001928E-02 0. -1.
</event>
<event>
 5   0  0.2518686E-05  0.2815091E+04  0.7818609E-02  0.8298599E-01
       -2   -1    0    0    0  501  0.00000000000E+00  0.00000000000E+00  0.11955917228E+04  0.11955917228E+04  0.25500000920E-02 0.  1.
        2   -1    0    0  501    0  0.00000000000E+00  0.00000000000E+00 -0.16570738956E+04  0.16570738956E+04  0.25500000920E-02 0. -1.
    10030    2    1    2    0    0  0.00000000000E+00  0.00000000000E+00 -0.46148217286E+03  0.28526656184E+04  0.28150906441E+04 0.  0.
        5    1    3    3  502    0  0.41622830046E+03  0.68622179362E+03 -0.14024687637E+04  0.16158858473E+04  0.46999998093E+01 0. -1.
       -5    1    3    3    0  502 -0.41622830046E+03 -0.68622179362E+03  0.94098659086E+03  0.12367797711E+04  0.46999998093E+01 0.  1.
</event>
<event>
 5   0  0.1078103E-05  0.2402842E+04  0.7818609E-02  0.8438440E-01
       -1   -1    0    0    0  501  0.00000000000E+00  0.00000000000E+00  0.12706640941E+04  0.12706640941E+04  0.50400001928E-02 0.  1.
        1   -1    0    0  501    0  0.00000000000E+00  0.00000000000E+00 -0.11359514389E+04  0.11359514389E+04  0.50400001928E-02 0. -1.
    10030    2    1    2    0    0  0.00000000000E+00  0.00000000000E+00  0.13471265524E+03  0.24066155330E+04  0.24028422387E+04 0.  0.
        1    1    3    3  502    0 -0.10033464682E+04 -0.39321982527E+03 -0.46459609794E+03  0.11735312099E+04  0.50400001928E-02 0. -1.
       -1    1    3    3    0  502  0.10033464682E+04  0.39321982527E+03  0.59930875318E+03  0.12330843231E+04  0.50400001928E-02 0.  1.
</event>
<event>
 5   0  0.8958000E-06  0.2836095E+04  0.7818609E-02  0.8292149E-01
        3   -1    0    0  501    0  0.00000000000E+00  0.00000000000E+00  0.13528038764E+04  0.13528038802E+04  0.10100000352E+00 0. -1.
       -3   -1    0    0    0  501  0.00000000000E+00  0.00000000000E+00 -0.14864373971E+04  0.14864374005E+04  0.10100000352E+00 0.  1.
    10030    2    1    2    0    0  0.00000000000E+00  0.00000000000E+00 -0.13363352070E+03  0.28392412807E+04  0.28360946973E+04 0.  0.
        4    1    3    3  502    0 -0.16461648294E+03  0.56601660943E+03 -0.13579698504E+04  0.14803908660E+04  0.12699999809E+01 0.  1.
       -4    1    3    3    0  502  0.16461648294E+03 -0.56601660943E+03  0.12243363297E+04  0.13588504147E+04  0.12699999809E+01 0. -1.
</event>
<event>
 5   0  0.2624815E-05  0.2767891E+04  0.7818609E-02  0.8313307E-01
        2   -1    0    0  501    0  0.00000000000E+00  0.00000000000E+00  0.11981245230E+04  0.11981245230E+04  0.25500000920E-02 0. -1.
       -2   -1    0    0    0  501  0.00000000000E+00  0.00000000000E+00 -0.15985862650E+04  0.15985862650E+04  0.25500000920E-02 0.  1.
    10030    2    1    2    0    0  0.00000000000E+00  0.00000000000E+00 -0.40046174199E+03  0.27967107881E+04  0.27678911874E+04 0.  0.
        4    1    3    3  502    0  0.41657246166E+03  0.12804680097E+04 -0.52320393738E+03  0.14446019910E+04  0.12699999809E+01 0. -1.
       -4    1    3    3    0  502 -0.41657246166E+03 -0.12804680097E+04  0.12274219540E+03  0.13521087970E+04  0.12699999809E+01 0.  1.
</event>
<event>
 5   0  0.1067434E-05  0.2771447E+04  0.7818609E-02  0.8312188E-01
       -1   -1    0    0    0  501  0.00000000000E+00  0.00000000000E+00  0.11104691768E+04  0.11104691768E+04  0.50400001928E-02 0.  1.
        1   -1    0    0  501    0  0.00000000000E+00  0.00000000000E+00 -0.17292060555E+04  0.17292060555E+04  0.50400001928E-02 0. -1.
    10030    2    1    2    0    0  0.00000000000E+00  0.00000000000E+00 -0.61873687873E+03  0.28396752323E+04  0.27714472934E+04 0.  0.
        4    1    3    3  502    0 -0.70305409029E+03 -0.69094151360E+03  0.68853978845E+03  0.12024033775E+04  0.12699999809E+01 0.  1.
       -4    1    3    3    0  502  0.70305409029E+03  0.69094151360E+03 -0.13072766672E+04  0.16372718548E+04  0.12699999809E+01 0. -1.
</event>
<event>
 5   0  0.2624815E-05  0.2730337E+04  0.7818609E-02  0.8325228E-01
        2   -1    0    0  501    0  0.00000000000E+00  0.00000000000E+00  0.12042475399E+04  0.12042475399E+04  0.25500000920E-02 0. -1.
       -2   -1    0    0    0  501  0.00000000000E+00  0.00000000000E+00 -0.15475932293E+04  0.15475932293E+04  0.25500000920E-02 0.  1.
    10030    2    1    2    0    0  0.00000000000E+00  0.00000000000E+00 -0.34334568933E+03  0.27518407692E+04  0.27303372240E+04 0.  0.
        4    1    3    3  502    0 -0.12183384020E+04  0.52380457719E+03 -0.49820597946E+03  0.14166617478E+04  0.12699999809E+01 0.  1.
       -4    1    3    3    0  502  0.12183384020E+04 -0.52380457719E+03  0.15486029012E+03  0.13351790214E+04  0.12699999809E+01 0. -1.
</event>
<event>
 5   0  0.1075146E-05  0.2761373E+04  0.7818609E-02  0.8315362E-01
        1   -1    0    0  501    0  0.00000000000E+00  0.00000000000E+00  0.19188541969E+04  0.19188541969E+04  0.50400001928E-02 0. -1.
       -1   -1    0    0    0  501  0.00000000000E+00  0.00000000000E+00 -0.99345496197E+03  0.99345496198E+03  0.50400001928E-02 0.  1.
    10030    2    1    2    0    0  0.00000000000E+00  0.00000000000E+00  0.92539923491E+03  0.29123091589E+04  0.27613730086E+04 0.  0.
        2    1    3    3  502    0  0.11162218501E+04  0.24520135151E+03  0.12797855641E+04  0.17157872862E+04  0.25500000920E-02 0. -1.
       -2    1    3    3    0  502 -0.11162218501E+04 -0.24520135151E+03 -0.35438632919E+03  0.11965218727E+04  0.25500000920E-02 0.  1.
</event>
<event>
 5   0  0.2697964E-05  0.2709500E+04  0.7818609E-02  0.8331929E-01
        2   -1    0    0  501    0  0.00000000000E+00  0.00000000000E+00  0.10035732216E+04  0.10035732216E+04  0.25500000920E-02 0.  1.
       -2   -1    0    0    0  501  0.00000000000E+00  0.00000000000E+00 -0.18288125358E+04  0.18288125358E+04  0.25500000920E-02 0. -1.
    10030    2    1    2    0    0  0.00000000000E+00  0.00000000000E+00 -0.82523931420E+03  0.28323857575E+04  0.27094997976E+04 0.  0.
        1    1    3    3  502    0  0.19154732435E+03 -0.30330929728E+03 -0.17782615546E+04  0.18140840840E+04  0.50400001928E-02 0. -1.
       -1    1    3    3    0  502 -0.19154732435E+03  0.30330929728E+03  0.95302224043E+03  0.10183016734E+04  0.50400001928E-02 0.  1.
</event>
<event>
 5   0  0.1105862E-05  0.2811006E+04  0.7818609E-02  0.8299859E-01
       -1   -1    0    0    0  501  0.00000000000E+00  0.00000000000E+00  0.12566839852E+04  0.12566839852E+04  0.50400001928E-02 0.  1.
        1   -1    0    0  501    0  0.00000000000E+00  0.00000000000E+00 -0.15719457396E+04  0.15719457396E+04  0.50400001928E-02 0. -1.
    10030    2    1    2    0    0  0.00000000000E+00  0.00000000000E+00 -0.31526175440E+03  0.28286297248E+04  0.28110062515E+04 0.  0.
        3    1    3    3  502    0  0.69781901645E+01  0.12909677325E+04  0.40154414430E+03  0.13519926373E+04  0.10100000352E+00 0. -1.
       -3    1    3    3    0  502 -0.69781901645E+01 -0.12909677325E+04 -0.71680589870E+03  0.14766370875E+04  0.10100000352E+00 0.  1.
</event>
<event>
 5   0  0.1078103E-05  0.2775412E+04  0.7818609E-02  0.8310943E-01
       -1   -1    0    0    0  501  0.00000000000E+00  0.00000000000E+00  0.98071409431E+03  0.98071409432E+03  0.50400001928E-02 0.  1.
        1   -1    0    0  501    0  0.00000000000E+00  0.00000000000E+00 -0.19635980835E+04  0.19635980835E+04  0.50400001928E-02 0. -1.
    10030    2    1    2    0    0  0.00000000000E+00  0.00000000000E+00 -0.98288398922E+03  0.29443121779E+04  0.27754122693E+04 0.  0.
        1    1    3    3  502    0 -0.23184536581E+02  0.36091002242E+03  0.92984140666E+03  0.99769665159E+03  0.50400001928E-02 0.  1.
       -1    1    3    3    0  502  0.23184536581E+02 -0.36091002242E+03 -0.19127253959E+04  0.19466155263E+04  0.50400001928E-02 0. -1.
</event>
<event>
 5   0  0.1105862E-05  0.1848984E+04  0.7818609E-02  0.8680675E-01
       -1   -1    0    0    0  501  0.00000000000E+00  0.00000000000E+00  0.12073702880E+04  0.12073702880E+04  0.50400001928E-02 0. -1.
        1   -1    0    0  501    0  0.00000000000E+00  0.00000000000E+00 -0.70789005900E+03  0.70789005902E+03  0.50400001928E-02 0.  1.
    10030    2    1    2    0    0  0.00000000000E+00  0.00000000000E+00  0.49948022902E+03  0.19152603471E+04  0.18489839636E+04 0.  0.
        3    1    3    3  502    0 -0.74015994508E+03 -0.69914388044E+02  0.81894660990E+03  0.11060733818E+04  0.10100000352E+00 0. -1.
       -3    1    3    3    0  502  0.74015994508E+03  0.69914388044E+02 -0.31946638087E+03  0.80918696521E+03  0.10100000352E+00 0.  1.
</event>
<event>
 5   0  0.2651061E-05  0.2733545E+04  0.7818609E-02  0.8324202E-01
       -2   -1    0    0    0  501  0.00000000000E+00  0.00000000000E+00  0.90639997964E+03  0.90639997964E+03  0.25500000920E-02 0.  1.
        2   -1    0    0  501    0  0.00000000000E+00  0.00000000000E+00 -0.20609745382E+04  0.20609745382E+04  0.25500000920E-02 0. -1.
    10030    2    1    2    0    0  0.00000000000E+00  0.00000000000E+00 -0.11545745586E+04  0.29673745178E+04  0.27335451556E+04 0.  0.
        3    1    3    3  502    0 -0.10097465878E+04 -0.79318366918E+03 -0.68889310164E+02  0.12858748974E+04  0.10100000352E+00 0.  1.
       -3    1    3    3    0  502  0.10097465878E+04  0.79318366918E+03 -0.10856852484E+04  0.16814996204E+04  0.10100000352E+00 0. -1.
</event>
<event>
 5   0  0.2588048E-05  0.2119211E+04  0.7818609E-02  0.8552828E-01
        2   -1    0    0  501    0  0.00000000000E+00  0.00000000000E+00  0.95404275242E+03  0.95404275242E+03  0.25500000920E-02 0.  1.
       -2   -1    0    0    0  501  0.00000000000E+00  0.00000000000E+00 -0.11768487355E+04  0.11768487355E+04  0.25500000920E-02 0. -1.
    10030    2    1    2    0    0  0.00000000000E+00  0.00000000000E+00 -0.22280598304E+03  0.21308914879E+04  0.21192111804E+04 0.  0.
        2    1    3    3  502    0  0.21926585062E+03 -0.46410603386E+03 -0.10434922502E+04  0.11629049833E+04  0.25500000920E-02 0. -1.
       -2    1    3    3    0  502 -0.21926585062E+03  0.46410603386E+03  0.82068626718E+03  0.96798650458E+03  0.25500000920E-02 0.  1.
</event>
<event>
 5   0  0.1067434E-05  0.2810062E+04  0.7818609E-02  0.8300151E-01
        1   -1    0    0  501    0  0.00000000000E+00  0.00000000000E+00  0.16034257727E+04  0.16034257727E+04  0.50400001928E-02 0.  1.
       -1   -1    0    0    0  501  0.00000000000E+00  0.00000000000E+00 -0.12311836532E+04  0.12311836532E+04  0.50400001928E-02 0. -1.
    10030    2    1    2    0    0  0.00000000000E+00  0.00000000000E+00  0.37224211954E+03  0.28346094259E+04  0.28100616367E+04 0.  0.
        4    1    3    3  502    0  0.29528395980E+03 -0.43232350752E+03  0.15013567905E+04  0.15900220304E+04  0.12699999809E+01 0.  1.
       -4    1    3    3    0  502 -0.29528395980E+03  0.43232350752E+03 -0.11291146709E+04  0.12445873955E+04  0.12699999809E+01 0. -1.
</event>
<event>
 5   0  0.2697964E-05  0.2664705E+04  0.7818609E-02  0.8346549E-01
        2   -1    0    0  501    0  0.00000000000E+00  0.00000000000E+00  0.11970684020E+04  0.11970684020E+04  0.25500000920E-02 0. -1.
       -2   -1    0    0    0  501  0.00000000000E+00  0.00000000000E+00 -0.14829257375E+04  0.14829257375E+04  0.25500000920E-02 0.  1.
    10030    2    1    2    0    0  0.00000000000E+00  0.00000000000E+00 -0.28585733552E+03  0.26799941396E+04  0.26647052692E+04 0.  0.
        1    1    3    3  502    0 -0.60403986501E+03 -0.11873990028E+04 -0.12324618792E+03  0.13378976692E+04  0.50400001928E-02 0. -1.
       -1    1    3    3    0  502  0.60403986501E+03  0.11873990028E+04 -0.16261114761E+03  0.13420964704E+04  0.50400001928E-02 0.  1.
</event>
<event>
 5   0  0.2518686E-05  0.2873340E+04  0.7818609E-02  0.8280854E-01
        2   -1    0    0  501    0  0.00000000000E+00  0.00000000000E+00  0.15918082550E+04  0.15918082550E+04  0.25500000920E-02 0.  1.
       -2   -1    0    0    0  501  0.00000000000E+00  0.00000000000E+00 -0.12966519934E+04  0.12966519934E+04  0.25500000920E-02 0. -1.
    10030    2    1    2    0    0  0.00000000000E+00  0.00000000000E+00  0.29515626159E+03  0.28884602484E+04  0.28733404581E+04 0.  0.
        5    1    3    3  502    0 -0.10954992015E+04 -0.43130831086E+03 -0.68007308202E+03  0.13596568856E+04  0.46999998093E+01 0.  1.
       -5    1    3    3    0  502  0.10954992015E+04  0.43130831086E+03  0.97522934361E+03  0.15288033628E+04  0.46999998093E+01 0. -1.
</event>
<event>
 5   0  0.1067434E-05  0.2923573E+04  0.7818609E-02  0.8265898E-01
        1   -1    0    0  501    0  0.00000000000E+00  0.00000000000E+00  0.76952331690E+03  0.76952331692E+03  0.50400001928E-02 0.  1.
       -1   -1    0    0    0  501  0.00000000000E+00  0.00000000000E+00 -0.27768099834E+04  0.27768099834E+04  0.50400001928E-02 0. -1.
    10030    2    1    2    0    0  0.00000000000E+00  0.00000000000E+00 -0.20072866665E+04  0.35463333004E+04  0.29235731760E+04 0.  0.
        4    1    3    3  502    0  0.28565934974E+03 -0.13718693098E+04 -0.49883190261E+03  0.14874345522E+04  0.12699999809E+01 0.  1.
       -4    1    3    3    0  502 -0.28565934974E+03  0.13718693098E+04 -0.15084547639E+04  0.20588987481E+04  0.12699999809E+01 0. -1.
</event>
<event>
 5   0  0.2697964E-05  0.2583547E+04  0.7818609E-02  0.8373811E-01
        2   -1    0    0  501    0  0.00000000000E+00  0.00000000000E+00  0.20847168403E+04  0.20847168403E+04  0.25500000920E-02 0. -1.
       -2   -1    0    0    0  501  0.00000000000E+00  0.00000000000E+00 -0.80043448459E+03  0.80043448459E+03  0.25500000920E-02 0.  1.
    10030    2    1    2    0    0  0.00000000000E+00  0.00000000000E+00  0.12842823557E+04  0.28851513249E+04  0.25835473671E+04 0.  0.
        1    1    3    3  502    0  0.38948689542E+02 -0.60679054039E+03  0.19149152190E+04  0.20091321649E+04  0.50400001928E-02 0. -1.
       -1    1    3    3    0  502 -0.38948689542E+02  0.60679054039E+03 -0.63063286327E+03  0.87601915994E+03  0.50400001928E-02 0.  1.
</event>
<event>
 5   0  0.1078103E-05  0.2806095E+04  0.7818609E-02  0.8301379E-01
       -1   -1    0    0    0  501  0.00000000000E+00  0.00000000000E+00  0.96064065613E+03  0.96064065615E+03  0.50400001928E-02 0. -1.
        1   -1    0    0  501    0  0.00000000000E+00  0.00000000000E+00 -0.20491974016E+04  0.20491974016E+04  0.50400001928E-02 0.  1.
    10030    2    1    2    0    0  0.00000000000E+00  0.00000000000E+00 -0.10885567455E+04  0.30098380578E+04  0.28060950351E+04 0.  0.
        1    1    3    3  502    0 -0.37153098590E+03 -0.84892427959E+03  0.58569937200E+03  0.10962442521E+04  0.50400001928E-02 0. -1.
       -1    1    3    3    0  502  0.37153098590E+03  0.84892427959E+03 -0.16742561175E+04  0.19135938056E+04  0.50400001928E-02 0.  1.
</event>
<event>
 5   0  0.2697964E-05  0.2783455E+04  0.7818609E-02  0.8308423E-01
        2   -1    0    0  501    0  0.00000000000E+00  0.00000000000E+00  0.16505775845E+04  0.16505775845E+04  0.25500000920E-02 0.  1.
       -2   -1    0    0    0  501  0.00000000000E+00  0.00000000000E+00 -0.11734714764E+04  0.11734714764E+04  0.25500000920E-02 0. -1.
    10030    2    1    2    0    0  0.00000000000E+00  0.00000000000E+00  0.47710610816E+03  0.28240490609E+04  0.27834552017E+04 0.  0.
        1    1    3    3  502    0  0.92647081294E+03  0.35258921120E+03 -0.75254459270E+03  0.12445845424E+04  0.50400001928E-02 0. -1.
       -1    1    3    3    0  502 -0.92647081294E+03 -0.35258921120E+03  0.12296507009E+04  0.15794645185E+04  0.50400001928E-02 0.  1.
</event>
<event>
 5   0  0.1067434E-05  0.2793270E+04  0.7818609E-02  0.8305361E-01
       -1   -1    0    0    0  501  0.00000000000E+00  0.00000000000E+00  0.14752693686E+04  0.14752693686E+04  0.50400001928E-02 0.  1.
        1   -1    0    0  501    0  0.00000000000E+00  0.00000000000E+00 -0.13221916805E+04  0.13221916805E+04  0.50400001928E-02 0. -1.
    10030    2    1    2    0    0  0.00000000000E+00  0.00000000000E+00  0.15307768811E+03  0.27974610491E+04  0.27932696867E+04 0.  0.
        4    1    3    3  502    0 -0.11718160846E+04 -0.73091512227E+03  0.28469060457E+03  0.14101206350E+04  0.12699999809E+01 0. -1.
       -4    1    3    3    0  502  0.11718160846E+04  0.73091512227E+03 -0.13161291646E+03  0.13873404141E+04  0.12699999809E+01 0.  1.
</event>
<event>
 5   0  0.2588048E-05  0.2651976E+04  0.7818609E-02  0.8350757E-01
       -2   -1    0    0    0  501  0.00000000000E+00  0.00000000000E+00  0.86743556748E+03  0.86743556748E+03  0.25500000920E-02 0. -1.
        2   -1    0    0  501    0  0.00000000000E+00  0.00000000000E+00 -0.20269453505E+04  0.20269453505E+04  0.25500000920E-02 0.  1.
    10030    2    1    2    0    0  0.00000000000E+00  0.00000000000E+00 -0.11595097830E+04  0.28943809180E+04  0.26519762370E+04 0.  0.
        2    1    3    3  502    0 -0.79391231916E+03 -0.99922772149E+03 -0.97249656965E+03  0.16045255959E+04  0.25500000920E-02 0.  1.
       -2    1    3    3    0  502  0.79391231916E+03  0.99922772149E+03 -0.18701321337E+03  0.12898553221E+04  0.25500000920E-02 0. -1.
</event>
<event>
 5   0  0.2588048E-05  0.2812955E+04  0.7818609E-02  0.8299258E-01
       -2   -1    0    0    0  501  0.00000000000E+00  0.00000000000E+00  0.13231888877E+04  0.13231888877E+04  0.25500000920E-02 0.  1.
        2   -1    0    0  501    0  0.00000000000E+00  0.00000000000E+00 -0.14950085605E+04  0.14950085605E+04  0.25500000920E-02 0. -1.
    10030    2    1    2    0    0  0.00000000000E+00  0.00000000000E+00 -0.17181967284E+03  0.28181974482E+04  0.28129548267E+04 0.  0.
        2    1    3    3  502    0 -0.12937751706E+04  0.72882072744E+02  0.46192985673E+03  0.13756980704E+04  0.25500000920E-02 0.  1.
       -2    1    3    3    0  502  0.12937751706E+04 -0.72882072744E+02 -0.63374952957E+03  0.14424993777E+04  0.25500000920E-02 0. -1.
</event>
<event>
 5   0  0.1067434E-05  0.2814607E+04  0.7818609E-02  0.8298748E-01
       -1   -1    0    0    0  501  0.00000000000E+00  0.00000000000E+00  0.13415854675E+04  0.13415854675E+04  0.50400001928E-02 0. -1.
        1   -1    0    0  501    0  0.00000000000E+00  0.00000000000E+00 -0.14762405690E+04  0.14762405690E+04  0.50400001928E-02 0.  1.
    10030    2    1    2    0    0  0.00000000000E+00  0.00000000000E+00 -0.13465510151E+03  0.28178260366E+04  0.28146068244E+04 0.  0.
        4    1    3    3  502    0 -0.71221779421E+03  0.45154825543E+03 -0.11952710663E+04  0.14628139144E+04  0.12699999809E+01 0.  1.
       -4    1    3    3    0  502  0.71221779421E+03 -0.45154825543E+03  0.10606159648E+04  0.13550121221E+04  0.12699999809E+01 0. -1.
</event>
<event>
 5   0  0.1017456E-05  0.2851592E+04  0.7818609E-02  0.8287428E-01
        1   -1    0    0  501    0  0.00000000000E+00  0.00000000000E+00  0.15615175207E+04  0.15615175208E+04  0.50400001928E-02 0. -1.
       -1   -1    0    0    0  501  0.00000000000E+00  0.00000000000E+00 -0.13018705749E+04  0.13018705750E+04  0.50400001928E-02 0.  1.
    10030    2    1    2    0    0  0.00000000000E+00  0.00000000000E+00  0.25964694580E+03  0.28633880957E+04  0.28515916345E+04 0.  0.
        5    1    3    3  502    0  0.30471252164E+03 -0.10612402305E+04 -0.77601204278E+03  0.13495544925E+04  0.46999998093E+01 0.  1.
       -5    1    3    3    0  502 -0.30471252164E+03  0.10612402305E+04  0.10356589886E+04  0.15138336032E+04  0.46999998093E+01 0. -1.
</event>
<event>
 5   0  0.1075146E-05  0.1911149E+04  0.7818609E-02  0.8649327E-01
       -1   -1    0    0    0  501  0.00000000000E+00  0.00000000000E+00  0.56326526996E+03  0.56326526999E+03  0.50400001928E-02 0. -1.
        1   -1    0    0  501    0  0.00000000000E+00  0.00000000000E+00 -0.16211238051E+04  0.16211238051E+04  0.50400001928E-02 0.  1.
    10030    2    1    2    0    0  0.00000000000E+00  0.00000000000E+00 -0.10578585352E+04  0.21843890751E+04  0.19111491180E+04 0.  0.
        2    1    3    3  502    0  0.26007481792E+03 -0.61501048722E+03  0.25235338933E+03  0.71383404473E+03  0.25500000920E-02 0. -1.
       -2    1    3    3    0  502 -0.26007481792E+03  0.61501048722E+03 -0.13102119245E+04  0.14705550304E+04  0.25500000920E-02 0.  1.
</event>
<event>
 5   0  0.2651061E-05  0.2760140E+04  0.7818609E-02  0.8315751E-01
       -2   -1    0    0    0  501  0.00000000000E+00  0.00000000000E+00  0.96630555106E+03  0.96630555106E+03  0.25500000920E-02 0.  1.
        2   -1    0    0  501    0  0.00000000000E+00  0.00000000000E+00 -0.19710049512E+04  0.19710049512E+04  0.25500000920E-02 0. -1.
    10030    2    1    2    0    0  0.00000000000E+00  0.00000000000E+00 -0.10046994001E+04  0.29373105022E+04  0.27601398700E+04 0.  0.
        3    1    3    3  502    0  0.96611174126E+03 -0.20853740859E+03  0.52266556413E+03  0.11180514521E+04  0.10100000352E+00 0.  1.
       -3    1    3    3    0  502 -0.96611174126E+03  0.20853740859E+03 -0.15273649642E+04  0.18192590502E+04  0.10100000352E+00 0. -1.
</event>
<event>
 5   0  0.1075146E-05  0.2734748E+04  0.7818609E-02  0.8323818E-01
        1   -1    0    0  501    0  0.00000000000E+00  0.00000000000E+00  0.15115146854E+04  0.15115146854E+04  0.50400001928E-02 0.  1.
       -1   -1    0    0    0  501  0.00000000000E+00  0.00000000000E+00 -0.12369784519E+04  0.12369784520E+04  0.50400001928E-02 0. -1.
    10030    2    1    2    0    0  0.00000000000E+00  0.00000000000E+00  0.27453623345E+03  0.27484931373E+04  0.27347475903E+04 0.  0.
        2    1    3    3  502    0  0.53746274170E+03 -0.25009685224E+03  0.13756531611E+04  0.14979440089E+04  0.25500000920E-02 0.  1.
       -2    1    3    3    0  502 -0.53746274170E+03  0.25009685224E+03 -0.11011169277E+04  0.12505491284E+04  0.25500000920E-02 0. -1.
</event>
<event>
 5   0  0.1078103E-05  0.2623447E+04  0.7818609E-02  0.8360280E-01
        1   -1    0    0  501    0  0.00000000000E+00  0.00000000000E+00  0.24252598983E+04  0.24252598984E+04  0.50400001928E-02 0.  1.
       -1   -1    0    0    0  501  0.00000000000E+00  0.00000000000E+00 -0.70945721163E+03  0.70945721165E+03  0.50400001928E-02 0. -1.
    10030    2    1    2    0    0  0.00000000000E+00  0.00000000000E+00  0.17158026867E+04  0.31347171100E+04  0.26234466833E+04 0.  0.
        1    1    3    3  502    0 -0.26410142792E+03  0.11948791637E+04  0.14223278184E+04  0.18763001368E+04  0.50400001928E-02 0.  1.
       -1    1    3    3    0  502  0.26410142792E+03 -0.11948791637E+04  0.29347486831E+03  0.12584169732E+04  0.50400001928E-02 0. -1.
</event>
<event>
 5   0  0.2697964E-05  0.2796883E+04  0.7818609E-02  0.8304237E-01
        2   -1    0    0  501    0  0.00000000000E+00  0.00000000000E+00  0.18287604756E+04  0.18287604756E+04  0.25500000920E-02 0. -1.
       -2   -1    0    0    0  501  0.00000000000E+00  0.00000000000E+00 -0.10693792748E+04  0.10693792748E+04  0.25500000920E-02 0.  1.
    10030    2    1    2    0    0  0.00000000000E+00  0.00000000000E+00  0.75938120083E+03  0.28981397504E+04  0.27968829444E+04 0.  0.
        1    1    3    3  502    0 -0.72932930355E+03  0.39266632708E+03  0.15472167007E+04  0.17549893437E+04  0.50400001928E-02 0. -1.
       -1    1    3    3    0  502  0.72932930355E+03 -0.39266632708E+03 -0.78783549989E+03  0.11431504067E+04  0.50400001928E-02 0.  1.
</event>
<event>
 5   0  0.1017456E-05  0.2290031E+04  0.7818609E-02  0.8481862E-01
        1   -1    0    0  501    0  0.00000000000E+00  0.00000000000E+00  0.30628921424E+04  0.30628921424E+04  0.50400001928E-02 0. -1.
       -1   -1    0    0    0  501  0.00000000000E+00  0.00000000000E+00 -0.42804652101E+03  0.42804652104E+03  0.50400001928E-02 0.  1.
    10030    2    1    2    0    0  0.00000000000E+00  0.00000000000E+00  0.26348456214E+04  0.34909386635E+04  0.22900308521E+04 0.  0.
        5    1    3    3  502    0 -0.32146434578E+03  0.90153985286E+03  0.35943917502E+03  0.10224148094E+04  0.46999998093E+01 0.  1.
       -5    1    3    3    0  502  0.32146434578E+03 -0.90153985286E+03  0.22754064464E+04  0.24685238541E+04  0.46999998093E+01 0. -1.
</event>
<event>
 5   0  0.1017456E-05  0.2731273E+04  0.7818609E-02  0.8324929E-01
        1   -1    0    0  501    0  0.00000000000E+00  0.00000000000E+00  0.76021865728E+03  0.76021865729E+03  0.50400001928E-02 0.  1.
       -1   -1    0    0    0  501  0.00000000000E+00  0.00000000000E+00 -0.24531933930E+04  0.24531933930E+04  0.50400001928E-02 0. -1.
    10030    2    1    2    0    0  0.00000000000E+00  0.00000000000E+00 -0.16929747357E+04  0.32134120503E+04  0.27312732469E+04 0.  0.
        5    1    3    3  502    0  0.11467595444E+04  0.22106582770E+03 -0.16792593155E+04  0.20454489706E+04  0.46999998093E+01 0. -1.
       -5    1    3    3    0  502 -0.11467595444E+04 -0.22106582770E+03 -0.13715420256E+02  0.11679630797E+04  0.46999998093E+01 0.  1.
</event>
<event>
 5   0  0.2588048E-05  0.2821843E+04  0.7818609E-02  0.8296519E-01
       -2   -1    0    0    0  501  0.00000000000E+00  0.00000000000E+00  0.14043877050E+04  0.14043877050E+04  0.25500000920E-02 0. -1.
        2   -1    0    0  501    0  0.00000000000E+00  0.00000000000E+00 -0.14174854559E+04  0.14174854559E+04  0.25500000920E-02 0.  1.
    10030    2    1    2    0    0  0.00000000000E+00  0.00000000000E+00 -0.13097750907E+02  0.28218731608E+04  0.28218427640E+04 0.  0.
        2    1    3    3  502    0  0.48457983801E+03 -0.29182817064E+03 -0.12991253102E+04  0.14169360861E+04  0.25500000920E-02 0.  1.
       -2    1    3    3    0  502 -0.48457983801E+03  0.29182817064E+03  0.12860275593E+04  0.14049370747E+04  0.25500000920E-02 0. -1.
</event>
<event>
 5   0  0.2588048E-05  0.2803119E+04  0.7818609E-02  0.8302301E-01
        2   -1    0    0  501    0  0.00000000000E+00  0.00000000000E+00  0.84284298001E+03  0.84284298001E+03  0.25500000920E-02 0. -1.
       -2   -1    0    0    0  501  0.00000000000E+00  0.00000000000E+00 -0.23306459290E+04  0.23306459290E+04  0.25500000920E-02 0.  1.
    10030    2    1    2    0    0  0.00000000000E+00  0.00000000000E+00 -0.14878029490E+04  0.31734889090E+04  0.28031186633E+04 0.  0.
        2    1    3    3  502    0  0.93079986133E+03  0.67601567730E+03  0.16249613529E+03  0.11618048768E+04  0.25500000920E-02 0. -1.
       -2    1    3    3    0  502 -0.93079986133E+03 -0.67601567730E+03 -0.16502990843E+04  0.20116840322E+04  0.25500000920E-02 0.  1.
</event>
<event>
 5   0  0.1105862E-05  0.2597876E+04  0.7818609E-02  0.8368923E-01
        1   -1    0    0  501    0  0.00000000000E+00  0.00000000000E+00  0.16698352585E+04  0.16698352586E+04  0.50400001928E-02 0.  1.
       -1   -1    0    0    0  501  0.00000000000E+00  0.00000000000E+00 -0.10104232270E+04  0.10104232270E+04  0.50400001928E-02 0. -1.
    10030    2    1    2    0    0  0.00000000000E+00  0.00000000000E+00  0.65941203157E+03  0.26802584855E+04  0.25978763100E+04 0.  0.
        3    1    3    3  502    0  0.11795629906E+04  0.23113863478E+03 -0.17829675691E+03  0.12151475881E+04  0.10100000352E+00 0.  1.
       -3    1    3    3    0  502 -0.11795629906E+04 -0.23113863478E+03  0.83770878848E+03  0.14651108974E+04  0.10100000352E+00 0. -1.
</event>
<event>
 5   0  0.2518686E-05  0.2764466E+04  0.7818609E-02  0.8314386E-01
       -2   -1    0    0    0  501  0.00000000000E+00  0.00000000000E+00  0.12457392101E+04  0.12457392101E+04  0.25500000920E-02 0. -1.
        2   -1    0    0  501    0  0.00000000000E+00  0.00000000000E+00 -0.15336823526E+04  0.15336823526E+04  0.25500000920E-02 0.  1.
    10030    2    1    2    0    0  0.00000000000E+00  0.00000000000E+00 -0.28794314250E+03  0.27794215627E+04  0.27644661274E+04 0.  0.
        5    1    3    3  502    0 -0.32683357680E+03  0.12993251753E+04 -0.48563354026E+03  0.14251063551E+04  0.46999998093E+01 0. -1.
       -5    1    3    3    0  502  0.32683357680E+03 -0.12993251753E+04  0.19769039776E+03  0.13543152075E+04  0.46999998093E+01 0.  1.
</event>
<event>
 5   0  0.1067434E-05  0.2185958E+04  0.7818609E-02  0.8524295E-01
       -1   -1    0    0    0  501  0.00000000000E+00  0.00000000000E+00  0.45652583071E+03  0.45652583073E+03  0.50400001928E-02 0.  1.
        1   -1    0    0  501    0  0.00000000000E+00  0.00000000000E+00 -0.26167263374E+04  0.26167263374E+04  0.50400001928E-02 0. -1.
    10030    2    1    2    0    0  0.00000000000E+00  0.00000000000E+00 -0.21602005067E+04  0.30732521682E+04  0.21859580645E+04 0.  0.
        4    1    3    3  502    0 -0.92744029896E+03  0.13194101490E+03 -0.18717236366E+04  0.20930611373E+04  0.12699999809E+01 0. -1.
       -4    1    3    3    0  502  0.92744029896E+03 -0.13194101490E+03 -0.28847687008E+03  0.98019103088E+03  0.12699999809E+01 0.  1.
</event>
<event>
 5   0  0.2588048E-05  0.2904578E+04  0.7818609E-02  0.8271517E-01
        2   -1    0    0  501    0  0.00000000000E+00  0.00000000000E+00  0.18849652649E+04  0.18849652649E+04  0.25500000920E-02 0. -1.
       -2   -1    0    0    0  501  0.00000000000E+00  0.00000000000E+00 -0.11189293812E+04  0.11189293812E+04  0.25500000920E-02 0.  1.
    10030    2    1    2    0    0  0.00000000000E+00  0.00000000000E+00  0.76603588378E+03  0.30038946461E+04  0.29045777782E+04 0.  0.
        2    1    3    3  502    0  0.44964036495E+03 -0.73973616784E+03 -0.82294047196E+03  0.11944107653E+04  0.25500000920E-02 0.  1.
       -2    1    3    3    0  502 -0.44964036495E+03  0.73973616784E+03  0.15889763557E+04  0.18094838808E+04  0.25500000920E-02 0. -1.
</event>
<event>
 5   0  0.1017456E-05  0.2743462E+04  0.7818609E-02  0.8321039E-01
       -1   -1    0    0    0  501  0.00000000000E+00  0.00000000000E+00  0.91876294667E+03  0.91876294669E+03  0.50400001928E-02 0.  1.
        1   -1    0    0  501    0  0.00000000000E+00  0.00000000000E+00 -0.20480205346E+04  0.20480205346E+04  0.50400001928E-02 0. -1.
    10030    2    1    2    0    0  0.00000000000E+00  0.00000000000E+00 -0.11292575879E+04  0.29667834813E+04  0.27434615953E+04 0.  0.
        5    1    3    3  502    0 -0.97464735350E+03  0.59755112399E+03 -0.13843699924E+04  0.17954128148E+04  0.46999998093E+01 0. -1.
       -5    1    3    3    0  502  0.97464735350E+03 -0.59755112399E+03  0.25511240452E+03  0.11713706665E+04  0.46999998093E+01 0.  1.
</event>
<event>
 5   0  0.1017456E-05  0.2760966E+04  0.7818609E-02  0.8315490E-01
       -1   -1    0    0    0  501  0.00000000000E+00  0.00000000000E+00  0.12399665872E+04  0.12399665872E+04  0.50400001928E-02 0.  1.
        1   -1    0    0  501    0  0.00000000000E+00  0.00000000000E+00 -0.15369233562E+04  0.15369233562E+04  0.50400001928E-02 0. -1.
    10030    2    1    2    0    0  0.00000000000E+00  0.00000000000E+00 -0.29695676907E+03  0.27768899434E+04  0.27609662141E+04 0.  0.
        5    1    3    3  502    0  0.77183735538E+03 -0.66498552537E+03 -0.10853942835E+04  0.14886374618E+04  0.46999998093E+01 0. -1.
       -5    1    3    3    0  502 -0.77183735538E+03  0.66498552537E+03  0.78843751444E+03  0.12882524816E+04  0.46999998093E+01 0.  1.
</event>
<event>
 5   0  0.1075146E-05  0.2771940E+04  0.7818609E-02  0.8312033E-01
       -1   -1    0    0    0  501  0.00000000000E+00  0.00000000000E+00  0.16190289735E+04  0.16190289735E+04  0.50400001928E-02 0. -1.
        1   -1    0    0  501    0  0.00000000000E+00  0.00000000000E+00 -0.11864594279E+04  0.11864594279E+04  0.50400001928E-02 0.  1.
    10030    2    1    2    0    0  0.00000000000E+00  0.00000000000E+00  0.43256954562E+03  0.28054884014E+04  0.27719395301E+04 0.  0.
        2    1    3    3  502    0 -0.13506334321E+04 -0.23864291480E+02 -0.97519428201E+02  0.13543597053E+04  0.25500000920E-02 0.  1.
       -2    1    3    3    0  502  0.13506334321E+04  0.23864291480E+02  0.53008897383E+03  0.14511286961E+04  0.25500000920E-02 0. -1.
</event>
<event>
 5   0  0.1017456E-05  0.1616365E+04  0.7818609E-02  0.8810557E-01
       -1   -1    0    0    0  501  0.00000000000E+00  0.00000000000E+00  0.56432032289E+03  0.56432032292E+03  0.50400001928E-02 0.  1.
        1   -1    0    0  501    0  0.00000000000E+00  0.00000000000E+00 -0.11574265055E+04  0.11574265055E+04  0.50400001928E-02 0. -1.
    10030    2    1    2    0    0  0.00000000000E+00  0.00000000000E+00 -0.59310618256E+03  0.17217468284E+04  0.16163654281E+04 0.  0.
        5    1    3    3  502    0 -0.28070904721E+03 -0.75720206147E+03 -0.32997851405E+03  0.87238778121E+03  0.46999998093E+01 0. -1.
       -5    1    3    3    0  502  0.28070904721E+03  0.75720206147E+03 -0.26312766851E+03  0.84935904717E+03  0.46999998093E+01 0.  1.
</event>
<event>
 5   0  0.2588048E-05  0.2824652E+04  0.7818609E-02  0.8295655E-01
        2   -1    0    0  501    0  0.00000000000E+00  0.00000000000E+00  0.12739169103E+04  0.12739169103E+04  0.25500000920E-02 0. -1.
       -2   -1    0    0    0  501  0.00000000000E+00  0.00000000000E+00 -0.15657734717E+04  0.15657734717E+04  0.25500000920E-02 0.  1.
    10030    2    1    2    0    0  0.00000000000E+00  0.00000000000E+00 -0.29185656135E+03  0.28396903820E+04  0.28246524057E+04 0.  0.
        2    1    3    3  502    0  0.10050198094E+03 -0.14079537198E+04 -0.19341297279E+03  0.14247255537E+04  0.25500000920E-02 0.  1.
       -2    1    3    3    0  502 -0.10050198094E+03  0.14079537198E+04 -0.98443588556E+02  0.14149648283E+04  0.25500000920E-02 0. -1.
</event>
<event>
 5   0  0.2588048E-05  0.1684453E+04  0.7818609E-02  0.8770281E-01
       -2   -1    0    0    0  501  0.00000000000E+00  0.00000000000E+00  0.93434093382E+03  0.93434093382E+03  0.25500000920E-02 0.  1.
        2   -1    0    0  501    0  0.00000000000E+00  0.00000000000E+00 -0.75919333358E+03  0.75919333359E+03  0.25500000920E-02 0. -1.
    10030    2    1    2    0    0  0.00000000000E+00  0.00000000000E+00  0.17514760024E+03  0.16935342674E+04  0.16844529180E+04 0.  0.
        2    1    3    3  502    0 -0.12995095255E+03 -0.10188359476E+03 -0.74275881747E+03  0.76089301343E+03  0.25500000920E-02 0. -1.
       -2    1    3    3    0  502  0.12995095255E+03  0.10188359476E+03  0.91790641771E+03  0.93264125398E+03  0.25500000920E-02 0.  1.
</event>
<event>
 5   0  0.1067434E-05  0.2792494E+04  0.7818609E-02  0.8305602E-01
       -1   -1    0    0    0  501  0.00000000000E+00  0.00000000000E+00  0.12517521441E+04  0.12517521441E+04  0.50400001928E-02 0. -1.
        1   -1    0    0  501    0  0.00000000000E+00  0.00000000000E+00 -0.15574220049E+04  0.15574220049E+04  0.50400001928E-02 0.  1.
    10030    2    1    2    0    0  0.00000000000E+00  0.00000000000E+00 -0.30566986074E+03  0.28091741490E+04  0.27924944648E+04 0.  0.
        4    1    3    3  502    0  0.91485413377E+03 -0.60017578990E+03  0.71971877057E+03  0.13096433814E+04  0.12699999809E+01 0. -1.
       -4    1    3    3    0  502 -0.91485413377E+03  0.60017578990E+03 -0.10253886313E+04  0.14995307676E+04  0.12699999809E+01 0.  1.
</event>
<event>
 5   0  0.2624815E-05  0.2416288E+04  0.7818609E-02  0.8433431E-01
        2   -1    0    0  501    0  0.00000000000E+00  0.00000000000E+00  0.15821111419E+04  0.15821111419E+04  0.25500000920E-02 0.  1.
       -2   -1    0    0    0  501  0.00000000000E+00  0.00000000000E+00 -0.92257219894E+03  0.92257219895E+03  0.25500000920E-02 0. -1.
    10030    2    1    2    0    0  0.00000000000E+00  0.00000000000E+00  0.65953894291E+03  0.25046833408E+04  0.24162878596E+04 0.  0.
        4    1    3    3  502    0  0.15884823583E+03  0.52917770656E+03  0.14434806937E+04  0.15456066553E+04  0.12699999809E+01 0.  1.
       -4    1    3    3    0  502 -0.15884823583E+03 -0.52917770656E+03 -0.78394175075E+03  0.95907668547E+03  0.12699999809E+01 0. -1.
</event>
<event>
 5   0  0.8958000E-06  0.2061870E+04  0.7818609E-02  0.8578228E-01
       -3   -1    0    0    0  501  0.00000000000E+00  0.00000000000E+00  0.65852484757E+03  0.65852485532E+03  0.10100000352E+00 0.  1.
        3   -1    0    0  501    0  0.00000000000E+00  0.00000000000E+00 -0.16139514470E+04  0.16139514502E+04  0.10100000352E+00 0. -1.
    10030    2    1    2    0    0  0.00000000000E+00  0.00000000000E+00 -0.95542659943E+03  0.22724763055E+04  0.20618701637E+04 0.  0.
        4    1    3    3  502    0  0.44682629402E+03 -0.83513169448E+03 -0.92639099667E+03  0.13248775701E+04  0.12699999809E+01 0. -1.
       -4    1    3    3    0  502 -0.44682629402E+03  0.83513169448E+03 -0.29035602762E+02  0.94759873538E+03  0.12699999809E+01 0.  1.
</event>
<event>
 5   0  0.1017456E-05  0.2777437E+04  0.7818609E-02  0.8310308E-01
       -1   -1    0    0    0  501  0.00000000000E+00  0.00000000000E+00  0.96816939852E+03  0.96816939854E+03  0.50400001928E-02 0.  1.
        1   -1    0    0  501    0  0.00000000000E+00  0.00000000000E+00 -0.19919436728E+04  0.19919436728E+04  0.50400001928E-02 0. -1.
    10030    2    1    2    0    0  0.00000000000E+00  0.00000000000E+00 -0.10237742743E+04  0.29601130713E+04  0.27774368815E+04 0.  0.
        5    1    3    3  502    0 -0.85704990521E+03 -0.68909584304E+03 -0.14156772027E+04  0.17926381824E+04  0.46999998093E+01 0. -1.
       -5    1    3    3    0  502  0.85704990521E+03  0.68909584304E+03  0.39190292842E+03  0.11674748889E+04  0.46999998093E+01 0.  1.
</event>
<event>
 5   0  0.1105862E-05  0.2789965E+04  0.7818609E-02  0.8306391E-01
       -1   -1    0    0    0  501  0.00000000000E+00  0.00000000000E+00  0.11629020598E+04  0.11629020599E+04  0.50400001928E-02 0.  1.
        1   -1    0    0  501    0  0.00000000000E+00  0.00000000000E+00 -0.16733791700E+04  0.16733791701E+04  0.50400001928E-02 0. -1.
    10030    2    1    2    0    0  0.00000000000E+00  0.00000000000E+00 -0.51047711021E+03  0.28362812299E+04  0.27899649344E+04 0.  0.
        3    1    3    3  502    0 -0.11450020309E+04 -0.38504826182E+03 -0.96444748599E+03  0.15457848421E+04  0.10100000352E+00 0.  1.
       -3    1    3    3    0  502  0.11450020309E+04  0.38504826182E+03  0.45397037579E+03  0.12904963878E+04  0.10100000352E+00 0. -1.
</event>
<event>
 5   0  0.2588048E-05  0.2905518E+04  0.7818609E-02  0.8271238E-01
       -2   -1    0    0    0  501  0.00000000000E+00  0.00000000000E+00  0.71516706755E+03  0.71516706755E+03  0.25500000920E-02 0.  1.
        2   -1    0    0  501    0  0.00000000000E+00  0.00000000000E+00 -0.29510699295E+04  0.29510699295E+04  0.25500000920E-02 0. -1.
    10030    2    1    2    0    0  0.00000000000E+00  0.00000000000E+00 -0.22359028620E+04  0.36662369970E+04  0.29055175288E+04 0.  0.
        2    1    3    3  502    0  0.32964161809E+03  0.97765513138E+03 -0.24084874136E+04  0.26201688445E+04  0.25500000920E-02 0. -1.
       -2    1    3    3    0  502 -0.32964161809E+03 -0.97765513138E+03  0.17258455164E+03  0.10460681525E+04  0.25500000920E-02 0.  1.
</event>
<event>
 5   0  0.1078103E-05  0.2717027E+04  0.7818609E-02  0.8329501E-01
       -1   -1    0    0    0  501  0.00000000000E+00  0.00000000000E+00  0.14746363187E+04  0.14746363188E+04  0.50400001928E-02 0. -1.
        1   -1    0    0  501    0  0.00000000000E+00  0.00000000000E+00 -0.12515350814E+04  0.12515350814E+04  0.50400001928E-02 0.  1.
    10030    2    1    2    0    0  0.00000000000E+00  0.00000000000E+00  0.22310123735E+03  0.27261714002E+04  0.27170271145E+04 0.  0.
        1    1    3    3  502    0  0.49873897986E+03 -0.12465311169E+04  0.31956136429E+03  0.13801086410E+04  0.50400001928E-02 0.  1.
       -1    1    3    3    0  502 -0.49873897986E+03  0.12465311169E+04 -0.96460126937E+02  0.13460627591E+04  0.50400001928E-02 0. -1.
</event>
<event>
 5   0  0.2588048E-05  0.2818007E+04  0.7818609E-02  0.8297700E-01
        2   -1    0    0  501    0  0.00000000000E+00  0.00000000000E+00  0.15695281296E+04  0.15695281296E+04  0.25500000920E-02 0.  1.
       -2   -1    0    0    0  501  0.00000000000E+00  0.00000000000E+00 -0.12648969297E+04  0.12648969297E+04  0.25500000920E-02 0. -1.
    10030    2    1    2    0    0  0.00000000000E+00  0.00000000000E+00  0.30463119992E+03  0.28344250593E+04  0.28180073188E+04 0.  0.
        2    1    3    3  502    0 -0.16695491037E+02 -0.63376235477E+03 -0.11133308407E+04  0.12811865682E+04  0.25500000920E-02 0. -1.
       -2    1    3    3    0  502  0.16695491037E+02  0.63376235477E+03  0.14179620406E+04  0.15532384911E+04  0.25500000920E-02 0.  1.
</event>
<event>
 5   0  0.2588048E-05  0.2849298E+04  0.7818609E-02  0.8288125E-01
       -2   -1    0    0    0  501  0.00000000000E+00  0.00000000000E+00  0.10642985964E+04  0.10642985964E+04  0.25500000920E-02 0.  1.
        2   -1    0    0  501    0  0.00000000000E+00  0.00000000000E+00 -0.19070066586E+04  0.19070066586E+04  0.25500000920E-02 0. -1.
    10030    2    1    2    0    0  0.00000000000E+00  0.00000000000E+00 -0.84270806224E+03  0.29713052550E+04  0.28492978153E+04 0.  0.
        2    1    3    3  502    0 -0.13987412255E+04  0.27020022849E+03 -0.43366331186E+03  0.14891437296E+04  0.25500000920E-02 0.  1.
       -2    1    3    3    0  502  0.13987412255E+04 -0.27020022849E+03 -0.40904475038E+03  0.14821615254E+04  0.25500000920E-02 0. -1.
</event>
<event>
 5   0  0.1105862E-05  0.2776779E+04  0.7818609E-02  0.8310514E-01
        1   -1    0    0  501    0  0.00000000000E+00  0.00000000000E+00  0.23204245169E+04  0.23204245169E+04  0.50400001928E-02 0. -1.
       -1   -1    0    0    0  501  0.00000000000E+00  0.00000000000E+00 -0.83072093553E+03  0.83072093555E+03  0.50400001928E-02 0.  1.
    10030    2    1    2    0    0  0.00000000000E+00  0.00000000000E+00  0.14897035814E+04  0.31511454525E+04  0.27767788717E+04 0.  0.
        3    1    3    3  502    0  0.11628101491E+04 -0.65329805702E+03  0.30724727694E+03  0.13686952522E+04  0.10100000352E+00 0. -1.
       -3    1    3    3    0  502 -0.11628101491E+04  0.65329805702E+03  0.11824563044E+04  0.17824502002E+04  0.10100000352E+00 0.  1.
</event>
<event>
 5   0  0.1078103E-05  0.2788891E+04  0.7818609E-02  0.8306726E-01
        1   -1    0    0  501    0  0.00000000000E+00  0.00000000000E+00  0.13016272531E+04  0.13016272531E+04  0.50400001928E-02 0. -1.
       -1   -1    0    0    0  501  0.00000000000E+00  0.00000000000E+00 -0.14938821612E+04  0.14938821612E+04  0.50400001928E-02 0.  1.
    10030    2    1    2    0    0  0.00000000000E+00  0.00000000000E+00 -0.19225490804E+03  0.27955094143E+04  0.27888906282E+04 0.  0.
        1    1    3    3  502    0 -0.44756565577E+03 -0.74452916534E+03 -0.11895136421E+04  0.14729498970E+04  0.50400001928E-02 0.  1.
       -1    1    3    3    0  502  0.44756565577E+03  0.74452916534E+03  0.99725873404E+03  0.13225595173E+04  0.50400001928E-02 0. -1.
</event>
<event>
 5   0  0.1105862E-05  0.2802752E+04  0.7818609E-02  0.8302414E-01
       -1   -1    0    0    0  501  0.00000000000E+00  0.00000000000E+00  0.99398469884E+03  0.99398469885E+03  0.50400001928E-02 0. -1.
        1   -1    0    0  501    0  0.00000000000E+00  0.00000000000E+00 -0.19757395609E+04  0.19757395609E+04  0.50400001928E-02 0.  1.
    10030    2    1    2    0    0  0.00000000000E+00  0.00000000000E+00 -0.98175486208E+03  0.29697242598E+04  0.28027521421E+04 0.  0.
        3    1    3    3  502    0 -0.74032601315E+03  0.60405538433E+03  0.59532290535E+03  0.11257774580E+04  0.10100000352E+00 0. -1.
       -3    1    3    3    0  502  0.74032601315E+03 -0.60405538433E+03 -0.15770777674E+04  0.18439468018E+04  0.10100000352E+00 0.  1.
</event>
<event>
 5   0  0.8958000E-06  0.2750922E+04  0.7818609E-02  0.8318669E-01
       -3   -1    0    0    0  501  0.00000000000E+00  0.00000000000E+00  0.14298103511E+04  0.14298103547E+04  0.10100000352E+00 0. -1.
        3   -1    0    0  501    0  0.00000000000E+00  0.00000000000E+00 -0.13231774818E+04  0.13231774857E+04  0.10100000352E+00 0.  1.
    10030    2    1    2    0    0  0.00000000000E+00  0.00000000000E+00  0.10663286929E+03  0.27529878404E+04  0.27509219329E+04 0.  0.
        2    1    3    3  502    0 -0.39678666172E+03  0.84420725863E+03  0.10649006203E+04  0.14156761217E+04  0.25500000920E-02 0. -1.
       -2    1    3    3    0  502  0.39678666172E+03 -0.84420725863E+03 -0.95826775099E+03  0.13373117187E+04  0.25500000920E-02 0.  1.
</event>
<event>
 5   0  0.1067434E-05  0.2651397E+04  0.7818609E-02  0.8350949E-01
        1   -1    0    0  501    0  0.00000000000E+00  0.00000000000E+00  0.14258160281E+04  0.14258160281E+04  0.50400001928E-02 0.  1.
       -1   -1    0    0    0  501  0.00000000000E+00  0.00000000000E+00 -0.12326111482E+04  0.12326111483E+04  0.50400001928E-02 0. -1.
    10030    2    1    2    0    0  0.00000000000E+00  0.00000000000E+00  0.19320487987E+03  0.26584271764E+04  0.26513971650E+04 0.  0.
        4    1    3    3  502    0 -0.29796320232E+03 -0.71929777243E+03  0.11724356403E+04  0.14074012572E+04  0.12699999809E+01 0.  1.
       -4    1    3    3    0  502  0.29796320232E+03  0.71929777243E+03 -0.97923076040E+03  0.12510259191E+04  0.12699999809E+01 0. -1.
</event>
<event>
 5   0  0.1067434E-05  0.2460656E+04  0.7818609E-02  0.8417138E-01
        1   -1    0    0  501    0  0.00000000000E+00  0.00000000000E+00  0.18024191652E+04  0.18024191652E+04  0.50400001928E-02 0.  1.
       -1   -1    0    0    0  501  0.00000000000E+00  0.00000000000E+00 -0.83981932323E+03  0.83981932324E+03  0.50400001928E-02 0. -1.
    10030    2    1    2    0    0  0.00000000000E+00  0.00000000000E+00  0.96259984194E+03  0.26422384884E+04  0.24606555578E+04 0.  0.
        4    1    3    3  502    0 -0.92618607803E+03  0.51664136775E+03  0.11509947421E+04  0.15650972696E+04  0.12699999809E+01 0.  1.
       -4    1    3    3    0  502  0.92618607803E+03 -0.51664136775E+03 -0.18839490017E+03  0.10771412188E+04  0.12699999809E+01 0. -1.
</event>
<event>
 5   0  0.2697964E-05  0.2613615E+04  0.7818609E-02  0.8363591E-01
       -2   -1    0    0    0  501  0.00000000000E+00  0.00000000000E+00  0.12279902416E+04  0.12279902416E+04  0.25500000920E-02 0.  1.
        2   -1    0    0  501    0  0.00000000000E+00  0.00000000000E+00 -0.13906840901E+04  0.13906840901E+04  0.25500000920E-02 0. -1.
    10030    2    1    2    0    0  0.00000000000E+00  0.00000000000E+00 -0.16269384845E+03  0.26186743317E+04  0.26136154972E+04 0.  0.
        1    1    3    3  502    0 -0.34884203733E+03  0.12552681669E+04  0.20622131308E+02  0.13030019993E+04  0.50400001928E-02 0.  1.
       -1    1    3    3    0  502  0.34884203733E+03 -0.12552681669E+04 -0.18331597975E+03  0.13156723324E+04  0.50400001928E-02 0. -1.
</event>
<event>
 5   0  0.2651061E-05  0.2831553E+04  0.7818609E-02  0.8293539E-01
       -2   -1    0    0    0  501  0.00000000000E+00  0.00000000000E+00  0.16935103743E+04  0.16935103743E+04  0.25500000920E-02 0.  1.
        2   -1    0    0  501    0  0.00000000000E+00  0.00000000000E+00 -0.11835906943E+04  0.11835906943E+04  0.25500000920E-02 0. -1.
    10030    2    1    2    0    0  0.00000000000E+00  0.00000000000E+00  0.50991967994E+03  0.28771010686E+04  0.28315530154E+04 0.  0.
        3    1    3    3  502    0  0.61267885353E+03  0.43692102918E+03  0.14734784698E+04  0.16545132742E+04  0.10100000352E+00 0.  1.
       -3    1    3    3    0  502 -0.61267885353E+03 -0.43692102918E+03 -0.96355878985E+03  0.12225877944E+04  0.10100000352E+00 0. -1.
</event>
<event>
 5   0  0.1017456E-05  0.3059476E+04  0.7818609E-02  0.8226948E-01
       -1   -1    0    0    0  501  0.00000000000E+00  0.00000000000E+00  0.14809325855E+04  0.14809325855E+04  0.50400001928E-02 0. -1.
        1   -1    0    0  501    0  0.00000000000E+00  0.00000000000E+00 -0.15801513524E+04  0.15801513524E+04  0.50400001928E-02 0.  1.
    10030    2    1    2    0    0  0.00000000000E+00  0.00000000000E+00 -0.99218766872E+02  0.30610839379E+04  0.30594755288E+04 0.  0.
        5    1    3    3  502    0  0.26530915147E+03  0.15036849860E+04  0.43272900321E+02  0.15275313800E+04  0.46999998093E+01 0.  1.
       -5    1    3    3    0  502 -0.26530915147E+03 -0.15036849860E+04 -0.14249166719E+03  0.15335525580E+04  0.46999998093E+01 0. -1.
</event>
<event>
 5   0  0.2588048E-05  0.1573015E+04  0.7818609E-02  0.8837299E-01
        2   -1    0    0  501    0  0.00000000000E+00  0.00000000000E+00  0.26401092207E+04  0.26401092207E+04  0.25500000920E-02 0. -1.
       -2   -1    0    0    0  501  0.00000000000E+00  0.00000000000E+00 -0.23430637503E+03  0.23430637505E+03  0.25500000920E-02 0.  1.
    10030    2    1    2    0    0  0.00000000000E+00  0.00000000000E+00  0.24058028457E+04  0.28744155958E+04  0.15730154751E+04 0.  0.
        2    1    3    3  502    0 -0.50811144482E+03 -0.28590036393E+02  0.22986887677E+04  0.23543501612E+04  0.25500000920E-02 0. -1.
       -2    1    3    3    0  502  0.50811144482E+03  0.28590036393E+02  0.10711407794E+03  0.52006543457E+03  0.25500000920E-02 0.  1.
</event>
<event>
 5   0  0.2624815E-05  0.2726123E+04  0.7818609E-02  0.8326579E-01
        2   -1    0    0  501    0  0.00000000000E+00  0.00000000000E+00  0.19695168965E+04  0.19695168965E+04  0.25500000920E-02 0. -1.
       -2   -1    0    0    0  501  0.00000000000E+00  0.00000000000E+00 -0.94334619060E+03  0.94334619061E+03  0.25500000920E-02 0.  1.
    10030    2    1    2    0    0  0.00000000000E+00  0.00000000000E+00  0.10261707059E+04  0.29128630871E+04  0.27261227130E+04 0.  0.
        4    1    3    3  502    0 -0.14574368021E+03 -0.63060199154E+03 -0.76868517763E+03  0.10048774091E+04  0.12699999809E+01 0.  1.
       -4    1    3    3    0  502  0.14574368021E+03  0.63060199154E+03  0.17948558835E+04  0.19079856780E+04  0.12699999809E+01 0. -1.
</event>
<event>
 5   0  0.1067434E-05  0.2451946E+04  0.7818609E-02  0.8420308E-01
       -1   -1    0    0    0  501  0.00000000000E+00  0.00000000000E+00  0.14555809768E+04  0.14555809768E+04  0.50400001928E-02 0.  1.
        1   -1    0    0  501    0  0.00000000000E+00  0.00000000000E+00 -0.10325841244E+04  0.10325841244E+04  0.50400001928E-02 0. -1.
    10030    2    1    2    0    0  0.00000000000E+00  0.00000000000E+00  0.42299685243E+03  0.24881651012E+04  0.24519460095E+04 0.  0.
        4    1    3    3  502    0  0.51113650354E+03 -0.43670818334E+03  0.12518415432E+04  0.14209445537E+04  0.12699999809E+01 0.  1.
       -4    1    3    3    0  502 -0.51113650354E+03  0.43670818334E+03 -0.82884469073E+03  0.10672205475E+04  0.12699999809E+01 0. -1.
</event>
<event>
 5   0  0.2518686E-05  0.2722545E+04  0.7818609E-02  0.8327727E-01
        2   -1    0    0  501    0  0.00000000000E+00  0.00000000000E+00  0.19453864210E+04  0.19453864210E+04  0.25500000920E-02 0. -1.
       -2   -1    0    0    0  501  0.00000000000E+00  0.00000000000E+00 -0.95254228447E+03  0.95254228447E+03  0.25500000920E-02 0.  1.
    10030    2    1    2    0    0  0.00000000000E+00  0.00000000000E+00  0.99284413657E+03  0.28979287055E+04  0.27225450047E+04 0.  0.
        5    1    3    3  502    0  0.18677802843E+03  0.76690154151E+03  0.16769279043E+04  0.18534112583E+04  0.46999998093E+01 0. -1.
       -5    1    3    3    0  502 -0.18677802843E+03 -0.76690154151E+03 -0.68408376771E+03  0.10445174472E+04  0.46999998093E+01 0.  1.
</event>
<event>
 5   0  0.2697964E-05  0.2684810E+04  0.7818609E-02  0.8339951E-01
        2   -1    0    0  501    0  0.00000000000E+00  0.00000000000E+00  0.16260004393E+04  0.16260004393E+04  0.25500000920E-02 0. -1.
       -2   -1    0    0    0  501  0.00000000000E+00  0.00000000000E+00 -0.11082721422E+04  0.11082721422E+04  0.25500000920E-02 0.  1.
    10030    2    1    2    0    0  0.00000000000E+00  0.00000000000E+00  0.51772829711E+03  0.27342725816E+04  0.26848098556E+04 0.  0.
        1    1    3    3  502    0  0.12533482953E+03 -0.92874296061E+03 -0.71997705523E+03  0.11817949342E+04  0.50400001928E-02 0.  1.
       -1    1    3    3    0  502 -0.12533482953E+03  0.92874296061E+03  0.12377053523E+04  0.15524776474E+04  0.50400001928E-02 0. -1.
</event>
<event>
 5   0  0.1067434E-05  0.2493689E+04  0.7818609E-02  0.8405237E-01
        1   -1    0    0  501    0  0.00000000000E+00  0.00000000000E+00  0.15303090858E+04  0.15303090859E+04  0.50400001928E-02 0. -1.
       -1   -1    0    0    0  501  0.00000000000E+00  0.00000000000E+00 -0.10158871503E+04  0.10158871504E+04  0.50400001928E-02 0.  1.
    10030    2    1    2    0    0  0.00000000000E+00  0.00000000000E+00  0.51442193550E+03  0.25461962362E+04  0.24936891036E+04 0.  0.
        4    1    3    3  502    0 -0.10785821185E+03 -0.89986974478E+03 -0.61710204901E+03  0.10964558829E+04  0.12699999809E+01 0.  1.
       -4    1    3    3    0  502  0.10785821185E+03  0.89986974478E+03  0.11315239845E+04  0.14497403533E+04  0.12699999809E+01 0. -1.
</event>
<event>
 5   0  0.1105862E-05  0.2829001E+04  0.7818609E-02  0.8294321E-01
       -1   -1    0    0    0  501  0.00000000000E+00  0.00000000000E+00  0.27853982427E+04  0.27853982428E+04  0.50400001928E-02 0.  1.
        1   -1    0    0  501    0  0.00000000000E+00  0.00000000000E+00 -0.71832146788E+03  0.71832146789E+03  0.50400001928E-02 0. -1.
    10030    2    1    2    0    0  0.00000000000E+00  0.00000000000E+00  0.20670767749E+04  0.35037197106E+04  0.28290007808E+04 0.  0.
        3    1    3    3  502    0  0.13660010340E+04 -0.29381915071E+03  0.13063540702E+04  0.19128119315E+04  0.10100000352E+00 0. -1.
       -3    1    3    3    0  502 -0.13660010340E+04  0.29381915071E+03  0.76072270469E+03  0.15909077792E+04  0.10100000352E+00 0.  1.
</event>
<event>
 5   0  0.2624815E-05  0.1895374E+04  0.7818609E-02  0.8657163E-01
        2   -1    0    0  501    0  0.00000000000E+00  0.00000000000E+00  0.10576944436E+04  0.10576944436E+04  0.25500000920E-02 0. -1.
       -2   -1    0    0    0  501  0.00000000000E+00  0.00000000000E+00 -0.84912086397E+03  0.84912086397E+03  0.25500000920E-02 0.  1.
    10030    2    1    2    0    0  0.00000000000E+00  0.00000000000E+00  0.20857357967E+03  0.19068153076E+04  0.18953737571E+04 0.  0.
        4    1    3    3  502    0  0.82374410895E+03 -0.60807841404E+02 -0.36312180108E+03  0.90228100164E+03  0.12699999809E+01 0. -1.
       -4    1    3    3    0  502 -0.82374410895E+03  0.60807841404E+02  0.57169538076E+03  0.10045343060E+04  0.12699999809E+01 0.  1.
</event>
<event>
 5   0  0.2651061E-05  0.2815378E+04  0.7818609E-02  0.8298510E-01
       -2   -1    0    0    0  501  0.00000000000E+00  0.00000000000E+00  0.10503772033E+04  0.10503772033E+04  0.25500000920E-02 0. -1.
        2   -1    0    0  501    0  0.00000000000E+00  0.00000000000E+00 -0.18865492708E+04  0.18865492708E+04  0.25500000920E-02 0.  1.
    10030    2    1    2    0    0  0.00000000000E+00  0.00000000000E+00 -0.83617206752E+03  0.29369264740E+04  0.28153780186E+04 0.  0.
        3    1    3    3  502    0  0.51593261543E+03 -0.91451714304E+03 -0.13961464536E+04  0.17469267296E+04  0.10100000352E+00 0.  1.
       -3    1    3    3    0  502 -0.51593261543E+03  0.91451714304E+03  0.55997438604E+03  0.11899997445E+04  0.10100000352E+00 0. -1.
</event>
<event>
 5   0  0.2588048E-05  0.2910735E+04  0.7818609E-02  0.8269691E-01
       -2   -1    0    0    0  501  0.00000000000E+00  0.00000000000E+00  0.10004497218E+04  0.10004497218E+04  0.25500000920E-02 0.  1.
        2   -1    0    0  501    0  0.00000000000E+00  0.00000000000E+00 -0.21171426646E+04  0.21171426646E+04  0.25500000920E-02 0. -1.
    10030    2    1    2    0    0  0.00000000000E+00  0.00000000000E+00 -0.11166929428E+04  0.31175923863E+04  0.29107351578E+04 0.  0.
        2    1    3    3  502    0  0.53966077676E+03 -0.47029145564E+03 -0.19155565743E+04  0.20449363795E+04  0.25500000920E-02 0. -1.
       -2    1    3    3    0  502 -0.53966077676E+03  0.47029145564E+03  0.79886363147E+03  0.10726560068E+04  0.25500000920E-02 0.  1.
</event>
<event>
 5   0  0.2588048E-05  0.1784065E+04  0.7818609E-02  0.8714820E-01
       -2   -1    0    0    0  501  0.00000000000E+00  0.00000000000E+00  0.75997316645E+03  0.75997316645E+03  0.25500000920E-02 0. -1.
        2   -1    0    0  501    0  0.00000000000E+00  0.00000000000E+00 -0.10470390693E+04  0.10470390693E+04  0.25500000920E-02 0.  1.
    10030    2    1    2    0    0  0.00000000000E+00  0.00000000000E+00 -0.28706590283E+03  0.18070122357E+04  0.17840645693E+04 0.  0.
        2    1    3    3  502    0  0.70859239148E+03 -0.24711754917E+03 -0.63197151430E+03  0.98110053270E+03  0.25500000920E-02 0.  1.
       -2    1    3    3    0  502 -0.70859239148E+03  0.24711754917E+03  0.34490561147E+03  0.82591170303E+03  0.25500000920E-02 0. -1.
</event>
<event>
 5   0  0.2624815E-05  0.2797849E+04  0.7818609E-02  0.8303937E-01
        2   -1    0    0  501    0  0.00000000000E+00  0.00000000000E+00  0.12820333686E+04  0.12820333686E+04  0.25500000920E-02 0. -1.
       -2   -1    0    0    0  501  0.00000000000E+00  0.00000000000E+00 -0.15264729159E+04  0.15264729159E+04  0.25500000920E-02 0.  1.
    10030    2    1    2    0    0  0.00000000000E+00  0.00000000000E+00 -0.24443954727E+03  0.28085062846E+04  0.27978486124E+04 0.  0.
        4    1    3    3  502    0  0.69800368778E+03 -0.15124184148E+03  0.10852356338E+04  0.12991617438E+04  0.12699999809E+01 0. -1.
       -4    1    3    3    0  502 -0.69800368778E+03  0.15124184148E+03 -0.13296751811E+04  0.15093445408E+04  0.12699999809E+01 0.  1.
</event>
<event>
 5   0  0.2518686E-05  0.2733174E+04  0.7818609E-02  0.8324321E-01
       -2   -1    0    0    0  501  0.00000000000E+00  0.00000000000E+00  0.13278177496E+04  0.13278177496E+04  0.25500000920E-02 0.  1.
        2   -1    0    0  501    0  0.00000000000E+00  0.00000000000E+00 -0.14064885378E+04  0.14064885378E+04  0.25500000920E-02 0. -1.
    10030    2    1    2    0    0  0.00000000000E+00  0.00000000000E+00 -0.78670788202E+02  0.27343062873E+04  0.27331743047E+04 0.  0.
        5    1    3    3  502    0 -0.13434869739E+04 -0.96049928011E+02  0.19174840524E+03  0.13605044574E+04  0.46999998093E+01 0.  1.
       -5    1    3    3    0  502  0.13434869739E+04  0.96049928011E+02 -0.27041919344E+03  0.13738018299E+04  0.46999998093E+01 0. -1.
</event>
<event>
 5   0  0.2518686E-05  0.2655722E+04  0.7818609E-02  0.8349516E-01
       -2   -1    0    0    0  501  0.00000000000E+00  0.00000000000E+00  0.11938379950E+04  0.11938379950E+04  0.25500000920E-02 0.  1.
        2   -1    0    0  501    0  0.00000000000E+00  0.00000000000E+00 -0.14769295928E+04  0.14769295928E+04  0.25500000920E-02 0. -1.
    10030    2    1    2    0    0  0.00000000000E+00  0.00000000000E+00 -0.28309159785E+03  0.26707675878E+04  0.26557218709E+04 0.  0.
        5    1    3    3  502    0  0.61726387489E+03 -0.36987160961E+03  0.98073932938E+03  0.12164256743E+04  0.46999998093E+01 0.  1.
       -5    1    3    3    0  502 -0.61726387489E+03  0.36987160961E+03 -0.12638309272E+04  0.14543419135E+04  0.46999998093E+01 0. -1.
</event>
<event>
 5   0  0.2651061E-05  0.2858193E+04  0.7818609E-02  0.8285426E-01
        2   -1    0    0  501    0  0.00000000000E+00  0.00000000000E+00  0.23324448292E+04  0.23324448292E+04  0.25500000920E-02 0.  1.
       -2   -1    0    0    0  501  0.00000000000E+00  0.00000000000E+00 -0.87561223957E+03  0.87561223957E+03  0.25500000920E-02 0. -1.
    10030    2    1    2    0    0  0.00000000000E+00  0.00000000000E+00  0.14568325896E+04  0.32080570688E+04  0.28581933039E+04 0.  0.
        3    1    3    3  502    0  0.13490508066E+04  0.19637566129E+03  0.12096342792E+04  0.18225577025E+04  0.10100000352E+00 0.  1.
       -3    1    3    3    0  502 -0.13490508066E+04 -0.19637566129E+03  0.24719831044E+03  0.13854993663E+04  0.10100000352E+00 0. -1.
</event>
<event>
 5   0  0.1078103E-05  0.2871668E+04  0.7818609E-02  0.8281357E-01
       -1   -1    0    0    0  501  0.00000000000E+00  0.00000000000E+00  0.94761905594E+03  0.94761905595E+03  0.50400001928E-02 0.  1.
        1   -1    0    0  501    0  0.00000000000E+00  0.00000000000E+00 -0.21755787929E+04  0.21755787929E+04  0.50400001928E-02 0. -1.
    10030    2    1    2    0    0  0.00000000000E+00  0.00000000000E+00 -0.12279597370E+04  0.31231978489E+04  0.28716684502E+04 0.  0.
        1    1    3    3  502    0 -0.89321994342E+03 -0.11046934827E+04 -0.38732662727E+03  0.14724847959E+04  0.50400001928E-02 0. -1.
       -1    1    3    3    0  502  0.89321994342E+03  0.11046934827E+04 -0.84063310972E+03  0.16507130530E+04  0.50400001928E-02 0.  1.
</event>
<event>
 5   0  0.1078103E-05  0.1596790E+04  0.7818609E-02  0.8822523E-01
       -1   -1    0    0    0  501  0.00000000000E+00  0.00000000000E+00  0.10403256764E+04  0.10403256765E+04  0.50400001928E-02 0.  1.
        1   -1    0    0  501    0  0.00000000000E+00  0.00000000000E+00 -0.61272562398E+03  0.61272562401E+03  0.50400001928E-02 0. -1.
    10030    2    1    2    0    0  0.00000000000E+00  0.00000000000E+00  0.42760005246E+03  0.16530513005E+04  0.15967895281E+04 0.  0.
        1    1    3    3  502    0 -0.26091513232E+03  0.19915686238E+03  0.96724440623E+03  0.10214215112E+04  0.50400001928E-02 0.  1.
       -1    1    3    3    0  502  0.26091513232E+03 -0.19915686238E+03 -0.53964435378E+03  0.63162978927E+03  0.50400001928E-02 0. -1.
</event>
<event>
 5   0  0.2588048E-05  0.2857155E+04  0.7818609E-02  0.8285740E-01
       -2   -1    0    0    0  501  0.00000000000E+00  0.00000000000E+00  0.27247490655E+04  0.27247490655E+04  0.25500000920E-02 0. -1.
        2   -1    0    0  501    0  0.00000000000E+00  0.00000000000E+00 -0.74899868595E+03  0.74899868596E+03  0.25500000920E-02 0.  1.
    10030    2    1    2    0    0  0.00000000000E+00  0.00000000000E+00  0.19757503795E+04  0.34737477514E+04  0.28571548573E+04 0.  0.
        2    1    3    3  502    0  0.76122840477E+03 -0.11887306133E+04  0.72071758990E+03  0.15849236574E+04  0.25500000920E-02 0. -1.
       -2    1    3    3    0  502 -0.76122840477E+03  0.11887306133E+04  0.12550327896E+04  0.18888240941E+04  0.25500000920E-02 0.  1.
</event>
<event>
 5   0  0.2624815E-05  0.2788323E+04  0.7818609E-02  0.8306903E-01
       -2   -1    0    0    0  501  0.00000000000E+00  0.00000000000E+00  0.21582698802E+04  0.21582698802E+04  0.25500000920E-02 0. -1.
        2   -1    0    0  501    0  0.00000000000E+00  0.00000000000E+00 -0.90057621688E+03  0.90057621689E+03  0.25500000920E-02 0.  1.
    10030    2    1    2    0    0  0.00000000000E+00  0.00000000000E+00  0.12576936634E+04  0.30588460971E+04  0.27883231691E+04 0.  0.
        4    1    3    3  502    0  0.21038096267E+03 -0.87052374135E+03  0.18009720381E+04  0.20113611383E+04  0.12699999809E+01 0. -1.
       -4    1    3    3    0  502 -0.21038096267E+03  0.87052374135E+03 -0.54327837472E+03  0.10474849589E+04  0.12699999809E+01 0.  1.
</event>
<event>
 5   0  0.1017456E-05  0.2786902E+04  0.7818609E-02  0.8307346E-01
       -1   -1    0    0    0  501  0.00000000000E+00  0.00000000000E+00  0.10010175660E+04  0.10010175660E+04  0.50400001928E-02 0. -1.
        1   -1    0    0  501    0  0.00000000000E+00  0.00000000000E+00 -0.19397318151E+04  0.19397318151E+04  0.50400001928E-02 0.  1.
    10030    2    1    2    0    0  0.00000000000E+00  0.00000000000E+00 -0.93871424911E+03  0.29407493811E+04  0.27869019503E+04 0.  0.
        5    1    3    3  502    0  0.96491991802E+03  0.82750450826E+03 -0.10717013735E+04  0.16626485147E+04  0.46999998093E+01 0.  1.
       -5    1    3    3    0  502 -0.96491991802E+03 -0.82750450826E+03  0.13298712444E+03  0.12781008664E+04  0.46999998093E+01 0. -1.
</event>
<event>
 5   0  0.2624815E-05  0.2860230E+04  0.7818609E-02  0.8284810E-01
       -2   -1    0    0    0  501  0.00000000000E+00  0.00000000000E+00  0.13577390102E+04  0.13577390102E+04  0.25500000920E-02 0.  1.
        2   -1    0    0  501    0  0.00000000000E+00  0.00000000000E+00 -0.15063489705E+04  0.15063489705E+04  0.25500000920E-02 0. -1.
    10030    2    1    2    0    0  0.00000000000E+00  0.00000000000E+00 -0.14860996028E+03  0.28640879808E+04  0.28602298931E+04 0.  0.
        4    1    3    3  502    0 -0.60829620252E+03 -0.78007941621E+03 -0.11084996195E+04  0.14857056186E+04  0.12699999809E+01 0. -1.
       -4    1    3    3    0  502  0.60829620252E+03  0.78007941621E+03  0.95988965927E+03  0.13783823622E+04  0.12699999809E+01 0.  1.
</event>
<event>
 5   0  0.1017456E-05  0.2781845E+04  0.7818609E-02  0.8308927E-01
        1   -1    0    0  501    0  0.00000000000E+00  0.00000000000E+00  0.16822713657E+04  0.16822713657E+04  0.50400001928E-02 0.  1.
       -1   -1    0    0    0  501  0.00000000000E+00  0.00000000000E+00 -0.11500318155E+04  0.11500318155E+04  0.50400001928E-02 0. -1.
    10030    2    1    2    0    0  0.00000000000E+00  0.00000000000E+00  0.53223955015E+03  0.28323031812E+04  0.27818451379E+04 0.  0.
        5    1    3    3  502    0  0.18460508762E+03  0.12472396839E+04 -0.33186437318E+03  0.13037798586E+04  0.46999998093E+01 0.  1.
       -5    1    3    3    0  502 -0.18460508762E+03 -0.12472396839E+04  0.86410392332E+03  0.15285233226E+04  0.46999998093E+01 0. -1.
</event>
<event>
 5   0  0.1067434E-05  0.1754967E+04  0.7818609E-02  0.8730621E-01
       -1   -1    0    0    0  501  0.00000000000E+00  0.00000000000E+00  0.48955768062E+03  0.48955768064E+03  0.50400001928E-02 0.  1.
        1   -1    0    0  501    0  0.00000000000E+00  0.00000000000E+00 -0.15728023859E+04  0.15728023859E+04  0.50400001928E-02 0. -1.
    10030    2    1    2    0    0  0.00000000000E+00  0.00000000000E+00 -0.10832447053E+04  0.20623600665E+04  0.17549672226E+04 0.  0.
        4    1    3    3  502    0  0.46270452439E+03  0.40150496102E+03 -0.12798916887E+04  0.14189524511E+04  0.12699999809E+01 0. -1.
       -4    1    3    3    0  502 -0.46270452439E+03 -0.40150496102E+03  0.19664698347E+03  0.64340761545E+03  0.12699999809E+01 0.  1.
</event>
<event>
 5   0  0.1078103E-05  0.2678769E+04  0.7818609E-02  0.8341927E-01
       -1   -1    0    0    0  501  0.00000000000E+00  0.00000000000E+00  0.21284190874E+04  0.21284190874E+04  0.50400001928E-02 0.  1.
        1   -1    0    0  501    0  0.00000000000E+00  0.00000000000E+00 -0.84285581713E+03  0.84285581715E+03  0.50400001928E-02 0. -1.
    10030    2    1    2    0    0  0.00000000000E+00  0.00000000000E+00  0.12855632703E+04  0.29712749046E+04  0.26787686792E+04 0.  0.
        1    1    3    3  502    0  0.36498706523E+02  0.13278386353E+04  0.83317189255E+03  0.15680124360E+04  0.50400001928E-02 0. -1.
       -1    1    3    3    0  502 -0.36498706523E+02 -0.13278386353E+04  0.45239137774E+03  0.14032624686E+04  0.50400001928E-02 0.  1.
</event>
<event>
 5   0  0.1078103E-05  0.2675731E+04  0.7818609E-02  0.8342923E-01
        1   -1    0    0  501    0  0.00000000000E+00  0.00000000000E+00  0.14876570442E+04  0.14876570442E+04  0.50400001928E-02 0. -1.
       -1   -1    0    0    0  501  0.00000000000E+00  0.00000000000E+00 -0.12031561995E+04  0.12031561996E+04  0.50400001928E-02 0.  1.
    10030    2    1    2    0    0  0.00000000000E+00  0.00000000000E+00  0.28450084462E+03  0.26908132437E+04  0.26757307753E+04 0.  0.
        1    1    3    3  502    0  0.97332076902E+03 -0.71964463085E+03 -0.43073496946E+03  0.12848246293E+04  0.50400001928E-02 0. -1.
       -1    1    3    3    0  502 -0.97332076902E+03  0.71964463085E+03  0.71523581408E+03  0.14059886144E+04  0.50400001928E-02 0.  1.
</event>
<event>
 5   0  0.1078103E-05  0.2831766E+04  0.7818609E-02  0.8293474E-01
       -1   -1    0    0    0  501  0.00000000000E+00  0.00000000000E+00  0.22087202824E+04  0.22087202824E+04  0.50400001928E-02 0. -1.
        1   -1    0    0  501    0  0.00000000000E+00  0.00000000000E+00 -0.90764058810E+03  0.90764058811E+03  0.50400001928E-02 0.  1.
    10030    2    1    2    0    0  0.00000000000E+00  0.00000000000E+00  0.13010796943E+04  0.31163608705E+04  0.28317656514E+04 0.  0.
        1    1    3    3  502    0 -0.58694673157E+03 -0.91660804957E+03  0.16471146662E+04  0.19742501123E+04  0.50400001928E-02 0. -1.
       -1    1    3    3    0  502  0.58694673157E+03  0.91660804957E+03 -0.34603497190E+03  0.11421107582E+04  0.50400001928E-02 0.  1.
</event>
<event>
 5   0  0.1075146E-05  0.1448562E+04  0.7818609E-02  0.8919398E-01
       -1   -1    0    0    0  501  0.00000000000E+00  0.00000000000E+00  0.92384901378E+03  0.92384901379E+03  0.50400001928E-02 0.  1.
        1   -1    0    0  501    0  0.00000000000E+00  0.00000000000E+00 -0.56782301864E+03  0.56782301866E+03  0.50400001928E-02 0. -1.
    10030    2    1    2    0    0  0.00000000000E+00  0.00000000000E+00  0.35602599514E+03  0.14916720325E+04  0.14485616808E+04 0.  0.
        2    1    3    3  502    0 -0.44207826612E+02 -0.21190624797E+02 -0.56611253432E+03  0.56823126985E+03  0.25500000920E-02 0. -1.
       -2    1    3    3    0  502  0.44207826612E+02  0.21190624797E+02  0.92213852946E+03  0.92344076260E+03  0.25500000920E-02 0.  1.
</event>
<event>
 5   0  0.1017456E-05  0.3044994E+04  0.7818609E-02  0.8230998E-01
        1   -1    0    0  501    0  0.00000000000E+00  0.00000000000E+00  0.16373005743E+04  0.16373005743E+04  0.50400001928E-02 0. -1.
       -1   -1    0    0    0  501  0.00000000000E+00  0.00000000000E+00 -0.14157430047E+04  0.14157430047E+04  0.50400001928E-02 0.  1.
    10030    2    1    2    0    0  0.00000000000E+00  0.00000000000E+00  0.22155756955E+03  0.30530435790E+04  0.30449938158E+04 0.  0.
        5    1    3    3  502    0  0.18408768309E+03  0.51827702535E+03 -0.13126486720E+04  0.14232244996E+04  0.46999998093E+01 0.  1.
       -5    1    3    3    0  502 -0.18408768309E+03 -0.51827702535E+03  0.15342062415E+04  0.16298190794E+04  0.46999998093E+01 0. -1.
</event>
<event>
 5   0  0.2651061E-05  0.2132075E+04  0.7818609E-02  0.8547244E-01
       -2   -1    0    0    0  501  0.00000000000E+00  0.00000000000E+00  0.91148184583E+03  0.91148184584E+03  0.25500000920E-02 0.  1.
        2   -1    0    0  501    0  0.00000000000E+00  0.00000000000E+00 -0.12467999644E+04  0.12467999645E+04  0.25500000920E-02 0. -1.
    10030    2    1    2    0    0  0.00000000000E+00  0.00000000000E+00 -0.33531811861E+03  0.21582818103E+04  0.21320746075E+04 0.  0.
        3    1    3    3  502    0  0.27888070170E+03  0.39250719041E+03  0.79513598937E+03  0.92955774006E+03  0.10100000352E+00 0.  1.
       -3    1    3    3    0  502 -0.27888070170E+03 -0.39250719041E+03 -0.11304541080E+04  0.12287240702E+04  0.10100000352E+00 0. -1.
</event>
<event>
 5   0  0.1105862E-05  0.2669995E+04  0.7818609E-02  0.8344807E-01
       -1   -1    0    0    0  501  0.00000000000E+00  0.00000000000E+00  0.96825164047E+03  0.96825164048E+03  0.50400001928E-02 0.  1.
        1   -1    0    0  501    0  0.00000000000E+00  0.00000000000E+00 -0.18406565760E+04  0.18406565760E+04  0.50400001928E-02 0. -1.
    10030    2    1    2    0    0  0.00000000000E+00  0.00000000000E+00 -0.87240493552E+03  0.28089082165E+04  0.26699953178E+04 0.  0.
        3    1    3    3  502    0  0.15711116642E+02  0.70903046763E+03  0.75368083544E+03  0.10348941275E+04  0.10100000352E+00 0.  1.
       -3    1    3    3    0  502 -0.15711116642E+02 -0.70903046763E+03 -0.16260857710E+04  0.17740140890E+04  0.10100000352E+00 0. -1.
</event>
<event>
 5   0  0.1075146E-05  0.2815546E+04  0.7818609E-02  0.8298458E-01
       -1   -1    0    0    0  501  0.00000000000E+00  0.00000000000E+00  0.16839446707E+04  0.16839446707E+04  0.50400001928E-02 0. -1.
        1   -1    0    0  501    0  0.00000000000E+00  0.00000000000E+00 -0.11768944007E+04  0.11768944007E+04  0.50400001928E-02 0.  1.
    10030    2    1    2    0    0  0.00000000000E+00  0.00000000000E+00  0.50705027003E+03  0.28608390714E+04  0.28155461666E+04 0.  0.
        2    1    3    3  502    0  0.73232206549E+03 -0.27078257263E+03  0.14437813869E+04  0.16413785372E+04  0.25500000920E-02 0. -1.
       -2    1    3    3    0  502 -0.73232206549E+03  0.27078257263E+03 -0.93673111684E+03  0.12194605342E+04  0.25500000920E-02 0.  1.
</event>
<event>
 5   0  0.2518686E-05  0.2897294E+04  0.7818609E-02  0.8273683E-01
        2   -1    0    0  501    0  0.00000000000E+00  0.00000000000E+00  0.73988055223E+03  0.73988055223E+03  0.25500000920E-02 0.  1.
       -2   -1    0    0    0  501  0.00000000000E+00  0.00000000000E+00 -0.28363739100E+04  0.28363739100E+04  0.25500000920E-02 0. -1.
    10030    2    1    2    0    0  0.00000000000E+00  0.00000000000E+00 -0.20964933578E+04  0.35762544623E+04  0.28972938373E+04 0.  0.
        5    1    3    3  502    0 -0.93509582604E+03 -0.21636950010E+03  0.29107855875E+03  0.10029799508E+04  0.46999998093E+01 0.  1.
       -5    1    3    3    0  502  0.93509582604E+03  0.21636950010E+03 -0.23875719165E+04  0.25732745114E+04  0.46999998093E+01 0. -1.
</event>
<event>
 5   0  0.2651061E-05  0.2720787E+04  0.7818609E-02  0.8328292E-01
       -2   -1    0    0    0  501  0.00000000000E+00  0.00000000000E+00  0.72375551471E+03  0.72375551472E+03  0.25500000920E-02 0. -1.
        2   -1    0    0  501    0  0.00000000000E+00  0.00000000000E+00 -0.25570384982E+04  0.25570384982E+04  0.25500000920E-02 0.  1.
    10030    2    1    2    0    0  0.00000000000E+00  0.00000000000E+00 -0.18332829835E+04  0.32807940129E+04  0.27207871761E+04 0.  0.
        3    1    3    3  502    0 -0.19388442980E+03 -0.13110409668E+04 -0.12868340135E+04  0.18472577993E+04  0.10100000352E+00 0.  1.
       -3    1    3    3    0  502  0.19388442980E+03  0.13110409668E+04 -0.54644896999E+03  0.14335362136E+04  0.10100000352E+00 0. -1.
</event>
<event>
 5   0  0.1078103E-05  0.2759455E+04  0.7818609E-02  0.8315968E-01
       -1   -1    0    0    0  501  0.00000000000E+00  0.00000000000E+00  0.97154609868E+03  0.97154609870E+03  0.50400001928E-02 0.  1.
        1   -1    0    0  501    0  0.00000000000E+00  0.00000000000E+00 -0.19594009102E+04  0.19594009102E+04  0.50400001928E-02 0. -1.
    10030    2    1    2    0    0  0.00000000000E+00  0.00000000000E+00 -0.98785481151E+03  0.29309470089E+04  0.27594552434E+04 0.  0.
        1    1    3    3  502    0 -0.11193286460E+04  0.57101855336E+03 -0.10991550227E+04  0.16694611615E+04  0.50400001928E-02 0. -1.
       -1    1    3    3    0  502  0.11193286460E+04 -0.57101855336E+03  0.11130021117E+03  0.12614858473E+04  0.50400001928E-02 0.  1.
</event>
<event>
 5   0  0.2624815E-05  0.2841828E+04  0.7818609E-02  0.8290399E-01
        2   -1    0    0  501    0  0.00000000000E+00  0.00000000000E+00  0.19737188575E+04  0.19737188575E+04  0.25500000920E-02 0. -1.
       -2   -1    0    0    0  501  0.00000000000E+00  0.00000000000E+00 -0.10229401006E+04  0.10229401006E+04  0.25500000920E-02 0.  1.
    10030    2    1    2    0    0  0.00000000000E+00  0.00000000000E+00  0.95077875686E+03  0.29966589581E+04  0.28418276983E+04 0.  0.
        4    1    3    3  502    0 -0.66014773105E+03 -0.11661389985E+04  0.97370300981E+03  0.16564342289E+04  0.12699999809E+01 0.  1.
       -4    1    3    3    0  502  0.66014773105E+03  0.11661389985E+04 -0.22924252944E+02  0.13402247292E+04  0.12699999809E+01 0. -1.
</event>
<event>
 5   0  0.2697964E-05  0.2787278E+04  0.7818609E-02  0.8307229E-01
        2   -1    0    0  501    0  0.00000000000E+00  0.00000000000E+00  0.15510496845E+04  0.15510496845E+04  0.25500000920E-02 0.  1.
       -2   -1    0    0    0  501  0.00000000000E+00  0.00000000000E+00 -0.12522030874E+04  0.12522030874E+04  0.25500000920E-02 0. -1.
    10030    2    1    2    0    0  0.00000000000E+00  0.00000000000E+00  0.29884659712E+03  0.28032527720E+04  0.27872776709E+04 0.  0.
        1    1    3    3  502    0  0.10454430263E+04 -0.77777817305E+03 -0.34771657203E+03  0.13486277552E+04  0.50400001928E-02 0. -1.
       -1    1    3    3    0  502 -0.10454430263E+04  0.77777817305E+03  0.64656316915E+03  0.14546250167E+04  0.50400001928E-02 0.  1.
</event>
<event>
 5   0  0.2651061E-05  0.2805857E+04  0.7818609E-02  0.8301452E-01
        2   -1    0    0  501    0  0.00000000000E+00  0.00000000000E+00  0.10756936788E+04  0.10756936788E+04  0.25500000920E-02 0. -1.
       -2   -1    0    0    0  501  0.00000000000E+00  0.00000000000E+00 -0.18297110506E+04  0.18297110506E+04  0.25500000920E-02 0.  1.
    10030    2    1    2    0    0  0.00000000000E+00  0.00000000000E+00 -0.75401737178E+03  0.29054047293E+04  0.28058571675E+04 0.  0.
        3    1    3    3  502    0  0.66395724007E+03  0.54557705768E+03 -0.15252768531E+04  0.17507035818E+04  0.10100000352E+00 0.  1.
       -3    1    3    3    0  502 -0.66395724007E+03 -0.54557705768E+03  0.77125948129E+03  0.11547011476E+04  0.10100000352E+00 0. -1.
</event>
<event>
 5   0  0.1017456E-05  0.2852928E+04  0.7818609E-02  0.8287022E-01
        1   -1    0    0  501    0  0.00000000000E+00  0.00000000000E+00  0.13044597945E+04  0.13044597945E+04  0.50400001928E-02 0. -1.
       -1   -1    0    0    0  501  0.00000000000E+00  0.00000000000E+00 -0.15598790737E+04  0.15598790737E+04  0.50400001928E-02 0.  1.
    10030    2    1    2    0    0  0.00000000000E+00  0.00000000000E+00 -0.25541927920E+03  0.28643388682E+04  0.28529279948E+04 0.  0.
        5    1    3    3  502    0 -0.13402929652E+04  0.31675757421E+03  0.24533651669E+03  0.13989041032E+04  0.46999998093E+01 0. -1.
       -5    1    3    3    0  502  0.13402929652E+04 -0.31675757421E+03 -0.50075579589E+03  0.14654347650E+04  0.46999998093E+01 0.  1.
</event>
<event>
 5   0  0.1075146E-05  0.2799501E+04  0.7818609E-02  0.8303423E-01
       -1   -1    0    0    0  501  0.00000000000E+00  0.00000000000E+00  0.72498345410E+03  0.72498345412E+03  0.50400001928E-02 0.  1.
        1   -1    0    0  501    0  0.00000000000E+00  0.00000000000E+00 -0.27025469452E+04  0.27025469452E+04  0.50400001928E-02 0. -1.
    10030    2    1    2    0    0  0.00000000000E+00  0.00000000000E+00 -0.19775634911E+04  0.34275303993E+04  0.27995012550E+04 0.  0.
        2    1    3    3  502    0 -0.67142061818E+03  0.34736235544E+03 -0.24311284128E+04  0.25459480772E+04  0.25500000920E-02 0. -1.
       -2    1    3    3    0  502  0.67142061818E+03 -0.34736235544E+03  0.45356492167E+03  0.88158232211E+03  0.25500000920E-02 0.  1.
</event>
<event>
 5   0  0.1078103E-05  0.2814289E+04  0.7818609E-02  0.8298846E-01
       -1   -1    0    0    0  501  0.00000000000E+00  0.00000000000E+00  0.64569774111E+03  0.64569774113E+03  0.50400001928E-02 0.  1.
        1   -1    0    0  501    0  0.00000000000E+00  0.00000000000E+00 -0.30665367667E+04  0.30665367667E+04  0.50400001928E-02 0. -1.
    10030    2    1    2    0    0  0.00000000000E+00  0.00000000000E+00 -0.24208390256E+04  0.37122345079E+04  0.28142891560E+04 0.  0.
        1    1    3    3  502    0  0.72980028215E+03  0.94721982784E+03 -0.23197620883E+03  0.12180504159E+04  0.50400001928E-02 0.  1.
       -1    1    3    3    0  502 -0.72980028215E+03 -0.94721982784E+03 -0.21888628168E+04  0.24941840920E+04  0.50400001928E-02 0. -1.
</event>
<event>
 5   0  0.2588048E-05  0.2770201E+04  0.7818609E-02  0.8312580E-01
        2   -1    0    0  501    0  0.00000000000E+00  0.00000000000E+00  0.12561959145E+04  0.12561959145E+04  0.25500000920E-02 0.  1.
       -2   -1    0    0    0  501  0.00000000000E+00  0.00000000000E+00 -0.15272325341E+04  0.15272325341E+04  0.25500000920E-02 0. -1.
    10030    2    1    2    0    0  0.00000000000E+00  0.00000000000E+00 -0.27103661960E+03  0.27834284486E+04  0.27702009096E+04 0.  0.
        2    1    3    3  502    0  0.76774411764E+03  0.54344014586E+02  0.10215527669E+04  0.12790443142E+04  0.25500000920E-02 0.  1.
       -2    1    3    3    0  502 -0.76774411764E+03 -0.54344014586E+02 -0.12925893865E+04  0.15043841345E+04  0.25500000920E-02 0. -1.
</event>
<event>
 5   0  0.2624815E-05  0.2558212E+04  0.7818609E-02  0.8382536E-01
       -2   -1    0    0    0  501  0.00000000000E+00  0.00000000000E+00  0.61034918303E+03  0.61034918304E+03  0.25500000920E-02 0.  1.
        2   -1    0    0  501    0  0.00000000000E+00  0.00000000000E+00 -0.26806158795E+04  0.26806158795E+04  0.25500000920E-02 0. -1.
    10030    2    1    2    0    0  0.00000000000E+00  0.00000000000E+00 -0.20702666965E+04  0.32909650626E+04  0.25582116504E+04 0.  0.
        4    1    3    3  502    0  0.12167440804E+04  0.33524286610E+03 -0.13026869457E+04  0.18137940423E+04  0.12699999809E+01 0.  1.
       -4    1    3    3    0  502 -0.12167440804E+04 -0.33524286610E+03 -0.76757975076E+03  0.14771710203E+04  0.12699999809E+01 0. -1.
</event>
<event>
 5   0  0.1075146E-05  0.2581563E+04  0.7818609E-02  0.8374491E-01
        1   -1    0    0  501    0  0.00000000000E+00  0.00000000000E+00  0.51682522791E+03  0.51682522793E+03  0.50400001928E-02 0.  1.
       -1   -1    0    0    0  501  0.00000000000E+00  0.00000000000E+00 -0.32237540997E+04  0.32237540997E+04  0.50400001928E-02 0. -1.
    10030    2    1    2    0    0  0.00000000000E+00  0.00000000000E+00 -0.27069288718E+04  0.37405793276E+04  0.25815634390E+04 0.  0.
        2    1    3    3  502    0  0.76521372441E+03  0.93827670200E+03 -0.70514278233E+03  0.14011215354E+04  0.25500000920E-02 0. -1.
       -2    1    3    3    0  502 -0.76521372441E+03 -0.93827670200E+03 -0.20017860894E+04  0.23394577922E+04  0.25500000920E-02 0.  1.
</event>
<event>
 5   0  0.1017456E-05  0.2834239E+04  0.7818609E-02  0.8292717E-01
        1   -1    0    0  501    0  0.00000000000E+00  0.00000000000E+00  0.15325128326E+04  0.15325128326E+04  0.50400001928E-02 0. -1.
       -1   -1    0    0    0  501  0.00000000000E+00  0.00000000000E+00 -0.13104146854E+04  0.13104146854E+04  0.50400001928E-02 0.  1.
    10030    2    1    2    0    0  0.00000000000E+00  0.00000000000E+00  0.22209814724E+03  0.28429275180E+04  0.28342387489E+04 0.  0.
        5    1    3    3  502    0  0.12158964887E+04  0.57104402826E+03 -0.34167666628E+03  0.13860954468E+04  0.46999998093E+01 0.  1.
       -5    1    3    3    0  502 -0.12158964887E+04 -0.57104402826E+03  0.56377481352E+03  0.14568320712E+04  0.46999998093E+01 0. -1.
</event>
<event>
 5   0  0.1075146E-05  0.2700018E+04  0.7818609E-02  0.8334999E-01
       -1   -1    0    0    0  501  0.00000000000E+00  0.00000000000E+00  0.10414118898E+04  0.10414118898E+04  0.50400001928E-02 0. -1.
        1   -1    0    0  501    0  0.00000000000E+00  0.00000000000E+00 -0.17500516358E+04  0.17500516358E+04  0.50400001928E-02 0.  1.
    10030    2    1    2    0    0  0.00000000000E+00  0.00000000000E+00 -0.70863974603E+03  0.27914635256E+04  0.27000182083E+04 0.  0.
        2    1    3    3  502    0  0.81212093301E+03  0.43069014407E+03  0.66784620505E+03  0.11362451160E+04  0.25500000920E-02 0. -1.
       -2    1    3    3    0  502 -0.81212093301E+03 -0.43069014407E+03 -0.13764859511E+04  0.16552184096E+04  0.25500000920E-02 0.  1.
</event>
<event>
 5   0  0.8958000E-06  0.2798113E+04  0.7818609E-02  0.8303854E-01
       -3   -1    0    0    0  501  0.00000000000E+00  0.00000000000E+00  0.13210758817E+04  0.13210758856E+04  0.10100000352E+00 0.  1.
        3   -1    0    0  501    0  0.00000000000E+00  0.00000000000E+00 -0.14816405629E+04  0.14816405664E+04  0.10100000352E+00 0. -1.
    10030    2    1    2    0    0  0.00000000000E+00  0.00000000000E+00 -0.16056468121E+03  0.28027164520E+04  0.27981133811E+04 0.  0.
        5    1    3    3  502    0  0.10783628750E+04  0.87645399977E+03 -0.24272011032E+03  0.14106641152E+04  0.46999998093E+01 0. -1.
       -5    1    3    3    0  502 -0.10783628750E+04 -0.87645399977E+03  0.82155429107E+02  0.13920523368E+04  0.46999998093E+01 0.  1.
</event>
<event>
 5   0  0.2588048E-05  0.2861000E+04  0.7818609E-02  0.8284577E-01
       -2   -1    0    0    0  501  0.00000000000E+00  0.00000000000E+00  0.15140496555E+04  0.15140496555E+04  0.25500000920E-02 0.  1.
        2   -1    0    0  501    0  0.00000000000E+00  0.00000000000E+00 -0.13515606736E+04  0.13515606736E+04  0.25500000920E-02 0. -1.
    10030    2    1    2    0    0  0.00000000000E+00  0.00000000000E+00  0.16248898187E+03  0.28656103291E+04  0.28609998059E+04 0.  0.
        2    1    3    3  502    0 -0.76495059488E+02 -0.69730634306E+02 -0.13478049223E+04  0.13517736364E+04  0.25500000920E-02 0. -1.
       -2    1    3    3    0  502  0.76495059488E+02  0.69730634306E+02  0.15102939041E+04  0.15138366928E+04  0.25500000920E-02 0.  1.
</event>
<event>
 5   0  0.2651061E-05  0.1781208E+04  0.7818609E-02  0.8716357E-01
        2   -1    0    0  501    0  0.00000000000E+00  0.00000000000E+00  0.11019071721E+04  0.11019071721E+04  0.25500000920E-02 0. -1.
       -2   -1    0    0    0  501  0.00000000000E+00  0.00000000000E+00 -0.71982028083E+03  0.71982028083E+03  0.25500000920E-02 0.  1.
    10030    2    1    2    0    0  0.00000000000E+00  0.00000000000E+00  0.38208689124E+03  0.18217274529E+04  0.17812076017E+04 0.  0.
        3    1    3    3  502    0  0.42431917022E+03  0.75701868975E+03 -0.13636784983E+02  0.86793434484E+03  0.10100000352E+00 0.  1.
       -3    1    3    3    0  502 -0.42431917022E+03 -0.75701868975E+03  0.39572367622E+03  0.95379310806E+03  0.10100000352E+00 0. -1.
</event>
<event>
 5   0  0.2588048E-05  0.2069932E+04  0.7818609E-02  0.8574605E-01
        2   -1    0    0  501    0  0.00000000000E+00  0.00000000000E+00  0.27836955613E+04  0.27836955613E+04  0.25500000920E-02 0.  1.
       -2   -1    0    0    0  501  0.00000000000E+00  0.00000000000E+00 -0.38479604676E+03  0.38479604677E+03  0.25500000920E-02 0. -1.
    10030    2    1    2    0    0  0.00000000000E+00  0.00000000000E+00  0.23988995145E+04  0.31684916081E+04  0.20699324118E+04 0.  0.
        2    1    3    3  502    0 -0.13111347353E+03  0.91293221564E+03  0.19182686388E+04  0.21284714102E+04  0.25500000920E-02 0.  1.
       -2    1    3    3    0  502  0.13111347353E+03 -0.91293221564E+03  0.48063087572E+03  0.10400201979E+04  0.25500000920E-02 0. -1.
</event>
<event>
 5   0  0.1105862E-05  0.2812993E+04  0.7818609E-02  0.8299246E-01
        1   -1    0    0  501    0  0.00000000000E+00  0.00000000000E+00  0.12786045993E+04  0.12786045994E+04  0.50400001928E-02 0. -1.
       -1   -1    0    0    0  501  0.00000000000E+00  0.00000000000E+00 -0.15471803798E+04  0.15471803798E+04  0.50400001928E-02 0.  1.
    10030    2    1    2    0    0  0.00000000000E+00  0.00000000000E+00 -0.26857578045E+03  0.28257849792E+04  0.28129926766E+04 0.  0.
        3    1    3    3  502    0 -0.66445501463E+03 -0.44455622392E+03 -0.12967457448E+04  0.15233779044E+04  0.10100000352E+00 0.  1.
       -3    1    3    3    0  502  0.66445501463E+03  0.44455622392E+03  0.10281699643E+04  0.13024070748E+04  0.10100000352E+00 0. -1.
</event>
<event>
 5   0  0.1017456E-05  0.2694024E+04  0.7818609E-02  0.8336947E-01
       -1   -1    0    0    0  501  0.00000000000E+00  0.00000000000E+00  0.94111965263E+03  0.94111965264E+03  0.50400001928E-02 0.  1.
        1   -1    0    0  501    0  0.00000000000E+00  0.00000000000E+00 -0.19279597422E+04  0.19279597422E+04  0.50400001928E-02 0. -1.
    10030    2    1    2    0    0  0.00000000000E+00  0.00000000000E+00 -0.98684008961E+03  0.28690793949E+04  0.26940236101E+04 0.  0.
        5    1    3    3  502    0  0.72491926507E+03  0.10087076487E+04 -0.10482524435E+04  0.16253782135E+04  0.46999998093E+01 0. -1.
       -5    1    3    3    0  502 -0.72491926507E+03 -0.10087076487E+04  0.61412353911E+02  0.12437011814E+04  0.46999998093E+01 0.  1.
</event>
<event>
 5   0  0.2518686E-05  0.2687851E+04  0.7818609E-02  0.8338958E-01
        2   -1    0    0  501    0  0.00000000000E+00  0.00000000000E+00  0.12750392508E+04  0.12750392508E+04  0.25500000920E-02 0.  1.
       -2   -1    0    0    0  501  0.00000000000E+00  0.00000000000E+00 -0.14165337713E+04  0.14165337713E+04  0.25500000920E-02 0. -1.
    10030    2    1    2    0    0  0.00000000000E+00  0.00000000000E+00 -0.14149452047E+03  0.26915730221E+04  0.26878513043E+04 0.  0.
        5    1    3    3  502    0  0.48116917719E+03  0.52255880264E+03  0.10716753306E+04  0.12857299808E+04  0.46999998093E+01 0.  1.
       -5    1    3    3    0  502 -0.48116917719E+03 -0.52255880264E+03 -0.12131698511E+04  0.14058430413E+04  0.46999998093E+01 0. -1.
</event>
<event>
 5   0  0.1017456E-05  0.2760583E+04  0.7818609E-02  0.8315611E-01
       -1   -1    0    0    0  501  0.00000000000E+00  0.00000000000E+00  0.12741551020E+04  0.12741551020E+04  0.50400001928E-02 0.  1.
        1   -1    0    0  501    0  0.00000000000E+00  0.00000000000E+00 -0.14952690098E+04  0.14952690099E+04  0.50400001928E-02 0. -1.
    10030    2    1    2    0    0  0.00000000000E+00  0.00000000000E+00 -0.22111390784E+03  0.27694241119E+04  0.27605830093E+04 0.  0.
        5    1    3    3  502    0  0.12689300712E+04 -0.16811864836E+03  0.40756116157E+03  0.13433449281E+04  0.46999998093E+01 0.  1.
       -5    1    3    3    0  502 -0.12689300712E+04  0.16811864836E+03 -0.62867506941E+03  0.14260791838E+04  0.46999998093E+01 0. -1.
</event>
<event>
 5   0  0.1075146E-05  0.2182414E+04  0.7818609E-02  0.8525784E-01
       -1   -1    0    0    0  501  0.00000000000E+00  0.00000000000E+00  0.75790889556E+03  0.75790889558E+03  0.50400001928E-02 0.  1.
        1   -1    0    0  501    0  0.00000000000E+00  0.00000000000E+00 -0.15710758846E+04  0.15710758846E+04  0.50400001928E-02 0. -1.
    10030    2    1    2    0    0  0.00000000000E+00  0.00000000000E+00 -0.81316698905E+03  0.23289847802E+04  0.21824136992E+04 0.  0.
        2    1    3    3  502    0  0.47971610828E+03 -0.66665891869E+03 -0.11732848981E+04  0.14321868281E+04  0.25500000920E-02 0. -1.
       -2    1    3    3    0  502 -0.47971610828E+03  0.66665891869E+03  0.36011790909E+03  0.89679795209E+03  0.25500000920E-02 0.  1.
</event>
<event>
 5   0  0.2518686E-05  0.2465320E+04  0.7818609E-02  0.8415445E-01
        2   -1    0    0  501    0  0.00000000000E+00  0.00000000000E+00  0.12498529751E+04  0.12498529751E+04  0.25500000920E-02 0.  1.
       -2   -1    0    0    0  501  0.00000000000E+00  0.00000000000E+00 -0.12157040189E+04  0.12157040189E+04  0.25500000920E-02 0. -1.
    10030    2    1    2    0    0  0.00000000000E+00  0.00000000000E+00  0.34148956248E+02  0.24655569940E+04  0.24653204942E+04 0.  0.
        5    1    3    3  502    0  0.12494138395E+02  0.66728246874E+03  0.10535170807E+04  0.12471336440E+04  0.46999998093E+01 0.  1.
       -5    1    3    3    0  502 -0.12494138395E+02 -0.66728246874E+03 -0.10193681245E+04  0.12184233500E+04  0.46999998093E+01 0. -1.
</event>
<event>
 5   0  0.1078103E-05  0.3096900E+04  0.7818609E-02  0.8216589E-01
       -1   -1    0    0    0  501  0.00000000000E+00  0.00000000000E+00  0.15351256637E+04  0.15351256637E+04  0.50400001928E-02 0. -1.
        1   -1    0    0  501    0  0.00000000000E+00  0.00000000000E+00 -0.15618897198E+04  0.15618897198E+04  0.50400001928E-02 0.  1.
    10030    2    1    2    0    0  0.00000000000E+00  0.00000000000E+00 -0.26764056181E+02  0.30970153835E+04  0.30968997354E+04 0.  0.
        1    1    3    3  502    0 -0.54749552602E+03  0.84694565728E+03 -0.11884274789E+04  0.15586623015E+04  0.50400001928E-02 0.  1.
       -1    1    3    3    0  502  0.54749552602E+03 -0.84694565728E+03  0.11616634227E+04  0.15383530821E+04  0.50400001928E-02 0. -1.
</event>
<event>
 5   0  0.2651061E-05  0.3011949E+04  0.7818609E-02  0.8240327E-01
       -2   -1    0    0    0  501  0.00000000000E+00  0.00000000000E+00  0.11668098380E+04  0.11668098380E+04  0.25500000920E-02 0.  1.
        2   -1    0    0  501    0  0.00000000000E+00  0.00000000000E+00 -0.19437265291E+04  0.19437265291E+04  0.25500000920E-02 0. -1.
    10030    2    1    2    0    0  0.00000000000E+00  0.00000000000E+00 -0.77691669113E+03  0.31105363671E+04  0.30119490278E+04 0.  0.
        3    1    3    3  502    0  0.10580245546E+04  0.71893422175E+03 -0.12092541860E+04  0.17602778389E+04  0.10100000352E+00 0. -1.
       -3    1    3    3    0  502 -0.10580245546E+04 -0.71893422175E+03  0.43233749491E+03  0.13502585282E+04  0.10100000352E+00 0.  1.
</event>
<event>
 5   0  0.2697964E-05  0.2485164E+04  0.7818609E-02  0.8408290E-01
       -2   -1    0    0    0  501  0.00000000000E+00  0.00000000000E+00  0.60697718372E+03  0.60697718372E+03  0.25500000920E-02 0.  1.
        2   -1    0    0  501    0  0.00000000000E+00  0.00000000000E+00 -0.25437695288E+04  0.25437695288E+04  0.25500000920E-02 0. -1.
    10030    2    1    2    0    0  0.00000000000E+00  0.00000000000E+00 -0.19367923451E+04  0.31507467126E+04  0.24851640305E+04 0.  0.
        1    1    3    3  502    0 -0.45304995964E+03  0.26467293858E+02 -0.24349413998E+04  0.24768718990E+04  0.50400001928E-02 0. -1.
       -1    1    3    3    0  502  0.45304995964E+03 -0.26467293858E+02  0.49814905471E+03  0.67387481353E+03  0.50400001928E-02 0.  1.
</event>
<event>
 5   0  0.2651061E-05  0.2858469E+04  0.7818609E-02  0.8285342E-01
        2   -1    0    0  501    0  0.00000000000E+00  0.00000000000E+00  0.21413460683E+04  0.21413460683E+04  0.25500000920E-02 0. -1.
       -2   -1    0    0    0  501  0.00000000000E+00  0.00000000000E+00 -0.95393811845E+03  0.95393811846E+03  0.25500000920E-02 0.  1.
    10030    2    1    2    0    0  0.00000000000E+00  0.00000000000E+00  0.11874079498E+04  0.30952841867E+04  0.28584692682E+04 0.  0.
        3    1    3    3  502    0 -0.10948863782E+04  0.13628739246E+03 -0.39005571843E+03  0.11702537794E+04  0.10100000352E+00 0.  1.
       -3    1    3    3    0  502  0.10948863782E+04 -0.13628739246E+03  0.15774636682E+04  0.19250304074E+04  0.10100000352E+00 0. -1.
</event>
<event>
 5   0  0.1075146E-05  0.2769778E+04  0.7818609E-02  0.8312713E-01
       -1   -1    0    0    0  501  0.00000000000E+00  0.00000000000E+00  0.15313386194E+04  0.15313386194E+04  0.50400001928E-02 0.  1.
        1   -1    0    0  501    0  0.00000000000E+00  0.00000000000E+00 -0.12524450793E+04  0.12524450793E+04  0.50400001928E-02 0. -1.
    10030    2    1    2    0    0  0.00000000000E+00  0.00000000000E+00  0.27889354016E+03  0.27837836987E+04  0.27697779829E+04 0.  0.
        2    1    3    3  502    0  0.13117184273E+04 -0.28413220878E+03 -0.20371961573E+03  0.13575117040E+04  0.25500000920E-02 0. -1.
       -2    1    3    3    0  502 -0.13117184273E+04  0.28413220878E+03  0.48261315589E+03  0.14262719947E+04  0.25500000920E-02 0.  1.
</event>
<event>
 5   0  0.2624815E-05  0.2764778E+04  0.7818609E-02  0.8314288E-01
       -2   -1    0    0    0  501  0.00000000000E+00  0.00000000000E+00  0.10849815709E+04  0.10849815709E+04  0.25500000920E-02 0. -1.
        2   -1    0    0  501    0  0.00000000000E+00  0.00000000000E+00 -0.17613196232E+04  0.17613196232E+04  0.25500000920E-02 0.  1.
    10030    2    1    2    0    0  0.00000000000E+00  0.00000000000E+00 -0.67633805229E+03  0.28463011941E+04  0.27647779887E+04 0.  0.
        4    1    3    3  502    0  0.33522336301E+03  0.10999458097E+04 -0.11280891656E+04  0.16108514102E+04  0.12699999809E+01 0.  1.
       -4    1    3    3    0  502 -0.33522336301E+03 -0.10999458097E+04  0.45175111329E+03  0.12354497839E+04  0.12699999809E+01 0. -1.
</event>
<event>
 5   0  0.1017456E-05  0.2827912E+04  0.7818609E-02  0.8294655E-01
        1   -1    0    0  501    0  0.00000000000E+00  0.00000000000E+00  0.17621260560E+04  0.17621260560E+04  0.50400001928E-02 0. -1.
       -1   -1    0    0    0  501  0.00000000000E+00  0.00000000000E+00 -0.11345791404E+04  0.11345791404E+04  0.50400001928E-02 0.  1.
    10030    2    1    2    0    0  0.00000000000E+00  0.00000000000E+00  0.62754691559E+03  0.28967051964E+04  0.28279119264E+04 0.  0.
        5    1    3    3  502    0  0.10991262097E+04  0.22660012479E+03 -0.56728034798E+03  0.12574796716E+04  0.46999998093E+01 0.  1.
       -5    1    3    3    0  502 -0.10991262097E+04 -0.22660012479E+03  0.11948272636E+04  0.16392255248E+04  0.46999998093E+01 0. -1.
</event>
<event>
 5   0  0.8958000E-06  0.2756071E+04  0.7818609E-02  0.8317038E-01
       -4   -1    0    0    0  501  0.00000000000E+00  0.00000000000E+00  0.10846062610E+04  0.10846070045E+04  0.12699999809E+01 0.  1.
        4   -1    0    0  501    0  0.00000000000E+00  0.00000000000E+00 -0.17508472990E+04  0.17508477596E+04  0.12699999809E+01 0. -1.
    10030    2    1    2    0    0  0.00000000000E+00  0.00000000000E+00 -0.66624103801E+03  0.28354547641E+04  0.27560708624E+04 0.  0.
        1    1    3    3  502    0 -0.84502864526E+03  0.10883334016E+04 -0.35466763025E+03  0.14227902630E+04  0.50400001928E-02 0. -1.
       -1    1    3    3    0  502  0.84502864526E+03 -0.10883334016E+04 -0.31157340775E+03  0.14126645012E+04  0.50400001928E-02 0.  1.
</event>
<event>
 5   0  0.8958000E-06  0.2786685E+04  0.7818609E-02  0.8307414E-01
        3   -1    0    0  501    0  0.00000000000E+00  0.00000000000E+00  0.28817924961E+04  0.28817924978E+04  0.10100000352E+00 0. -1.
       -3   -1    0    0    0  501  0.00000000000E+00  0.00000000000E+00 -0.67367886586E+03  0.67367887343E+03  0.10100000352E+00 0.  1.
    10030    2    1    2    0    0  0.00000000000E+00  0.00000000000E+00  0.22081136302E+04  0.35554713713E+04  0.27866845656E+04 0.  0.
        3    1    3    3  502    0  0.77643670564E+03  0.41386709093E+03  0.24825153052E+04  0.26338227309E+04  0.10100000352E+00 0. -1.
       -3    1    3    3    0  502 -0.77643670564E+03 -0.41386709093E+03 -0.27440167505E+03  0.92164864036E+03  0.10100000352E+00 0.  1.
</event>
<event>
 5   0  0.1075146E-05  0.1898191E+04  0.7818609E-02  0.8655757E-01
       -1   -1    0    0    0  501  0.00000000000E+00  0.00000000000E+00  0.10744861655E+04  0.10744861655E+04  0.50400001928E-02 0. -1.
        1   -1    0    0  501    0  0.00000000000E+00  0.00000000000E+00 -0.83833783025E+03  0.83833783027E+03  0.50400001928E-02 0.  1.
    10030    2    1    2    0    0  0.00000000000E+00  0.00000000000E+00  0.23614833528E+03  0.19128239958E+04  0.18981911397E+04 0.  0.
        2    1    3    3  502    0  0.37202285870E+03 -0.16506326260E+03 -0.74593583602E+03  0.84974534981E+03  0.25500000920E-02 0.  1.
       -2    1    3    3    0  502 -0.37202285870E+03  0.16506326260E+03  0.98208417130E+03  0.10630786460E+04  0.25500000920E-02 0. -1.
</event>
<event>
 5   0  0.1105862E-05  0.2852156E+04  0.7818609E-02  0.8287256E-01
       -1   -1    0    0    0  501  0.00000000000E+00  0.00000000000E+00  0.14435820545E+04  0.14435820545E+04  0.50400001928E-02 0.  1.
        1   -1    0    0  501    0  0.00000000000E+00  0.00000000000E+00 -0.14087861320E+04  0.14087861320E+04  0.50400001928E-02 0. -1.
    10030    2    1    2    0    0  0.00000000000E+00  0.00000000000E+00  0.34795922486E+02  0.28523681865E+04  0.28521559415E+04 0.  0.
        3    1    3    3  502    0 -0.11033917553E+04 -0.84195562608E+03  0.34504365733E+03  0.14301810296E+04  0.10100000352E+00 0. -1.
       -3    1    3    3    0  502  0.11033917553E+04  0.84195562608E+03 -0.31024773484E+03  0.14221871568E+04  0.10100000352E+00 0.  1.
</event>
<event>
 5   0  0.1017456E-05  0.2851746E+04  0.7818609E-02  0.8287381E-01
        1   -1    0    0  501    0  0.00000000000E+00  0.00000000000E+00  0.14478236885E+04  0.14478236885E+04  0.50400001928E-02 0.  1.
       -1   -1    0    0    0  501  0.00000000000E+00  0.00000000000E+00 -0.14042549774E+04  0.14042549774E+04  0.50400001928E-02 0. -1.
    10030    2    1    2    0    0  0.00000000000E+00  0.00000000000E+00  0.43568711027E+02  0.28520786659E+04  0.28517458659E+04 0.  0.
        5    1    3    3  502    0 -0.11147381816E+04 -0.81995191119E+03 -0.32195501348E+03  0.14207883273E+04  0.46999998093E+01 0. -1.
       -5    1    3    3    0  502  0.11147381816E+04  0.81995191119E+03  0.36552372451E+03  0.14312903386E+04  0.46999998093E+01 0.  1.
</event>
<event>
 5   0  0.2518686E-05  0.2730778E+04  0.7818609E-02  0.8325087E-01
       -2   -1    0    0    0  501  0.00000000000E+00  0.00000000000E+00  0.58622857465E+03  0.58622857465E+03  0.25500000920E-02 0.  1.
        2   -1    0    0  501    0  0.00000000000E+00  0.00000000000E+00 -0.31801377576E+04  0.31801377576E+04  0.25500000920E-02 0. -1.
    10030    2    1    2    0    0  0.00000000000E+00  0.00000000000E+00 -0.25939091829E+04  0.37663663322E+04  0.27307783688E+04 0.  0.
        5    1    3    3  502    0 -0.71780834486E+03  0.28560326262E+03 -0.28497030008E+04  0.29525662273E+04  0.46999998093E+01 0. -1.
       -5    1    3    3    0  502  0.71780834486E+03 -0.28560326262E+03  0.25579381788E+03  0.81380010496E+03  0.46999998093E+01 0.  1.
</event>
<event>
 5   0  0.1078103E-05  0.2796813E+04  0.7818609E-02  0.8304258E-01
       -1   -1    0    0    0  501  0.00000000000E+00  0.00000000000E+00  0.11975875282E+04  0.11975875282E+04  0.50400001928E-02 0. -1.
        1   -1    0    0  501    0  0.00000000000E+00  0.00000000000E+00 -0.16329001161E+04  0.16329001161E+04  0.50400001928E-02 0.  1.
    10030    2    1    2    0    0  0.00000000000E+00  0.00000000000E+00 -0.43531258784E+03  0.28304876443E+04  0.27968130533E+04 0.  0.
        1    1    3    3  502    0 -0.59875081557E+03 -0.10240507969E+04  0.53177187408E+03  0.12999861153E+04  0.50400001928E-02 0. -1.
       -1    1    3    3    0  502  0.59875081557E+03  0.10240507969E+04 -0.96708446192E+03  0.15305015290E+04  0.50400001928E-02 0.  1.
</event>
<event>
 5   0  0.1017456E-05  0.2846543E+04  0.7818609E-02  0.8288963E-01
       -1   -1    0    0    0  501  0.00000000000E+00  0.00000000000E+00  0.82865311203E+03  0.82865311205E+03  0.50400001928E-02 0. -1.
        1   -1    0    0  501    0  0.00000000000E+00  0.00000000000E+00 -0.24445713133E+04  0.24445713133E+04  0.50400001928E-02 0.  1.
    10030    2    1    2    0    0  0.00000000000E+00  0.00000000000E+00 -0.16159182013E+04  0.32732244253E+04  0.28465429042E+04 0.  0.
        5    1    3    3  502    0 -0.11944745032E+04  0.76831109007E+03 -0.91464718133E+03  0.16892817486E+04  0.46999998093E+01 0. -1.
       -5    1    3    3    0  502  0.11944745032E+04 -0.76831109007E+03 -0.70127101993E+03  0.15839426767E+04  0.46999998093E+01 0.  1.
</event>
<event>
 5   0  0.1067434E-05  0.2328981E+04  0.7818609E-02  0.8466581E-01
       -1   -1    0    0    0  501  0.00000000000E+00  0.00000000000E+00  0.15629272496E+04  0.15629272496E+04  0.50400001928E-02 0.  1.
        1   -1    0    0  501    0  0.00000000000E+00  0.00000000000E+00 -0.86762719265E+03  0.86762719266E+03  0.50400001928E-02 0. -1.
    10030    2    1    2    0    0  0.00000000000E+00  0.00000000000E+00  0.69530005696E+03  0.24305544423E+04  0.23289810492E+04 0.  0.
        4    1    3    3  502    0  0.60136536114E+03  0.13601765087E+03  0.13786082104E+04  0.15101997582E+04  0.12699999809E+01 0.  1.
       -4    1    3    3    0  502 -0.60136536114E+03 -0.13601765087E+03 -0.68330815349E+03  0.92035468405E+03  0.12699999809E+01 0. -1.
</event>
<event>
 5   0  0.1075146E-05  0.2762285E+04  0.7818609E-02  0.8315074E-01
       -1   -1    0    0    0  501  0.00000000000E+00  0.00000000000E+00  0.11368189601E+04  0.11368189601E+04  0.50400001928E-02 0.  1.
        1   -1    0    0  501    0  0.00000000000E+00  0.00000000000E+00 -0.16779760749E+04  0.16779760749E+04  0.50400001928E-02 0. -1.
    10030    2    1    2    0    0  0.00000000000E+00  0.00000000000E+00 -0.54115711480E+03  0.28147950349E+04  0.27622852977E+04 0.  0.
        2    1    3    3  502    0 -0.74034883916E+03  0.47929318873E+03  0.81250761068E+03  0.11991692882E+04  0.25500000920E-02 0.  1.
       -2    1    3    3    0  502  0.74034883916E+03 -0.47929318873E+03 -0.13536647255E+04  0.16156257467E+04  0.25500000920E-02 0. -1.
</event>
<event>
 5   0  0.2588048E-05  0.2831936E+04  0.7818609E-02  0.8293422E-01
        2   -1    0    0  501    0  0.00000000000E+00  0.00000000000E+00  0.18407924992E+04  0.18407924992E+04  0.25500000920E-02 0.  1.
       -2   -1    0    0    0  501  0.00000000000E+00  0.00000000000E+00 -0.10891859582E+04  0.10891859582E+04  0.25500000920E-02 0. -1.
    10030    2    1    2    0    0  0.00000000000E+00  0.00000000000E+00  0.75160654101E+03  0.29299784573E+04  0.28319359753E+04 0.  0.
        2    1    3    3  502    0 -0.25928663021E+03 -0.13456100004E+04  0.69941281328E+01  0.13703812417E+04  0.25500000920E-02 0.  1.
       -2    1    3    3    0  502  0.25928663021E+03  0.13456100004E+04  0.74461241288E+03  0.15595972157E+04  0.25500000920E-02 0. -1.
</event>
<event>
 5   0  0.2651061E-05  0.1443434E+04  0.7818609E-02  0.8922965E-01
        2   -1    0    0  501    0  0.00000000000E+00  0.00000000000E+00  0.14714609971E+04  0.14714609971E+04  0.25500000920E-02 0. -1.
       -2   -1    0    0    0  501  0.00000000000E+00  0.00000000000E+00 -0.35398540236E+03  0.35398540237E+03  0.25500000920E-02 0.  1.
    10030    2    1    2    0    0  0.00000000000E+00  0.00000000000E+00  0.11174755947E+04  0.18254463994E+04  0.14434343949E+04 0.  0.
        3    1    3    3  502    0 -0.14102088484E+03  0.69542270479E+03  0.72544250798E+03  0.10147740985E+04  0.10100000352E+00 0. -1.
       -3    1    3    3    0  502  0.14102088484E+03 -0.69542270479E+03  0.39203308672E+03  0.81067230099E+03  0.10100000352E+00 0.  1.
</event>
<event>
 5   0  0.2624815E-05  0.2802136E+04  0.7818609E-02  0.8302605E-01
        2   -1    0    0  501    0  0.00000000000E+00  0.00000000000E+00  0.27548732030E+04  0.27548732030E+04  0.25500000920E-02 0.  1.
       -2   -1    0    0    0  501  0.00000000000E+00  0.00000000000E+00 -0.71255258326E+03  0.71255258327E+03  0.25500000920E-02 0. -1.
    10030    2    1    2    0    0  0.00000000000E+00  0.00000000000E+00  0.20423206197E+04  0.34674257863E+04  0.28021363403E+04 0.  0.
        4    1    3    3  502    0  0.30282784853E+03  0.14418589730E+03 -0.66214154601E+03  0.74224478353E+03  0.12699999809E+01 0. -1.
       -4    1    3    3    0  502 -0.30282784853E+03 -0.14418589730E+03  0.27044621657E+04  0.27251810027E+04  0.12699999809E+01 0.  1.
</event>
<event>
 5   0  0.1017456E-05  0.2424331E+04  0.7818609E-02  0.8430450E-01
       -1   -1    0    0    0  501  0.00000000000E+00  0.00000000000E+00  0.12016262289E+04  0.12016262289E+04  0.50400001928E-02 0.  1.
        1   -1    0    0  501    0  0.00000000000E+00  0.00000000000E+00 -0.12227971208E+04  0.12227971208E+04  0.50400001928E-02 0. -1.
    10030    2    1    2    0    0  0.00000000000E+00  0.00000000000E+00 -0.21170891900E+02  0.24244233498E+04  0.24243309123E+04 0.  0.
        5    1    3    3  502    0  0.32307772698E+03  0.91694099695E+03 -0.73460406863E+03  0.12185340525E+04  0.46999998093E+01 0. -1.
       -5    1    3    3    0  502 -0.32307772698E+03 -0.91694099695E+03  0.71343317673E+03  0.12058892972E+04  0.46999998093E+01 0.  1.
</event>
<event>
 5   0  0.2697964E-05  0.2781860E+04  0.7818609E-02  0.8308922E-01
       -2   -1    0    0    0  501  0.00000000000E+00  0.00000000000E+00  0.83147005529E+03  0.83147005530E+03  0.25500000920E-02 0. -1.
        2   -1    0    0  501    0  0.00000000000E+00  0.00000000000E+00 -0.23268269461E+04  0.23268269461E+04  0.25500000920E-02 0.  1.
    10030    2    1    2    0    0  0.00000000000E+00  0.00000000000E+00 -0.14953568908E+04  0.31582970014E+04  0.27818604778E+04 0.  0.
        1    1    3    3  502    0 -0.62570954513E+03  0.10302025767E+04 -0.15357701847E+04  0.19522857999E+04  0.50400001928E-02 0.  1.
       -1    1    3    3    0  502  0.62570954513E+03 -0.10302025767E+04  0.40413293915E+02  0.12060112016E+04  0.50400001928E-02 0. -1.
</event>
<event>
 5   0  0.2518686E-05  0.2773146E+04  0.7818609E-02  0.8311654E-01
       -2   -1    0    0    0  501  0.00000000000E+00  0.00000000000E+00  0.15409687415E+04  0.15409687415E+04  0.25500000920E-02 0.  1.
        2   -1    0    0  501    0  0.00000000000E+00  0.00000000000E+00 -0.12476470126E+04  0.12476470126E+04  0.25500000920E-02 0. -1.
    10030    2    1    2    0    0  0.00000000000E+00  0.00000000000E+00  0.29332172886E+03  0.27886157541E+04  0.27731462614E+04 0.  0.
        5    1    3    3  502    0 -0.34045185909E+03  0.11165291269E+03 -0.12002845920E+04  0.12526288489E+04  0.46999998093E+01 0. -1.
       -5    1    3    3    0  502  0.34045185909E+03 -0.11165291269E+03  0.14936063209E+04  0.15359869052E+04  0.46999998093E+01 0.  1.
</event>
<event>
 5   0  0.1067434E-05  0.2769684E+04  0.7818609E-02  0.8312743E-01
        1   -1    0    0  501    0  0.00000000000E+00  0.00000000000E+00  0.12634648314E+04  0.12634648314E+04  0.50400001928E-02 0. -1.
       -1   -1    0    0    0  501  0.00000000000E+00  0.00000000000E+00 -0.15178792712E+04  0.15178792712E+04  0.50400001928E-02 0.  1.
    10030    2    1    2    0    0  0.00000000000E+00  0.00000000000E+00 -0.25441443971E+03  0.27813441026E+04  0.27696837924E+04 0.  0.
        4    1    3    3  502    0 -0.61250516749E+03  0.12025050453E+04 -0.43932837970E+03  0.14192223231E+04  0.12699999809E+01 0.  1.
       -4    1    3    3    0  502  0.61250516749E+03 -0.12025050453E+04  0.18491393998E+03  0.13621217795E+04  0.12699999809E+01 0. -1.
</event>
<event>
 5   0  0.1075146E-05  0.2739662E+04  0.7818609E-02  0.8322250E-01
       -1   -1    0    0    0  501  0.00000000000E+00  0.00000000000E+00  0.20629494528E+04  0.20629494528E+04  0.50400001928E-02 0.  1.
        1   -1    0    0  501    0  0.00000000000E+00  0.00000000000E+00 -0.90958941112E+03  0.90958941114E+03  0.50400001928E-02 0. -1.
    10030    2    1    2    0    0  0.00000000000E+00  0.00000000000E+00  0.11533600416E+04  0.29725388639E+04  0.27396620069E+04 0.  0.
        2    1    3    3  502    0 -0.60953035366E+03 -0.10410454276E+03 -0.74954224036E+03  0.97168851900E+03  0.25500000920E-02 0. -1.
       -2    1    3    3    0  502  0.60953035366E+03  0.10410454276E+03  0.19029022820E+04  0.20008503449E+04  0.25500000920E-02 0.  1.
</event>
<event>
 5   0  0.1075146E-05  0.2805725E+04  0.7818609E-02  0.8301493E-01
        1   -1    0    0  501    0  0.00000000000E+00  0.00000000000E+00  0.11400005180E+04  0.11400005180E+04  0.50400001928E-02 0. -1.
       -1   -1    0    0    0  501  0.00000000000E+00  0.00000000000E+00 -0.17263357850E+04  0.17263357850E+04  0.50400001928E-02 0.  1.
    10030    2    1    2    0    0  0.00000000000E+00  0.00000000000E+00 -0.58633526698E+03  0.28663363030E+04  0.28057253530E+04 0.  0.
        2    1    3    3  502    0 -0.13962642714E+04  0.19721064171E+02 -0.15579777660E+03  0.14050678927E+04  0.25500000920E-02 0. -1.
       -2    1    3    3    0  502  0.13962642714E+04 -0.19721064171E+02 -0.43053749038E+03  0.14612684102E+04  0.25500000920E-02 0.  1.
</event>
<event>
 5   0  0.1017456E-05  0.1766146E+04  0.7818609E-02  0.8724513E-01
       -1   -1    0    0    0  501  0.00000000000E+00  0.00000000000E+00  0.69069761314E+03  0.69069761316E+03  0.50400001928E-02 0.  1.
        1   -1    0    0  501    0  0.00000000000E+00  0.00000000000E+00 -0.11290287960E+04  0.11290287960E+04  0.50400001928E-02 0. -1.
    10030    2    1    2    0    0  0.00000000000E+00  0.00000000000E+00 -0.43833118287E+03  0.18197264092E+04  0.17661455145E+04 0.  0.
        5    1    3    3  502    0 -0.85367666837E+03  0.15408940259E+03 -0.38936792884E+03  0.95086112136E+03  0.46999998093E+01 0. -1.
       -5    1    3    3    0  502  0.85367666837E+03 -0.15408940259E+03 -0.48963254026E+02  0.86886528781E+03  0.46999998093E+01 0.  1.
</event>
<event>
 5   0  0.1075146E-05  0.2819250E+04  0.7818609E-02  0.8297317E-01
       -1   -1    0    0    0  501  0.00000000000E+00  0.00000000000E+00  0.13507306019E+04  0.13507306019E+04  0.50400001928E-02 0. -1.
        1   -1    0    0  501    0  0.00000000000E+00  0.00000000000E+00 -0.14710869833E+04  0.14710869834E+04  0.50400001928E-02 0.  1.
    10030    2    1    2    0    0  0.00000000000E+00  0.00000000000E+00 -0.12035638146E+03  0.28218175853E+04  0.28192496920E+04 0.  0.
        2    1    3    3  502    0 -0.12253868676E+04 -0.56435615375E+03 -0.46917167579E+03  0.14283532143E+04  0.25500000920E-02 0.  1.
       -2    1    3    3    0  502  0.12253868676E+04  0.56435615375E+03  0.34881529433E+03  0.13934643709E+04  0.25500000920E-02 0. -1.
</event>
<event>
 5   0  0.2588048E-05  0.2767119E+04  0.7818609E-02  0.8313550E-01
        2   -1    0    0  501    0  0.00000000000E+00  0.00000000000E+00  0.23541462110E+04  0.23541462110E+04  0.25500000920E-02 0. -1.
       -2   -1    0    0    0  501  0.00000000000E+00  0.00000000000E+00 -0.81313443788E+03  0.81313443788E+03  0.25500000920E-02 0.  1.
    10030    2    1    2    0    0  0.00000000000E+00  0.00000000000E+00  0.15410117731E+04  0.31672806488E+04  0.27671193367E+04 0.  0.
        2    1    3    3  502    0  0.10487458411E+04  0.78496804013E+03  0.26093492832E+03  0.13357131803E+04  0.25500000920E-02 0.  1.
       -2    1    3    3    0  502 -0.10487458411E+04 -0.78496804013E+03  0.12800768448E+04  0.18315674685E+04  0.25500000920E-02 0. -1.
</event>
<event>
 5   0  0.2588048E-05  0.1908282E+04  0.7818609E-02  0.8650745E-01
        2   -1    0    0  501    0  0.00000000000E+00  0.00000000000E+00  0.81514495796E+03  0.81514495796E+03  0.25500000920E-02 0.  1.
       -2   -1    0    0    0  501  0.00000000000E+00  0.00000000000E+00 -0.11168383619E+04  0.11168383620E+04  0.25500000920E-02 0. -1.
    10030    2    1    2    0    0  0.00000000000E+00  0.00000000000E+00 -0.30169340399E+03  0.19319833199E+04  0.19082821171E+04 0.  0.
        2    1    3    3  502    0  0.29901602460E+03  0.34949664110E+03  0.69549458784E+03  0.83382924321E+03  0.25500000920E-02 0.  1.
       -2    1    3    3    0  502 -0.29901602460E+03 -0.34949664110E+03 -0.99718799184E+03  0.10981540767E+04  0.25500000920E-02 0. -1.
</event>
<event>
 5   0  0.2651061E-05  0.2800524E+04  0.7818609E-02  0.8303106E-01
        2   -1    0    0  501    0  0.00000000000E+00  0.00000000000E+00  0.10584574187E+04  0.10584574187E+04  0.25500000920E-02 0. -1.
       -2   -1    0    0    0  501  0.00000000000E+00  0.00000000000E+00 -0.18524439107E+04  0.18524439107E+04  0.25500000920E-02 0.  1.
    10030    2    1    2    0    0  0.00000000000E+00  0.00000000000E+00 -0.79398649201E+03  0.29109013294E+04  0.28005235225E+04 0.  0.
        3    1    3    3  502    0  0.10134450691E+04 -0.30834911131E+03 -0.13488273527E+04  0.17150758934E+04  0.10100000352E+00 0.  1.
       -3    1    3    3    0  502 -0.10134450691E+04  0.30834911131E+03  0.55484086068E+03  0.11958254360E+04  0.10100000352E+00 0. -1.
</event>
<event>
 5   0  0.1078103E-05  0.1464994E+04  0.7818609E-02  0.8908071E-01
        1   -1    0    0  501    0  0.00000000000E+00  0.00000000000E+00  0.10353427456E+04  0.10353427456E+04  0.50400001928E-02 0.  1.
       -1   -1    0    0    0  501  0.00000000000E+00  0.00000000000E+00 -0.51823612432E+03  0.51823612434E+03  0.50400001928E-02 0. -1.
    10030    2    1    2    0    0  0.00000000000E+00  0.00000000000E+00  0.51710662123E+03  0.15535788699E+04  0.14649942141E+04 0.  0.
        1    1    3    3  502    0 -0.24285663667E+03 -0.28294263570E+03  0.92716624619E+03  0.99933634437E+03  0.50400001928E-02 0.  1.
       -1    1    3    3    0  502  0.24285663667E+03  0.28294263570E+03 -0.41005962496E+03  0.55424252554E+03  0.50400001928E-02 0. -1.
</event>
<event>
 5   0  0.1075146E-05  0.2820898E+04  0.7818609E-02  0.8296809E-01
       -1   -1    0    0    0  501  0.00000000000E+00  0.00000000000E+00  0.11040306935E+04  0.11040306935E+04  0.50400001928E-02 0. -1.
        1   -1    0    0  501    0  0.00000000000E+00  0.00000000000E+00 -0.18019128385E+04  0.18019128385E+04  0.50400001928E-02 0.  1.
    10030    2    1    2    0    0  0.00000000000E+00  0.00000000000E+00 -0.69788214505E+03  0.29059435320E+04  0.28208984957E+04 0.  0.
        2    1    3    3  502    0 -0.87760258180E+03  0.72381234205E+03 -0.12079120327E+04  0.16592594965E+04  0.25500000920E-02 0.  1.
       -2    1    3    3    0  502  0.87760258180E+03 -0.72381234205E+03  0.51002988762E+03  0.12466840355E+04  0.25500000920E-02 0. -1.
</event>
<event>
 5   0  0.1075146E-05  0.2796897E+04  0.7818609E-02  0.8304232E-01
       -1   -1    0    0    0  501  0.00000000000E+00  0.00000000000E+00  0.14276504239E+04  0.14276504239E+04  0.50400001928E-02 0.  1.
        1   -1    0    0  501    0  0.00000000000E+00  0.00000000000E+00 -0.13698443357E+04  0.13698443357E+04  0.50400001928E-02 0. -1.
    10030    2    1    2    0    0  0.00000000000E+00  0.00000000000E+00  0.57806088180E+02  0.27974947597E+04  0.27968974573E+04 0.  0.
        2    1    3    3  502    0  0.51009746180E+03 -0.11918967177E+04 -0.49546232731E+03  0.13879121456E+04  0.25500000920E-02 0. -1.
       -2    1    3    3    0  502 -0.51009746180E+03  0.11918967177E+04  0.55326841549E+03  0.14095826140E+04  0.25500000920E-02 0.  1.
</event>
<event>
 5   0  0.2651061E-05  0.2796491E+04  0.7818609E-02  0.8304359E-01
        2   -1    0    0  501    0  0.00000000000E+00  0.00000000000E+00  0.15989660345E+04  0.15989660345E+04  0.25500000920E-02 0.  1.
       -2   -1    0    0    0  501  0.00000000000E+00  0.00000000000E+00 -0.12227218892E+04  0.12227218892E+04  0.25500000920E-02 0. -1.
    10030    2    1    2    0    0  0.00000000000E+00  0.00000000000E+00  0.37624414522E+03  0.28216879237E+04  0.27964912090E+04 0.  0.
        3    1    3    3  502    0 -0.11057359383E+04 -0.71500246337E+03  0.66268976207E+03  0.14741228642E+04  0.10100000352E+00 0.  1.
       -3    1    3    3    0  502  0.11057359383E+04  0.71500246337E+03 -0.28644561685E+03  0.13475650595E+04  0.10100000352E+00 0. -1.
</event>
<event>
 5   0  0.2588048E-05  0.2797067E+04  0.7818609E-02  0.8304179E-01
        2   -1    0    0  501    0  0.00000000000E+00  0.00000000000E+00  0.11042092671E+04  0.11042092671E+04  0.25500000920E-02 0. -1.
       -2   -1    0    0    0  501  0.00000000000E+00  0.00000000000E+00 -0.17713093884E+04  0.17713093884E+04  0.25500000920E-02 0.  1.
    10030    2    1    2    0    0  0.00000000000E+00  0.00000000000E+00 -0.66710012129E+03  0.28755186555E+04  0.27970672081E+04 0.  0.
        2    1    3    3  502    0  0.82442219663E+02  0.12303459413E+04 -0.10118655861E+04  0.15951237630E+04  0.25500000920E-02 0.  1.
       -2    1    3    3    0  502 -0.82442219663E+02 -0.12303459413E+04  0.34476546485E+03  0.12803948925E+04  0.25500000920E-02 0. -1.
</event>
<event>
 5   0  0.2588048E-05  0.2827069E+04  0.7818609E-02  0.8294914E-01
       -2   -1    0    0    0  501  0.00000000000E+00  0.00000000000E+00  0.98370992294E+03  0.98370992294E+03  0.25500000920E-02 0.  1.
        2   -1    0    0  501    0  0.00000000000E+00  0.00000000000E+00 -0.20311673110E+04  0.20311673110E+04  0.25500000920E-02 0. -1.
    10030    2    1    2    0    0  0.00000000000E+00  0.00000000000E+00 -0.10474573881E+04  0.30148772340E+04  0.28270687569E+04 0.  0.
        2    1    3    3  502    0  0.11368573944E+04 -0.31603027832E+03 -0.13537388419E+04  0.17958086547E+04  0.25500000920E-02 0.  1.
       -2    1    3    3    0  502 -0.11368573944E+04  0.31603027832E+03  0.30628145379E+03  0.12190685793E+04  0.25500000920E-02 0. -1.
</event>
<event>
 5   0  0.1067434E-05  0.2836996E+04  0.7818609E-02  0.8291874E-01
        1   -1    0    0  501    0  0.00000000000E+00  0.00000000000E+00  0.15715753158E+04  0.15715753158E+04  0.50400001928E-02 0.  1.
       -1   -1    0    0    0  501  0.00000000000E+00  0.00000000000E+00 -0.12803310842E+04  0.12803310842E+04  0.50400001928E-02 0. -1.
    10030    2    1    2    0    0  0.00000000000E+00  0.00000000000E+00  0.29124423156E+03  0.28519064001E+04  0.28369961072E+04 0.  0.
        4    1    3    3  502    0  0.10660099104E+04 -0.90357412937E+03  0.39044217740E+03  0.14509548728E+04  0.12699999809E+01 0.  1.
       -4    1    3    3    0  502 -0.10660099104E+04  0.90357412937E+03 -0.99197945841E+02  0.14009515272E+04  0.12699999809E+01 0. -1.
</event>
<event>
 5   0  0.8958000E-06  0.2779249E+04  0.7818609E-02  0.8309740E-01
       -3   -1    0    0    0  501  0.00000000000E+00  0.00000000000E+00  0.10913449864E+04  0.10913449910E+04  0.10100000352E+00 0.  1.
        3   -1    0    0  501    0  0.00000000000E+00  0.00000000000E+00 -0.17694273673E+04  0.17694273702E+04  0.10100000352E+00 0. -1.
    10030    2    1    2    0    0  0.00000000000E+00  0.00000000000E+00 -0.67808238092E+03  0.28607723612E+04  0.27792486012E+04 0.  0.
        2    1    3    3  502    0  0.10302337533E+04  0.76487944555E+03  0.21011887204E+03  0.13002200172E+04  0.25500000920E-02 0.  1.
       -2    1    3    3    0  502 -0.10302337533E+04 -0.76487944555E+03 -0.88820125296E+03  0.15605523440E+04  0.25500000920E-02 0. -1.
</event>
<event>
 5   0  0.2697964E-05  0.2680702E+04  0.7818609E-02  0.8341294E-01
       -2   -1    0    0    0  501  0.00000000000E+00  0.00000000000E+00  0.11178655037E+04  0.11178655037E+04  0.25500000920E-02 0.  1.
        2   -1    0    0  501    0  0.00000000000E+00  0.00000000000E+00 -0.16071172650E+04  0.16071172650E+04  0.25500000920E-02 0. -1.
    10030    2    1    2    0    0  0.00000000000E+00  0.00000000000E+00 -0.48925176130E+03  0.27249827687E+04  0.26807021103E+04 0.  0.
        1    1    3    3  502    0 -0.12009199574E+04 -0.56734561575E+03 -0.61508186252E+02  0.13296138721E+04  0.50400001928E-02 0.  1.
       -1    1    3    3    0  502  0.12009199574E+04  0.56734561575E+03 -0.42774357505E+03  0.13953688967E+04  0.50400001928E-02 0. -1.
</event>
<event>
 5   0  0.2651061E-05  0.2812233E+04  0.7818609E-02  0.8299481E-01
        2   -1    0    0  501    0  0.00000000000E+00  0.00000000000E+00  0.86993879771E+03  0.86993879771E+03  0.25500000920E-02 0. -1.
       -2   -1    0    0    0  501  0.00000000000E+00  0.00000000000E+00 -0.22727612400E+04  0.22727612400E+04  0.25500000920E-02 0.  1.
    10030    2    1    2    0    0  0.00000000000E+00  0.00000000000E+00 -0.14028224423E+04  0.31427000377E+04  0.28122326935E+04 0.  0.
        3    1    3    3  502    0 -0.52380582632E+03  0.56983132194E+02 -0.21582712458E+04  0.22216557793E+04  0.10100000352E+00 0.  1.
       -3    1    3    3    0  502  0.52380582632E+03 -0.56983132194E+02  0.75544880350E+03  0.92104425841E+03  0.10100000352E+00 0. -1.
</event>
<event>
 5   0  0.1075146E-05  0.1816013E+04  0.7818609E-02  0.8697830E-01
       -1   -1    0    0    0  501  0.00000000000E+00  0.00000000000E+00  0.11012987280E+04  0.11012987280E+04  0.50400001928E-02 0. -1.
        1   -1    0    0  501    0  0.00000000000E+00  0.00000000000E+00 -0.74863924243E+03  0.74863924245E+03  0.50400001928E-02 0.  1.
    10030    2    1    2    0    0  0.00000000000E+00  0.00000000000E+00  0.35265948553E+03  0.18499379704E+04  0.18160126051E+04 0.  0.
        2    1    3    3  502    0  0.56847721021E+03 -0.62763722441E+03  0.51014121971E+03  0.98860451549E+03  0.25500000920E-02 0. -1.
       -2    1    3    3    0  502 -0.56847721021E+03  0.62763722441E+03 -0.15748173418E+03  0.86133345494E+03  0.25500000920E-02 0.  1.
</event>
<event>
 5   0  0.2651061E-05  0.2992058E+04  0.7818609E-02  0.8246002E-01
        2   -1    0    0  501    0  0.00000000000E+00  0.00000000000E+00  0.23151853742E+04  0.23151853742E+04  0.25500000920E-02 0. -1.
       -2   -1    0    0    0  501  0.00000000000E+00  0.00000000000E+00 -0.96670582329E+03  0.96670582330E+03  0.25500000920E-02 0.  1.
    10030    2    1    2    0    0  0.00000000000E+00  0.00000000000E+00  0.13484795509E+04  0.32818911975E+04  0.29920582770E+04 0.  0.
        3    1    3    3  502    0  0.11212464117E+04  0.11014235383E+03  0.17538483779E+04  0.20845404761E+04  0.10100000352E+00 0. -1.
       -3    1    3    3    0  502 -0.11212464117E+04 -0.11014235383E+03 -0.40536882697E+03  0.11973507214E+04  0.10100000352E+00 0.  1.
</event>
<event>
 5   0  0.2588048E-05  0.2185143E+04  0.7818609E-02  0.8524638E-01
        2   -1    0    0  501    0  0.00000000000E+00  0.00000000000E+00  0.23539569758E+04  0.23539569758E+04  0.25500000920E-02 0.  1.
       -2   -1    0    0    0  501  0.00000000000E+00  0.00000000000E+00 -0.50710883243E+03  0.50710883244E+03  0.25500000920E-02 0. -1.
    10030    2    1    2    0    0  0.00000000000E+00  0.00000000000E+00  0.18468481434E+04  0.28610658083E+04  0.21851429002E+04 0.  0.
        2    1    3    3  502    0 -0.69783185874E+03 -0.71418538859E+03  0.34275239331E+03  0.10557032137E+04  0.25500000920E-02 0. -1.
       -2    1    3    3    0  502  0.69783185874E+03  0.71418538859E+03  0.15040957501E+04  0.18053625945E+04  0.25500000920E-02 0.  1.
</event>
<event>
 5   0  0.2651061E-05  0.2842390E+04  0.7818609E-02  0.8290228E-01
       -2   -1    0    0    0  501  0.00000000000E+00  0.00000000000E+00  0.10940126763E+04  0.10940126763E+04  0.25500000920E-02 0.  1.
        2   -1    0    0  501    0  0.00000000000E+00  0.00000000000E+00 -0.18462262811E+04  0.18462262811E+04  0.25500000920E-02 0. -1.
    10030    2    1    2    0    0  0.00000000000E+00  0.00000000000E+00 -0.75221360475E+03  0.29402389574E+04  0.28423898078E+04 0.  0.
        3    1    3    3  502    0  0.38062471269E+03 -0.28430935865E+03  0.10094389025E+04  0.11156495379E+04  0.10100000352E+00 0.  1.
       -3    1    3    3    0  502 -0.38062471269E+03  0.28430935865E+03 -0.17616525072E+04  0.18245894195E+04  0.10100000352E+00 0. -1.
</event>
<event>
 5   0  0.1017456E-05  0.2759697E+04  0.7818609E-02  0.8315891E-01
        1   -1    0    0  501    0  0.00000000000E+00  0.00000000000E+00  0.15936247937E+04  0.15936247937E+04  0.50400001928E-02 0.  1.
       -1   -1    0    0    0  501  0.00000000000E+00  0.00000000000E+00 -0.11947493549E+04  0.11947493549E+04  0.50400001928E-02 0. -1.
    10030    2    1    2    0    0  0.00000000000E+00  0.00000000000E+00  0.39887543880E+03  0.27883741486E+04  0.27596972256E+04 0.  0.
        5    1    3    3  502    0  0.13378649123E+04  0.32214850549E+03  0.96904547893E+02  0.13795197587E+04  0.46999998093E+01 0. -1.
       -5    1    3    3    0  502 -0.13378649123E+04 -0.32214850549E+03  0.30197089091E+03  0.14088543900E+04  0.46999998093E+01 0.  1.
</event>
<event>
 5   0  0.1017456E-05  0.2830948E+04  0.7818609E-02  0.8293724E-01
        1   -1    0    0  501    0  0.00000000000E+00  0.00000000000E+00  0.20145411804E+04  0.20145411804E+04  0.50400001928E-02 0. -1.
       -1   -1    0    0    0  501  0.00000000000E+00  0.00000000000E+00 -0.99455220473E+03  0.99455220474E+03  0.50400001928E-02 0.  1.
    10030    2    1    2    0    0  0.00000000000E+00  0.00000000000E+00  0.10199889757E+04  0.30090933852E+04  0.28309478077E+04 0.  0.
        5    1    3    3  502    0  0.10247877807E+04 -0.91244682484E+03  0.14056766558E+03  0.13793225012E+04  0.46999998093E+01 0.  1.
       -5    1    3    3    0  502 -0.10247877807E+04  0.91244682484E+03  0.87942131011E+03  0.16297708840E+04  0.46999998093E+01 0. -1.
</event>
<event>
 5   0  0.2697964E-05  0.2699560E+04  0.7818609E-02  0.8335148E-01
       -2   -1    0    0    0  501  0.00000000000E+00  0.00000000000E+00  0.12652520275E+04  0.12652520275E+04  0.25500000920E-02 0. -1.
        2   -1    0    0  501    0  0.00000000000E+00  0.00000000000E+00 -0.14399550464E+04  0.14399550464E+04  0.25500000920E-02 0.  1.
    10030    2    1    2    0    0  0.00000000000E+00  0.00000000000E+00 -0.17470301894E+03  0.27052070739E+04  0.26995599952E+04 0.  0.
        1    1    3    3  502    0 -0.88923504013E+03 -0.62804002308E+03 -0.88697611011E+03  0.14042435142E+04  0.50400001928E-02 0.  1.
       -1    1    3    3    0  502  0.88923504013E+03  0.62804002308E+03  0.71227309117E+03  0.13009635597E+04  0.50400001928E-02 0. -1.
</event>
<event>
 5   0  0.1075146E-05  0.2813355E+04  0.7818609E-02  0.8299134E-01
        1   -1    0    0  501    0  0.00000000000E+00  0.00000000000E+00  0.20448305388E+04  0.20448305388E+04  0.50400001928E-02 0.  1.
       -1   -1    0    0    0  501  0.00000000000E+00  0.00000000000E+00 -0.96767965483E+03  0.96767965485E+03  0.50400001928E-02 0. -1.
    10030    2    1    2    0    0  0.00000000000E+00  0.00000000000E+00  0.10771508839E+04  0.30125101936E+04  0.28133545173E+04 0.  0.
        2    1    3    3  502    0  0.69880111323E+03  0.10666576240E+04 -0.97314289608E+02  0.12788868416E+04  0.25500000920E-02 0.  1.
       -2    1    3    3    0  502 -0.69880111323E+03 -0.10666576240E+04  0.11744651736E+04  0.17336233520E+04  0.25500000920E-02 0. -1.
</event>
<event>
 5   0  0.2588048E-05  0.2753503E+04  0.7818609E-02  0.8317851E-01
        2   -1    0    0  501    0  0.00000000000E+00  0.00000000000E+00  0.14955725011E+04  0.14955725011E+04  0.25500000920E-02 0. -1.
       -2   -1    0    0    0  501  0.00000000000E+00  0.00000000000E+00 -0.12673702625E+04  0.12673702626E+04  0.25500000920E-02 0.  1.
    10030    2    1    2    0    0  0.00000000000E+00  0.00000000000E+00  0.22820223858E+03  0.27629427637E+04  0.27535025792E+04 0.  0.
        2    1    3    3  502    0 -0.10684568379E+04 -0.16945070094E+03 -0.74036432616E+03  0.13108977420E+04  0.25500000920E-02 0.  1.
       -2    1    3    3    0  502  0.10684568379E+04  0.16945070094E+03  0.96856656474E+03  0.14520450217E+04  0.25500000920E-02 0. -1.
</event>
<event>
 5   0  0.1078103E-05  0.2953735E+04  0.7818609E-02  0.8257067E-01
       -1   -1    0    0    0  501  0.00000000000E+00  0.00000000000E+00  0.13658823953E+04  0.13658823953E+04  0.50400001928E-02 0. -1.
        1   -1    0    0  501    0  0.00000000000E+00  0.00000000000E+00 -0.15968704696E+04  0.15968704696E+04  0.50400001928E-02 0.  1.
    10030    2    1    2    0    0  0.00000000000E+00  0.00000000000E+00 -0.23098807425E+03  0.29627528649E+04  0.29537347626E+04 0.  0.
        1    1    3    3  502    0  0.58080747037E+03 -0.56064578433E+03  0.11250017712E+04  0.13846624131E+04  0.50400001928E-02 0. -1.
       -1    1    3    3    0  502 -0.58080747037E+03  0.56064578433E+03 -0.13559898454E+04  0.15780904518E+04  0.50400001928E-02 0.  1.
</event>
<event>
 5   0  0.2624815E-05  0.2517106E+04  0.7818609E-02  0.8396917E-01
       -2   -1    0    0    0  501  0.00000000000E+00  0.00000000000E+00  0.94562372939E+03  0.94562372939E+03  0.25500000920E-02 0.  1.
        2   -1    0    0  501    0  0.00000000000E+00  0.00000000000E+00 -0.16750377277E+04  0.16750377277E+04  0.25500000920E-02 0. -1.
    10030    2    1    2    0    0  0.00000000000E+00  0.00000000000E+00 -0.72941399832E+03  0.26206614571E+04  0.25171058166E+04 0.  0.
        4    1    3    3  502    0 -0.33959241143E+03 -0.62799918707E+03  0.71439299397E+03  0.10099826472E+04  0.12699999809E+01 0.  1.
       -4    1    3    3    0  502  0.33959241143E+03  0.62799918707E+03 -0.14438069923E+04  0.16106788099E+04  0.12699999809E+01 0. -1.
</event>
<event>
 5   0  0.1067434E-05  0.2783143E+04  0.7818609E-02  0.8308521E-01
        1   -1    0    0  501    0  0.00000000000E+00  0.00000000000E+00  0.22246843874E+04  0.22246843874E+04  0.50400001928E-02 0.  1.
       -1   -1    0    0    0  501  0.00000000000E+00  0.00000000000E+00 -0.87044742648E+03  0.87044742650E+03  0.50400001928E-02 0. -1.
    10030    2    1    2    0    0  0.00000000000E+00  0.00000000000E+00  0.13542369609E+04  0.30951318139E+04  0.27831426839E+04 0.  0.
        4    1    3    3  502    0  0.31078570544E+03  0.95616829777E+03  0.17470620949E+04  0.20157066117E+04  0.12699999809E+01 0.  1.
       -4    1    3    3    0  502 -0.31078570544E+03 -0.95616829777E+03 -0.39282513393E+03  0.10794252022E+04  0.12699999809E+01 0. -1.
</event>
<event>
 5   0  0.2518686E-05  0.2674761E+04  0.7818609E-02  0.8343241E-01
        2   -1    0    0  501    0  0.00000000000E+00  0.00000000000E+00  0.21950163844E+04  0.21950163844E+04  0.25500000920E-02 0. -1.
       -2   -1    0    0    0  501  0.00000000000E+00  0.00000000000E+00 -0.81483995540E+03  0.81483995541E+03  0.25500000920E-02 0.  1.
    10030    2    1    2    0    0  0.00000000000E+00  0.00000000000E+00  0.13801764290E+04  0.30098563398E+04  0.26747613373E+04 0.  0.
        5    1    3    3  502    0  0.45992996464E+03 -0.10368906869E+04 -0.10710527661E+03  0.11393732923E+04  0.46999998093E+01 0.  1.
       -5    1    3    3    0  502 -0.45992996464E+03  0.10368906869E+04  0.14872817056E+04  0.18704830475E+04  0.46999998093E+01 0. -1.
</event>
<event>
 5   0  0.1067434E-05  0.2834239E+04  0.7818609E-02  0.8292717E-01
        1   -1    0    0  501    0  0.00000000000E+00  0.00000000000E+00  0.15476161849E+04  0.15476161849E+04  0.50400001928E-02 0. -1.
       -1   -1    0    0    0  501  0.00000000000E+00  0.00000000000E+00 -0.12976266375E+04  0.12976266375E+04  0.50400001928E-02 0.  1.
    10030    2    1    2    0    0  0.00000000000E+00  0.00000000000E+00  0.24998954736E+03  0.28452428224E+04  0.28342392179E+04 0.  0.
        4    1    3    3  502    0  0.51448384333E+03  0.46703534898E+03 -0.11148754547E+04  0.13136835748E+04  0.12699999809E+01 0.  1.
       -4    1    3    3    0  502 -0.51448384333E+03 -0.46703534898E+03  0.13648650020E+04  0.15315592476E+04  0.12699999809E+01 0. -1.
</event>
<event>
 5   0  0.1017456E-05  0.1629071E+04  0.7818609E-02  0.8802885E-01
       -1   -1    0    0    0  501  0.00000000000E+00  0.00000000000E+00  0.10937372264E+04  0.10937372264E+04  0.50400001928E-02 0. -1.
        1   -1    0    0  501    0  0.00000000000E+00  0.00000000000E+00 -0.60660631134E+03  0.60660631136E+03  0.50400001928E-02 0.  1.
    10030    2    1    2    0    0  0.00000000000E+00  0.00000000000E+00  0.48713091505E+03  0.17003435378E+04  0.16290707836E+04 0.  0.
        5    1    3    3  502    0 -0.52487126873E+03  0.58654575261E+03  0.24825505402E+02  0.78750502497E+03  0.46999998093E+01 0.  1.
       -5    1    3    3    0  502  0.52487126873E+03 -0.58654575261E+03  0.46230540965E+03  0.91283851279E+03  0.46999998093E+01 0. -1.
</event>
<event>
 5   0  0.2697964E-05  0.2880061E+04  0.7818609E-02  0.8278835E-01
       -2   -1    0    0    0  501  0.00000000000E+00  0.00000000000E+00  0.12922918847E+04  0.12922918847E+04  0.25500000920E-02 0. -1.
        2   -1    0    0  501    0  0.00000000000E+00  0.00000000000E+00 -0.16046584887E+04  0.16046584887E+04  0.25500000920E-02 0.  1.
    10030    2    1    2    0    0  0.00000000000E+00  0.00000000000E+00 -0.31236660394E+03  0.28969503734E+04  0.28800605151E+04 0.  0.
        1    1    3    3  502    0  0.13619626438E+04 -0.34437316255E+03 -0.47450724717E+03  0.14827987880E+04  0.50400001928E-02 0.  1.
       -1    1    3    3    0  502 -0.13619626438E+04  0.34437316255E+03  0.16214064323E+03  0.14141515854E+04  0.50400001928E-02 0. -1.
</event>
<event>
 5   0  0.1105862E-05  0.1516081E+04  0.7818609E-02  0.8873829E-01
        1   -1    0    0  501    0  0.00000000000E+00  0.00000000000E+00  0.20057762338E+04  0.20057762338E+04  0.50400001928E-02 0. -1.
       -1   -1    0    0    0  501  0.00000000000E+00  0.00000000000E+00 -0.28648534849E+03  0.28648534854E+03  0.50400001928E-02 0.  1.
    10030    2    1    2    0    0  0.00000000000E+00  0.00000000000E+00  0.17192908853E+04  0.22922615823E+04  0.15160811369E+04 0.  0.
        3    1    3    3  502    0 -0.37396119255E+03  0.29856127924E+02 -0.13628754233E+03  0.39913990818E+03  0.10100000352E+00 0.  1.
       -3    1    3    3    0  502  0.37396119255E+03 -0.29856127924E+02  0.18555784276E+04  0.18931216741E+04  0.10100000352E+00 0. -1.
</event>
<event>
 5   0  0.2697964E-05  0.2821801E+04  0.7818609E-02  0.8296532E-01
       -2   -1    0    0    0  501  0.00000000000E+00  0.00000000000E+00  0.78893047740E+03  0.78893047741E+03  0.25500000920E-02 0.  1.
        2   -1    0    0  501    0  0.00000000000E+00  0.00000000000E+00 -0.25232136369E+04  0.25232136369E+04  0.25500000920E-02 0. -1.
    10030    2    1    2    0    0  0.00000000000E+00  0.00000000000E+00 -0.17342831595E+04  0.33121441143E+04  0.28218009421E+04 0.  0.
        1    1    3    3  502    0 -0.65903595339E+03 -0.11976192019E+04 -0.45712788870E+03  0.14413833797E+04  0.50400001928E-02 0.  1.
       -1    1    3    3    0  502  0.65903595339E+03  0.11976192019E+04 -0.12771552708E+04  0.18707607347E+04  0.50400001928E-02 0. -1.
</event>
<event>
 5   0  0.1105862E-05  0.2167447E+04  0.7818609E-02  0.8532101E-01
        1   -1    0    0  501    0  0.00000000000E+00  0.00000000000E+00  0.11157071790E+04  0.11157071790E+04  0.50400001928E-02 0.  1.
       -1   -1    0    0    0  501  0.00000000000E+00  0.00000000000E+00 -0.10526562571E+04  0.10526562571E+04  0.50400001928E-02 0. -1.
    10030    2    1    2    0    0  0.00000000000E+00  0.00000000000E+00  0.63050921957E+02  0.21683634361E+04  0.21674465558E+04 0.  0.
        3    1    3    3  502    0 -0.45351210231E+03  0.34508778018E+03  0.95370568491E+03  0.11109965556E+04  0.10100000352E+00 0. -1.
       -3    1    3    3    0  502  0.45351210231E+03 -0.34508778018E+03 -0.89065476295E+03  0.10573668805E+04  0.10100000352E+00 0.  1.
</event>
<event>
 5   0  0.1017456E-05  0.1464431E+04  0.7818609E-02  0.8908457E-01
        1   -1    0    0  501    0  0.00000000000E+00  0.00000000000E+00  0.10676602956E+04  0.10676602956E+04  0.50400001928E-02 0. -1.
       -1   -1    0    0    0  501  0.00000000000E+00  0.00000000000E+00 -0.50216306808E+03  0.50216306811E+03  0.50400001928E-02 0.  1.
    10030    2    1    2    0    0  0.00000000000E+00  0.00000000000E+00  0.56549722749E+03  0.15698233637E+04  0.14644310427E+04 0.  0.
        5    1    3    3  502    0  0.35672410430E+03  0.58396677399E+03  0.56197150982E+03  0.88549610251E+03  0.46999998093E+01 0. -1.
       -5    1    3    3    0  502 -0.35672410430E+03 -0.58396677399E+03  0.35257176758E+01  0.68432726119E+03  0.46999998093E+01 0.  1.
</event>
<event>
 5   0  0.2624815E-05  0.2772834E+04  0.7818609E-02  0.8311752E-01
       -2   -1    0    0    0  501  0.00000000000E+00  0.00000000000E+00  0.18853750739E+04  0.18853750739E+04  0.25500000920E-02 0. -1.
        2   -1    0    0  501    0  0.00000000000E+00  0.00000000000E+00 -0.10195065361E+04  0.10195065361E+04  0.25500000920E-02 0.  1.
    10030    2    1    2    0    0  0.00000000000E+00  0.00000000000E+00  0.86586853777E+03  0.29048816100E+04  0.27728340815E+04 0.  0.
        4    1    3    3  502    0 -0.10411753116E+04  0.24687279508E+03 -0.49061341636E+03  0.11771556157E+04  0.12699999809E+01 0.  1.
       -4    1    3    3    0  502  0.10411753116E+04 -0.24687279508E+03  0.13564819541E+04  0.17277259943E+04  0.12699999809E+01 0. -1.
</event>
<event>
 5   0  0.2588048E-05  0.2823255E+04  0.7818609E-02  0.8296085E-01
       -2   -1    0    0    0  501  0.00000000000E+00  0.00000000000E+00  0.11561975600E+04  0.11561975600E+04  0.25500000920E-02 0.  1.
        2   -1    0    0  501    0  0.00000000000E+00  0.00000000000E+00 -0.17234873293E+04  0.17234873293E+04  0.25500000920E-02 0. -1.
    10030    2    1    2    0    0  0.00000000000E+00  0.00000000000E+00 -0.56728976928E+03  0.28796848894E+04  0.28232547494E+04 0.  0.
        2    1    3    3  502    0 -0.44812933923E+03  0.59637325178E+03  0.93872884291E+03  0.11990382816E+04  0.25500000920E-02 0.  1.
       -2    1    3    3    0  502  0.44812933923E+03 -0.59637325178E+03 -0.15060186122E+04  0.16806466078E+04  0.25500000920E-02 0. -1.
</event>
<event>
 5   0  0.1067434E-05  0.2919681E+04  0.7818609E-02  0.8267046E-01
        1   -1    0    0  501    0  0.00000000000E+00  0.00000000000E+00  0.14885535518E+04  0.14885535518E+04  0.50400001928E-02 0. -1.
       -1   -1    0    0    0  501  0.00000000000E+00  0.00000000000E+00 -0.14316808420E+04  0.14316808420E+04  0.50400001928E-02 0.  1.
    10030    2    1    2    0    0  0.00000000000E+00  0.00000000000E+00  0.56872709855E+02  0.29202343938E+04  0.29196805321E+04 0.  0.
        4    1    3    3  502    0  0.29248567524E+03 -0.96424790481E+03  0.10849558647E+04  0.14806933286E+04  0.12699999809E+01 0. -1.
       -4    1    3    3    0  502 -0.29248567524E+03  0.96424790481E+03 -0.10280831549E+04  0.14395410652E+04  0.12699999809E+01 0.  1.
</event>
<event>
 5   0  0.2518686E-05  0.2820641E+04  0.7818609E-02  0.8296889E-01
       -2   -1    0    0    0  501  0.00000000000E+00  0.00000000000E+00  0.21247510737E+04  0.21247510737E+04  0.25500000920E-02 0.  1.
        2   -1    0    0  501    0  0.00000000000E+00  0.00000000000E+00 -0.93611171231E+03  0.93611171231E+03  0.25500000920E-02 0. -1.
    10030    2    1    2    0    0  0.00000000000E+00  0.00000000000E+00  0.11886393614E+04  0.30608627860E+04  0.28206413213E+04 0.  0.
        5    1    3    3  502    0 -0.44678277659E+03 -0.65081684576E+03  0.18625272011E+04  0.20229204337E+04  0.46999998093E+01 0.  1.
       -5    1    3    3    0  502  0.44678277659E+03  0.65081684576E+03 -0.67388783973E+03  0.10379423523E+04  0.46999998093E+01 0. -1.
</event>
<event>
 5   0  0.1078103E-05  0.2746279E+04  0.7818609E-02  0.8320143E-01
       -1   -1    0    0    0  501  0.00000000000E+00  0.00000000000E+00  0.14275585612E+04  0.14275585613E+04  0.50400001928E-02 0.  1.
        1   -1    0    0  501    0  0.00000000000E+00  0.00000000000E+00 -0.13207948439E+04  0.13207948439E+04  0.50400001928E-02 0. -1.
    10030    2    1    2    0    0  0.00000000000E+00  0.00000000000E+00  0.10676371732E+03  0.27483534052E+04  0.27462789276E+04 0.  0.
        1    1    3    3  502    0  0.70362627350E+03  0.11668676038E+04 -0.11657589843E+03  0.13675744505E+04  0.50400001928E-02 0.  1.
       -1    1    3    3    0  502 -0.70362627350E+03 -0.11668676038E+04  0.22333961575E+03  0.13807789547E+04  0.50400001928E-02 0. -1.
</event>
<event>
 5   0  0.2624815E-05  0.2714905E+04  0.7818609E-02  0.8330185E-01
       -2   -1    0    0    0  501  0.00000000000E+00  0.00000000000E+00  0.94501500863E+03  0.94501500863E+03  0.25500000920E-02 0.  1.
        2   -1    0    0  501    0  0.00000000000E+00  0.00000000000E+00 -0.19498927481E+04  0.19498927481E+04  0.25500000920E-02 0. -1.
    10030    2    1    2    0    0  0.00000000000E+00  0.00000000000E+00 -0.10048777395E+04  0.28949077568E+04  0.27149054585E+04 0.  0.
        4    1    3    3  502    0  0.30295004449E+03 -0.38628320255E+03  0.84704681802E+03  0.97902163758E+03  0.12699999809E+01 0.  1.
       -4    1    3    3    0  502 -0.30295004449E+03  0.38628320255E+03 -0.18519245575E+04  0.19158861192E+04  0.12699999809E+01 0. -1.
</event>
<event>
 5   0  0.1075146E-05  0.2719286E+04  0.7818609E-02  0.8328774E-01
       -1   -1    0    0    0  501  0.00000000000E+00  0.00000000000E+00  0.96478370722E+03  0.96478370724E+03  0.50400001928E-02 0.  1.
        1   -1    0    0  501    0  0.00000000000E+00  0.00000000000E+00 -0.19161076416E+04  0.19161076416E+04  0.50400001928E-02 0. -1.
    10030    2    1    2    0    0  0.00000000000E+00  0.00000000000E+00 -0.95132393435E+03  0.28808913488E+04  0.27192862548E+04 0.  0.
        2    1    3    3  502    0  0.91533514491E+03 -0.99817689222E+03 -0.34838091067E+03  0.13984151010E+04  0.25500000920E-02 0. -1.
       -2    1    3    3    0  502 -0.91533514491E+03  0.99817689222E+03 -0.60294302368E+03  0.14824762479E+04  0.25500000920E-02 0.  1.
</event>
<event>
 5   0  0.1075146E-05  0.2807678E+04  0.7818609E-02  0.8300889E-01
        1   -1    0    0  501    0  0.00000000000E+00  0.00000000000E+00  0.16738906154E+04  0.16738906154E+04  0.50400001928E-02 0.  1.
       -1   -1    0    0    0  501  0.00000000000E+00  0.00000000000E+00 -0.11773549742E+04  0.11773549742E+04  0.50400001928E-02 0. -1.
    10030    2    1    2    0    0  0.00000000000E+00  0.00000000000E+00  0.49653564127E+03  0.28512455896E+04  0.28076776470E+04 0.  0.
        2    1    3    3  502    0  0.77811493773E+02  0.91861593123E+03 -0.82686426929E+03  0.12383918514E+04  0.25500000920E-02 0. -1.
       -2    1    3    3    0  502 -0.77811493773E+02 -0.91861593123E+03  0.13233999106E+04  0.16128537382E+04  0.25500000920E-02 0.  1.
</event>
<event>
 5   0  0.2588048E-05  0.3187177E+04  0.7818609E-02  0.8192212E-01
       -2   -1    0    0    0  501  0.00000000000E+00  0.00000000000E+00  0.12627187604E+04  0.12627187604E+04  0.25500000920E-02 0. -1.
        2   -1    0    0  501    0  0.00000000000E+00  0.00000000000E+00 -0.20111553938E+04  0.20111553938E+04  0.25500000920E-02 0.  1.
    10030    2    1    2    0    0  0.00000000000E+00  0.00000000000E+00 -0.74843663344E+03  0.32738741542E+04  0.31871765849E+04 0.  0.
        2    1    3    3  502    0  0.70066389231E+03  0.88286585764E+02  0.10932069633E+04  0.13014706588E+04  0.25500000920E-02 0. -1.
       -2    1    3    3    0  502 -0.70066389231E+03 -0.88286585764E+02 -0.18416435967E+04  0.19724034954E+04  0.25500000920E-02 0.  1.
</event>
<event>
 5   0  0.1017456E-05  0.3027128E+04  0.7818609E-02  0.8236026E-01
        1   -1    0    0  501    0  0.00000000000E+00  0.00000000000E+00  0.10857661358E+04  0.10857661358E+04  0.50400001928E-02 0. -1.
       -1   -1    0    0    0  501  0.00000000000E+00  0.00000000000E+00 -0.21099171213E+04  0.21099171213E+04  0.50400001928E-02 0.  1.
    10030    2    1    2    0    0  0.00000000000E+00  0.00000000000E+00 -0.10241509856E+04  0.31956832571E+04  0.30271283816E+04 0.  0.
        5    1    3    3  502    0  0.80605581066E+03 -0.85901852593E+03 -0.15153704274E+04  0.19193770917E+04  0.46999998093E+01 0.  1.
       -5    1    3    3    0  502 -0.80605581066E+03  0.85901852593E+03  0.49121944187E+03  0.12763061654E+04  0.46999998093E+01 0. -1.
</event>
<event>
 5   0  0.1067434E-05  0.2000890E+04  0.7818609E-02  0.8606205E-01
       -1   -1    0    0    0  501  0.00000000000E+00  0.00000000000E+00  0.12186058433E+04  0.12186058433E+04  0.50400001928E-02 0.  1.
        1   -1    0    0  501    0  0.00000000000E+00  0.00000000000E+00 -0.82134024957E+03  0.82134024958E+03  0.50400001928E-02 0. -1.
    10030    2    1    2    0    0  0.00000000000E+00  0.00000000000E+00  0.39726559369E+03  0.20399460929E+04  0.20008898295E+04 0.  0.
        4    1    3    3  502    0 -0.34495684032E+03  0.83459396055E+03 -0.24028910935E+03  0.93449599766E+03  0.12699999809E+01 0. -1.
       -4    1    3    3    0  502  0.34495684032E+03 -0.83459396055E+03  0.63755470305E+03  0.11054500952E+04  0.12699999809E+01 0.  1.
</event>
<event>
 5   0  0.1017456E-05  0.2733460E+04  0.7818609E-02  0.8324229E-01
        1   -1    0    0  501    0  0.00000000000E+00  0.00000000000E+00  0.15570576868E+04  0.15570576868E+04  0.50400001928E-02 0.  1.
       -1   -1    0    0    0  501  0.00000000000E+00  0.00000000000E+00 -0.11996671724E+04  0.11996671724E+04  0.50400001928E-02 0. -1.
    10030    2    1    2    0    0  0.00000000000E+00  0.00000000000E+00  0.35739051439E+03  0.27567248592E+04  0.27334600728E+04 0.  0.
        5    1    3    3  502    0 -0.56945384080E+03  0.14797313559E+03  0.14227889315E+04  0.15396506614E+04  0.46999998093E+01 0.  1.
       -5    1    3    3    0  502  0.56945384080E+03 -0.14797313559E+03 -0.10653984171E+04  0.12170741977E+04  0.46999998093E+01 0. -1.
</event>
<event>
 5   0  0.2588048E-05  0.2439096E+04  0.7818609E-02  0.8425010E-01
        2   -1    0    0  501    0  0.00000000000E+00  0.00000000000E+00  0.93583485114E+03  0.93583485115E+03  0.25500000920E-02 0.  1.
       -2   -1    0    0    0  501  0.00000000000E+00  0.00000000000E+00 -0.15892734667E+04  0.15892734667E+04  0.25500000920E-02 0. -1.
    10030    2    1    2    0    0  0.00000000000E+00  0.00000000000E+00 -0.65343861558E+03  0.25251083179E+04  0.24390961426E+04 0.  0.
        2    1    3    3  502    0 -0.11266519497E+04 -0.39432536900E+03 -0.58545326111E+03  0.13295084179E+04  0.25500000920E-02 0.  1.
       -2    1    3    3    0  502  0.11266519497E+04  0.39432536900E+03 -0.67985354464E+02  0.11955999000E+04  0.25500000920E-02 0. -1.
</event>
<event>
 5   0  0.2588048E-05  0.2947510E+04  0.7818609E-02  0.8258881E-01
        2   -1    0    0  501    0  0.00000000000E+00  0.00000000000E+00  0.10906992650E+04  0.10906992650E+04  0.25500000920E-02 0.  1.
       -2   -1    0    0    0  501  0.00000000000E+00  0.00000000000E+00 -0.19913406628E+04  0.19913406628E+04  0.25500000920E-02 0. -1.
    10030    2    1    2    0    0  0.00000000000E+00  0.00000000000E+00 -0.90064139778E+03  0.30820399278E+04  0.29475099981E+04 0.  0.
        2    1    3    3  502    0 -0.17309676445E+03 -0.13487091624E+04 -0.10445681967E+04  0.17146724504E+04  0.25500000920E-02 0. -1.
       -2    1    3    3    0  502  0.17309676445E+03  0.13487091624E+04  0.14392679894E+03  0.13673674773E+04  0.25500000920E-02 0.  1.
</event>
<event>
 5   0  0.1078103E-05  0.2977450E+04  0.7818609E-02  0.8250200E-01
       -1   -1    0    0    0  501  0.00000000000E+00  0.00000000000E+00  0.81339009022E+03  0.81339009024E+03  0.50400001928E-02 0.  1.
        1   -1    0    0  501    0  0.00000000000E+00  0.00000000000E+00 -0.27247717292E+04  0.27247717292E+04  0.50400001928E-02 0. -1.
    10030    2    1    2    0    0  0.00000000000E+00  0.00000000000E+00 -0.19113816389E+04  0.35381618194E+04  0.29774501324E+04 0.  0.
        1    1    3    3  502    0 -0.71005399039E+03 -0.45553760024E+03 -0.24133142236E+04  0.25565165199E+04  0.50400001928E-02 0. -1.
       -1    1    3    3    0  502  0.71005399039E+03  0.45553760024E+03  0.50193258467E+03  0.98164529953E+03  0.50400001928E-02 0.  1.
</event>
<event>
 5   0  0.2651061E-05  0.2631106E+04  0.7818609E-02  0.8357711E-01
        2   -1    0    0  501    0  0.00000000000E+00  0.00000000000E+00  0.94048587759E+03  0.94048587759E+03  0.25500000920E-02 0. -1.
       -2   -1    0    0    0  501  0.00000000000E+00  0.00000000000E+00 -0.18401973158E+04  0.18401973158E+04  0.25500000920E-02 0.  1.
    10030    2    1    2    0    0  0.00000000000E+00  0.00000000000E+00 -0.89971143820E+03  0.27806831934E+04  0.26311059177E+04 0.  0.
        3    1    3    3  502    0 -0.74876083902E+02 -0.11604445100E+04  0.20029293278E+03  0.11799809990E+04  0.10100000352E+00 0. -1.
       -3    1    3    3    0  502  0.74876083902E+02  0.11604445100E+04 -0.11000043710E+04  0.16007021944E+04  0.10100000352E+00 0.  1.
</event>
<event>
 5   0  0.2651061E-05  0.2945862E+04  0.7818609E-02  0.8259362E-01
       -2   -1    0    0    0  501  0.00000000000E+00  0.00000000000E+00  0.20376610780E+04  0.20376610780E+04  0.25500000920E-02 0. -1.
        2   -1    0    0  501    0  0.00000000000E+00  0.00000000000E+00 -0.10647134255E+04  0.10647134256E+04  0.25500000920E-02 0.  1.
    10030    2    1    2    0    0  0.00000000000E+00  0.00000000000E+00  0.97294765242E+03  0.31023745035E+04  0.29458615761E+04 0.  0.
        3    1    3    3  502    0  0.10315473774E+04  0.61168957523E+03  0.13870512439E+04  0.18336208146E+04  0.10100000352E+00 0. -1.
       -3    1    3    3    0  502 -0.10315473774E+04 -0.61168957523E+03 -0.41410359152E+03  0.12687536889E+04  0.10100000352E+00 0.  1.
</event>
<event>
 5   0  0.2624815E-05  0.1711692E+04  0.7818609E-02  0.8754724E-01
       -2   -1    0    0    0  501  0.00000000000E+00  0.00000000000E+00  0.50646239888E+03  0.50646239888E+03  0.25500000920E-02 0. -1.
        2   -1    0    0  501    0  0.00000000000E+00  0.00000000000E+00 -0.14462523772E+04  0.14462523772E+04  0.25500000920E-02 0.  1.
    10030    2    1    2    0    0  0.00000000000E+00  0.00000000000E+00 -0.93978997831E+03  0.19527147761E+04  0.17116920849E+04 0.  0.
        4    1    3    3  502    0  0.47576156388E+02  0.77810347452E+03 -0.87284846339E+03  0.11702882383E+04  0.12699999809E+01 0.  1.
       -4    1    3    3    0  502 -0.47576156388E+02 -0.77810347452E+03 -0.66941514918E+02  0.78242653779E+03  0.12699999809E+01 0. -1.
</event>
<event>
 5   0  0.1067434E-05  0.2797506E+04  0.7818609E-02  0.8304043E-01
        1   -1    0    0  501    0  0.00000000000E+00  0.00000000000E+00  0.22606164161E+04  0.22606164161E+04  0.50400001928E-02 0.  1.
       -1   -1    0    0    0  501  0.00000000000E+00  0.00000000000E+00 -0.86547644717E+03  0.86547644719E+03  0.50400001928E-02 0. -1.
    10030    2    1    2    0    0  0.00000000000E+00  0.00000000000E+00  0.13951399690E+04  0.31260928633E+04  0.27975062211E+04 0.  0.
        4    1    3    3  502    0 -0.10076982701E+04  0.94267237568E+03  0.95342039327E+03  0.16772295820E+04  0.12699999809E+01 0. -1.
       -4    1    3    3    0  502  0.10076982701E+04 -0.94267237568E+03  0.44171957569E+03  0.14488632813E+04  0.12699999809E+01 0.  1.
</event>
<event>
 5   0  0.1067434E-05  0.2822323E+04  0.7818609E-02  0.8296371E-01
        1   -1    0    0  501    0  0.00000000000E+00  0.00000000000E+00  0.15184711724E+04  0.15184711724E+04  0.50400001928E-02 0. -1.
       -1   -1    0    0    0  501  0.00000000000E+00  0.00000000000E+00 -0.13114353962E+04  0.13114353962E+04  0.50400001928E-02 0.  1.
    10030    2    1    2    0    0  0.00000000000E+00  0.00000000000E+00  0.20703577622E+03  0.28299065686E+04  0.28223230457E+04 0.  0.
        4    1    3    3  502    0  0.12197376427E+04  0.32019435999E+03  0.73853696411E+03  0.14614112376E+04  0.12699999809E+01 0.  1.
       -4    1    3    3    0  502 -0.12197376427E+04 -0.32019435999E+03 -0.53150118789E+03  0.13684953310E+04  0.12699999809E+01 0. -1.
</event>
<event>
 5   0  0.2518686E-05  0.2822766E+04  0.7818609E-02  0.8296235E-01
       -2   -1    0    0    0  501  0.00000000000E+00  0.00000000000E+00  0.12058261350E+04  0.12058261350E+04  0.25500000920E-02 0. -1.
        2   -1    0    0  501    0  0.00000000000E+00  0.00000000000E+00 -0.16519812398E+04  0.16519812398E+04  0.25500000920E-02 0.  1.
    10030    2    1    2    0    0  0.00000000000E+00  0.00000000000E+00 -0.44615510476E+03  0.28578073748E+04  0.28227661281E+04 0.  0.
        5    1    3    3  502    0 -0.66319786721E+03  0.86157657411E+02  0.10352210510E+04  0.12324606555E+04  0.46999998093E+01 0. -1.
       -5    1    3    3    0  502  0.66319786721E+03 -0.86157657411E+02 -0.14813761558E+04  0.16253467193E+04  0.46999998093E+01 0.  1.
</event>
<event>
 5   0  0.1067434E-05  0.2784761E+04  0.7818609E-02  0.8308015E-01
        1   -1    0    0  501    0  0.00000000000E+00  0.00000000000E+00  0.13688740070E+04  0.13688740070E+04  0.50400001928E-02 0. -1.
       -1   -1    0    0    0  501  0.00000000000E+00  0.00000000000E+00 -0.14162911487E+04  0.14162911487E+04  0.50400001928E-02 0.  1.
    10030    2    1    2    0    0  0.00000000000E+00  0.00000000000E+00 -0.47417141717E+02  0.27851651558E+04  0.27847614906E+04 0.  0.
        4    1    3    3  502    0 -0.88652180546E+03  0.89038045320E+03 -0.62381576646E+03  0.14027993393E+04  0.12699999809E+01 0.  1.
       -4    1    3    3    0  502  0.88652180546E+03 -0.89038045320E+03  0.57639862474E+03  0.13823658165E+04  0.12699999809E+01 0. -1.
</event>
<event>
 5   0  0.2651061E-05  0.2826678E+04  0.7818609E-02  0.8295033E-01
        2   -1    0    0  501    0  0.00000000000E+00  0.00000000000E+00  0.15283422820E+04  0.15283422820E+04  0.25500000920E-02 0.  1.
       -2   -1    0    0    0  501  0.00000000000E+00  0.00000000000E+00 -0.13069893422E+04  0.13069893422E+04  0.25500000920E-02 0. -1.
    10030    2    1    2    0    0  0.00000000000E+00  0.00000000000E+00  0.22135293984E+03  0.28353316242E+04  0.28266779610E+04 0.  0.
        3    1    3    3  502    0  0.59267204629E+03 -0.67408638115E+03  0.12057487504E+04  0.15031575643E+04  0.10100000352E+00 0.  1.
       -3    1    3    3    0  502 -0.59267204629E+03  0.67408638115E+03 -0.98439581061E+03  0.13321740599E+04  0.10100000352E+00 0. -1.
</event>
<event>
 5   0  0.2651061E-05  0.1558788E+04  0.7818609E-02  0.8846274E-01
       -2   -1    0    0    0  501  0.00000000000E+00  0.00000000000E+00  0.26124732440E+03  0.26124732441E+03  0.25500000920E-02 0.  1.
        2   -1    0    0  501    0  0.00000000000E+00  0.00000000000E+00 -0.23252094880E+04  0.23252094880E+04  0.25500000920E-02 0. -1.
    10030    2    1    2    0    0  0.00000000000E+00  0.00000000000E+00 -0.20639621636E+04  0.25864568124E+04  0.15587876795E+04 0.  0.
        3    1    3    3  502    0  0.63303146123E+03 -0.76670182029E+02 -0.17756019851E+04  0.18866291547E+04  0.10100000352E+00 0. -1.
       -3    1    3    3    0  502 -0.63303146123E+03  0.76670182029E+02 -0.28836017848E+03  0.69982765768E+03  0.10100000352E+00 0.  1.
</event>
<event>
 5   0  0.1067434E-05  0.2782513E+04  0.7818609E-02  0.8308718E-01
        1   -1    0    0  501    0  0.00000000000E+00  0.00000000000E+00  0.20234236942E+04  0.20234236942E+04  0.50400001928E-02 0. -1.
       -1   -1    0    0    0  501  0.00000000000E+00  0.00000000000E+00 -0.95659400681E+03  0.95659400682E+03  0.50400001928E-02 0.  1.
    10030    2    1    2    0    0  0.00000000000E+00  0.00000000000E+00  0.10668296874E+04  0.29800177010E+04  0.27825132374E+04 0.  0.
        4    1    3    3  502    0 -0.84075520385E+03 -0.63424243763E+03  0.15070419972E+04  0.18385619317E+04  0.12699999809E+01 0. -1.
       -4    1    3    3    0  502  0.84075520385E+03  0.63424243763E+03 -0.44021230989E+03  0.11414557693E+04  0.12699999809E+01 0.  1.
</event>
<event>
 5   0  0.1105862E-05  0.1947962E+04  0.7818609E-02  0.8631344E-01
        1   -1    0    0  501    0  0.00000000000E+00  0.00000000000E+00  0.85143069132E+03  0.85143069133E+03  0.50400001928E-02 0. -1.
       -1   -1    0    0    0  501  0.00000000000E+00  0.00000000000E+00 -0.11141707425E+04  0.11141707425E+04  0.50400001928E-02 0.  1.
    10030    2    1    2    0    0  0.00000000000E+00  0.00000000000E+00 -0.26274005117E+03  0.19656014338E+04  0.19479621819E+04 0.  0.
        3    1    3    3  502    0  0.68516912073E+03  0.36754169916E+03 -0.72327835986E+03  0.10619205341E+04  0.10100000352E+00 0.  1.
       -3    1    3    3    0  502 -0.68516912073E+03 -0.36754169916E+03  0.46053830869E+03  0.90368089977E+03  0.10100000352E+00 0. -1.
</event>
<event>
 5   0  0.1067434E-05  0.1609142E+04  0.7818609E-02  0.8814951E-01
        1   -1    0    0  501    0  0.00000000000E+00  0.00000000000E+00  0.11019375639E+04  0.11019375639E+04  0.50400001928E-02 0.  1.
       -1   -1    0    0    0  501  0.00000000000E+00  0.00000000000E+00 -0.58745128759E+03  0.58745128761E+03  0.50400001928E-02 0. -1.
    10030    2    1    2    0    0  0.00000000000E+00  0.00000000000E+00  0.51448627628E+03  0.16893888515E+04  0.16091421824E+04 0.  0.
        4    1    3    3  502    0  0.48461786540E+03  0.60871331781E+03  0.47226560542E+03  0.91017734190E+03  0.12699999809E+01 0.  1.
       -4    1    3    3    0  502 -0.48461786540E+03 -0.60871331781E+03  0.42220670859E+02  0.77921150960E+03  0.12699999809E+01 0. -1.
</event>
<event>
 5   0  0.2518686E-05  0.2831693E+04  0.7818609E-02  0.8293496E-01
        2   -1    0    0  501    0  0.00000000000E+00  0.00000000000E+00  0.13519898192E+04  0.13519898192E+04  0.25500000920E-02 0.  1.
       -2   -1    0    0    0  501  0.00000000000E+00  0.00000000000E+00 -0.14827196769E+04  0.14827196769E+04  0.25500000920E-02 0. -1.
    10030    2    1    2    0    0  0.00000000000E+00  0.00000000000E+00 -0.13072985771E+03  0.28347094960E+04  0.28316934211E+04 0.  0.
        5    1    3    3  502    0 -0.38466089779E+03  0.68760200176E+03 -0.12429848847E+04  0.14716636955E+04  0.46999998093E+01 0. -1.
       -5    1    3    3    0  502  0.38466089779E+03 -0.68760200176E+03  0.11122550270E+04  0.13630458005E+04  0.46999998093E+01 0.  1.
</event>
<event>
 5   0  0.1067434E-05  0.3047952E+04  0.7818609E-02  0.8230169E-01
       -1   -1    0    0    0  501  0.00000000000E+00  0.00000000000E+00  0.13009288173E+04  0.13009288173E+04  0.50400001928E-02 0. -1.
        1   -1    0    0  501    0  0.00000000000E+00  0.00000000000E+00 -0.17852650177E+04  0.17852650177E+04  0.50400001928E-02 0.  1.
    10030    2    1    2    0    0  0.00000000000E+00  0.00000000000E+00 -0.48433620035E+03  0.30861938350E+04  0.30479519078E+04 0.  0.
        4    1    3    3  502    0  0.24346188410E+03 -0.54025597317E+03 -0.16638323936E+04  0.17662078168E+04  0.12699999809E+01 0.  1.
       -4    1    3    3    0  502 -0.24346188410E+03  0.54025597317E+03  0.11794961932E+04  0.13199860182E+04  0.12699999809E+01 0. -1.
</event>
<event>
 5   0  0.1075146E-05  0.2461740E+04  0.7818609E-02  0.8416744E-01
        1   -1    0    0  501    0  0.00000000000E+00  0.00000000000E+00  0.10716240277E+04  0.10716240277E+04  0.50400001928E-02 0.  1.
       -1   -1    0    0    0  501  0.00000000000E+00  0.00000000000E+00 -0.14137798522E+04  0.14137798522E+04  0.50400001928E-02 0. -1.
    10030    2    1    2    0    0  0.00000000000E+00  0.00000000000E+00 -0.34215582446E+03  0.24854038800E+04  0.24617395960E+04 0.  0.
        2    1    3    3  502    0  0.75888477711E+03  0.87586467038E+03 -0.58978789899E+03  0.13003441051E+04  0.25500000920E-02 0. -1.
       -2    1    3    3    0  502 -0.75888477711E+03 -0.87586467038E+03  0.24763207453E+03  0.11850597749E+04  0.25500000920E-02 0.  1.
</event>
<event>
 5   0  0.1017456E-05  0.2702845E+04  0.7818609E-02  0.8334082E-01
        1   -1    0    0  501    0  0.00000000000E+00  0.00000000000E+00  0.20713834864E+04  0.20713834864E+04  0.50400001928E-02 0.  1.
       -1   -1    0    0    0  501  0.00000000000E+00  0.00000000000E+00 -0.88170207422E+03  0.88170207423E+03  0.50400001928E-02 0. -1.
    10030    2    1    2    0    0  0.00000000000E+00  0.00000000000E+00  0.11896814122E+04  0.29530855607E+04  0.27028452538E+04 0.  0.
        5    1    3    3  502    0 -0.52226366159E+03 -0.12079726281E+04  0.93046826506E+03  0.16117538537E+04  0.46999998093E+01 0. -1.
       -5    1    3    3    0  502  0.52226366159E+03  0.12079726281E+04  0.25921314714E+03  0.13413317070E+04  0.46999998093E+01 0.  1.
</event>
<event>
 5   0  0.2588048E-05  0.2794144E+04  0.7818609E-02  0.8305089E-01
       -2   -1    0    0    0  501  0.00000000000E+00  0.00000000000E+00  0.95013825300E+03  0.95013825300E+03  0.25500000920E-02 0.  1.
        2   -1    0    0  501    0  0.00000000000E+00  0.00000000000E+00 -0.20542373521E+04  0.20542373521E+04  0.25500000920E-02 0. -1.
    10030    2    1    2    0    0  0.00000000000E+00  0.00000000000E+00 -0.11040990991E+04  0.30043756051E+04  0.27941435103E+04 0.  0.
        2    1    3    3  502    0 -0.72499946243E+03  0.87920415388E+03  0.31695835729E+03  0.11828299814E+04  0.25500000920E-02 0.  1.
       -2    1    3    3    0  502  0.72499946243E+03 -0.87920415388E+03 -0.14210574564E+04  0.18215456237E+04  0.25500000920E-02 0. -1.
</event>
<event>
 5   0  0.2624815E-05  0.2718861E+04  0.7818609E-02  0.8328911E-01
        2   -1    0    0  501    0  0.00000000000E+00  0.00000000000E+00  0.15855428013E+04  0.15855428013E+04  0.25500000920E-02 0. -1.
       -2   -1    0    0    0  501  0.00000000000E+00  0.00000000000E+00 -0.11655637844E+04  0.11655637844E+04  0.25500000920E-02 0.  1.
    10030    2    1    2    0    0  0.00000000000E+00  0.00000000000E+00  0.41997901683E+03  0.27511065857E+04  0.27188609878E+04 0.  0.
        4    1    3    3  502    0  0.49944153329E+01 -0.79050736530E+03 -0.90907583740E+03  0.12047187762E+04  0.12699999809E+01 0.  1.
       -4    1    3    3    0  502 -0.49944153329E+01  0.79050736530E+03  0.13290548542E+04  0.15463878095E+04  0.12699999809E+01 0. -1.
</event>
<event>
 5   0  0.2651061E-05  0.2758466E+04  0.7818609E-02  0.8316280E-01
       -2   -1    0    0    0  501  0.00000000000E+00  0.00000000000E+00  0.11906689452E+04  0.11906689452E+04  0.25500000920E-02 0.  1.
        2   -1    0    0  501    0  0.00000000000E+00  0.00000000000E+00 -0.15976599914E+04  0.15976599914E+04  0.25500000920E-02 0. -1.
    10030    2    1    2    0    0  0.00000000000E+00  0.00000000000E+00 -0.40699104620E+03  0.27883289366E+04  0.27584663396E+04 0.  0.
        3    1    3    3  502    0  0.74401861533E+03  0.64107099830E+03  0.77536200059E+03  0.12512881231E+04  0.10100000352E+00 0.  1.
       -3    1    3    3    0  502 -0.74401861533E+03 -0.64107099830E+03 -0.11823530468E+04  0.15370408135E+04  0.10100000352E+00 0. -1.
</event>
<event>
 5   0  0.1067434E-05  0.2888434E+04  0.7818609E-02  0.8276327E-01
       -1   -1    0    0    0  501  0.00000000000E+00  0.00000000000E+00  0.14278837358E+04  0.14278837358E+04  0.50400001928E-02 0. -1.
        1   -1    0    0  501    0  0.00000000000E+00  0.00000000000E+00 -0.14607371456E+04  0.14607371456E+04  0.50400001928E-02 0.  1.
    10030    2    1    2    0    0  0.00000000000E+00  0.00000000000E+00 -0.32853409837E+02  0.28886208814E+04  0.28884340481E+04 0.  0.
        4    1    3    3  502    0 -0.18891952232E+03 -0.63666078343E+03  0.12661279492E+04  0.14297234473E+04  0.12699999809E+01 0. -1.
       -4    1    3    3    0  502  0.18891952232E+03  0.63666078343E+03 -0.12989813591E+04  0.14588974341E+04  0.12699999809E+01 0.  1.
</event>
<event>
 5   0  0.1105862E-05  0.2898873E+04  0.7818609E-02  0.8273213E-01
        1   -1    0    0  501    0  0.00000000000E+00  0.00000000000E+00  0.15369344124E+04  0.15369344124E+04  0.50400001928E-02 0. -1.
       -1   -1    0    0    0  501  0.00000000000E+00  0.00000000000E+00 -0.13669193954E+04  0.13669193954E+04  0.50400001928E-02 0.  1.
    10030    2    1    2    0    0  0.00000000000E+00  0.00000000000E+00  0.17001501702E+03  0.29038538079E+04  0.28988725104E+04 0.  0.
        3    1    3    3  502    0 -0.73794684662E+03  0.83911215769E+03  0.10097355430E+04  0.15060679396E+04  0.10100000352E+00 0. -1.
       -3    1    3    3    0  502  0.73794684662E+03 -0.83911215769E+03 -0.83972052600E+03  0.13977858683E+04  0.10100000352E+00 0.  1.
</event>
<event>
 5   0  0.1017456E-05  0.2775135E+04  0.7818609E-02  0.8311030E-01
        1   -1    0    0  501    0  0.00000000000E+00  0.00000000000E+00  0.11579072142E+04  0.11579072142E+04  0.50400001928E-02 0.  1.
       -1   -1    0    0    0  501  0.00000000000E+00  0.00000000000E+00 -0.16627783098E+04  0.16627783098E+04  0.50400001928E-02 0. -1.
    10030    2    1    2    0    0  0.00000000000E+00  0.00000000000E+00 -0.50487109557E+03  0.28206855240E+04  0.27751345917E+04 0.  0.
        5    1    3    3  502    0 -0.58221060967E+03  0.12569137666E+04 -0.17036680960E+03  0.13956533777E+04  0.46999998093E+01 0.  1.
       -5    1    3    3    0  502  0.58221060967E+03 -0.12569137666E+04 -0.33450428597E+03  0.14250321464E+04  0.46999998093E+01 0. -1.
</event>
<event>
 5   0  0.1017456E-05  0.2574771E+04  0.7818609E-02  0.8376822E-01
        1   -1    0    0  501    0  0.00000000000E+00  0.00000000000E+00  0.18860503064E+04  0.18860503064E+04  0.50400001928E-02 0. -1.
       -1   -1    0    0    0  501  0.00000000000E+00  0.00000000000E+00 -0.87874686667E+03  0.87874686668E+03  0.50400001928E-02 0.  1.
    10030    2    1    2    0    0  0.00000000000E+00  0.00000000000E+00  0.10073034397E+04  0.27647971731E+04  0.25747705118E+04 0.  0.
        5    1    3    3  502    0 -0.87191641484E+03 -0.67427520012E+03 -0.21061190231E+03  0.11221696589E+04  0.46999998093E+01 0.  1.
       -5    1    3    3    0  502  0.87191641484E+03  0.67427520012E+03  0.12179153420E+04  0.16426275142E+04  0.46999998093E+01 0. -1.
</event>
<event>
 5   0  0.2588048E-05  0.2471275E+04  0.7818609E-02  0.8413291E-01
        2   -1    0    0  501    0  0.00000000000E+00  0.00000000000E+00  0.13569190509E+04  0.13569190509E+04  0.25500000920E-02 0. -1.
       -2   -1    0    0    0  501  0.00000000000E+00  0.00000000000E+00 -0.11251963402E+04  0.11251963402E+04  0.25500000920E-02 0.  1.
    10030    2    1    2    0    0  0.00000000000E+00  0.00000000000E+00  0.23172271065E+03  0.24821153911E+04  0.24712752579E+04 0.  0.
        2    1    3    3  502    0 -0.22043340449E+03  0.63324481195E+03  0.11583015050E+04  0.13383767235E+04  0.25500000920E-02 0. -1.
       -2    1    3    3    0  502  0.22043340449E+03 -0.63324481195E+03 -0.92657879430E+03  0.11437386676E+04  0.25500000920E-02 0.  1.
</event>
<event>
 5   0  0.2588048E-05  0.2822709E+04  0.7818609E-02  0.8296253E-01
        2   -1    0    0  501    0  0.00000000000E+00  0.00000000000E+00  0.13225418986E+04  0.13225418986E+04  0.25500000920E-02 0.  1.
       -2   -1    0    0    0  501  0.00000000000E+00  0.00000000000E+00 -0.15061312337E+04  0.15061312337E+04  0.25500000920E-02 0. -1.
    10030    2    1    2    0    0  0.00000000000E+00  0.00000000000E+00 -0.18358933511E+03  0.28286731323E+04  0.28227090968E+04 0.  0.
        2    1    3    3  502    0  0.59144666303E+03 -0.10341926102E+04 -0.85006915366E+03  0.14635508451E+04  0.25500000920E-02 0. -1.
       -2    1    3    3    0  502 -0.59144666303E+03  0.10341926102E+04  0.66647981855E+03  0.13651222871E+04  0.25500000920E-02 0.  1.
</event>
<event>
 5   0  0.1105862E-05  0.2809287E+04  0.7818609E-02  0.8300391E-01
        1   -1    0    0  501    0  0.00000000000E+00  0.00000000000E+00  0.17375390113E+04  0.17375390113E+04  0.50400001928E-02 0.  1.
       -1   -1    0    0    0  501  0.00000000000E+00  0.00000000000E+00 -0.11355273346E+04  0.11355273346E+04  0.50400001928E-02 0. -1.
    10030    2    1    2    0    0  0.00000000000E+00  0.00000000000E+00  0.60201167676E+03  0.28730663459E+04  0.28092867723E+04 0.  0.
        3    1    3    3  502    0  0.20162963330E+03 -0.12599099135E+04 -0.29969234216E+03  0.13106651019E+04  0.10100000352E+00 0. -1.
       -3    1    3    3    0  502 -0.20162963330E+03  0.12599099135E+04  0.90170401892E+03  0.15624012440E+04  0.10100000352E+00 0.  1.
</event>
<event>
 5   0  0.1078103E-05  0.2786979E+04  0.7818609E-02  0.8307322E-01
        1   -1    0    0  501    0  0.00000000000E+00  0.00000000000E+00  0.19890335181E+04  0.19890335181E+04  0.50400001928E-02 0.  1.
       -1   -1    0    0    0  501  0.00000000000E+00  0.00000000000E+00 -0.97625948882E+03  0.97625948884E+03  0.50400001928E-02 0. -1.
    10030    2    1    2    0    0  0.00000000000E+00  0.00000000000E+00  0.10127740293E+04  0.29652930069E+04  0.27869788988E+04 0.  0.
        1    1    3    3  502    0 -0.68861090183E+03 -0.35060873034E+03  0.17401929630E+04  0.19040438557E+04  0.50400001928E-02 0.  1.
       -1    1    3    3    0  502  0.68861090183E+03  0.35060873034E+03 -0.72741893371E+03  0.10612491513E+04  0.50400001928E-02 0. -1.
</event>
<event>
 5   0  0.2697964E-05  0.2995799E+04  0.7818609E-02  0.8244931E-01
       -2   -1    0    0    0  501  0.00000000000E+00  0.00000000000E+00  0.27956217222E+04  0.27956217222E+04  0.25500000920E-02 0.  1.
        2   -1    0    0  501    0  0.00000000000E+00  0.00000000000E+00 -0.80257763155E+03  0.80257763156E+03  0.25500000920E-02 0. -1.
    10030    2    1    2    0    0  0.00000000000E+00  0.00000000000E+00  0.19930440907E+04  0.35981993538E+04  0.29957993661E+04 0.  0.
        1    1    3    3  502    0 -0.14663349870E+04 -0.20078948372E+03  0.12736799078E+04  0.19526175301E+04  0.50400001928E-02 0.  1.
       -1    1    3    3    0  502  0.14663349870E+04  0.20078948372E+03  0.71936418281E+03  0.16455818237E+04  0.50400001928E-02 0. -1.
</event>
<event>
 5   0  0.2518686E-05  0.2642745E+04  0.7818609E-02  0.8353825E-01
       -2   -1    0    0    0  501  0.00000000000E+00  0.00000000000E+00  0.10195261518E+04  0.10195261518E+04  0.25500000920E-02 0. -1.
        2   -1    0    0  501    0  0.00000000000E+00  0.00000000000E+00 -0.17125847084E+04  0.17125847084E+04  0.25500000920E-02 0.  1.
    10030    2    1    2    0    0  0.00000000000E+00  0.00000000000E+00 -0.69305855665E+03  0.27321108602E+04  0.26427447076E+04 0.  0.
        5    1    3    3  502    0 -0.29901711277E+03 -0.28027378084E+03 -0.16452084022E+04  0.16954932623E+04  0.46999998093E+01 0.  1.
       -5    1    3    3    0  502  0.29901711277E+03  0.28027378084E+03  0.95214984553E+03  0.10366175979E+04  0.46999998093E+01 0. -1.
</event>
<event>
 5   0  0.1075146E-05  0.2730626E+04  0.7818609E-02  0.8325136E-01
       -1   -1    0    0    0  501  0.00000000000E+00  0.00000000000E+00  0.18275968819E+04  0.18275968819E+04  0.50400001928E-02 0.  1.
        1   -1    0    0  501    0  0.00000000000E+00  0.00000000000E+00 -0.10199619104E+04  0.10199619104E+04  0.50400001928E-02 0. -1.
    10030    2    1    2    0    0  0.00000000000E+00  0.00000000000E+00  0.80763497150E+03  0.28475587923E+04  0.27306257210E+04 0.  0.
        2    1    3    3  502    0 -0.61027042992E+03  0.12185552607E+04  0.48963544163E+03  0.14481193966E+04  0.25500000920E-02 0. -1.
       -2    1    3    3    0  502  0.61027042992E+03 -0.12185552607E+04  0.31799952987E+03  0.13994393957E+04  0.25500000920E-02 0.  1.
</event>
<event>
 5   0  0.1075146E-05  0.2783470E+04  0.7818609E-02  0.8308419E-01
       -1   -1    0    0    0  501  0.00000000000E+00  0.00000000000E+00  0.98391627865E+03  0.98391627866E+03  0.50400001928E-02 0. -1.
        1   -1    0    0  501    0  0.00000000000E+00  0.00000000000E+00 -0.19685889056E+04  0.19685889056E+04  0.50400001928E-02 0.  1.
    10030    2    1    2    0    0  0.00000000000E+00  0.00000000000E+00 -0.98467262697E+03  0.29525051843E+04  0.27834702587E+04 0.  0.
        2    1    3    3  502    0  0.25004596272E+03  0.90610506994E+03 -0.15810058210E+04  0.18393283522E+04  0.25500000920E-02 0.  1.
       -2    1    3    3    0  502 -0.25004596272E+03 -0.90610506994E+03  0.59633319400E+03  0.11131768321E+04  0.25500000920E-02 0. -1.
</event>
<event>
 5   0  0.1105862E-05  0.2538326E+04  0.7818609E-02  0.8389457E-01
       -1   -1    0    0    0  501  0.00000000000E+00  0.00000000000E+00  0.26518994574E+04  0.26518994574E+04  0.50400001928E-02 0.  1.
        1   -1    0    0  501    0  0.00000000000E+00  0.00000000000E+00 -0.60740429740E+03  0.60740429742E+03  0.50400001928E-02 0. -1.
    10030    2    1    2    0    0  0.00000000000E+00  0.00000000000E+00  0.20444951600E+04  0.32593037548E+04  0.25383263200E+04 0.  0.
        3    1    3    3  502    0  0.11190294240E+04  0.57954693771E+03  0.82890044744E+03  0.15083691414E+04  0.10100000352E+00 0. -1.
       -3    1    3    3    0  502 -0.11190294240E+04 -0.57954693771E+03  0.12155947125E+04  0.17509346133E+04  0.10100000352E+00 0.  1.
</event>
<event>
 5   0  0.2651061E-05  0.2822177E+04  0.7818609E-02  0.8296416E-01
       -2   -1    0    0    0  501  0.00000000000E+00  0.00000000000E+00  0.17966473474E+04  0.17966473474E+04  0.25500000920E-02 0. -1.
        2   -1    0    0  501    0  0.00000000000E+00  0.00000000000E+00 -0.11082701870E+04  0.11082701870E+04  0.25500000920E-02 0.  1.
    10030    2    1    2    0    0  0.00000000000E+00  0.00000000000E+00  0.68837716045E+03  0.29049175344E+04  0.28221769552E+04 0.  0.
        3    1    3    3  502    0  0.18157134884E+03 -0.12956995965E+04  0.88823458867E+03  0.15813811349E+04  0.10100000352E+00 0. -1.
       -3    1    3    3    0  502 -0.18157134884E+03  0.12956995965E+04 -0.19985742822E+03  0.13235363995E+04  0.10100000352E+00 0.  1.
</event>
<event>
 5   0  0.1017456E-05  0.2669604E+04  0.7818609E-02  0.8344935E-01
        1   -1    0    0  501    0  0.00000000000E+00  0.00000000000E+00  0.15627418017E+04  0.15627418017E+04  0.50400001928E-02 0. -1.
       -1   -1    0    0    0  501  0.00000000000E+00  0.00000000000E+00 -0.11401094271E+04  0.11401094271E+04  0.50400001928E-02 0.  1.
    10030    2    1    2    0    0  0.00000000000E+00  0.00000000000E+00  0.42263237460E+03  0.27028512287E+04  0.26696042105E+04 0.  0.
        5    1    3    3  502    0 -0.61808367111E+02 -0.29286302035E+03  0.15283181469E+04  0.15573591336E+04  0.46999998093E+01 0. -1.
       -5    1    3    3    0  502  0.61808367111E+02  0.29286302035E+03 -0.11056857723E+04  0.11454920951E+04  0.46999998093E+01 0.  1.
</event>
<event>
 5   0  0.1075146E-05  0.2649794E+04  0.7818609E-02  0.8351481E-01
        1   -1    0    0  501    0  0.00000000000E+00  0.00000000000E+00  0.12703571289E+04  0.12703571289E+04  0.50400001928E-02 0. -1.
       -1   -1    0    0    0  501  0.00000000000E+00  0.00000000000E+00 -0.13817788170E+04  0.13817788170E+04  0.50400001928E-02 0.  1.
    10030    2    1    2    0    0  0.00000000000E+00  0.00000000000E+00 -0.11142168810E+03  0.26521359459E+04  0.26497943850E+04 0.  0.
        2    1    3    3  502    0 -0.65227648014E+03 -0.85807993943E+03 -0.82683750199E+03  0.13584645905E+04  0.25500000920E-02 0.  1.
       -2    1    3    3    0  502  0.65227648014E+03  0.85807993943E+03  0.71541581389E+03  0.12936713554E+04  0.25500000920E-02 0. -1.
</event>
<event>
 5   0  0.2651061E-05  0.2785950E+04  0.7818609E-02  0.8307644E-01
        2   -1    0    0  501    0  0.00000000000E+00  0.00000000000E+00  0.11912990432E+04  0.11912990432E+04  0.25500000920E-02 0. -1.
       -2   -1    0    0    0  501  0.00000000000E+00  0.00000000000E+00 -0.16287930496E+04  0.16287930496E+04  0.25500000920E-02 0.  1.
    10030    2    1    2    0    0  0.00000000000E+00  0.00000000000E+00 -0.43749400638E+03  0.28200920929E+04  0.27859501802E+04 0.  0.
        3    1    3    3  502    0 -0.14065752648E+03  0.37344061439E+03  0.11322009794E+04  0.12004672008E+04  0.10100000352E+00 0. -1.
       -3    1    3    3    0  502  0.14065752648E+03 -0.37344061439E+03 -0.15696949858E+04  0.16196248920E+04  0.10100000352E+00 0.  1.
</event>
<event>
 5   0  0.2518686E-05  0.2950113E+04  0.7818609E-02  0.8258122E-01
       -2   -1    0    0    0  501  0.00000000000E+00  0.00000000000E+00  0.18155384228E+04  0.18155384228E+04  0.25500000920E-02 0.  1.
        2   -1    0    0  501    0  0.00000000000E+00  0.00000000000E+00 -0.11984279874E+04  0.11984279875E+04  0.25500000920E-02 0. -1.
    10030    2    1    2    0    0  0.00000000000E+00  0.00000000000E+00  0.61711043538E+03  0.30139664103E+04  0.29501132576E+04 0.  0.
        5    1    3    3  502    0  0.78404866292E+02 -0.81413683133E+03 -0.94553298209E+03  0.12502083080E+04  0.46999998093E+01 0. -1.
       -5    1    3    3    0  502 -0.78404866292E+02  0.81413683133E+03  0.15626434175E+04  0.17637581023E+04  0.46999998093E+01 0.  1.
</event>
<event>
 5   0  0.2518686E-05  0.2785652E+04  0.7818609E-02  0.8307737E-01
        2   -1    0    0  501    0  0.00000000000E+00  0.00000000000E+00  0.12546863759E+04  0.12546863759E+04  0.25500000920E-02 0.  1.
       -2   -1    0    0    0  501  0.00000000000E+00  0.00000000000E+00 -0.15461741121E+04  0.15461741121E+04  0.25500000920E-02 0. -1.
    10030    2    1    2    0    0  0.00000000000E+00  0.00000000000E+00 -0.29148773628E+03  0.28008604880E+04  0.27856515168E+04 0.  0.
        5    1    3    3  502    0 -0.80997565925E+03 -0.11296302889E+04 -0.56851074881E+02  0.13911791017E+04  0.46999998093E+01 0.  1.
       -5    1    3    3    0  502  0.80997565925E+03  0.11296302889E+04 -0.23463666140E+03  0.14096813864E+04  0.46999998093E+01 0. -1.
</event>
<event>
 5   0  0.2518686E-05  0.2892183E+04  0.7818609E-02  0.8275207E-01
        2   -1    0    0  501    0  0.00000000000E+00  0.00000000000E+00  0.13814515192E+04  0.13814515192E+04  0.25500000920E-02 0. -1.
       -2   -1    0    0    0  501  0.00000000000E+00  0.00000000000E+00 -0.15137565918E+04  0.15137565918E+04  0.25500000920E-02 0.  1.
    10030    2    1    2    0    0  0.00000000000E+00  0.00000000000E+00 -0.13230507262E+03  0.28952081110E+04  0.28921834959E+04 0.  0.
        5    1    3    3  502    0 -0.47496878489E+03  0.13569059729E+04  0.90119937574E+02  0.14404627240E+04  0.46999998093E+01 0.  1.
       -5    1    3    3    0  502  0.47496878489E+03 -0.13569059729E+04 -0.22242501019E+03  0.14547453871E+04  0.46999998093E+01 0. -1.
</event>
<event>
 5   0  0.2588048E-05  0.2814445E+04  0.7818609E-02  0.8298798E-01
       -2   -1    0    0    0  501  0.00000000000E+00  0.00000000000E+00  0.12179563851E+04  0.12179563851E+04  0.25500000920E-02 0. -1.
        2   -1    0    0  501    0  0.00000000000E+00  0.00000000000E+00 -0.16258998727E+04  0.16258998727E+04  0.25500000920E-02 0.  1.
    10030    2    1    2    0    0  0.00000000000E+00  0.00000000000E+00 -0.40794348758E+03  0.28438562578E+04  0.28144449765E+04 0.  0.
        2    1    3    3  502    0  0.65086290073E+03 -0.10532601949E+03  0.10522250466E+04  0.12417300973E+04  0.25500000920E-02 0. -1.
       -2    1    3    3    0  502 -0.65086290073E+03  0.10532601949E+03 -0.14601685341E+04  0.16021261605E+04  0.25500000920E-02 0.  1.
</event>
<event>
 5   0  0.2624815E-05  0.2663337E+04  0.7818609E-02  0.8347000E-01
       -2   -1    0    0    0  501  0.00000000000E+00  0.00000000000E+00  0.73512558435E+03  0.73512558435E+03  0.25500000920E-02 0. -1.
        2   -1    0    0  501    0  0.00000000000E+00  0.00000000000E+00 -0.24122972566E+04  0.24122972566E+04  0.25500000920E-02 0.  1.
    10030    2    1    2    0    0  0.00000000000E+00  0.00000000000E+00 -0.16771716722E+04  0.31474228409E+04  0.26633373278E+04 0.  0.
        4    1    3    3  502    0  0.34696232965E+01 -0.10263429257E+04 -0.18413053676E+04  0.21080319990E+04  0.12699999809E+01 0.  1.
       -4    1    3    3    0  502 -0.34696232965E+01  0.10263429257E+04  0.16413369536E+03  0.10393908419E+04  0.12699999809E+01 0. -1.
</event>
<event>
 5   0  0.2651061E-05  0.2760410E+04  0.7818609E-02  0.8315666E-01
        2   -1    0    0  501    0  0.00000000000E+00  0.00000000000E+00  0.12885510647E+04  0.12885510647E+04  0.25500000920E-02 0.  1.
       -2   -1    0    0    0  501  0.00000000000E+00  0.00000000000E+00 -0.14783777552E+04  0.14783777552E+04  0.25500000920E-02 0. -1.
    10030    2    1    2    0    0  0.00000000000E+00  0.00000000000E+00 -0.18982669050E+03  0.27669288198E+04  0.27604095569E+04 0.  0.
        3    1    3    3  502    0 -0.13327412262E+04 -0.29257681385E+03 -0.30316554332E+03  0.13977516678E+04  0.10100000352E+00 0. -1.
       -3    1    3    3    0  502  0.13327412262E+04  0.29257681385E+03  0.11333885283E+03  0.13691771521E+04  0.10100000352E+00 0.  1.
</event>
<event>
 5   0  0.2518686E-05  0.2728991E+04  0.7818609E-02  0.8325659E-01
       -2   -1    0    0    0  501  0.00000000000E+00  0.00000000000E+00  0.12327182638E+04  0.12327182638E+04  0.25500000920E-02 0. -1.
        2   -1    0    0  501    0  0.00000000000E+00  0.00000000000E+00 -0.15103596522E+04  0.15103596522E+04  0.25500000920E-02 0.  1.
    10030    2    1    2    0    0  0.00000000000E+00  0.00000000000E+00 -0.27764138837E+03  0.27430779160E+04  0.27289909697E+04 0.  0.
        5    1    3    3  502    0 -0.13254637751E+04  0.31608311838E+03 -0.21034332802E+03  0.13787781411E+04  0.46999998093E+01 0. -1.
       -5    1    3    3    0  502  0.13254637751E+04 -0.31608311838E+03 -0.67298060353E+02  0.13642997749E+04  0.46999998093E+01 0.  1.
</event>
<event>
 5   0  0.2624815E-05  0.2810124E+04  0.7818609E-02  0.8300132E-01
       -2   -1    0    0    0  501  0.00000000000E+00  0.00000000000E+00  0.16205217830E+04  0.16205217830E+04  0.25500000920E-02 0. -1.
        2   -1    0    0  501    0  0.00000000000E+00  0.00000000000E+00 -0.12182492172E+04  0.12182492172E+04  0.25500000920E-02 0.  1.
    10030    2    1    2    0    0  0.00000000000E+00  0.00000000000E+00  0.40227256585E+03  0.28387710002E+04  0.28101241208E+04 0.  0.
        4    1    3    3  502    0  0.87957733814E+03  0.90144507171E+03 -0.42806003055E+03  0.13302242344E+04  0.12699999809E+01 0.  1.
       -4    1    3    3    0  502 -0.87957733814E+03 -0.90144507171E+03  0.83033259641E+03  0.15085467658E+04  0.12699999809E+01 0. -1.
</event>
<event>
 5   0  0.8958000E-06  0.2789676E+04  0.7818609E-02  0.8306481E-01
       -3   -1    0    0    0  501  0.00000000000E+00  0.00000000000E+00  0.68275660080E+03  0.68275660828E+03  0.10100000352E+00 0.  1.
        3   -1    0    0  501    0  0.00000000000E+00  0.00000000000E+00 -0.28495841357E+04  0.28495841375E+04  0.10100000352E+00 0. -1.
    10030    2    1    2    0    0  0.00000000000E+00  0.00000000000E+00 -0.21668275349E+04  0.35323407458E+04  0.27896755328E+04 0.  0.
        1    1    3    3  502    0 -0.10576996149E+04 -0.25992168269E+03 -0.21867584446E+04  0.24429900228E+04  0.50400001928E-02 0. -1.
       -1    1    3    3    0  502  0.10576996149E+04  0.25992168269E+03  0.19930909657E+02  0.10893507230E+04  0.50400001928E-02 0.  1.
</event>
<event>
 5   0  0.2697964E-05  0.2847584E+04  0.7818609E-02  0.8288646E-01
        2   -1    0    0  501    0  0.00000000000E+00  0.00000000000E+00  0.13035513430E+04  0.13035513430E+04  0.25500000920E-02 0.  1.
       -2   -1    0    0    0  501  0.00000000000E+00  0.00000000000E+00 -0.15551241488E+04  0.15551241488E+04  0.25500000920E-02 0. -1.
    10030    2    1    2    0    0  0.00000000000E+00  0.00000000000E+00 -0.25157280583E+03  0.28586754918E+04  0.28475843606E+04 0.  0.
        1    1    3    3  502    0 -0.77293677164E+03  0.94339812638E+03 -0.86332669242E+03  0.14942437069E+04  0.50400001928E-02 0. -1.
       -1    1    3    3    0  502  0.77293677164E+03 -0.94339812638E+03  0.61175388659E+03  0.13644317849E+04  0.50400001928E-02 0.  1.
</event>
<event>
 5   0  0.1075146E-05  0.2809455E+04  0.7818609E-02  0.8300339E-01
        1   -1    0    0  501    0  0.00000000000E+00  0.00000000000E+00  0.18054068603E+04  0.18054068603E+04  0.50400001928E-02 0.  1.
       -1   -1    0    0    0  501  0.00000000000E+00  0.00000000000E+00 -0.10929719893E+04  0.10929719893E+04  0.50400001928E-02 0. -1.
    10030    2    1    2    0    0  0.00000000000E+00  0.00000000000E+00  0.71243487103E+03  0.28983788496E+04  0.28094548422E+04 0.  0.
        2    1    3    3  502    0  0.12560267198E+04 -0.47260906421E+03  0.78444197364E+03  0.15544489887E+04  0.25500000920E-02 0. -1.
       -2    1    3    3    0  502 -0.12560267198E+04  0.47260906421E+03 -0.72007102608E+02  0.13439298609E+04  0.25500000920E-02 0.  1.
</event>
<event>
 5   0  0.2651061E-05  0.2789841E+04  0.7818609E-02  0.8306429E-01
       -2   -1    0    0    0  501  0.00000000000E+00  0.00000000000E+00  0.14763232912E+04  0.14763232912E+04  0.25500000920E-02 0.  1.
        2   -1    0    0  501    0  0.00000000000E+00  0.00000000000E+00 -0.13180062226E+04  0.13180062226E+04  0.25500000920E-02 0. -1.
    10030    2    1    2    0    0  0.00000000000E+00  0.00000000000E+00  0.15831706865E+03  0.27943295138E+04  0.27898410595E+04 0.  0.
        3    1    3    3  502    0  0.35783074460E+03 -0.13127991452E+04  0.38676635607E+03  0.14145927547E+04  0.10100000352E+00 0.  1.
       -3    1    3    3    0  502 -0.35783074460E+03  0.13127991452E+04 -0.22844928742E+03  0.13797367591E+04  0.10100000352E+00 0. -1.
</event>
<event>
 5   0  0.1067434E-05  0.2400087E+04  0.7818609E-02  0.8439471E-01
        1   -1    0    0  501    0  0.00000000000E+00  0.00000000000E+00  0.28691427804E+04  0.28691427804E+04  0.50400001928E-02 0.  1.
       -1   -1    0    0    0  501  0.00000000000E+00  0.00000000000E+00 -0.50192860807E+03  0.50192860809E+03  0.50400001928E-02 0. -1.
    10030    2    1    2    0    0  0.00000000000E+00  0.00000000000E+00  0.23672141723E+04  0.33710713885E+04  0.24000873669E+04 0.  0.
        4    1    3    3  502    0  0.24641256047E+03 -0.44315527528E+03 -0.34407437574E+03  0.61277609035E+03  0.12699999809E+01 0. -1.
       -4    1    3    3    0  502 -0.24641256047E+03  0.44315527528E+03  0.27112885481E+04  0.27582952981E+04  0.12699999809E+01 0.  1.
</event>
<event>
 5   0  0.1078103E-05  0.2130981E+04  0.7818609E-02  0.8547718E-01
        1   -1    0    0  501    0  0.00000000000E+00  0.00000000000E+00  0.12545467650E+04  0.12545467651E+04  0.50400001928E-02 0. -1.
       -1   -1    0    0    0  501  0.00000000000E+00  0.00000000000E+00 -0.90492409009E+03  0.90492409011E+03  0.50400001928E-02 0.  1.
    10030    2    1    2    0    0  0.00000000000E+00  0.00000000000E+00  0.34962267495E+03  0.21594708552E+04  0.21309806098E+04 0.  0.
        1    1    3    3  502    0 -0.94166208845E+03 -0.45092811581E+03  0.39027080344E+03  0.11146187485E+04  0.50400001928E-02 0. -1.
       -1    1    3    3    0  502  0.94166208845E+03  0.45092811581E+03 -0.40648128486E+02  0.10448521067E+04  0.50400001928E-02 0.  1.
</event>
<event>
 5   0  0.1017456E-05  0.3018919E+04  0.7818609E-02  0.8238349E-01
        1   -1    0    0  501    0  0.00000000000E+00  0.00000000000E+00  0.17859496259E+04  0.17859496260E+04  0.50400001928E-02 0. -1.
       -1   -1    0    0    0  501  0.00000000000E+00  0.00000000000E+00 -0.12757737197E+04  0.12757737197E+04  0.50400001928E-02 0.  1.
    10030    2    1    2    0    0  0.00000000000E+00  0.00000000000E+00  0.51017590624E+03  0.30617233457E+04  0.30189187452E+04 0.  0.
        5    1    3    3  502    0  0.64438089457E+03 -0.80907766378E+03  0.13700446267E+04  0.17166472475E+04  0.46999998093E+01 0. -1.
       -5    1    3    3    0  502 -0.64438089457E+03  0.80907766378E+03 -0.85986872047E+03  0.13450760981E+04  0.46999998093E+01 0.  1.
</event>
<event>
 5   0  0.2624815E-05  0.2821119E+04  0.7818609E-02  0.8296742E-01
       -2   -1    0    0    0  501  0.00000000000E+00  0.00000000000E+00  0.15623515665E+04  0.15623515665E+04  0.25500000920E-02 0. -1.
        2   -1    0    0  501    0  0.00000000000E+00  0.00000000000E+00 -0.12735151844E+04  0.12735151844E+04  0.25500000920E-02 0.  1.
    10030    2    1    2    0    0  0.00000000000E+00  0.00000000000E+00  0.28883638210E+03  0.28358667509E+04  0.28211192412E+04 0.  0.
        4    1    3    3  502    0 -0.36984874776E+03 -0.94034750255E+03 -0.84491943360E+03  0.13171681684E+04  0.12699999809E+01 0.  1.
       -4    1    3    3    0  502  0.36984874776E+03  0.94034750255E+03  0.11337558157E+04  0.15186985824E+04  0.12699999809E+01 0. -1.
</event>
<event>
 5   0  0.1075146E-05  0.2766462E+04  0.7818609E-02  0.8313757E-01
       -1   -1    0    0    0  501  0.00000000000E+00  0.00000000000E+00  0.17428538849E+04  0.17428538849E+04  0.50400001928E-02 0.  1.
        1   -1    0    0  501    0  0.00000000000E+00  0.00000000000E+00 -0.10978134696E+04  0.10978134696E+04  0.50400001928E-02 0. -1.
    10030    2    1    2    0    0  0.00000000000E+00  0.00000000000E+00  0.64504041525E+03  0.28406673545E+04  0.27664623406E+04 0.  0.
        2    1    3    3  502    0  0.98594220928E+03 -0.96395833050E+03  0.43514714744E+03  0.14459082761E+04  0.25500000920E-02 0. -1.
       -2    1    3    3    0  502 -0.98594220928E+03  0.96395833050E+03  0.20989326781E+03  0.13947590784E+04  0.25500000920E-02 0.  1.
</event>
<event>
 5   0  0.2588048E-05  0.1775628E+04  0.7818609E-02  0.8719369E-01
       -2   -1    0    0    0  501  0.00000000000E+00  0.00000000000E+00  0.71548971916E+03  0.71548971916E+03  0.25500000920E-02 0.  1.
        2   -1    0    0  501    0  0.00000000000E+00  0.00000000000E+00 -0.11016421249E+04  0.11016421249E+04  0.25500000920E-02 0. -1.
    10030    2    1    2    0    0  0.00000000000E+00  0.00000000000E+00 -0.38615240576E+03  0.18171318441E+04  0.17756279054E+04 0.  0.
        2    1    3    3  502    0 -0.74429353437E+03 -0.41004051829E+03  0.70047467529E+02  0.85265042055E+03  0.25500000920E-02 0.  1.
       -2    1    3    3    0  502  0.74429353437E+03  0.41004051829E+03 -0.45619987329E+03  0.96448142353E+03  0.25500000920E-02 0. -1.
</event>
<event>
 5   0  0.2697964E-05  0.2717516E+04  0.7818609E-02  0.8329344E-01
        2   -1    0    0  501    0  0.00000000000E+00  0.00000000000E+00  0.16960534669E+04  0.16960534669E+04  0.25500000920E-02 0. -1.
       -2   -1    0    0    0  501  0.00000000000E+00  0.00000000000E+00 -0.10885406578E+04  0.10885406578E+04  0.25500000920E-02 0.  1.
    10030    2    1    2    0    0  0.00000000000E+00  0.00000000000E+00  0.60751280911E+03  0.27845941248E+04  0.27175158926E+04 0.  0.
        1    1    3    3  502    0 -0.44553024479E+02 -0.62449953582E+03 -0.93192818652E+03  0.11227086831E+04  0.50400001928E-02 0.  1.
       -1    1    3    3    0  502  0.44553024479E+02  0.62449953582E+03  0.15394409956E+04  0.16618854417E+04  0.50400001928E-02 0. -1.
</event>
<event>
 5   0  0.2518686E-05  0.2935421E+04  0.7818609E-02  0.8262416E-01
        2   -1    0    0  501    0  0.00000000000E+00  0.00000000000E+00  0.22292847440E+04  0.22292847440E+04  0.25500000920E-02 0.  1.
       -2   -1    0    0    0  501  0.00000000000E+00  0.00000000000E+00 -0.96630757904E+03  0.96630757904E+03  0.25500000920E-02 0. -1.
    10030    2    1    2    0    0  0.00000000000E+00  0.00000000000E+00  0.12629771649E+04  0.31955923230E+04  0.29354214307E+04 0.  0.
        5    1    3    3  502    0 -0.22561759827E+03 -0.62408259846E+03 -0.79365036833E+03  0.10345459813E+04  0.46999998093E+01 0. -1.
       -5    1    3    3    0  502  0.22561759827E+03  0.62408259846E+03  0.20566275333E+04  0.21610463417E+04  0.46999998093E+01 0.  1.
</event>
<event>
 5   0  0.1075146E-05  0.2642123E+04  0.7818609E-02  0.8354032E-01
       -1   -1    0    0    0  501  0.00000000000E+00  0.00000000000E+00  0.15920917264E+04  0.15920917264E+04  0.50400001928E-02 0.  1.
        1   -1    0    0  501    0  0.00000000000E+00  0.00000000000E+00 -0.10961702078E+04  0.10961702078E+04  0.50400001928E-02 0. -1.
    10030    2    1    2    0    0  0.00000000000E+00  0.00000000000E+00  0.49592151861E+03  0.26882619342E+04  0.26421230240E+04 0.  0.
        2    1    3    3  502    0  0.55289973723E+03  0.69472488176E+03  0.12432363846E+04  0.15277360664E+04  0.25500000920E-02 0.  1.
       -2    1    3    3    0  502 -0.55289973723E+03 -0.69472488176E+03 -0.74731486597E+03  0.11605258677E+04  0.25500000920E-02 0. -1.
</event>
<event>
 5   0  0.1067434E-05  0.2805096E+04  0.7818609E-02  0.8301688E-01
       -1   -1    0    0    0  501  0.00000000000E+00  0.00000000000E+00  0.90127055700E+03  0.90127055701E+03  0.50400001928E-02 0. -1.
        1   -1    0    0  501    0  0.00000000000E+00  0.00000000000E+00 -0.21826313733E+04  0.21826313733E+04  0.50400001928E-02 0.  1.
    10030    2    1    2    0    0  0.00000000000E+00  0.00000000000E+00 -0.12813608163E+04  0.30839019303E+04  0.28050963574E+04 0.  0.
        4    1    3    3  502    0  0.29798746862E+03  0.10660322641E+04  0.30627791040E+03  0.11484899176E+04  0.12699999809E+01 0. -1.
       -4    1    3    3    0  502 -0.29798746862E+03 -0.10660322641E+04 -0.15876387267E+04  0.19354120127E+04  0.12699999809E+01 0.  1.
</event>
<event>
 5   0  0.2624815E-05  0.2772208E+04  0.7818609E-02  0.8311949E-01
       -2   -1    0    0    0  501  0.00000000000E+00  0.00000000000E+00  0.14697749495E+04  0.14697749495E+04  0.25500000920E-02 0. -1.
        2   -1    0    0  501    0  0.00000000000E+00  0.00000000000E+00 -0.13071965530E+04  0.13071965530E+04  0.25500000920E-02 0.  1.
    10030    2    1    2    0    0  0.00000000000E+00  0.00000000000E+00  0.16257839653E+03  0.27769715026E+04  0.27722083239E+04 0.  0.
        4    1    3    3  502    0  0.74624022320E+03 -0.11573506291E+04  0.23951053260E+03  0.13977488535E+04  0.12699999809E+01 0.  1.
       -4    1    3    3    0  502 -0.74624022320E+03  0.11573506291E+04 -0.76932136070E+02  0.13792226491E+04  0.12699999809E+01 0. -1.
</event>
<event>
 5   0  0.2651061E-05  0.2757890E+04  0.7818609E-02  0.8316462E-01
        2   -1    0    0  501    0  0.00000000000E+00  0.00000000000E+00  0.28107089835E+04  0.28107089835E+04  0.25500000920E-02 0. -1.
       -2   -1    0    0    0  501  0.00000000000E+00  0.00000000000E+00 -0.67651581466E+03  0.67651581466E+03  0.25500000920E-02 0.  1.
    10030    2    1    2    0    0  0.00000000000E+00  0.00000000000E+00  0.21341931688E+04  0.34872247981E+04  0.27578898294E+04 0.  0.
        3    1    3    3  502    0 -0.43477157575E+03  0.44537781834E+03 -0.48879919783E+03  0.79139900818E+03  0.10100000352E+00 0.  1.
       -3    1    3    3    0  502  0.43477157575E+03 -0.44537781834E+03  0.26229923666E+04  0.26958257900E+04  0.10100000352E+00 0. -1.
</event>
<event>
 5   0  0.1078103E-05  0.2481406E+04  0.7818609E-02  0.8409640E-01
        1   -1    0    0  501    0  0.00000000000E+00  0.00000000000E+00  0.11937210088E+04  0.11937210088E+04  0.50400001928E-02 0. -1.
       -1   -1    0    0    0  501  0.00000000000E+00  0.00000000000E+00 -0.12895342831E+04  0.12895342831E+04  0.50400001928E-02 0.  1.
    10030    2    1    2    0    0  0.00000000000E+00  0.00000000000E+00 -0.95813274324E+02  0.24832552919E+04  0.24814061862E+04 0.  0.
        1    1    3    3  502    0 -0.11710616359E+04 -0.11138957440E+03 -0.44260030045E+03  0.12568564033E+04  0.50400001928E-02 0.  1.
       -1    1    3    3    0  502  0.11710616359E+04  0.11138957440E+03  0.34678702613E+03  0.12263988886E+04  0.50400001928E-02 0. -1.
</event>
<event>
 5   0  0.1105862E-05  0.2054554E+04  0.7818609E-02  0.8581531E-01
        1   -1    0    0  501    0  0.00000000000E+00  0.00000000000E+00  0.71303884789E+03  0.71303884791E+03  0.50400001928E-02 0. -1.
       -1   -1    0    0    0  501  0.00000000000E+00  0.00000000000E+00 -0.14800014549E+04  0.14800014549E+04  0.50400001928E-02 0.  1.
    10030    2    1    2    0    0  0.00000000000E+00  0.00000000000E+00 -0.76696260700E+03  0.21930403028E+04  0.20545544844E+04 0.  0.
        3    1    3    3  502    0 -0.16488737572E+03  0.92670498683E+03 -0.82271336715E+03  0.12501309027E+04  0.10100000352E+00 0.  1.
       -3    1    3    3    0  502  0.16488737572E+03 -0.92670498683E+03  0.55750760155E+02  0.94290940007E+03  0.10100000352E+00 0. -1.
</event>
<event>
 5   0  0.1075146E-05  0.2865166E+04  0.7818609E-02  0.8283318E-01
        1   -1    0    0  501    0  0.00000000000E+00  0.00000000000E+00  0.16749945336E+04  0.16749945336E+04  0.50400001928E-02 0. -1.
       -1   -1    0    0    0  501  0.00000000000E+00  0.00000000000E+00 -0.12252541048E+04  0.12252541048E+04  0.50400001928E-02 0.  1.
    10030    2    1    2    0    0  0.00000000000E+00  0.00000000000E+00  0.44974042879E+03  0.29002486384E+04  0.28651659134E+04 0.  0.
        2    1    3    3  502    0 -0.62492671652E+02  0.13667578585E+04  0.65476030605E+03  0.15167872086E+04  0.25500000920E-02 0. -1.
       -2    1    3    3    0  502  0.62492671652E+02 -0.13667578585E+04 -0.20501987727E+03  0.13834614298E+04  0.25500000920E-02 0.  1.
</event>
<event>
 5   0  0.1075146E-05  0.2828810E+04  0.7818609E-02  0.8294379E-01
        1   -1    0    0  501    0  0.00000000000E+00  0.00000000000E+00  0.19138000274E+04  0.19138000274E+04  0.50400001928E-02 0. -1.
       -1   -1    0    0    0  501  0.00000000000E+00  0.00000000000E+00 -0.10453242836E+04  0.10453242837E+04  0.50400001928E-02 0.  1.
    10030    2    1    2    0    0  0.00000000000E+00  0.00000000000E+00  0.86847574373E+03  0.29591243110E+04  0.28288100980E+04 0.  0.
        2    1    3    3  502    0 -0.15617068116E+03 -0.93925763532E+02 -0.10329916544E+04  0.10489437968E+04  0.25500000920E-02 0.  1.
       -2    1    3    3    0  502  0.15617068116E+03  0.93925763532E+02  0.19014673982E+04  0.19101805142E+04  0.25500000920E-02 0. -1.
</event>
<event>
 5   0  0.2518686E-05  0.2818937E+04  0.7818609E-02  0.8297413E-01
       -2   -1    0    0    0  501  0.00000000000E+00  0.00000000000E+00  0.25472272149E+04  0.25472272149E+04  0.25500000920E-02 0.  1.
        2   -1    0    0  501    0  0.00000000000E+00  0.00000000000E+00 -0.77990743936E+03  0.77990743936E+03  0.25500000920E-02 0. -1.
    10030    2    1    2    0    0  0.00000000000E+00  0.00000000000E+00  0.17673197755E+04  0.33271346543E+04  0.28189370015E+04 0.  0.
        5    1    3    3  502    0 -0.12088158829E+04 -0.70225266061E+03  0.10954033060E+04  0.17760419845E+04  0.46999998093E+01 0.  1.
       -5    1    3    3    0  502  0.12088158829E+04  0.70225266061E+03  0.67191646957E+03  0.15510926697E+04  0.46999998093E+01 0. -1.
</event>
<event>
 5   0  0.1017456E-05  0.2760946E+04  0.7818609E-02  0.8315497E-01
        1   -1    0    0  501    0  0.00000000000E+00  0.00000000000E+00  0.15286787137E+04  0.15286787137E+04  0.50400001928E-02 0.  1.
       -1   -1    0    0    0  501  0.00000000000E+00  0.00000000000E+00 -0.12466355310E+04  0.12466355310E+04  0.50400001928E-02 0. -1.
    10030    2    1    2    0    0  0.00000000000E+00  0.00000000000E+00  0.28204318275E+03  0.27753142447E+04  0.27609456351E+04 0.  0.
        5    1    3    3  502    0 -0.90722487128E+03  0.10086207166E+04  0.39791056166E+03  0.14137636373E+04  0.46999998093E+01 0.  1.
       -5    1    3    3    0  502  0.90722487128E+03 -0.10086207166E+04 -0.11586737891E+03  0.13615506074E+04  0.46999998093E+01 0. -1.
</event>
<event>
 5   0  0.1105862E-05  0.2732247E+04  0.7818609E-02  0.8324617E-01
        1   -1    0    0  501    0  0.00000000000E+00  0.00000000000E+00  0.90103041653E+03  0.90103041655E+03  0.50400001928E-02 0. -1.
       -1   -1    0    0    0  501  0.00000000000E+00  0.00000000000E+00 -0.20712872045E+04  0.20712872045E+04  0.50400001928E-02 0.  1.
    10030    2    1    2    0    0  0.00000000000E+00  0.00000000000E+00 -0.11702567880E+04  0.29723176211E+04  0.27322465282E+04 0.  0.
        3    1    3    3  502    0  0.11635620331E+04 -0.61961101683E+03 -0.97509202101E+03  0.16396947511E+04  0.10100000352E+00 0. -1.
       -3    1    3    3    0  502 -0.11635620331E+04  0.61961101683E+03 -0.19516476696E+03  0.13326228700E+04  0.10100000352E+00 0.  1.
</event>
<event>
 5   0  0.1017456E-05  0.2284036E+04  0.7818609E-02  0.8484242E-01
       -1   -1    0    0    0  501  0.00000000000E+00  0.00000000000E+00  0.16063710535E+04  0.16063710535E+04  0.50400001928E-02 0.  1.
        1   -1    0    0  501    0  0.00000000000E+00  0.00000000000E+00 -0.81189500488E+03  0.81189500490E+03  0.50400001928E-02 0. -1.
    10030    2    1    2    0    0  0.00000000000E+00  0.00000000000E+00  0.79447604863E+03  0.24182660584E+04  0.22840355815E+04 0.  0.
        5    1    3    3  502    0 -0.92338663581E+03 -0.51323496167E+03  0.85646745308E+03  0.13600042622E+04  0.46999998093E+01 0. -1.
       -5    1    3    3    0  502  0.92338663581E+03  0.51323496167E+03 -0.61991404443E+02  0.10582617962E+04  0.46999998093E+01 0.  1.
</event>
<event>
 5   0  0.1078103E-05  0.2470569E+04  0.7818609E-02  0.8413546E-01
       -1   -1    0    0    0  501  0.00000000000E+00  0.00000000000E+00  0.29484609126E+04  0.29484609126E+04  0.50400001928E-02 0. -1.
        1   -1    0    0  501    0  0.00000000000E+00  0.00000000000E+00 -0.51753385293E+03  0.51753385295E+03  0.50400001928E-02 0.  1.
    10030    2    1    2    0    0  0.00000000000E+00  0.00000000000E+00  0.24309270596E+04  0.34659947655E+04  0.24705694375E+04 0.  0.
        1    1    3    3  502    0 -0.15977265821E+03  0.76679979812E+03 -0.12460812996E+03  0.79311816194E+03  0.50400001928E-02 0.  1.
       -1    1    3    3    0  502  0.15977265821E+03 -0.76679979812E+03  0.25555351896E+04  0.26728766036E+04  0.50400001928E-02 0. -1.
</event>
<event>
 5   0  0.2588048E-05  0.2782908E+04  0.7818609E-02  0.8308594E-01
        2   -1    0    0  501    0  0.00000000000E+00  0.00000000000E+00  0.12735588309E+04  0.12735588309E+04  0.25500000920E-02 0.  1.
       -2   -1    0    0    0  501  0.00000000000E+00  0.00000000000E+00 -0.15202627434E+04  0.15202627434E+04  0.25500000920E-02 0. -1.
    10030    2    1    2    0    0  0.00000000000E+00  0.00000000000E+00 -0.24670391252E+03  0.27938215743E+04  0.27829078620E+04 0.  0.
        2    1    3    3  502    0  0.11445056251E+04 -0.76315563125E+03 -0.33356366311E+03  0.14154731932E+04  0.25500000920E-02 0. -1.
       -2    1    3    3    0  502 -0.11445056251E+04  0.76315563125E+03  0.86859750592E+02  0.13783483811E+04  0.25500000920E-02 0.  1.
</event>
<event>
 5   0  0.2697964E-05  0.2907943E+04  0.7818609E-02  0.8270518E-01
        2   -1    0    0  501    0  0.00000000000E+00  0.00000000000E+00  0.23363607115E+04  0.23363607115E+04  0.25500000920E-02 0. -1.
       -2   -1    0    0    0  501  0.00000000000E+00  0.00000000000E+00 -0.90484036312E+03  0.90484036312E+03  0.25500000920E-02 0.  1.
    10030    2    1    2    0    0  0.00000000000E+00  0.00000000000E+00  0.14315203484E+04  0.32412010746E+04  0.29079432420E+04 0.  0.
        1    1    3    3  502    0  0.11958940299E+04 -0.64150683082E+03  0.13409145481E+03  0.13636986702E+04  0.50400001928E-02 0. -1.
       -1    1    3    3    0  502 -0.11958940299E+04  0.64150683082E+03  0.12974288936E+04  0.18775024045E+04  0.50400001928E-02 0.  1.
</event>
<event>
 5   0  0.1017456E-05  0.2790031E+04  0.7818609E-02  0.8306370E-01
       -1   -1    0    0    0  501  0.00000000000E+00  0.00000000000E+00  0.17410921353E+04  0.17410921353E+04  0.50400001928E-02 0. -1.
        1   -1    0    0  501    0  0.00000000000E+00  0.00000000000E+00 -0.11177286331E+04  0.11177286331E+04  0.50400001928E-02 0.  1.
    10030    2    1    2    0    0  0.00000000000E+00  0.00000000000E+00  0.62336350212E+03  0.28588207684E+04  0.27900312059E+04 0.  0.
        5    1    3    3  502    0  0.11135361798E+04 -0.81530993914E+03  0.52005073247E+03  0.14748450681E+04  0.46999998093E+01 0.  1.
       -5    1    3    3    0  502 -0.11135361798E+04  0.81530993914E+03  0.10331276965E+03  0.13839757003E+04  0.46999998093E+01 0. -1.
</event>
<event>
 5   0  0.1075146E-05  0.1462514E+04  0.7818609E-02  0.8909771E-01
       -1   -1    0    0    0  501  0.00000000000E+00  0.00000000000E+00  0.13866224396E+04  0.13866224396E+04  0.50400001928E-02 0.  1.
        1   -1    0    0  501    0  0.00000000000E+00  0.00000000000E+00 -0.38563982346E+03  0.38563982349E+03  0.50400001928E-02 0. -1.
    10030    2    1    2    0    0  0.00000000000E+00  0.00000000000E+00  0.10009826161E+04  0.17722622631E+04  0.14625140448E+04 0.  0.
        2    1    3    3  502    0  0.37327123051E+03 -0.15942856537E+03 -0.23660075866E+03  0.46981783489E+03  0.25500000920E-02 0. -1.
       -2    1    3    3    0  502 -0.37327123051E+03  0.15942856537E+03  0.12375833748E+04  0.13024444282E+04  0.25500000920E-02 0.  1.
</event>
<event>
 5   0  0.1105862E-05  0.1541508E+04  0.7818609E-02  0.8857310E-01
       -1   -1    0    0    0  501  0.00000000000E+00  0.00000000000E+00  0.71016459348E+03  0.71016459350E+03  0.50400001928E-02 0. -1.
        1   -1    0    0  501    0  0.00000000000E+00  0.00000000000E+00 -0.83651260066E+03  0.83651260067E+03  0.50400001928E-02 0.  1.
    10030    2    1    2    0    0  0.00000000000E+00  0.00000000000E+00 -0.12634800717E+03  0.15466771942E+04  0.15415078735E+04 0.  0.
        3    1    3    3  502    0 -0.66915755265E+03  0.12131132694E+03  0.30077279618E+03  0.74360779544E+03  0.10100000352E+00 0. -1.
       -3    1    3    3    0  502  0.66915755265E+03 -0.12131132694E+03 -0.42712080336E+03  0.80306939873E+03  0.10100000352E+00 0.  1.
</event>
<event>
 5   0  0.2588048E-05  0.2839832E+04  0.7818609E-02  0.8291008E-01
        2   -1    0    0  501    0  0.00000000000E+00  0.00000000000E+00  0.22919745109E+04  0.22919745109E+04  0.25500000920E-02 0.  1.
       -2   -1    0    0    0  501  0.00000000000E+00  0.00000000000E+00 -0.87966146073E+03  0.87966146073E+03  0.25500000920E-02 0. -1.
    10030    2    1    2    0    0  0.00000000000E+00  0.00000000000E+00  0.14123130502E+04  0.31716359717E+04  0.28398321403E+04 0.  0.
        2    1    3    3  502    0 -0.70283685333E+02 -0.32919948751E+02 -0.87729078009E+03  0.88071711252E+03  0.25500000920E-02 0. -1.
       -2    1    3    3    0  502  0.70283685333E+02  0.32919948751E+02  0.22896038303E+04  0.22909188591E+04  0.25500000920E-02 0.  1.
</event>
<event>
 5   0  0.2697964E-05  0.2774668E+04  0.7818609E-02  0.8311176E-01
        2   -1    0    0  501    0  0.00000000000E+00  0.00000000000E+00  0.14332252201E+04  0.14332252201E+04  0.25500000920E-02 0. -1.
       -2   -1    0    0    0  501  0.00000000000E+00  0.00000000000E+00 -0.13429120876E+04  0.13429120876E+04  0.25500000920E-02 0.  1.
    10030    2    1    2    0    0  0.00000000000E+00  0.00000000000E+00  0.90313132582E+02  0.27761373077E+04  0.27746678881E+04 0.  0.
        1    1    3    3  502    0  0.72182993470E+03  0.52136424692E+03 -0.10192848186E+04  0.13534403105E+04  0.50400001928E-02 0.  1.
       -1    1    3    3    0  502 -0.72182993470E+03 -0.52136424692E+03  0.11095979512E+04  0.14226969972E+04  0.50400001928E-02 0. -1.
</event>
<event>
 5   0  0.1078103E-05  0.2896009E+04  0.7818609E-02  0.8274066E-01
       -1   -1    0    0    0  501  0.00000000000E+00  0.00000000000E+00  0.12125675706E+04  0.12125675706E+04  0.50400001928E-02 0.  1.
        1   -1    0    0  501    0  0.00000000000E+00  0.00000000000E+00 -0.17291549619E+04  0.17291549620E+04  0.50400001928E-02 0. -1.
    10030    2    1    2    0    0  0.00000000000E+00  0.00000000000E+00 -0.51658739135E+03  0.29417225326E+04  0.28960091377E+04 0.  0.
        1    1    3    3  502    0  0.10637484523E+04 -0.10085723063E+03 -0.12509522527E+04  0.16451791664E+04  0.50400001928E-02 0. -1.
       -1    1    3    3    0  502 -0.10637484523E+04  0.10085723063E+03  0.73436486138E+03  0.12965433662E+04  0.50400001928E-02 0.  1.
</event>
<event>
 5   0  0.2588048E-05  0.2778801E+04  0.7818609E-02  0.8309880E-01
        2   -1    0    0  501    0  0.00000000000E+00  0.00000000000E+00  0.27734950826E+04  0.27734950826E+04  0.25500000920E-02 0.  1.
       -2   -1    0    0    0  501  0.00000000000E+00  0.00000000000E+00 -0.69602915205E+03  0.69602915205E+03  0.25500000920E-02 0. -1.
    10030    2    1    2    0    0  0.00000000000E+00  0.00000000000E+00  0.20774659306E+04  0.34695242347E+04  0.27788007705E+04 0.  0.
        2    1    3    3  502    0 -0.66487573070E+03 -0.10082099149E+04  0.18104113528E+03  0.12211973069E+04  0.25500000920E-02 0. -1.
       -2    1    3    3    0  502  0.66487573070E+03  0.10082099149E+04  0.18964247953E+04  0.22483269277E+04  0.25500000920E-02 0.  1.
</event>
<event>
 5   0  0.1067434E-05  0.2746945E+04  0.7818609E-02  0.8319932E-01
       -1   -1    0    0    0  501  0.00000000000E+00  0.00000000000E+00  0.25349477373E+04  0.25349477373E+04  0.50400001928E-02 0.  1.
        1   -1    0    0  501    0  0.00000000000E+00  0.00000000000E+00 -0.74416810963E+03  0.74416810964E+03  0.50400001928E-02 0. -1.
    10030    2    1    2    0    0  0.00000000000E+00  0.00000000000E+00  0.17907796276E+04  0.32791158469E+04  0.27469454058E+04 0.  0.
        4    1    3    3  502    0  0.62024392197E+03 -0.11977569100E+04  0.12046135997E+04  0.18084301689E+04  0.12699999809E+01 0. -1.
       -4    1    3    3    0  502 -0.62024392197E+03  0.11977569100E+04  0.58616602792E+03  0.14706856780E+04  0.12699999809E+01 0.  1.
</event>
<event>
 5   0  0.1105862E-05  0.2819713E+04  0.7818609E-02  0.8297174E-01
        1   -1    0    0  501    0  0.00000000000E+00  0.00000000000E+00  0.15112330829E+04  0.15112330829E+04  0.50400001928E-02 0.  1.
       -1   -1    0    0    0  501  0.00000000000E+00  0.00000000000E+00 -0.13152804129E+04  0.13152804129E+04  0.50400001928E-02 0. -1.
    10030    2    1    2    0    0  0.00000000000E+00  0.00000000000E+00  0.19595267003E+03  0.28265134958E+04  0.28197129452E+04 0.  0.
        3    1    3    3  502    0  0.11304417855E+04  0.29564767253E+02 -0.74602972125E+03  0.13547446479E+04  0.10100000352E+00 0. -1.
       -3    1    3    3    0  502 -0.11304417855E+04 -0.29564767253E+02  0.94198239128E+03  0.14717688479E+04  0.10100000352E+00 0.  1.
</event>
<event>
 5   0  0.2776292E-05  0.1486198E+04  0.7818609E-02  0.8893683E-01
        2   -1    0    0  501    0  0.00000000000E+00  0.00000000000E+00  0.13287151760E+04  0.13287151760E+04  0.25500000920E-02 0. -1.
       -2   -1    0    0    0  501  0.00000000000E+00  0.00000000000E+00 -0.41558651076E+03  0.41558651077E+03  0.25500000920E-02 0.  1.
    10030    2    1    2    0    0  0.00000000000E+00  0.00000000000E+00  0.91312866524E+03  0.17443016868E+04  0.14861979731E+04 0.  0.
        5    1    3    3  502    0  0.43912104135E+03  0.21508024176E+03 -0.20015167497E+03  0.52836500863E+03  0.46999998093E+01 0.  1.
       -5    1    3    3    0  502 -0.43912104135E+03 -0.21508024176E+03  0.11132803402E+04  0.12159366781E+04  0.46999998093E+01 0. -1.
</event>
<event>
 5   0  0.2588048E-05  0.2065809E+04  0.7818609E-02  0.8576456E-01
       -2   -1    0    0    0  501  0.00000000000E+00  0.00000000000E+00  0.19422415605E+04  0.19422415605E+04  0.25500000920E-02 0.  1.
        2   -1    0    0  501    0  0.00000000000E+00  0.00000000000E+00 -0.54930936150E+03  0.54930936151E+03  0.25500000920E-02 0. -1.
    10030    2    1    2    0    0  0.00000000000E+00  0.00000000000E+00  0.13929321990E+04  0.24915509221E+04  0.20658087729E+04 0.  0.
        2    1    3    3  502    0  0.83136920794E+03  0.95353025680E+02 -0.33815569191E+02  0.83750250874E+03  0.25500000920E-02 0. -1.
       -2    1    3    3    0  502 -0.83136920794E+03 -0.95353025680E+02  0.14267477682E+04  0.16540484133E+04  0.25500000920E-02 0.  1.
</event>
<event>
 5   0  0.8958000E-06  0.2661089E+04  0.7818609E-02  0.8347742E-01
       -3   -1    0    0    0  501  0.00000000000E+00  0.00000000000E+00  0.62796463506E+03  0.62796464318E+03  0.10100000352E+00 0.  1.
        3   -1    0    0  501    0  0.00000000000E+00  0.00000000000E+00 -0.28191845273E+04  0.28191845291E+04  0.10100000352E+00 0. -1.
    10030    2    1    2    0    0  0.00000000000E+00  0.00000000000E+00 -0.21912198922E+04  0.34471491723E+04  0.26610886494E+04 0.  0.
        4    1    3    3  502    0  0.26180186900E+02 -0.10127601284E+04 -0.22129382824E+04  0.24338171530E+04  0.12699999809E+01 0. -1.
       -4    1    3    3    0  502 -0.26180186900E+02  0.10127601284E+04  0.21718390130E+02  0.10133320193E+04  0.12699999809E+01 0.  1.
</event>
<event>
 5   0  0.1017456E-05  0.2777347E+04  0.7818609E-02  0.8310336E-01
        1   -1    0    0  501    0  0.00000000000E+00  0.00000000000E+00  0.13290963438E+04  0.13290963438E+04  0.50400001928E-02 0. -1.
       -1   -1    0    0    0  501  0.00000000000E+00  0.00000000000E+00 -0.14509212107E+04  0.14509212107E+04  0.50400001928E-02 0.  1.
    10030    2    1    2    0    0  0.00000000000E+00  0.00000000000E+00 -0.12182486695E+03  0.27800175545E+04  0.27773469904E+04 0.  0.
        5    1    3    3  502    0  0.12172253979E+04 -0.25584212469E+03  0.55717554951E+03  0.13629231619E+04  0.46999998093E+01 0.  1.
       -5    1    3    3    0  502 -0.12172253979E+04  0.25584212469E+03 -0.67900041647E+03  0.14170943927E+04  0.46999998093E+01 0. -1.
</event>
<event>
 5   0  0.1075146E-05  0.2633568E+04  0.7818609E-02  0.8356888E-01
        1   -1    0    0  501    0  0.00000000000E+00  0.00000000000E+00  0.14940344294E+04  0.14940344294E+04  0.50400001928E-02 0.  1.
       -1   -1    0    0    0  501  0.00000000000E+00  0.00000000000E+00 -0.11605620528E+04  0.11605620529E+04  0.50400001928E-02 0. -1.
    10030    2    1    2    0    0  0.00000000000E+00  0.00000000000E+00  0.33347237656E+03  0.26545964823E+04  0.26335676672E+04 0.  0.
        2    1    3    3  502    0  0.74004732224E+03 -0.43758773144E+03  0.11720800509E+04  0.14535902819E+04  0.25500000920E-02 0.  1.
       -2    1    3    3    0  502 -0.74004732224E+03  0.43758773144E+03 -0.83860767436E+03  0.12010062004E+04  0.25500000920E-02 0. -1.
</event>
<event>
 5   0  0.1078103E-05  0.2834114E+04  0.7818609E-02  0.8292755E-01
       -1   -1    0    0    0  501  0.00000000000E+00  0.00000000000E+00  0.95595466838E+03  0.95595466839E+03  0.50400001928E-02 0.  1.
        1   -1    0    0  501    0  0.00000000000E+00  0.00000000000E+00 -0.21005709618E+04  0.21005709618E+04  0.50400001928E-02 0. -1.
    10030    2    1    2    0    0  0.00000000000E+00  0.00000000000E+00 -0.11446162934E+04  0.30565256302E+04  0.28341140536E+04 0.  0.
        1    1    3    3  502    0  0.39765310635E+03  0.55772575664E+03  0.76555263681E+03  0.10272569554E+04  0.50400001928E-02 0.  1.
       -1    1    3    3    0  502 -0.39765310635E+03 -0.55772575664E+03 -0.19101689302E+04  0.20292686748E+04  0.50400001928E-02 0. -1.
</event>
<event>
 5   0  0.2588048E-05  0.2794672E+04  0.7818609E-02  0.8304924E-01
        2   -1    0    0  501    0  0.00000000000E+00  0.00000000000E+00  0.12591589790E+04  0.12591589790E+04  0.25500000920E-02 0. -1.
       -2   -1    0    0    0  501  0.00000000000E+00  0.00000000000E+00 -0.15506766561E+04  0.15506766561E+04  0.25500000920E-02 0.  1.
    10030    2    1    2    0    0  0.00000000000E+00  0.00000000000E+00 -0.29151767705E+03  0.28098356351E+04  0.27946723851E+04 0.  0.
        2    1    3    3  502    0  0.13133180270E+04  0.28652094919E+03  0.23795297326E+03  0.13651080953E+04  0.25500000920E-02 0. -1.
       -2    1    3    3    0  502 -0.13133180270E+04 -0.28652094919E+03 -0.52947065031E+03  0.14447275397E+04  0.25500000920E-02 0.  1.
</event>
<event>
 5   0  0.1078103E-05  0.2764305E+04  0.7818609E-02  0.8314437E-01
        1   -1    0    0  501    0  0.00000000000E+00  0.00000000000E+00  0.18421096798E+04  0.18421096798E+04  0.50400001928E-02 0.  1.
       -1   -1    0    0    0  501  0.00000000000E+00  0.00000000000E+00 -0.10370423161E+04  0.10370423161E+04  0.50400001928E-02 0. -1.
    10030    2    1    2    0    0  0.00000000000E+00  0.00000000000E+00  0.80506736373E+03  0.28791519959E+04  0.27643051125E+04 0.  0.
        1    1    3    3  502    0  0.14649646696E+03 -0.95729272811E+03 -0.62457845783E+03  0.11523753000E+04  0.50400001928E-02 0. -1.
       -1    1    3    3    0  502 -0.14649646696E+03  0.95729272811E+03  0.14296458216E+04  0.17267766958E+04  0.50400001928E-02 0.  1.
</event>
<event>
 5   0  0.2518686E-05  0.2496524E+04  0.7818609E-02  0.8404225E-01
       -2   -1    0    0    0  501  0.00000000000E+00  0.00000000000E+00  0.12490550292E+04  0.12490550292E+04  0.25500000920E-02 0. -1.
        2   -1    0    0  501    0  0.00000000000E+00  0.00000000000E+00 -0.12474699190E+04  0.12474699190E+04  0.25500000920E-02 0.  1.
    10030    2    1    2    0    0  0.00000000000E+00  0.00000000000E+00  0.15851101154E+01  0.24965249482E+04  0.24965244450E+04 0.  0.
        5    1    3    3  502    0  0.69744194142E+03  0.45254562800E+03 -0.93028962635E+03  0.12476713053E+04  0.46999998093E+01 0.  1.
       -5    1    3    3    0  502 -0.69744194142E+03 -0.45254562800E+03  0.93187473646E+03  0.12488536430E+04  0.46999998093E+01 0. -1.
</event>
<event>
 5   0  0.1105862E-05  0.2760626E+04  0.7818609E-02  0.8315598E-01
       -1   -1    0    0    0  501  0.00000000000E+00  0.00000000000E+00  0.10446187051E+04  0.10446187051E+04  0.50400001928E-02 0.  1.
        1   -1    0    0  501    0  0.00000000000E+00  0.00000000000E+00 -0.18238842766E+04  0.18238842766E+04  0.50400001928E-02 0. -1.
    10030    2    1    2    0    0  0.00000000000E+00  0.00000000000E+00 -0.77926557147E+03  0.28685029817E+04  0.27606257488E+04 0.  0.
        3    1    3    3  502    0 -0.14819546110E+03  0.13704974114E+04 -0.46338948899E+03  0.14542884439E+04  0.10100000352E+00 0. -1.
       -3    1    3    3    0  502  0.14819546110E+03 -0.13704974114E+04 -0.31587608248E+03  0.14142145378E+04  0.10100000352E+00 0.  1.
</event>
<event>
 5   0  0.8958000E-06  0.2741604E+04  0.7818609E-02  0.8321631E-01
        3   -1    0    0  501    0  0.00000000000E+00  0.00000000000E+00  0.21213588743E+04  0.21213588767E+04  0.10100000352E+00 0. -1.
       -3   -1    0    0    0  501  0.00000000000E+00  0.00000000000E+00 -0.88579936054E+03  0.88579936630E+03  0.10100000352E+00 0.  1.
    10030    2    1    2    0    0  0.00000000000E+00  0.00000000000E+00  0.12355595137E+04  0.30071582430E+04  0.27416041630E+04 0.  0.
        2    1    3    3  502    0  0.30515416177E+03  0.73365279904E+03  0.18429948460E+04  0.20069866702E+04  0.25500000920E-02 0. -1.
       -2    1    3    3    0  502 -0.30515416177E+03 -0.73365279904E+03 -0.60743533230E+03  0.10001715727E+04  0.25500000920E-02 0.  1.
</event>
<event>
 5   0  0.1017456E-05  0.2764958E+04  0.7818609E-02  0.8314231E-01
        1   -1    0    0  501    0  0.00000000000E+00  0.00000000000E+00  0.25116189933E+04  0.25116189933E+04  0.50400001928E-02 0.  1.
       -1   -1    0    0    0  501  0.00000000000E+00  0.00000000000E+00 -0.76096264910E+03  0.76096264912E+03  0.50400001928E-02 0. -1.
    10030    2    1    2    0    0  0.00000000000E+00  0.00000000000E+00  0.17506563442E+04  0.32725816424E+04  0.27649580414E+04 0.  0.
        5    1    3    3  502    0  0.10633014238E+04 -0.87841433025E+03  0.76301473173E+03  0.15762091309E+04  0.46999998093E+01 0. -1.
       -5    1    3    3    0  502 -0.10633014238E+04  0.87841433025E+03  0.98764161248E+03  0.16963725116E+04  0.46999998093E+01 0.  1.
</event>
<event>
 5   0  0.2588048E-05  0.2825737E+04  0.7818609E-02  0.8295322E-01
        2   -1    0    0  501    0  0.00000000000E+00  0.00000000000E+00  0.13819523680E+04  0.13819523680E+04  0.25500000920E-02 0. -1.
       -2   -1    0    0    0  501  0.00000000000E+00  0.00000000000E+00 -0.14444761105E+04  0.14444761105E+04  0.25500000920E-02 0.  1.
    10030    2    1    2    0    0  0.00000000000E+00  0.00000000000E+00 -0.62523742437E+02  0.28264284785E+04  0.28257368465E+04 0.  0.
        2    1    3    3  502    0  0.94262607733E+03  0.80059135505E+03  0.65206472258E+03  0.13980982948E+04  0.25500000920E-02 0. -1.
       -2    1    3    3    0  502 -0.94262607733E+03 -0.80059135505E+03 -0.71458846502E+03  0.14283301837E+04  0.25500000920E-02 0.  1.
</event>
<event>
 5   0  0.8958000E-06  0.2698560E+04  0.7818609E-02  0.8335472E-01
       -3   -1    0    0    0  501  0.00000000000E+00  0.00000000000E+00  0.13050893706E+04  0.13050893745E+04  0.10100000352E+00 0. -1.
        3   -1    0    0  501    0  0.00000000000E+00  0.00000000000E+00 -0.13949673472E+04  0.13949673508E+04  0.10100000352E+00 0.  1.
    10030    2    1    2    0    0  0.00000000000E+00  0.00000000000E+00 -0.89877976577E+02  0.27000567254E+04  0.26985604069E+04 0.  0.
        4    1    3    3  502    0 -0.34324462437E+03  0.12743639730E+04 -0.32569223591E+03  0.13593739196E+04  0.12699999809E+01 0. -1.
       -4    1    3    3    0  502  0.34324462437E+03 -0.12743639730E+04  0.23581425933E+03  0.13406828058E+04  0.12699999809E+01 0.  1.
</event>
<event>
 5   0  0.1078103E-05  0.1397689E+04  0.7818609E-02  0.8955493E-01
        1   -1    0    0  501    0  0.00000000000E+00  0.00000000000E+00  0.26090577072E+04  0.26090577072E+04  0.50400001928E-02 0. -1.
       -1   -1    0    0    0  501  0.00000000000E+00  0.00000000000E+00 -0.18718775264E+03  0.18718775271E+03  0.50400001928E-02 0.  1.
    10030    2    1    2    0    0  0.00000000000E+00  0.00000000000E+00  0.24218699545E+04  0.27962454599E+04  0.13976890195E+04 0.  0.
        1    1    3    3  502    0  0.50271721679E+03  0.45675345283E+03  0.88198444549E+03  0.11132137615E+04  0.50400001928E-02 0.  1.
       -1    1    3    3    0  502 -0.50271721679E+03 -0.45675345283E+03  0.15398855090E+04  0.16830316983E+04  0.50400001928E-02 0. -1.
</event>
<event>
 5   0  0.2588048E-05  0.2795458E+04  0.7818609E-02  0.8304680E-01
       -2   -1    0    0    0  501  0.00000000000E+00  0.00000000000E+00  0.12741977237E+04  0.12741977237E+04  0.25500000920E-02 0. -1.
        2   -1    0    0  501    0  0.00000000000E+00  0.00000000000E+00 -0.15332368779E+04  0.15332368779E+04  0.25500000920E-02 0.  1.
    10030    2    1    2    0    0  0.00000000000E+00  0.00000000000E+00 -0.25903915413E+03  0.28074346016E+04  0.27954584166E+04 0.  0.
        2    1    3    3  502    0 -0.45130475287E+03  0.12522844696E+03 -0.14520854774E+04  0.15257491201E+04  0.25500000920E-02 0.  1.
       -2    1    3    3    0  502  0.45130475287E+03 -0.12522844696E+03  0.11930463233E+04  0.12816854815E+04  0.25500000920E-02 0. -1.
</event>
<event>
 5   0  0.1075146E-05  0.1838053E+04  0.7818609E-02  0.8686321E-01
        1   -1    0    0  501    0  0.00000000000E+00  0.00000000000E+00  0.12511246958E+04  0.12511246958E+04  0.50400001928E-02 0.  1.
       -1   -1    0    0    0  501  0.00000000000E+00  0.00000000000E+00 -0.67508050247E+03  0.67508050248E+03  0.50400001928E-02 0. -1.
    10030    2    1    2    0    0  0.00000000000E+00  0.00000000000E+00  0.57604419334E+03  0.19262051983E+04  0.18380531965E+04 0.  0.
        2    1    3    3  502    0  0.67060185214E+03  0.45646772234E+02 -0.36878970424E+03  0.76667875793E+03  0.25500000920E-02 0. -1.
       -2    1    3    3    0  502 -0.67060185214E+03 -0.45646772234E+02  0.94483389757E+03  0.11595264404E+04  0.25500000920E-02 0.  1.
</event>
<event>
 5   0  0.1075146E-05  0.2829381E+04  0.7818609E-02  0.8294204E-01
       -1   -1    0    0    0  501  0.00000000000E+00  0.00000000000E+00  0.11779990567E+04  0.11779990567E+04  0.50400001928E-02 0. -1.
        1   -1    0    0  501    0  0.00000000000E+00  0.00000000000E+00 -0.16989400478E+04  0.16989400478E+04  0.50400001928E-02 0.  1.
    10030    2    1    2    0    0  0.00000000000E+00  0.00000000000E+00 -0.52094099110E+03  0.28769391046E+04  0.28293813980E+04 0.  0.
        2    1    3    3  502    0  0.30897129860E+03  0.10125583121E+04 -0.12146531517E+04  0.16112479256E+04  0.25500000920E-02 0.  1.
       -2    1    3    3    0  502 -0.30897129860E+03 -0.10125583121E+04  0.69371216061E+03  0.12656911790E+04  0.25500000920E-02 0. -1.
</event>
<event>
 5   0  0.1067434E-05  0.2805244E+04  0.7818609E-02  0.8301642E-01
        1   -1    0    0  501    0  0.00000000000E+00  0.00000000000E+00  0.14762433066E+04  0.14762433067E+04  0.50400001928E-02 0.  1.
       -1   -1    0    0    0  501  0.00000000000E+00  0.00000000000E+00 -0.13326719931E+04  0.13326719931E+04  0.50400001928E-02 0. -1.
    10030    2    1    2    0    0  0.00000000000E+00  0.00000000000E+00  0.14357131354E+03  0.28089152998E+04  0.28052437397E+04 0.  0.
        4    1    3    3  502    0  0.99591995920E+03  0.62793787167E+03  0.83513766432E+03  0.14434746507E+04  0.12699999809E+01 0.  1.
       -4    1    3    3    0  502 -0.99591995920E+03 -0.62793787167E+03 -0.69156635079E+03  0.13654406491E+04  0.12699999809E+01 0. -1.
</event>
<event>
 5   0  0.1067434E-05  0.2804981E+04  0.7818609E-02  0.8301724E-01
        1   -1    0    0  501    0  0.00000000000E+00  0.00000000000E+00  0.18032757099E+04  0.18032757099E+04  0.50400001928E-02 0. -1.
       -1   -1    0    0    0  501  0.00000000000E+00  0.00000000000E+00 -0.10907816257E+04  0.10907816257E+04  0.50400001928E-02 0.  1.
    10030    2    1    2    0    0  0.00000000000E+00  0.00000000000E+00  0.71249408414E+03  0.28940573356E+04  0.28049812908E+04 0.  0.
        4    1    3    3  502    0  0.79673310266E+03 -0.98047011169E+03  0.98458000151E+03  0.16017192853E+04  0.12699999809E+01 0. -1.
       -4    1    3    3    0  502 -0.79673310266E+03  0.98047011169E+03 -0.27208591737E+03  0.12923380502E+04  0.12699999809E+01 0.  1.
</event>
<event>
 5   0  0.1017456E-05  0.2795339E+04  0.7818609E-02  0.8304717E-01
       -1   -1    0    0    0  501  0.00000000000E+00  0.00000000000E+00  0.12522772951E+04  0.12522772951E+04  0.50400001928E-02 0.  1.
        1   -1    0    0  501    0  0.00000000000E+00  0.00000000000E+00 -0.15599422239E+04  0.15599422239E+04  0.50400001928E-02 0. -1.
    10030    2    1    2    0    0  0.00000000000E+00  0.00000000000E+00 -0.30766492882E+03  0.28122195190E+04  0.27953391413E+04 0.  0.
        5    1    3    3  502    0  0.11213677303E+04  0.76085167472E+03 -0.49809369619E+03  0.14437729315E+04  0.46999998093E+01 0. -1.
       -5    1    3    3    0  502 -0.11213677303E+04 -0.76085167472E+03  0.19042876737E+03  0.13684465875E+04  0.46999998093E+01 0.  1.
</event>
<event>
 5   0  0.1105862E-05  0.1686524E+04  0.7818609E-02  0.8769088E-01
       -1   -1    0    0    0  501  0.00000000000E+00  0.00000000000E+00  0.57242066068E+03  0.57242066071E+03  0.50400001928E-02 0.  1.
        1   -1    0    0  501    0  0.00000000000E+00  0.00000000000E+00 -0.12422515603E+04  0.12422515603E+04  0.50400001928E-02 0. -1.
    10030    2    1    2    0    0  0.00000000000E+00  0.00000000000E+00 -0.66983089962E+03  0.18146722210E+04  0.16865235948E+04 0.  0.
        3    1    3    3  502    0  0.82224763296E+02  0.12338109073E+03  0.55828511310E+03  0.57763836694E+03  0.10100000352E+00 0.  1.
       -3    1    3    3    0  502 -0.82224763296E+02 -0.12338109073E+03 -0.12281160127E+04  0.12370338541E+04  0.10100000352E+00 0. -1.
</event>
<event>
 5   0  0.2518686E-05  0.2819135E+04  0.7818609E-02  0.8297352E-01
        2   -1    0    0  501    0  0.00000000000E+00  0.00000000000E+00  0.14031047592E+04  0.14031047592E+04  0.25500000920E-02 0. -1.
       -2   -1    0    0    0  501  0.00000000000E+00  0.00000000000E+00 -0.14160596493E+04  0.14160596493E+04  0.25500000920E-02 0.  1.
    10030    2    1    2    0    0  0.00000000000E+00  0.00000000000E+00 -0.12954890189E+02  0.28191644085E+04  0.28191346426E+04 0.  0.
        5    1    3    3  502    0 -0.52149253277E+03  0.53876690260E+03  0.11871153625E+04  0.14040972940E+04  0.46999998093E+01 0. -1.
       -5    1    3    3    0  502  0.52149253277E+03 -0.53876690260E+03 -0.12000702527E+04  0.14150671145E+04  0.46999998093E+01 0.  1.
</event>
<event>
 5   0  0.1017456E-05  0.2828232E+04  0.7818609E-02  0.8294557E-01
       -1   -1    0    0    0  501  0.00000000000E+00  0.00000000000E+00  0.22832029944E+04  0.22832029944E+04  0.50400001928E-02 0.  1.
        1   -1    0    0  501    0  0.00000000000E+00  0.00000000000E+00 -0.87584173562E+03  0.87584173564E+03  0.50400001928E-02 0. -1.
    10030    2    1    2    0    0  0.00000000000E+00  0.00000000000E+00  0.14073612588E+04  0.31590447301E+04  0.28282322913E+04 0.  0.
        5    1    3    3  502    0  0.65716209020E+03 -0.11263042310E+04  0.92627560639E+02  0.13072969015E+04  0.46999998093E+01 0.  1.
       -5    1    3    3    0  502 -0.65716209020E+03  0.11263042310E+04  0.13147336982E+04  0.18517478286E+04  0.46999998093E+01 0. -1.
</event>
<event>
 5   0  0.2697964E-05  0.2781020E+04  0.7818609E-02  0.8309185E-01
       -2   -1    0    0    0  501  0.00000000000E+00  0.00000000000E+00  0.77404559555E+03  0.77404559555E+03  0.25500000920E-02 0. -1.
        2   -1    0    0  501    0  0.00000000000E+00  0.00000000000E+00 -0.24979385401E+04  0.24979385401E+04  0.25500000920E-02 0.  1.
    10030    2    1    2    0    0  0.00000000000E+00  0.00000000000E+00 -0.17238929446E+04  0.32719841357E+04  0.27810201905E+04 0.  0.
        1    1    3    3  502    0 -0.77671554295E+03  0.42298272544E+03 -0.21243682797E+04  0.23011175564E+04  0.50400001928E-02 0.  1.
       -1    1    3    3    0  502  0.77671554295E+03 -0.42298272544E+03  0.40047533511E+03  0.97086657927E+03  0.50400001928E-02 0. -1.
</event>
<event>
 5   0  0.1105862E-05  0.1837002E+04  0.7818609E-02  0.8686866E-01
        1   -1    0    0  501    0  0.00000000000E+00  0.00000000000E+00  0.87150322581E+03  0.87150322583E+03  0.50400001928E-02 0. -1.
       -1   -1    0    0    0  501  0.00000000000E+00  0.00000000000E+00 -0.96803283388E+03  0.96803283389E+03  0.50400001928E-02 0.  1.
    10030    2    1    2    0    0  0.00000000000E+00  0.00000000000E+00 -0.96529608063E+02  0.18395360597E+04  0.18370016194E+04 0.  0.
        3    1    3    3  502    0  0.68264782502E+02  0.73114889572E+03 -0.60075504824E+03  0.94875994141E+03  0.10100000352E+00 0.  1.
       -3    1    3    3    0  502 -0.68264782502E+02 -0.73114889572E+03  0.50422544017E+03  0.89077611831E+03  0.10100000352E+00 0. -1.
</event>
<event>
 5   0  0.1075146E-05  0.2735145E+04  0.7818609E-02  0.8323691E-01
        1   -1    0    0  501    0  0.00000000000E+00  0.00000000000E+00  0.20320013668E+04  0.20320013668E+04  0.50400001928E-02 0. -1.
       -1   -1    0    0    0  501  0.00000000000E+00  0.00000000000E+00 -0.92039993282E+03  0.92039993283E+03  0.50400001928E-02 0.  1.
    10030    2    1    2    0    0  0.00000000000E+00  0.00000000000E+00  0.11116014339E+04  0.29524012996E+04  0.27351445457E+04 0.  0.
        2    1    3    3  502    0 -0.29090168000E+03 -0.67101540624E+03  0.18031717721E+04  0.19458452925E+04  0.25500000920E-02 0. -1.
       -2    1    3    3    0  502  0.29090168000E+03  0.67101540624E+03 -0.69157033811E+03  0.10065560071E+04  0.25500000920E-02 0.  1.
</event>
<event>
 5   0  0.2697964E-05  0.2654515E+04  0.7818609E-02  0.8349916E-01
        2   -1    0    0  501    0  0.00000000000E+00  0.00000000000E+00  0.13241060851E+04  0.13241060851E+04  0.25500000920E-02 0.  1.
       -2   -1    0    0    0  501  0.00000000000E+00  0.00000000000E+00 -0.13304168743E+04  0.13304168743E+04  0.25500000920E-02 0. -1.
    10030    2    1    2    0    0  0.00000000000E+00  0.00000000000E+00 -0.63107891636E+01  0.26545229594E+04  0.26545154578E+04 0.  0.
        1    1    3    3  502    0  0.55208301843E+03  0.43362446616E+03  0.11232523527E+04  0.13245835892E+04  0.50400001928E-02 0.  1.
       -1    1    3    3    0  502 -0.55208301843E+03 -0.43362446616E+03 -0.11295631419E+04  0.13299393702E+04  0.50400001928E-02 0. -1.
</event>
<event>
 5   0  0.2651061E-05  0.2758504E+04  0.7818609E-02  0.8316268E-01
        2   -1    0    0  501    0  0.00000000000E+00  0.00000000000E+00  0.97848880339E+03  0.97848880339E+03  0.25500000920E-02 0.  1.
       -2   -1    0    0    0  501  0.00000000000E+00  0.00000000000E+00 -0.19441577859E+04  0.19441577859E+04  0.25500000920E-02 0. -1.
    10030    2    1    2    0    0  0.00000000000E+00  0.00000000000E+00 -0.96566898255E+03  0.29226465893E+04  0.27585043959E+04 0.  0.
        3    1    3    3  502    0 -0.11284448509E+04  0.70254737632E+03 -0.93006078100E+02  0.13325204457E+04  0.10100000352E+00 0.  1.
       -3    1    3    3    0  502  0.11284448509E+04 -0.70254737632E+03 -0.87266290445E+03  0.15901261436E+04  0.10100000352E+00 0. -1.
</event>
<event>
 5   0  0.2697964E-05  0.2773591E+04  0.7818609E-02  0.8311515E-01
        2   -1    0    0  501    0  0.00000000000E+00  0.00000000000E+00  0.16508764531E+04  0.16508764531E+04  0.25500000920E-02 0. -1.
       -2   -1    0    0    0  501  0.00000000000E+00  0.00000000000E+00 -0.11649576412E+04  0.11649576412E+04  0.25500000920E-02 0.  1.
    10030    2    1    2    0    0  0.00000000000E+00  0.00000000000E+00  0.48591881181E+03  0.28158340943E+04  0.27735905529E+04 0.  0.
        1    1    3    3  502    0 -0.13404683397E+04 -0.28292592135E+03  0.46140790952E+03  0.14456139546E+04  0.50400001928E-02 0. -1.
       -1    1    3    3    0  502  0.13404683397E+04  0.28292592135E+03  0.24510902294E+02  0.13702201397E+04  0.50400001928E-02 0.  1.
</event>
<event>
 5   0  0.2651061E-05  0.2768276E+04  0.7818609E-02  0.8313185E-01
        2   -1    0    0  501    0  0.00000000000E+00  0.00000000000E+00  0.20295598010E+04  0.20295598010E+04  0.25500000920E-02 0.  1.
       -2   -1    0    0    0  501  0.00000000000E+00  0.00000000000E+00 -0.94396747277E+03  0.94396747277E+03  0.25500000920E-02 0. -1.
    10030    2    1    2    0    0  0.00000000000E+00  0.00000000000E+00  0.10855923283E+04  0.29735272738E+04  0.27682763130E+04 0.  0.
        3    1    3    3  502    0  0.86141136497E+03  0.23999800453E+03 -0.59204587075E+03  0.10724490222E+04  0.10100000352E+00 0. -1.
       -3    1    3    3    0  502 -0.86141136497E+03 -0.23999800453E+03  0.16776381990E+04  0.19010782516E+04  0.10100000352E+00 0.  1.
</event>
<event>
 5   0  0.2588048E-05  0.2872651E+04  0.7818609E-02  0.8281061E-01
       -2   -1    0    0    0  501  0.00000000000E+00  0.00000000000E+00  0.74485624145E+03  0.74485624145E+03  0.25500000920E-02 0.  1.
        2   -1    0    0  501    0  0.00000000000E+00  0.00000000000E+00 -0.27697042481E+04  0.27697042481E+04  0.25500000920E-02 0. -1.
    10030    2    1    2    0    0  0.00000000000E+00  0.00000000000E+00 -0.20248480066E+04  0.35145604895E+04  0.28726513858E+04 0.  0.
        2    1    3    3  502    0  0.35927600616E+01 -0.92848271931E+03  0.32832804296E+03  0.98483113872E+03  0.25500000920E-02 0.  1.
       -2    1    3    3    0  502 -0.35927600616E+01  0.92848271931E+03 -0.23531760496E+04  0.25297293508E+04  0.25500000920E-02 0. -1.
</event>
<event>
 5   0  0.2697964E-05  0.2759924E+04  0.7818609E-02  0.8315820E-01
        2   -1    0    0  501    0  0.00000000000E+00  0.00000000000E+00  0.10485110420E+04  0.10485110420E+04  0.25500000920E-02 0. -1.
       -2   -1    0    0    0  501  0.00000000000E+00  0.00000000000E+00 -0.18161895752E+04  0.18161895752E+04  0.25500000920E-02 0.  1.
    10030    2    1    2    0    0  0.00000000000E+00  0.00000000000E+00 -0.76767853323E+03  0.28647006173E+04  0.27599237845E+04 0.  0.
        1    1    3    3  502    0  0.12036811123E+04 -0.18515882800E+03 -0.10574471497E+04  0.16128628231E+04  0.50400001928E-02 0.  1.
       -1    1    3    3    0  502 -0.12036811123E+04  0.18515882800E+03  0.28976861649E+03  0.12518377941E+04  0.50400001928E-02 0. -1.
</event>
<event>
 5   0  0.1017456E-05  0.2647222E+04  0.7818609E-02  0.8352336E-01
        1   -1    0    0  501    0  0.00000000000E+00  0.00000000000E+00  0.16405705990E+04  0.16405705990E+04  0.50400001928E-02 0. -1.
       -1   -1    0    0    0  501  0.00000000000E+00  0.00000000000E+00 -0.10678882815E+04  0.10678882815E+04  0.50400001928E-02 0.  1.
    10030    2    1    2    0    0  0.00000000000E+00  0.00000000000E+00  0.57268231752E+03  0.27084588805E+04  0.26472220290E+04 0.  0.
        5    1    3    3  502    0 -0.43033699124E+03  0.74144573551E+03 -0.74544741872E+03  0.11360658646E+04  0.46999998093E+01 0.  1.
       -5    1    3    3    0  502  0.43033699124E+03 -0.74144573551E+03  0.13181297362E+04  0.15723930159E+04  0.46999998093E+01 0. -1.
</event>
<event>
 5   0  0.1017456E-05  0.2500865E+04  0.7818609E-02  0.8402678E-01
       -1   -1    0    0    0  501  0.00000000000E+00  0.00000000000E+00  0.10903605644E+04  0.10903605644E+04  0.50400001928E-02 0.  1.
        1   -1    0    0  501    0  0.00000000000E+00  0.00000000000E+00 -0.14340036807E+04  0.14340036807E+04  0.50400001928E-02 0. -1.
    10030    2    1    2    0    0  0.00000000000E+00  0.00000000000E+00 -0.34364311626E+03  0.25243642451E+04  0.25008647006E+04 0.  0.
        5    1    3    3  502    0  0.38757746488E+01  0.28279963613E+03 -0.14012849409E+04  0.14295496603E+04  0.46999998093E+01 0. -1.
       -5    1    3    3    0  502 -0.38757746488E+01 -0.28279963613E+03  0.10576418246E+04  0.10948145848E+04  0.46999998093E+01 0.  1.
</event>
<event>
 5   0  0.2588048E-05  0.1631991E+04  0.7818609E-02  0.8801132E-01
        2   -1    0    0  501    0  0.00000000000E+00  0.00000000000E+00  0.60748077829E+03  0.60748077829E+03  0.25500000920E-02 0. -1.
       -2   -1    0    0    0  501  0.00000000000E+00  0.00000000000E+00 -0.10960817757E+04  0.10960817757E+04  0.25500000920E-02 0.  1.
    10030    2    1    2    0    0  0.00000000000E+00  0.00000000000E+00 -0.48860099745E+03  0.17035625540E+04  0.16319909438E+04 0.  0.
        2    1    3    3  502    0  0.75206177402E+02 -0.42207710527E+02  0.60271026506E+03  0.60884901541E+03  0.25500000920E-02 0. -1.
       -2    1    3    3    0  502 -0.75206177402E+02  0.42207710527E+02 -0.10913112625E+04  0.10947135386E+04  0.25500000920E-02 0.  1.
</event>
<event>
 5   0  0.1105862E-05  0.2398833E+04  0.7818609E-02  0.8439941E-01
        1   -1    0    0  501    0  0.00000000000E+00  0.00000000000E+00  0.24659477308E+04  0.24659477308E+04  0.50400001928E-02 0. -1.
       -1   -1    0    0    0  501  0.00000000000E+00  0.00000000000E+00 -0.58338633483E+03  0.58338633485E+03  0.50400001928E-02 0.  1.
    10030    2    1    2    0    0  0.00000000000E+00  0.00000000000E+00  0.18825613960E+04  0.30493340657E+04  0.23988332236E+04 0.  0.
        3    1    3    3  502    0 -0.45941964625E+02 -0.10245896964E+04  0.15079299504E+03  0.10366451889E+04  0.10100000352E+00 0.  1.
       -3    1    3    3    0  502  0.45941964625E+02  0.10245896964E+04  0.17317684009E+04  0.20126888768E+04  0.10100000352E+00 0. -1.
</event>
<event>
 5   0  0.1017456E-05  0.2778670E+04  0.7818609E-02  0.8309921E-01
       -1   -1    0    0    0  501  0.00000000000E+00  0.00000000000E+00  0.90011590095E+03  0.90011590097E+03  0.50400001928E-02 0. -1.
        1   -1    0    0  501    0  0.00000000000E+00  0.00000000000E+00 -0.21444476283E+04  0.21444476283E+04  0.50400001928E-02 0.  1.
    10030    2    1    2    0    0  0.00000000000E+00  0.00000000000E+00 -0.12443317274E+04  0.30445635293E+04  0.27786697602E+04 0.  0.
        5    1    3    3  502    0  0.79619148011E+03 -0.85334867903E+00 -0.18696704740E+04  0.20321445255E+04  0.46999998093E+01 0.  1.
       -5    1    3    3    0  502 -0.79619148011E+03  0.85334867903E+00  0.62533874663E+03  0.10124190038E+04  0.46999998093E+01 0. -1.
</event>
<event>
 5   0  0.2518686E-05  0.2391776E+04  0.7818609E-02  0.8442589E-01
       -2   -1    0    0    0  501  0.00000000000E+00  0.00000000000E+00  0.10804360863E+04  0.10804360863E+04  0.25500000920E-02 0.  1.
        2   -1    0    0  501    0  0.00000000000E+00  0.00000000000E+00 -0.13236765392E+04  0.13236765392E+04  0.25500000920E-02 0. -1.
    10030    2    1    2    0    0  0.00000000000E+00  0.00000000000E+00 -0.24324045290E+03  0.24041126256E+04  0.23917758253E+04 0.  0.
        5    1    3    3  502    0  0.99507280869E+03 -0.55963988210E+03  0.23624865888E+03  0.11658482796E+04  0.46999998093E+01 0.  1.
       -5    1    3    3    0  502 -0.99507280869E+03  0.55963988210E+03 -0.47948911177E+03  0.12382643460E+04  0.46999998093E+01 0. -1.
</event>
<event>
 5   0  0.2651061E-05  0.2800006E+04  0.7818609E-02  0.8303267E-01
       -2   -1    0    0    0  501  0.00000000000E+00  0.00000000000E+00  0.14599380875E+04  0.14599380875E+04  0.25500000920E-02 0. -1.
        2   -1    0    0  501    0  0.00000000000E+00  0.00000000000E+00 -0.13425279804E+04  0.13425279804E+04  0.25500000920E-02 0.  1.
    10030    2    1    2    0    0  0.00000000000E+00  0.00000000000E+00  0.11741010708E+03  0.28024660679E+04  0.28000055229E+04 0.  0.
        3    1    3    3  502    0 -0.27371006173E+03  0.13504036168E+04 -0.18950601045E+03  0.13908341613E+04  0.10100000352E+00 0. -1.
       -3    1    3    3    0  502  0.27371006173E+03 -0.13504036168E+04  0.30691611753E+03  0.14116319065E+04  0.10100000352E+00 0.  1.
</event>
<event>
 5   0  0.1017456E-05  0.2768426E+04  0.7818609E-02  0.8313138E-01
        1   -1    0    0  501    0  0.00000000000E+00  0.00000000000E+00  0.19028759948E+04  0.19028759948E+04  0.50400001928E-02 0. -1.
       -1   -1    0    0    0  501  0.00000000000E+00  0.00000000000E+00 -0.10069208515E+04  0.10069208515E+04  0.50400001928E-02 0.  1.
    10030    2    1    2    0    0  0.00000000000E+00  0.00000000000E+00  0.89595514328E+03  0.29097968464E+04  0.27684259189E+04 0.  0.
        5    1    3    3  502    0  0.10321210411E+04 -0.69574643552E+03 -0.18849136390E+03  0.12589233615E+04  0.46999998093E+01 0.  1.
       -5    1    3    3    0  502 -0.10321210411E+04  0.69574643552E+03  0.10844465072E+04  0.16508734848E+04  0.46999998093E+01 0. -1.
</event>
<event>
 5   0  0.2588048E-05  0.2757072E+04  0.7818609E-02  0.8316721E-01
       -2   -1    0    0    0  501  0.00000000000E+00  0.00000000000E+00  0.10229386214E+04  0.10229386214E+04  0.25500000920E-02 0.  1.
        2   -1    0    0  501    0  0.00000000000E+00  0.00000000000E+00 -0.18577479434E+04  0.18577479434E+04  0.25500000920E-02 0. -1.
    10030    2    1    2    0    0  0.00000000000E+00  0.00000000000E+00 -0.83480932198E+03  0.28806865648E+04  0.27570724475E+04 0.  0.
        2    1    3    3  502    0  0.13429648876E+04 -0.14358083397E+03 -0.12899988753E+03  0.13567649451E+04  0.25500000920E-02 0. -1.
       -2    1    3    3    0  502 -0.13429648876E+04  0.14358083397E+03 -0.70580943445E+03  0.15239216197E+04  0.25500000920E-02 0.  1.
</event>
<event>
 5   0  0.1078103E-05  0.2811689E+04  0.7818609E-02  0.8299649E-01
        1   -1    0    0  501    0  0.00000000000E+00  0.00000000000E+00  0.16910496856E+04  0.16910496856E+04  0.50400001928E-02 0. -1.
       -1   -1    0    0    0  501  0.00000000000E+00  0.00000000000E+00 -0.11687407072E+04  0.11687407072E+04  0.50400001928E-02 0.  1.
    10030    2    1    2    0    0  0.00000000000E+00  0.00000000000E+00  0.52230897834E+03  0.28597903928E+04  0.28116888914E+04 0.  0.
        1    1    3    3  502    0  0.39486917036E+03  0.25765451410E+03 -0.10859243367E+04  0.11838661983E+04  0.50400001928E-02 0.  1.
       -1    1    3    3    0  502 -0.39486917036E+03 -0.25765451410E+03  0.16082333150E+04  0.16759241946E+04  0.50400001928E-02 0. -1.
</event>
<event>
 5   0  0.8958000E-06  0.2801358E+04  0.7818609E-02  0.8302847E-01
       -3   -1    0    0    0  501  0.00000000000E+00  0.00000000000E+00  0.76930490889E+03  0.76930491552E+03  0.10100000352E+00 0.  1.
        3   -1    0    0  501    0  0.00000000000E+00  0.00000000000E+00 -0.25502272294E+04  0.25502272314E+04  0.10100000352E+00 0. -1.
    10030    2    1    2    0    0  0.00000000000E+00  0.00000000000E+00 -0.17809223205E+04  0.33195321470E+04  0.28013584853E+04 0.  0.
        5    1    3    3  502    0  0.23352816396E+02  0.13584266531E+04 -0.48685340120E+03  0.14432313225E+04  0.46999998093E+01 0.  1.
       -5    1    3    3    0  502 -0.23352816396E+02 -0.13584266531E+04 -0.12940689193E+04  0.18763008245E+04  0.46999998093E+01 0. -1.
</event>
<event>
 5   0  0.2697964E-05  0.2750315E+04  0.7818609E-02  0.8318862E-01
        2   -1    0    0  501    0  0.00000000000E+00  0.00000000000E+00  0.13048969759E+04  0.13048969759E+04  0.25500000920E-02 0. -1.
       -2   -1    0    0    0  501  0.00000000000E+00  0.00000000000E+00 -0.14492011663E+04  0.14492011663E+04  0.25500000920E-02 0.  1.
    10030    2    1    2    0    0  0.00000000000E+00  0.00000000000E+00 -0.14430419031E+03  0.27540981422E+04  0.27503150506E+04 0.  0.
        1    1    3    3  502    0 -0.35878851835E+03 -0.16863071226E+02  0.12570940884E+04  0.13074016641E+04  0.50400001928E-02 0. -1.
       -1    1    3    3    0  502  0.35878851835E+03  0.16863071226E+02 -0.14013982787E+04  0.14466964781E+04  0.50400001928E-02 0.  1.
</event>
<event>
 5   0  0.1075146E-05  0.2505154E+04  0.7818609E-02  0.8401152E-01
       -1   -1    0    0    0  501  0.00000000000E+00  0.00000000000E+00  0.15785470851E+04  0.15785470851E+04  0.50400001928E-02 0. -1.
        1   -1    0    0  501    0  0.00000000000E+00  0.00000000000E+00 -0.99391993041E+03  0.99391993042E+03  0.50400001928E-02 0.  1.
    10030    2    1    2    0    0  0.00000000000E+00  0.00000000000E+00  0.58462715467E+03  0.25724670155E+04  0.25051542140E+04 0.  0.
        2    1    3    3  502    0  0.33893256371E+03  0.12007342831E+04  0.40625127542E+03  0.13121273567E+04  0.25500000920E-02 0.  1.
       -2    1    3    3    0  502 -0.33893256371E+03 -0.12007342831E+04  0.17837587925E+03  0.12603396588E+04  0.25500000920E-02 0. -1.
</event>
<event>
 5   0  0.1105862E-05  0.2893016E+04  0.7818609E-02  0.8274958E-01
        1   -1    0    0  501    0  0.00000000000E+00  0.00000000000E+00  0.19492338640E+04  0.19492338640E+04  0.50400001928E-02 0.  1.
       -1   -1    0    0    0  501  0.00000000000E+00  0.00000000000E+00 -0.10734397772E+04  0.10734397772E+04  0.50400001928E-02 0. -1.
    10030    2    1    2    0    0  0.00000000000E+00  0.00000000000E+00  0.87579408673E+03  0.30226736412E+04  0.28930158415E+04 0.  0.
        3    1    3    3  502    0 -0.84504122587E+03 -0.61431724755E+02 -0.78704473047E+03  0.11564203164E+04  0.10100000352E+00 0. -1.
       -3    1    3    3    0  502  0.84504122587E+03  0.61431724755E+02  0.16628388172E+04  0.18662533248E+04  0.10100000352E+00 0.  1.
</event>
<event>
 5   0  0.1017456E-05  0.1839472E+04  0.7818609E-02  0.8685586E-01
        1   -1    0    0  501    0  0.00000000000E+00  0.00000000000E+00  0.22503687048E+04  0.22503687048E+04  0.50400001928E-02 0.  1.
       -1   -1    0    0    0  501  0.00000000000E+00  0.00000000000E+00 -0.37590032496E+03  0.37590032499E+03  0.50400001928E-02 0. -1.
    10030    2    1    2    0    0  0.00000000000E+00  0.00000000000E+00  0.18744683798E+04  0.26262690298E+04  0.18394720193E+04 0.  0.
        5    1    3    3  502    0  0.20273675475E+03 -0.49640955279E+03  0.20040909951E+04  0.20745909097E+04  0.46999998093E+01 0.  1.
       -5    1    3    3    0  502 -0.20273675475E+03  0.49640955279E+03 -0.12962261527E+03  0.55167812012E+03  0.46999998093E+01 0. -1.
</event>
<event>
 5   0  0.1075146E-05  0.2758662E+04  0.7818609E-02  0.8316218E-01
       -1   -1    0    0    0  501  0.00000000000E+00  0.00000000000E+00  0.74187011747E+03  0.74187011748E+03  0.50400001928E-02 0. -1.
        1   -1    0    0  501    0  0.00000000000E+00  0.00000000000E+00 -0.25645378147E+04  0.25645378147E+04  0.50400001928E-02 0.  1.
    10030    2    1    2    0    0  0.00000000000E+00  0.00000000000E+00 -0.18226676972E+04  0.33064079321E+04  0.27586619727E+04 0.  0.
        2    1    3    3  502    0 -0.66790291694E+03  0.12034724849E+04 -0.80337310823E+03  0.15936902708E+04  0.25500000920E-02 0. -1.
       -2    1    3    3    0  502  0.66790291694E+03 -0.12034724849E+04 -0.10192945890E+04  0.17127176613E+04  0.25500000920E-02 0.  1.
</event>
<event>
 5   0  0.2624815E-05  0.2785511E+04  0.7818609E-02  0.8307781E-01
       -2   -1    0    0    0  501  0.00000000000E+00  0.00000000000E+00  0.64450381598E+03  0.64450381599E+03  0.25500000920E-02 0. -1.
        2   -1    0    0  501    0  0.00000000000E+00  0.00000000000E+00 -0.30097082703E+04  0.30097082703E+04  0.25500000920E-02 0.  1.
    10030    2    1    2    0    0  0.00000000000E+00  0.00000000000E+00 -0.23652044543E+04  0.36542120863E+04  0.27855114182E+04 0.  0.
        4    1    3    3  502    0 -0.65894941519E+03 -0.11901003301E+04 -0.15744385057E+04  0.20807237559E+04  0.12699999809E+01 0. -1.
       -4    1    3    3    0  502  0.65894941519E+03  0.11901003301E+04 -0.79076594864E+03  0.15734883304E+04  0.12699999809E+01 0.  1.
</event>
<event>
 5   0  0.1067434E-05  0.2760713E+04  0.7818609E-02  0.8315570E-01
       -1   -1    0    0    0  501  0.00000000000E+00  0.00000000000E+00  0.16097553557E+04  0.16097553557E+04  0.50400001928E-02 0.  1.
        1   -1    0    0  501    0  0.00000000000E+00  0.00000000000E+00 -0.11836483517E+04  0.11836483517E+04  0.50400001928E-02 0. -1.
    10030    2    1    2    0    0  0.00000000000E+00  0.00000000000E+00  0.42610700396E+03  0.27934037074E+04  0.27607131495E+04 0.  0.
        4    1    3    3  502    0 -0.92689191969E+03 -0.42608988628E+03 -0.72785092544E+03  0.12531758873E+04  0.12699999809E+01 0. -1.
       -4    1    3    3    0  502  0.92689191969E+03  0.42608988628E+03  0.11539579294E+04  0.15402278201E+04  0.12699999809E+01 0.  1.
</event>
<event>
 5   0  0.1017456E-05  0.2823359E+04  0.7818609E-02  0.8296053E-01
       -1   -1    0    0    0  501  0.00000000000E+00  0.00000000000E+00  0.95510281087E+03  0.95510281088E+03  0.50400001928E-02 0. -1.
        1   -1    0    0  501    0  0.00000000000E+00  0.00000000000E+00 -0.20865185097E+04  0.20865185097E+04  0.50400001928E-02 0.  1.
    10030    2    1    2    0    0  0.00000000000E+00  0.00000000000E+00 -0.11314156989E+04  0.30416213206E+04  0.28233594837E+04 0.  0.
        5    1    3    3  502    0  0.11373919058E+04 -0.41564897610E+03  0.21590932683E+03  0.12300663991E+04  0.46999998093E+01 0. -1.
       -5    1    3    3    0  502 -0.11373919058E+04  0.41564897610E+03 -0.13473250257E+04  0.18115549215E+04  0.46999998093E+01 0.  1.
</event>
<event>
 5   0  0.8958000E-06  0.1456617E+04  0.7818609E-02  0.8913826E-01
       -4   -1    0    0    0  501  0.00000000000E+00  0.00000000000E+00  0.89623676671E+03  0.89623766653E+03  0.12699999809E+01 0.  1.
        4   -1    0    0  501    0  0.00000000000E+00  0.00000000000E+00 -0.59184344125E+03  0.59184480386E+03  0.12699999809E+01 0. -1.
    10030    2    1    2    0    0  0.00000000000E+00  0.00000000000E+00  0.30439332546E+03  0.14880824704E+04  0.14566173630E+04 0.  0.
        1    1    3    3  502    0  0.57956866641E+03 -0.44094854379E+03  0.16231403222E+03  0.74611078430E+03  0.50400001928E-02 0.  1.
       -1    1    3    3    0  502 -0.57956866641E+03  0.44094854379E+03  0.14207929324E+03  0.74197168609E+03  0.50400001928E-02 0. -1.
</event>
<event>
 5   0  0.2697964E-05  0.2993200E+04  0.7818609E-02  0.8245675E-01
       -2   -1    0    0    0  501  0.00000000000E+00  0.00000000000E+00  0.95749177241E+03  0.95749177241E+03  0.25500000920E-02 0.  1.
        2   -1    0    0  501    0  0.00000000000E+00  0.00000000000E+00 -0.23392493478E+04  0.23392493478E+04  0.25500000920E-02 0. -1.
    10030    2    1    2    0    0  0.00000000000E+00  0.00000000000E+00 -0.13817575754E+04  0.32967411202E+04  0.29932002967E+04 0.  0.
        1    1    3    3  502    0 -0.75919684790E+03 -0.12868404417E+04 -0.78609712912E+03  0.16882792638E+04  0.50400001928E-02 0. -1.
       -1    1    3    3    0  502  0.75919684790E+03  0.12868404417E+04 -0.59566044624E+03  0.16084618564E+04  0.50400001928E-02 0.  1.
</event>
<event>
 5   0  0.2651061E-05  0.2036654E+04  0.7818609E-02  0.8589673E-01
        2   -1    0    0  501    0  0.00000000000E+00  0.00000000000E+00  0.13335482562E+04  0.13335482562E+04  0.25500000920E-02 0. -1.
       -2   -1    0    0    0  501  0.00000000000E+00  0.00000000000E+00 -0.77761697141E+03  0.77761697141E+03  0.25500000920E-02 0.  1.
    10030    2    1    2    0    0  0.00000000000E+00  0.00000000000E+00  0.55593128476E+03  0.21111652276E+04  0.20366538795E+04 0.  0.
        3    1    3    3  502    0  0.62078470495E+03  0.46831225070E+03  0.95951525995E+03  0.12350544759E+04  0.10100000352E+00 0. -1.
       -3    1    3    3    0  502 -0.62078470495E+03 -0.46831225070E+03 -0.40358397519E+03  0.87611075172E+03  0.10100000352E+00 0.  1.
</event>
<event>
 5   0  0.2651061E-05  0.2767272E+04  0.7818609E-02  0.8313502E-01
       -2   -1    0    0    0  501  0.00000000000E+00  0.00000000000E+00  0.11682319159E+04  0.11682319159E+04  0.25500000920E-02 0. -1.
        2   -1    0    0  501    0  0.00000000000E+00  0.00000000000E+00 -0.16387575948E+04  0.16387575948E+04  0.25500000920E-02 0.  1.
    10030    2    1    2    0    0  0.00000000000E+00  0.00000000000E+00 -0.47052567891E+03  0.28069895107E+04  0.27672722488E+04 0.  0.
        3    1    3    3  502    0  0.89041184819E+02 -0.95418056310E+03 -0.12476151059E+04  0.15731917691E+04  0.10100000352E+00 0.  1.
       -3    1    3    3    0  502 -0.89041184819E+02  0.95418056310E+03  0.77708942700E+03  0.12337977417E+04  0.10100000352E+00 0. -1.
</event>
<event>
 5   0  0.1067434E-05  0.1894334E+04  0.7818609E-02  0.8657682E-01
        1   -1    0    0  501    0  0.00000000000E+00  0.00000000000E+00  0.26459162067E+04  0.26459162067E+04  0.50400001928E-02 0. -1.
       -1   -1    0    0    0  501  0.00000000000E+00  0.00000000000E+00 -0.33906020330E+03  0.33906020334E+03  0.50400001928E-02 0.  1.
    10030    2    1    2    0    0  0.00000000000E+00  0.00000000000E+00  0.23068560034E+04  0.29849764100E+04  0.18943335366E+04 0.  0.
        4    1    3    3  502    0  0.29602676921E+02  0.44078223972E+02 -0.33671194777E+03  0.34087498732E+03  0.12699999809E+01 0.  1.
       -4    1    3    3    0  502 -0.29602676921E+02 -0.44078223972E+02  0.26435679511E+04  0.26441014227E+04  0.12699999809E+01 0. -1.
</event>
<event>
 5   0  0.2697964E-05  0.2919356E+04  0.7818609E-02  0.8267142E-01
        2   -1    0    0  501    0  0.00000000000E+00  0.00000000000E+00  0.16737119822E+04  0.16737119822E+04  0.25500000920E-02 0. -1.
       -2   -1    0    0    0  501  0.00000000000E+00  0.00000000000E+00 -0.12730149947E+04  0.12730149947E+04  0.25500000920E-02 0.  1.
    10030    2    1    2    0    0  0.00000000000E+00  0.00000000000E+00  0.40069698748E+03  0.29467269769E+04  0.29193564018E+04 0.  0.
        1    1    3    3  502    0 -0.59091191363E+03 -0.13221019803E+04  0.15519966495E+02  0.14482304393E+04  0.50400001928E-02 0. -1.
       -1    1    3    3    0  502  0.59091191363E+03  0.13221019803E+04  0.38517702098E+03  0.14984965377E+04  0.50400001928E-02 0.  1.
</event>
<event>
 5   0  0.1075146E-05  0.2089869E+04  0.7818609E-02  0.8565719E-01
        1   -1    0    0  501    0  0.00000000000E+00  0.00000000000E+00  0.14330055094E+04  0.14330055094E+04  0.50400001928E-02 0.  1.
       -1   -1    0    0    0  501  0.00000000000E+00  0.00000000000E+00 -0.76195669775E+03  0.76195669776E+03  0.50400001928E-02 0. -1.
    10030    2    1    2    0    0  0.00000000000E+00  0.00000000000E+00  0.67104881169E+03  0.21949622072E+04  0.20898690350E+04 0.  0.
        2    1    3    3  502    0  0.20293067781E+03 -0.40619941122E+03 -0.65292304133E+03  0.79529071387E+03  0.25500000920E-02 0. -1.
       -2    1    3    3    0  502 -0.20293067781E+03  0.40619941122E+03  0.13239718530E+04  0.13996714933E+04  0.25500000920E-02 0.  1.
</event>
<event>
 5   0  0.1078103E-05  0.2865098E+04  0.7818609E-02  0.8283338E-01
       -1   -1    0    0    0  501  0.00000000000E+00  0.00000000000E+00  0.11414257135E+04  0.11414257135E+04  0.50400001928E-02 0.  1.
        1   -1    0    0  501    0  0.00000000000E+00  0.00000000000E+00 -0.17979244396E+04  0.17979244396E+04  0.50400001928E-02 0. -1.
    10030    2    1    2    0    0  0.00000000000E+00  0.00000000000E+00 -0.65649872617E+03  0.29393501531E+04  0.28650983831E+04 0.  0.
        1    1    3    3  502    0 -0.48956293333E+03  0.22888995139E+03  0.10328340426E+04  0.11656794736E+04  0.50400001928E-02 0.  1.
       -1    1    3    3    0  502  0.48956293333E+03 -0.22888995139E+03 -0.16893327688E+04  0.17736706795E+04  0.50400001928E-02 0. -1.
</event>
<event>
 5   0  0.1017456E-05  0.2783838E+04  0.7818609E-02  0.8308304E-01
       -1   -1    0    0    0  501  0.00000000000E+00  0.00000000000E+00  0.12138024354E+04  0.12138024354E+04  0.50400001928E-02 0.  1.
        1   -1    0    0  501    0  0.00000000000E+00  0.00000000000E+00 -0.15961729658E+04  0.15961729658E+04  0.50400001928E-02 0. -1.
    10030    2    1    2    0    0  0.00000000000E+00  0.00000000000E+00 -0.38237053035E+03  0.28099754012E+04  0.27838380938E+04 0.  0.
        5    1    3    3  502    0  0.60836226629E+03  0.48644325257E+03 -0.13555690590E+04  0.15634325214E+04  0.46999998093E+01 0. -1.
       -5    1    3    3    0  502 -0.60836226629E+03 -0.48644325257E+03  0.97319852869E+03  0.12465428798E+04  0.46999998093E+01 0.  1.
</event>
<event>
 5   0  0.2588048E-05  0.1794494E+04  0.7818609E-02  0.8709233E-01
        2   -1    0    0  501    0  0.00000000000E+00  0.00000000000E+00  0.20645067371E+04  0.20645067371E+04  0.25500000920E-02 0.  1.
       -2   -1    0    0    0  501  0.00000000000E+00  0.00000000000E+00 -0.38994911957E+03  0.38994911958E+03  0.25500000920E-02 0. -1.
    10030    2    1    2    0    0  0.00000000000E+00  0.00000000000E+00  0.16745576175E+04  0.24544558567E+04  0.17944944519E+04 0.  0.
        2    1    3    3  502    0 -0.22856970558E+03 -0.52449302460E+03 -0.10808242846E+03  0.58225325633E+03  0.25500000920E-02 0. -1.
       -2    1    3    3    0  502  0.22856970558E+03  0.52449302460E+03  0.17826400460E+04  0.18722026003E+04  0.25500000920E-02 0.  1.
</event>
<event>
 5   0  0.2697964E-05  0.2817515E+04  0.7818609E-02  0.8297851E-01
        2   -1    0    0  501    0  0.00000000000E+00  0.00000000000E+00  0.19411292917E+04  0.19411292917E+04  0.25500000920E-02 0. -1.
       -2   -1    0    0    0  501  0.00000000000E+00  0.00000000000E+00 -0.10223932738E+04  0.10223932738E+04  0.25500000920E-02 0.  1.
    10030    2    1    2    0    0  0.00000000000E+00  0.00000000000E+00  0.91873601794E+03  0.29635225655E+04  0.28175148847E+04 0.  0.
        1    1    3    3  502    0  0.90810261951E+03  0.92475372334E+03  0.10400436710E+04  0.16617793638E+04  0.50400001928E-02 0. -1.
       -1    1    3    3    0  502 -0.90810261951E+03 -0.92475372334E+03 -0.12130765310E+03  0.13017432017E+04  0.50400001928E-02 0.  1.
</event>
<event>
 5   0  0.2518686E-05  0.2574870E+04  0.7818609E-02  0.8376788E-01
       -2   -1    0    0    0  501  0.00000000000E+00  0.00000000000E+00  0.11812045523E+04  0.11812045523E+04  0.25500000920E-02 0. -1.
        2   -1    0    0  501    0  0.00000000000E+00  0.00000000000E+00 -0.14032190253E+04  0.14032190253E+04  0.25500000920E-02 0.  1.
    10030    2    1    2    0    0  0.00000000000E+00  0.00000000000E+00 -0.22201447298E+03  0.25844235775E+04  0.25748698612E+04 0.  0.
        5    1    3    3  502    0 -0.17820461890E+03 -0.11531035091E+04  0.43512745021E+03  0.12452961803E+04  0.46999998093E+01 0. -1.
       -5    1    3    3    0  502  0.17820461890E+03  0.11531035091E+04 -0.65714192319E+03  0.13391273972E+04  0.46999998093E+01 0.  1.
</event>
<event>
 5   0  0.8958000E-06  0.2703058E+04  0.7818609E-02  0.8334014E-01
       -3   -1    0    0    0  501  0.00000000000E+00  0.00000000000E+00  0.10335065043E+04  0.10335065092E+04  0.10100000352E+00 0.  1.
        3   -1    0    0  501    0  0.00000000000E+00  0.00000000000E+00 -0.17674104384E+04  0.17674104413E+04  0.10100000352E+00 0. -1.
    10030    2    1    2    0    0  0.00000000000E+00  0.00000000000E+00 -0.73390393414E+03  0.28009169505E+04  0.27030576722E+04 0.  0.
        1    1    3    3  502    0  0.28442645468E+03  0.81604586172E+03  0.70980271824E+03  0.11183242622E+04  0.50400001928E-02 0.  1.
       -1    1    3    3    0  502 -0.28442645468E+03 -0.81604586172E+03 -0.14437066524E+04  0.16825926883E+04  0.50400001928E-02 0. -1.
</event>
<event>
 5   0  0.8958000E-06  0.2828148E+04  0.7818609E-02  0.8294582E-01
        4   -1    0    0  501    0  0.00000000000E+00  0.00000000000E+00  0.11757363462E+04  0.11757370321E+04  0.12699999809E+01 0. -1.
       -4   -1    0    0    0  501  0.00000000000E+00  0.00000000000E+00 -0.17007249311E+04  0.17007254053E+04  0.12699999809E+01 0.  1.
    10030    2    1    2    0    0  0.00000000000E+00  0.00000000000E+00 -0.52498858496E+03  0.28764624374E+04  0.28281483588E+04 0.  0.
        4    1    3    3  502    0 -0.84044192835E+03  0.75647524656E+03 -0.11261212319E+04  0.15958534004E+04  0.12699999809E+01 0.  1.
       -4    1    3    3    0  502  0.84044192835E+03 -0.75647524656E+03  0.60113264694E+03  0.12806090370E+04  0.12699999809E+01 0. -1.
</event>
<event>
 5   0  0.2624815E-05  0.2968759E+04  0.7818609E-02  0.8252709E-01
        2   -1    0    0  501    0  0.00000000000E+00  0.00000000000E+00  0.23569143321E+04  0.23569143321E+04  0.25500000920E-02 0.  1.
       -2   -1    0    0    0  501  0.00000000000E+00  0.00000000000E+00 -0.93485882918E+03  0.93485882918E+03  0.25500000920E-02 0. -1.
    10030    2    1    2    0    0  0.00000000000E+00  0.00000000000E+00  0.14220555029E+04  0.32917731613E+04  0.29687587797E+04 0.  0.
        4    1    3    3  502    0  0.14603534445E+04  0.26197015237E+03  0.76208114473E+03  0.16679417938E+04  0.12699999809E+01 0. -1.
       -4    1    3    3    0  502 -0.14603534445E+04 -0.26197015237E+03  0.65997435818E+03  0.16238313674E+04  0.12699999809E+01 0.  1.
</event>
<event>
 5   0  0.2697964E-05  0.2816672E+04  0.7818609E-02  0.8298111E-01
       -2   -1    0    0    0  501  0.00000000000E+00  0.00000000000E+00  0.97213498658E+03  0.97213498659E+03  0.25500000920E-02 0.  1.
        2   -1    0    0  501    0  0.00000000000E+00  0.00000000000E+00 -0.20402626865E+04  0.20402626865E+04  0.25500000920E-02 0. -1.
    10030    2    1    2    0    0  0.00000000000E+00  0.00000000000E+00 -0.10681276999E+04  0.30123976731E+04  0.28166723199E+04 0.  0.
        1    1    3    3  502    0 -0.13302820835E+04 -0.30983878104E+03 -0.16705601779E+03  0.13760662066E+04  0.50400001928E-02 0. -1.
       -1    1    3    3    0  502  0.13302820835E+04  0.30983878104E+03 -0.90107168213E+03  0.16363314665E+04  0.50400001928E-02 0.  1.
</event>
<event>
 5   0  0.1078103E-05  0.2652215E+04  0.7818609E-02  0.8350678E-01
       -1   -1    0    0    0  501  0.00000000000E+00  0.00000000000E+00  0.13062096787E+04  0.13062096788E+04  0.50400001928E-02 0. -1.
        1   -1    0    0  501    0  0.00000000000E+00  0.00000000000E+00 -0.13463086913E+04  0.13463086913E+04  0.50400001928E-02 0.  1.
    10030    2    1    2    0    0  0.00000000000E+00  0.00000000000E+00 -0.40099012519E+02  0.26525183700E+04  0.26522152576E+04 0.  0.
        1    1    3    3  502    0 -0.13346767346E+03 -0.46580898313E+03  0.12145022857E+04  0.13075960503E+04  0.50400001928E-02 0. -1.
       -1    1    3    3    0  502  0.13346767346E+03  0.46580898313E+03 -0.12546012982E+04  0.13449223198E+04  0.50400001928E-02 0.  1.
</event>
<event>
 5   0  0.1017456E-05  0.1506208E+04  0.7818609E-02  0.8880335E-01
       -1   -1    0    0    0  501  0.00000000000E+00  0.00000000000E+00  0.75452404293E+03  0.75452404295E+03  0.50400001928E-02 0. -1.
        1   -1    0    0  501    0  0.00000000000E+00  0.00000000000E+00 -0.75168628949E+03  0.75168628950E+03  0.50400001928E-02 0.  1.
    10030    2    1    2    0    0  0.00000000000E+00  0.00000000000E+00  0.28377534464E+01  0.15062103325E+04  0.15062076592E+04 0.  0.
        5    1    3    3  502    0  0.61938043467E+03 -0.43256878875E+02  0.42761208704E+03  0.75390812928E+03  0.46999998093E+01 0. -1.
       -5    1    3    3    0  502 -0.61938043467E+03  0.43256878875E+02 -0.42477433360E+03  0.75230220317E+03  0.46999998093E+01 0.  1.
</event>
<event>
 5   0  0.2518686E-05  0.2671621E+04  0.7818609E-02  0.8344272E-01
        2   -1    0    0  501    0  0.00000000000E+00  0.00000000000E+00  0.14143368753E+04  0.14143368753E+04  0.25500000920E-02 0.  1.
       -2   -1    0    0    0  501  0.00000000000E+00  0.00000000000E+00 -0.12616438106E+04  0.12616438106E+04  0.25500000920E-02 0. -1.
    10030    2    1    2    0    0  0.00000000000E+00  0.00000000000E+00  0.15269306472E+03  0.26759806859E+04  0.26716207551E+04 0.  0.
        5    1    3    3  502    0 -0.43992602392E+03 -0.61318338881E+03 -0.10276493136E+04  0.12749956771E+04  0.46999998093E+01 0. -1.
       -5    1    3    3    0  502  0.43992602392E+03  0.61318338881E+03  0.11803423783E+04  0.14009850088E+04  0.46999998093E+01 0.  1.
</event>
<event>
 5   0  0.2518686E-05  0.2614708E+04  0.7818609E-02  0.8363222E-01
        2   -1    0    0  501    0  0.00000000000E+00  0.00000000000E+00  0.20730612287E+04  0.20730612287E+04  0.25500000920E-02 0. -1.
       -2   -1    0    0    0  501  0.00000000000E+00  0.00000000000E+00 -0.82446899794E+03  0.82446899794E+03  0.25500000920E-02 0.  1.
    10030    2    1    2    0    0  0.00000000000E+00  0.00000000000E+00  0.12485922308E+04  0.28975302267E+04  0.26147081779E+04 0.  0.
        5    1    3    3  502    0 -0.81006074836E+03  0.99074807827E+03  0.32824270900E+03  0.13211909539E+04  0.46999998093E+01 0.  1.
       -5    1    3    3    0  502  0.81006074836E+03 -0.99074807827E+03  0.92034952178E+03  0.15763392728E+04  0.46999998093E+01 0. -1.
</event>
<event>
 5   0  0.2836176E-05  0.1448322E+04  0.7818609E-02  0.8919564E-01
       -2   -1    0    0    0  501  0.00000000000E+00  0.00000000000E+00  0.38245982264E+03  0.38245982265E+03  0.25500000920E-02 0.  1.
        2   -1    0    0  501    0  0.00000000000E+00  0.00000000000E+00 -0.13711490695E+04  0.13711490695E+04  0.25500000920E-02 0. -1.
    10030    2    1    2    0    0  0.00000000000E+00  0.00000000000E+00 -0.98868924682E+03  0.17536088921E+04  0.14483223811E+04 0.  0.
        5    1    3    3  502    0 -0.12187458904E+03 -0.68610804176E+03 -0.73281014339E+03  0.10112519254E+04  0.46999998093E+01 0. -1.
       -5    1    3    3    0  502  0.12187458904E+03  0.68610804176E+03 -0.25587910342E+03  0.74235696668E+03  0.46999998093E+01 0.  1.
</event>
<event>
 5   0  0.2624815E-05  0.2792787E+04  0.7818609E-02  0.8305511E-01
        2   -1    0    0  501    0  0.00000000000E+00  0.00000000000E+00  0.17528456557E+04  0.17528456557E+04  0.25500000920E-02 0. -1.
       -2   -1    0    0    0  501  0.00000000000E+00  0.00000000000E+00 -0.11124283577E+04  0.11124283577E+04  0.25500000920E-02 0.  1.
    10030    2    1    2    0    0  0.00000000000E+00  0.00000000000E+00  0.64041729802E+03  0.28652740134E+04  0.27927872916E+04 0.  0.
        4    1    3    3  502    0 -0.12480814192E+04  0.51726853715E+03 -0.41997969518E+02  0.13516802176E+04  0.12699999809E+01 0.  1.
       -4    1    3    3    0  502  0.12480814192E+04 -0.51726853715E+03  0.68241526754E+03  0.15135937958E+04  0.12699999809E+01 0. -1.
</event>
<event>
 5   0  0.2624815E-05  0.2775755E+04  0.7818609E-02  0.8310835E-01
       -2   -1    0    0    0  501  0.00000000000E+00  0.00000000000E+00  0.99144817432E+03  0.99144817432E+03  0.25500000920E-02 0.  1.
        2   -1    0    0  501    0  0.00000000000E+00  0.00000000000E+00 -0.19428188327E+04  0.19428188327E+04  0.25500000920E-02 0. -1.
    10030    2    1    2    0    0  0.00000000000E+00  0.00000000000E+00 -0.95137065835E+03  0.29342670070E+04  0.27757551655E+04 0.  0.
        4    1    3    3  502    0 -0.31408488760E+03  0.13246241694E+04 -0.76115101316E+03  0.15596893871E+04  0.12699999809E+01 0. -1.
       -4    1    3    3    0  502  0.31408488760E+03 -0.13246241694E+04 -0.19021964520E+03  0.13745776198E+04  0.12699999809E+01 0.  1.
</event>
<event>
 5   0  0.1017456E-05  0.2794436E+04  0.7818609E-02  0.8304998E-01
       -1   -1    0    0    0  501  0.00000000000E+00  0.00000000000E+00  0.84532940191E+03  0.84532940192E+03  0.50400001928E-02 0.  1.
        1   -1    0    0  501    0  0.00000000000E+00  0.00000000000E+00 -0.23094167104E+04  0.23094167104E+04  0.50400001928E-02 0. -1.
    10030    2    1    2    0    0  0.00000000000E+00  0.00000000000E+00 -0.14640873085E+04  0.31547461124E+04  0.27944357904E+04 0.  0.
        5    1    3    3  502    0  0.62435203522E+03  0.11065112303E+04 -0.13883960922E+04  0.18819799057E+04  0.46999998093E+01 0.  1.
       -5    1    3    3    0  502 -0.62435203522E+03 -0.11065112303E+04 -0.75691216325E+02  0.12727662067E+04  0.46999998093E+01 0. -1.
</event>
<event>
 5   0  0.2651061E-05  0.2791601E+04  0.7818609E-02  0.8305881E-01
       -2   -1    0    0    0  501  0.00000000000E+00  0.00000000000E+00  0.12626196250E+04  0.12626196250E+04  0.25500000920E-02 0. -1.
        2   -1    0    0  501    0  0.00000000000E+00  0.00000000000E+00 -0.15430293637E+04  0.15430293637E+04  0.25500000920E-02 0.  1.
    10030    2    1    2    0    0  0.00000000000E+00  0.00000000000E+00 -0.28040973867E+03  0.28056489887E+04  0.27916010865E+04 0.  0.
        3    1    3    3  502    0  0.68760774411E+03 -0.11846875724E+04 -0.40982729243E+03  0.14297718258E+04  0.10100000352E+00 0.  1.
       -3    1    3    3    0  502 -0.68760774411E+03  0.11846875724E+04  0.12941755376E+03  0.13758771629E+04  0.10100000352E+00 0. -1.
</event>
<event>
 5   0  0.2588048E-05  0.2857140E+04  0.7818609E-02  0.8285745E-01
       -2   -1    0    0    0  501  0.00000000000E+00  0.00000000000E+00  0.11588709007E+04  0.11588709007E+04  0.25500000920E-02 0. -1.
        2   -1    0    0  501    0  0.00000000000E+00  0.00000000000E+00 -0.17610348208E+04  0.17610348208E+04  0.25500000920E-02 0.  1.
    10030    2    1    2    0    0  0.00000000000E+00  0.00000000000E+00 -0.60216392009E+03  0.29199057215E+04  0.28571398348E+04 0.  0.
        2    1    3    3  502    0  0.10811328061E+04  0.79993790896E+03  0.19123010254E+03  0.13584247328E+04  0.25500000920E-02 0. -1.
       -2    1    3    3    0  502 -0.10811328061E+04 -0.79993790896E+03 -0.79339402264E+03  0.15614809886E+04  0.25500000920E-02 0.  1.
</event>
<event>
 5   0  0.1105862E-05  0.2700568E+04  0.7818609E-02  0.8334821E-01
       -1   -1    0    0    0  501  0.00000000000E+00  0.00000000000E+00  0.67665377819E+03  0.67665377821E+03  0.50400001928E-02 0.  1.
        1   -1    0    0  501    0  0.00000000000E+00  0.00000000000E+00 -0.26945353418E+04  0.26945353418E+04  0.50400001928E-02 0. -1.
    10030    2    1    2    0    0  0.00000000000E+00  0.00000000000E+00 -0.20178815636E+04  0.33711891200E+04  0.27005684731E+04 0.  0.
        3    1    3    3  502    0  0.44042389771E+03  0.11336400645E+04 -0.27661444677E+03  0.12472483986E+04  0.10100000352E+00 0.  1.
       -3    1    3    3    0  502 -0.44042389771E+03 -0.11336400645E+04 -0.17412671169E+04  0.21239407214E+04  0.10100000352E+00 0. -1.
</event>
<event>
 5   0  0.2518686E-05  0.2815754E+04  0.7818609E-02  0.8298394E-01
        2   -1    0    0  501    0  0.00000000000E+00  0.00000000000E+00  0.16536216392E+04  0.16536216392E+04  0.25500000920E-02 0. -1.
       -2   -1    0    0    0  501  0.00000000000E+00  0.00000000000E+00 -0.11986526820E+04  0.11986526820E+04  0.25500000920E-02 0.  1.
    10030    2    1    2    0    0  0.00000000000E+00  0.00000000000E+00  0.45496895727E+03  0.28522743212E+04  0.28157542598E+04 0.  0.
        5    1    3    3  502    0 -0.69059171123E+03  0.42535210037E+03  0.13931723765E+04  0.16120771326E+04  0.46999998093E+01 0. -1.
       -5    1    3    3    0  502  0.69059171123E+03 -0.42535210037E+03 -0.93820341918E+03  0.12401971886E+04  0.46999998093E+01 0.  1.
</event>
<event>
 5   0  0.2588048E-05  0.2728732E+04  0.7818609E-02  0.8325742E-01
        2   -1    0    0  501    0  0.00000000000E+00  0.00000000000E+00  0.13233240868E+04  0.13233240868E+04  0.25500000920E-02 0. -1.
       -2   -1    0    0    0  501  0.00000000000E+00  0.00000000000E+00 -0.14066804111E+04  0.14066804111E+04  0.25500000920E-02 0.  1.
    10030    2    1    2    0    0  0.00000000000E+00  0.00000000000E+00 -0.83356324289E+02  0.27300044979E+04  0.27287316250E+04 0.  0.
        2    1    3    3  502    0  0.12302946598E+04 -0.14357585519E+03 -0.61400715428E+03  0.13824774000E+04  0.25500000920E-02 0.  1.
       -2    1    3    3    0  502 -0.12302946598E+04  0.14357585519E+03  0.53065082999E+03  0.13475270978E+04  0.25500000920E-02 0. -1.
</event>
<event>
 5   0  0.1078103E-05  0.2859443E+04  0.7818609E-02  0.8285048E-01
       -1   -1    0    0    0  501  0.00000000000E+00  0.00000000000E+00  0.88273483723E+03  0.88273483725E+03  0.50400001928E-02 0.  1.
        1   -1    0    0  501    0  0.00000000000E+00  0.00000000000E+00 -0.23156476898E+04  0.23156476898E+04  0.50400001928E-02 0. -1.
    10030    2    1    2    0    0  0.00000000000E+00  0.00000000000E+00 -0.14329128525E+04  0.31983825270E+04  0.28594425237E+04 0.  0.
        1    1    3    3  502    0  0.12501609612E+03  0.69266095296E+03 -0.21084330248E+04  0.22228130916E+04  0.50400001928E-02 0. -1.
       -1    1    3    3    0  502 -0.12501609612E+03 -0.69266095296E+03  0.67552017231E+03  0.97556943539E+03  0.50400001928E-02 0.  1.
</event>
<event>
 5   0  0.2518686E-05  0.2776439E+04  0.7818609E-02  0.8310621E-01
       -2   -1    0    0    0  501  0.00000000000E+00  0.00000000000E+00  0.16609577666E+04  0.16609577666E+04  0.25500000920E-02 0. -1.
        2   -1    0    0  501    0  0.00000000000E+00  0.00000000000E+00 -0.11602666812E+04  0.11602666812E+04  0.25500000920E-02 0.  1.
    10030    2    1    2    0    0  0.00000000000E+00  0.00000000000E+00  0.50069108542E+03  0.28212244479E+04  0.27764394145E+04 0.  0.
        5    1    3    3  502    0 -0.50634618481E+03 -0.18958483447E+03 -0.10488728204E+04  0.11800360807E+04  0.46999998093E+01 0.  1.
       -5    1    3    3    0  502  0.50634618481E+03  0.18958483447E+03  0.15495639058E+04  0.16411883672E+04  0.46999998093E+01 0. -1.
</event>
<event>
 5   0  0.2518686E-05  0.1900448E+04  0.7818609E-02  0.8654633E-01
        2   -1    0    0  501    0  0.00000000000E+00  0.00000000000E+00  0.69634914706E+03  0.69634914706E+03  0.25500000920E-02 0. -1.
       -2   -1    0    0    0  501  0.00000000000E+00  0.00000000000E+00 -0.12966565959E+04  0.12966565959E+04  0.25500000920E-02 0.  1.
    10030    2    1    2    0    0  0.00000000000E+00  0.00000000000E+00 -0.60030744886E+03  0.19930057430E+04  0.19004480678E+04 0.  0.
        5    1    3    3  502    0 -0.10222925480E+03 -0.49839201206E+03 -0.11417718940E+04  0.12500042265E+04  0.46999998093E+01 0.  1.
       -5    1    3    3    0  502  0.10222925480E+03  0.49839201206E+03  0.54146444514E+03  0.74300151653E+03  0.46999998093E+01 0. -1.
</event>
<event>
 5   0  0.2651061E-05  0.2831118E+04  0.7818609E-02  0.8293672E-01
        2   -1    0    0  501    0  0.00000000000E+00  0.00000000000E+00  0.16756465571E+04  0.16756465571E+04  0.25500000920E-02 0.  1.
       -2   -1    0    0    0  501  0.00000000000E+00  0.00000000000E+00 -0.11958409276E+04  0.11958409276E+04  0.25500000920E-02 0. -1.
    10030    2    1    2    0    0  0.00000000000E+00  0.00000000000E+00  0.47980562953E+03  0.28714874848E+04  0.28311176120E+04 0.  0.
        3    1    3    3  502    0 -0.61388418742E+03  0.45813930662E+02  0.15327767789E+04  0.16517740088E+04  0.10100000352E+00 0.  1.
       -3    1    3    3    0  502  0.61388418742E+03 -0.45813930662E+02 -0.10529711494E+04  0.12197134760E+04  0.10100000352E+00 0. -1.
</event>
<event>
 5   0  0.1075146E-05  0.2783998E+04  0.7818609E-02  0.8308253E-01
        1   -1    0    0  501    0  0.00000000000E+00  0.00000000000E+00  0.21351583951E+04  0.21351583951E+04  0.50400001928E-02 0. -1.
       -1   -1    0    0    0  501  0.00000000000E+00  0.00000000000E+00 -0.90750262329E+03  0.90750262331E+03  0.50400001928E-02 0.  1.
    10030    2    1    2    0    0  0.00000000000E+00  0.00000000000E+00  0.12276557718E+04  0.30426610184E+04  0.27839984516E+04 0.  0.
        2    1    3    3  502    0 -0.12920095177E+04 -0.29853014626E+03  0.10765473844E+04  0.17080290141E+04  0.25500000920E-02 0. -1.
       -2    1    3    3    0  502  0.12920095177E+04  0.29853014626E+03  0.15110838737E+03  0.13346320043E+04  0.25500000920E-02 0.  1.
</event>
<event>
 5   0  0.1017456E-05  0.2819834E+04  0.7818609E-02  0.8297137E-01
       -1   -1    0    0    0  501  0.00000000000E+00  0.00000000000E+00  0.13834329322E+04  0.13834329322E+04  0.50400001928E-02 0. -1.
        1   -1    0    0  501    0  0.00000000000E+00  0.00000000000E+00 -0.14369075820E+04  0.14369075820E+04  0.50400001928E-02 0.  1.
    10030    2    1    2    0    0  0.00000000000E+00  0.00000000000E+00 -0.53474649813E+02  0.28203405142E+04  0.28198335195E+04 0.  0.
        5    1    3    3  502    0 -0.83017277847E+03  0.66640239026E+03 -0.95132994525E+03  0.14277008589E+04  0.46999998093E+01 0.  1.
       -5    1    3    3    0  502  0.83017277847E+03 -0.66640239026E+03  0.89785529543E+03  0.13926396553E+04  0.46999998093E+01 0. -1.
</event>
<event>
 5   0  0.2588048E-05  0.2717749E+04  0.7818609E-02  0.8329269E-01
       -2   -1    0    0    0  501  0.00000000000E+00  0.00000000000E+00  0.95070759953E+03  0.95070759953E+03  0.25500000920E-02 0. -1.
        2   -1    0    0  501    0  0.00000000000E+00  0.00000000000E+00 -0.19422797339E+04  0.19422797339E+04  0.25500000920E-02 0.  1.
    10030    2    1    2    0    0  0.00000000000E+00  0.00000000000E+00 -0.99157213437E+03  0.28929873334E+04  0.27177491447E+04 0.  0.
        2    1    3    3  502    0 -0.44327479918E+03 -0.69049841218E+03  0.65722693269E+03  0.10512981717E+04  0.25500000920E-02 0. -1.
       -2    1    3    3    0  502  0.44327479918E+03  0.69049841218E+03 -0.16487990671E+04  0.18416891617E+04  0.25500000920E-02 0.  1.
</event>
<event>
 5   0  0.2697964E-05  0.2990538E+04  0.7818609E-02  0.8246438E-01
        2   -1    0    0  501    0  0.00000000000E+00  0.00000000000E+00  0.12560658553E+04  0.12560658553E+04  0.25500000920E-02 0. -1.
       -2   -1    0    0    0  501  0.00000000000E+00  0.00000000000E+00 -0.17800254311E+04  0.17800254311E+04  0.25500000920E-02 0.  1.
    10030    2    1    2    0    0  0.00000000000E+00  0.00000000000E+00 -0.52395957579E+03  0.30360912864E+04  0.29905378550E+04 0.  0.
        1    1    3    3  502    0 -0.14563269954E+04 -0.10105372970E+03  0.66568329009E+02  0.14613457894E+04  0.50400001928E-02 0. -1.
       -1    1    3    3    0  502  0.14563269954E+04  0.10105372970E+03 -0.59052790480E+03  0.15747454970E+04  0.50400001928E-02 0.  1.
</event>
<event>
 5   0  0.1075146E-05  0.2849961E+04  0.7818609E-02  0.8287923E-01
       -1   -1    0    0    0  501  0.00000000000E+00  0.00000000000E+00  0.75092728619E+03  0.75092728621E+03  0.50400001928E-02 0. -1.
        1   -1    0    0  501    0  0.00000000000E+00  0.00000000000E+00 -0.27040831662E+04  0.27040831662E+04  0.50400001928E-02 0.  1.
    10030    2    1    2    0    0  0.00000000000E+00  0.00000000000E+00 -0.19531558800E+04  0.34550104524E+04  0.28499612865E+04 0.  0.
        2    1    3    3  502    0  0.88159762627E+03 -0.30955419925E+03 -0.22808759856E+04  0.24648394346E+04  0.25500000920E-02 0.  1.
       -2    1    3    3    0  502 -0.88159762627E+03  0.30955419925E+03  0.32772010555E+03  0.99017101781E+03  0.25500000920E-02 0. -1.
</event>
<event>
 5   0  0.1105862E-05  0.1430806E+04  0.7818609E-02  0.8931817E-01
        1   -1    0    0  501    0  0.00000000000E+00  0.00000000000E+00  0.12080164971E+04  0.12080164971E+04  0.50400001928E-02 0.  1.
       -1   -1    0    0    0  501  0.00000000000E+00  0.00000000000E+00 -0.42367096770E+03  0.42367096773E+03  0.50400001928E-02 0. -1.
    10030    2    1    2    0    0  0.00000000000E+00  0.00000000000E+00  0.78434552939E+03  0.16316874648E+04  0.14308060922E+04 0.  0.
        3    1    3    3  502    0 -0.18614725986E+03 -0.64002205879E+03  0.95839533225E+02  0.67339755303E+03  0.10100000352E+00 0. -1.
       -3    1    3    3    0  502  0.18614725986E+03  0.64002205879E+03  0.68850599617E+03  0.95828991180E+03  0.10100000352E+00 0.  1.
</event>
<event>
 5   0  0.2588048E-05  0.1595366E+04  0.7818609E-02  0.8823400E-01
       -2   -1    0    0    0  501  0.00000000000E+00  0.00000000000E+00  0.38365368712E+03  0.38365368713E+03  0.25500000920E-02 0.  1.
        2   -1    0    0  501    0  0.00000000000E+00  0.00000000000E+00 -0.16585215348E+04  0.16585215348E+04  0.25500000920E-02 0. -1.
    10030    2    1    2    0    0  0.00000000000E+00  0.00000000000E+00 -0.12748678477E+04  0.20421752219E+04  0.15953656659E+04 0.  0.
        2    1    3    3  502    0  0.23348889587E+03  0.27499814185E+03 -0.15481338988E+04  0.15896098927E+04  0.25500000920E-02 0. -1.
       -2    1    3    3    0  502 -0.23348889587E+03 -0.27499814185E+03  0.27326605109E+03  0.45256532921E+03  0.25500000920E-02 0.  1.
</event>
<event>
 5   0  0.1078103E-05  0.1584494E+04  0.7818609E-02  0.8830131E-01
        1   -1    0    0  501    0  0.00000000000E+00  0.00000000000E+00  0.52050700962E+03  0.52050700965E+03  0.50400001928E-02 0.  1.
       -1   -1    0    0    0  501  0.00000000000E+00  0.00000000000E+00 -0.12058533612E+04  0.12058533613E+04  0.50400001928E-02 0. -1.
    10030    2    1    2    0    0  0.00000000000E+00  0.00000000000E+00 -0.68534635162E+03  0.17263603709E+04  0.15844937704E+04 0.  0.
        1    1    3    3  502    0  0.40990252461E+03  0.32547564605E+03  0.30530272150E+03  0.60594077898E+03  0.50400001928E-02 0.  1.
       -1    1    3    3    0  502 -0.40990252461E+03 -0.32547564605E+03 -0.99064907312E+03  0.11204195919E+04  0.50400001928E-02 0. -1.
</event>
<event>
 5   0  0.1078103E-05  0.2761831E+04  0.7818609E-02  0.8315217E-01
        1   -1    0    0  501    0  0.00000000000E+00  0.00000000000E+00  0.10169142461E+04  0.10169142461E+04  0.50400001928E-02 0.  1.
       -1   -1    0    0    0  501  0.00000000000E+00  0.00000000000E+00 -0.18752094607E+04  0.18752094607E+04  0.50400001928E-02 0. -1.
    10030    2    1    2    0    0  0.00000000000E+00  0.00000000000E+00 -0.85829521463E+03  0.28921237068E+04  0.27618307080E+04 0.  0.
        1    1    3    3  502    0  0.68111335494E+03 -0.11970794818E+04 -0.53393080750E+03  0.14771583515E+04  0.50400001928E-02 0. -1.
       -1    1    3    3    0  502 -0.68111335494E+03  0.11970794818E+04 -0.32436440713E+03  0.14149653553E+04  0.50400001928E-02 0.  1.
</event>
<event>
 5   0  0.1075146E-05  0.2818381E+04  0.7818609E-02  0.8297584E-01
        1   -1    0    0  501    0  0.00000000000E+00  0.00000000000E+00  0.96686259266E+03  0.96686259267E+03  0.50400001928E-02 0. -1.
       -1   -1    0    0    0  501  0.00000000000E+00  0.00000000000E+00 -0.20538779968E+04  0.20538779968E+04  0.50400001928E-02 0.  1.
    10030    2    1    2    0    0  0.00000000000E+00  0.00000000000E+00 -0.10870154042E+04  0.30207405895E+04  0.28183809573E+04 0.  0.
        2    1    3    3  502    0  0.69784175396E+03  0.11653168180E+04 -0.14123074291E+03  0.13656106776E+04  0.25500000920E-02 0. -1.
       -2    1    3    3    0  502 -0.69784175396E+03 -0.11653168180E+04 -0.94578466127E+03  0.16551299119E+04  0.25500000920E-02 0.  1.
</event>
<event>
 5   0  0.2624815E-05  0.2825872E+04  0.7818609E-02  0.8295281E-01
        2   -1    0    0  501    0  0.00000000000E+00  0.00000000000E+00  0.10758526000E+04  0.10758526000E+04  0.25500000920E-02 0.  1.
       -2   -1    0    0    0  501  0.00000000000E+00  0.00000000000E+00 -0.18556333901E+04  0.18556333901E+04  0.25500000920E-02 0. -1.
    10030    2    1    2    0    0  0.00000000000E+00  0.00000000000E+00 -0.77978079009E+03  0.29314859900E+04  0.28258719060E+04 0.  0.
        4    1    3    3  502    0 -0.59630778889E+03  0.19380863124E+03  0.92362401544E+03  0.11163456899E+04  0.12699999809E+01 0.  1.
       -4    1    3    3    0  502  0.59630778889E+03 -0.19380863124E+03 -0.17034048055E+04  0.18151403001E+04  0.12699999809E+01 0. -1.
</event>
<event>
 5   0  0.2518686E-05  0.2865969E+04  0.7818609E-02  0.8283075E-01
        2   -1    0    0  501    0  0.00000000000E+00  0.00000000000E+00  0.22039512423E+04  0.22039512423E+04  0.25500000920E-02 0.  1.
       -2   -1    0    0    0  501  0.00000000000E+00  0.00000000000E+00 -0.93171059616E+03  0.93171059617E+03  0.25500000920E-02 0. -1.
    10030    2    1    2    0    0  0.00000000000E+00  0.00000000000E+00  0.12722406461E+04  0.31356618384E+04  0.28659691037E+04 0.  0.
        5    1    3    3  502    0  0.13506348969E+04  0.47765513447E+03  0.60060692283E+03  0.15534219703E+04  0.46999998093E+01 0. -1.
       -5    1    3    3    0  502 -0.13506348969E+04 -0.47765513447E+03  0.67163372329E+03  0.15822398681E+04  0.46999998093E+01 0.  1.
</event>
<event>
 5   0  0.2624815E-05  0.2757425E+04  0.7818609E-02  0.8316609E-01
       -2   -1    0    0    0  501  0.00000000000E+00  0.00000000000E+00  0.16386537598E+04  0.16386537598E+04  0.25500000920E-02 0.  1.
        2   -1    0    0  501    0  0.00000000000E+00  0.00000000000E+00 -0.11600061691E+04  0.11600061691E+04  0.25500000920E-02 0. -1.
    10030    2    1    2    0    0  0.00000000000E+00  0.00000000000E+00  0.47864759072E+03  0.27986599289E+04  0.27574252268E+04 0.  0.
        4    1    3    3  502    0  0.82546920880E+03  0.51937819279E+03  0.12284191719E+04  0.15684923961E+04  0.12699999809E+01 0.  1.
       -4    1    3    3    0  502 -0.82546920880E+03 -0.51937819279E+03 -0.74977158121E+03  0.12301675328E+04  0.12699999809E+01 0. -1.
</event>
<event>
 5   0  0.2697964E-05  0.2823710E+04  0.7818609E-02  0.8295945E-01
        2   -1    0    0  501    0  0.00000000000E+00  0.00000000000E+00  0.26097884615E+04  0.26097884615E+04  0.25500000920E-02 0.  1.
       -2   -1    0    0    0  501  0.00000000000E+00  0.00000000000E+00 -0.76379144906E+03  0.76379144906E+03  0.25500000920E-02 0. -1.
    10030    2    1    2    0    0  0.00000000000E+00  0.00000000000E+00  0.18459970124E+04  0.33735799105E+04  0.28237096952E+04 0.  0.
        1    1    3    3  502    0  0.11396264169E+03 -0.83727327359E+03  0.22743258578E+04  0.24262259016E+04  0.50400001928E-02 0.  1.
       -1    1    3    3    0  502 -0.11396264169E+03  0.83727327359E+03 -0.42832884537E+03  0.94735400889E+03  0.50400001928E-02 0. -1.
</event>
<event>
 5   0  0.2518686E-05  0.2733839E+04  0.7818609E-02  0.8324108E-01
       -2   -1    0    0    0  501  0.00000000000E+00  0.00000000000E+00  0.19133919495E+04  0.19133919495E+04  0.25500000920E-02 0. -1.
        2   -1    0    0  501    0  0.00000000000E+00  0.00000000000E+00 -0.97652156256E+03  0.97652156256E+03  0.25500000920E-02 0.  1.
    10030    2    1    2    0    0  0.00000000000E+00  0.00000000000E+00  0.93687038691E+03  0.28899135120E+04  0.27338386904E+04 0.  0.
        5    1    3    3  502    0 -0.10593582171E+04 -0.55572476336E+03  0.11675358550E+04  0.16715956172E+04  0.46999998093E+01 0. -1.
       -5    1    3    3    0  502  0.10593582171E+04  0.55572476336E+03 -0.23066546805E+03  0.12183178949E+04  0.46999998093E+01 0.  1.
</event>
<event>
 5   0  0.2651061E-05  0.2861662E+04  0.7818609E-02  0.8284377E-01
       -2   -1    0    0    0  501  0.00000000000E+00  0.00000000000E+00  0.12198136838E+04  0.12198136838E+04  0.25500000920E-02 0.  1.
        2   -1    0    0  501    0  0.00000000000E+00  0.00000000000E+00 -0.16783520406E+04  0.16783520406E+04  0.25500000920E-02 0. -1.
    10030    2    1    2    0    0  0.00000000000E+00  0.00000000000E+00 -0.45853835689E+03  0.28981657244E+04  0.28616616050E+04 0.  0.
        3    1    3    3  502    0 -0.56439109661E+03  0.85074012342E+03 -0.12445444342E+04  0.16097164118E+04  0.10100000352E+00 0. -1.
       -3    1    3    3    0  502  0.56439109661E+03 -0.85074012342E+03  0.78600607727E+03  0.12884493126E+04  0.10100000352E+00 0.  1.
</event>
<event>
 5   0  0.2624815E-05  0.2811101E+04  0.7818609E-02  0.8299830E-01
        2   -1    0    0  501    0  0.00000000000E+00  0.00000000000E+00  0.99728036358E+03  0.99728036358E+03  0.25500000920E-02 0. -1.
       -2   -1    0    0    0  501  0.00000000000E+00  0.00000000000E+00 -0.19809597154E+04  0.19809597154E+04  0.25500000920E-02 0.  1.
    10030    2    1    2    0    0  0.00000000000E+00  0.00000000000E+00 -0.98367935186E+03  0.29782400790E+04  0.28111010122E+04 0.  0.
        4    1    3    3  502    0  0.34648047694E+03  0.95830373437E+03  0.53379759697E+03  0.11503635319E+04  0.12699999809E+01 0. -1.
       -4    1    3    3    0  502 -0.34648047694E+03 -0.95830373437E+03 -0.15174769488E+04  0.18278765471E+04  0.12699999809E+01 0.  1.
</event>
<event>
 5   0  0.1105862E-05  0.2758693E+04  0.7818609E-02  0.8316209E-01
        1   -1    0    0  501    0  0.00000000000E+00  0.00000000000E+00  0.11390343398E+04  0.11390343398E+04  0.50400001928E-02 0. -1.
       -1   -1    0    0    0  501  0.00000000000E+00  0.00000000000E+00 -0.16703588436E+04  0.16703588436E+04  0.50400001928E-02 0.  1.
    10030    2    1    2    0    0  0.00000000000E+00  0.00000000000E+00 -0.53132450374E+03  0.28093931834E+04  0.27586925038E+04 0.  0.
        3    1    3    3  502    0 -0.10234488669E+04  0.89984652107E+03 -0.48271005604E+03  0.14457456045E+04  0.10100000352E+00 0.  1.
       -3    1    3    3    0  502  0.10234488669E+04 -0.89984652107E+03 -0.48614447703E+02  0.13636475789E+04  0.10100000352E+00 0. -1.
</event>
<event>
 5   0  0.1075146E-05  0.2838979E+04  0.7818609E-02  0.8291268E-01
       -1   -1    0    0    0  501  0.00000000000E+00  0.00000000000E+00  0.12404303279E+04  0.12404303280E+04  0.50400001928E-02 0.  1.
        1   -1    0    0  501    0  0.00000000000E+00  0.00000000000E+00 -0.16243960066E+04  0.16243960066E+04  0.50400001928E-02 0. -1.
    10030    2    1    2    0    0  0.00000000000E+00  0.00000000000E+00 -0.38396567863E+03  0.28648263345E+04  0.28389787397E+04 0.  0.
        2    1    3    3  502    0 -0.61023789972E+03  0.47524041386E+03  0.10091086138E+04  0.12714338125E+04  0.25500000920E-02 0.  1.
       -2    1    3    3    0  502  0.61023789972E+03 -0.47524041386E+03 -0.13930742924E+04  0.15933925220E+04  0.25500000920E-02 0. -1.
</event>
<event>
 5   0  0.1017456E-05  0.2825477E+04  0.7818609E-02  0.8295402E-01
       -1   -1    0    0    0  501  0.00000000000E+00  0.00000000000E+00  0.10959394101E+04  0.10959394102E+04  0.50400001928E-02 0. -1.
        1   -1    0    0  501    0  0.00000000000E+00  0.00000000000E+00 -0.18211132629E+04  0.18211132629E+04  0.50400001928E-02 0.  1.
    10030    2    1    2    0    0  0.00000000000E+00  0.00000000000E+00 -0.72517385279E+03  0.29170526731E+04  0.28254768059E+04 0.  0.
        5    1    3    3  502    0  0.91759717064E+03 -0.10649348932E+04 -0.50762800283E+03  0.14945832776E+04  0.46999998093E+01 0.  1.
       -5    1    3    3    0  502 -0.91759717064E+03  0.10649348932E+04 -0.21754584996E+03  0.14224693955E+04  0.46999998093E+01 0. -1.
</event>
<event>
 5   0  0.2624815E-05  0.2948853E+04  0.7818609E-02  0.8258489E-01
       -2   -1    0    0    0  501  0.00000000000E+00  0.00000000000E+00  0.17350235674E+04  0.17350235674E+04  0.25500000920E-02 0. -1.
        2   -1    0    0  501    0  0.00000000000E+00  0.00000000000E+00 -0.12529708983E+04  0.12529708983E+04  0.25500000920E-02 0.  1.
    10030    2    1    2    0    0  0.00000000000E+00  0.00000000000E+00  0.48205266915E+03  0.29879944657E+04  0.29488533622E+04 0.  0.
        4    1    3    3  502    0  0.41825692389E+03 -0.14090697234E+04  0.35882817451E+03  0.15130021849E+04  0.12699999809E+01 0. -1.
       -4    1    3    3    0  502 -0.41825692389E+03  0.14090697234E+04  0.12322449463E+03  0.14749922809E+04  0.12699999809E+01 0.  1.
</event>
<event>
 5   0  0.1078103E-05  0.2783672E+04  0.7818609E-02  0.8308356E-01
        1   -1    0    0  501    0  0.00000000000E+00  0.00000000000E+00  0.11705701936E+04  0.11705701936E+04  0.50400001928E-02 0.  1.
       -1   -1    0    0    0  501  0.00000000000E+00  0.00000000000E+00 -0.16549259279E+04  0.16549259279E+04  0.50400001928E-02 0. -1.
    10030    2    1    2    0    0  0.00000000000E+00  0.00000000000E+00 -0.48435573429E+03  0.28254961215E+04  0.27836716501E+04 0.  0.
        1    1    3    3  502    0  0.82735878631E+03  0.59050133158E+03  0.72289285836E+03  0.12473124984E+04  0.50400001928E-02 0.  1.
       -1    1    3    3    0  502 -0.82735878631E+03 -0.59050133158E+03 -0.12072485927E+04  0.15781836231E+04  0.50400001928E-02 0. -1.
</event>
<event>
 5   0  0.1017456E-05  0.2342274E+04  0.7818609E-02  0.8461437E-01
        1   -1    0    0  501    0  0.00000000000E+00  0.00000000000E+00  0.14893096112E+04  0.14893096112E+04  0.50400001928E-02 0.  1.
       -1   -1    0    0    0  501  0.00000000000E+00  0.00000000000E+00 -0.92093787654E+03  0.92093787655E+03  0.50400001928E-02 0. -1.
    10030    2    1    2    0    0  0.00000000000E+00  0.00000000000E+00  0.56837173464E+03  0.24102474877E+04  0.23422737934E+04 0.  0.
        5    1    3    3  502    0 -0.44271290836E+03 -0.24481581575E+03 -0.80269060130E+03  0.94882231966E+03  0.46999998093E+01 0. -1.
       -5    1    3    3    0  502  0.44271290836E+03  0.24481581575E+03  0.13710623359E+04  0.14614251681E+04  0.46999998093E+01 0.  1.
</event>
<event>
 5   0  0.1078103E-05  0.2755012E+04  0.7818609E-02  0.8317373E-01
       -1   -1    0    0    0  501  0.00000000000E+00  0.00000000000E+00  0.97841246385E+03  0.97841246386E+03  0.50400001928E-02 0.  1.
        1   -1    0    0  501    0  0.00000000000E+00  0.00000000000E+00 -0.19393893049E+04  0.19393893049E+04  0.50400001928E-02 0. -1.
    10030    2    1    2    0    0  0.00000000000E+00  0.00000000000E+00 -0.96097684104E+03  0.29178017688E+04  0.27550119188E+04 0.  0.
        1    1    3    3  502    0 -0.27480732381E+03  0.12172413803E+04 -0.10983348196E+04  0.16623883479E+04  0.50400001928E-02 0. -1.
       -1    1    3    3    0  502  0.27480732381E+03 -0.12172413803E+04  0.13735797857E+03  0.12554134209E+04  0.50400001928E-02 0.  1.
</event>
<event>
 5   0  0.1075146E-05  0.2864981E+04  0.7818609E-02  0.8283374E-01
       -1   -1    0    0    0  501  0.00000000000E+00  0.00000000000E+00  0.10375113680E+04  0.10375113680E+04  0.50400001928E-02 0.  1.
        1   -1    0    0  501    0  0.00000000000E+00  0.00000000000E+00 -0.19778371552E+04  0.19778371552E+04  0.50400001928E-02 0. -1.
    10030    2    1    2    0    0  0.00000000000E+00  0.00000000000E+00 -0.94032578718E+03  0.30153485232E+04  0.28649806509E+04 0.  0.
        2    1    3    3  502    0  0.54230410472E+02  0.10339639921E+04 -0.15120728867E+04  0.18325902131E+04  0.25500000920E-02 0. -1.
       -2    1    3    3    0  502 -0.54230410472E+02 -0.10339639921E+04  0.57174709951E+03  0.11827583101E+04  0.25500000920E-02 0.  1.
</event>
<event>
 5   0  0.2518686E-05  0.2804011E+04  0.7818609E-02  0.8302024E-01
       -2   -1    0    0    0  501  0.00000000000E+00  0.00000000000E+00  0.18736247918E+04  0.18736247918E+04  0.25500000920E-02 0.  1.
        2   -1    0    0  501    0  0.00000000000E+00  0.00000000000E+00 -0.10490998469E+04  0.10490998469E+04  0.25500000920E-02 0. -1.
    10030    2    1    2    0    0  0.00000000000E+00  0.00000000000E+00  0.82452494481E+03  0.29227246387E+04  0.28040110430E+04 0.  0.
        5    1    3    3  502    0 -0.25990538852E+03 -0.11800550378E+04 -0.32883602039E+03  0.12522922668E+04  0.46999998093E+01 0. -1.
       -5    1    3    3    0  502  0.25990538852E+03  0.11800550378E+04  0.11533609652E+04  0.16704323719E+04  0.46999998093E+01 0.  1.
</event>
<event>
 5   0  0.2624815E-05  0.1442332E+04  0.7818609E-02  0.8923734E-01
       -2   -1    0    0    0  501  0.00000000000E+00  0.00000000000E+00  0.86271026488E+03  0.86271026489E+03  0.25500000920E-02 0.  1.
        2   -1    0    0  501    0  0.00000000000E+00  0.00000000000E+00 -0.60284515111E+03  0.60284515112E+03  0.25500000920E-02 0. -1.
    10030    2    1    2    0    0  0.00000000000E+00  0.00000000000E+00  0.25986511377E+03  0.14655554160E+04  0.14423324166E+04 0.  0.
        4    1    3    3  502    0 -0.69231570851E+03  0.64878851748E+02  0.32424120256E+03  0.76723156609E+03  0.12699999809E+01 0.  1.
       -4    1    3    3    0  502  0.69231570851E+03 -0.64878851748E+02 -0.64376088788E+02  0.69832384992E+03  0.12699999809E+01 0. -1.
</event>
<event>
 5   0  0.1105862E-05  0.2706754E+04  0.7818609E-02  0.8332817E-01
        1   -1    0    0  501    0  0.00000000000E+00  0.00000000000E+00  0.25532475671E+04  0.25532475671E+04  0.50400001928E-02 0. -1.
       -1   -1    0    0    0  501  0.00000000000E+00  0.00000000000E+00 -0.71737241709E+03  0.71737241711E+03  0.50400001928E-02 0.  1.
    10030    2    1    2    0    0  0.00000000000E+00  0.00000000000E+00  0.18358751500E+04  0.32706199842E+04  0.27067540551E+04 0.  0.
        3    1    3    3  502    0 -0.78015193613E+03  0.62765484019E+03  0.20181321137E+04  0.22528748035E+04  0.10100000352E+00 0. -1.
       -3    1    3    3    0  502  0.78015193613E+03 -0.62765484019E+03 -0.18225696366E+03  0.10177451807E+04  0.10100000352E+00 0.  1.
</event>
<event>
 5   0  0.1075146E-05  0.2644579E+04  0.7818609E-02  0.8353214E-01
       -1   -1    0    0    0  501  0.00000000000E+00  0.00000000000E+00  0.11008825410E+04  0.11008825411E+04  0.50400001928E-02 0. -1.
        1   -1    0    0  501    0  0.00000000000E+00  0.00000000000E+00 -0.15882257422E+04  0.15882257422E+04  0.50400001928E-02 0.  1.
    10030    2    1    2    0    0  0.00000000000E+00  0.00000000000E+00 -0.48734320118E+03  0.26891082833E+04  0.26445793547E+04 0.  0.
        2    1    3    3  502    0 -0.17812794341E+03 -0.76800062208E+02 -0.15736792013E+04  0.15855894937E+04  0.25500000920E-02 0.  1.
       -2    1    3    3    0  502  0.17812794341E+03  0.76800062208E+02  0.10863360002E+04  0.11035187896E+04  0.25500000920E-02 0. -1.
</event>
<event>
 5   0  0.2624815E-05  0.2540758E+04  0.7818609E-02  0.8388607E-01
        2   -1    0    0  501    0  0.00000000000E+00  0.00000000000E+00  0.16220189637E+04  0.16220189637E+04  0.25500000920E-02 0.  1.
       -2   -1    0    0    0  501  0.00000000000E+00  0.00000000000E+00 -0.99497189427E+03  0.99497189427E+03  0.25500000920E-02 0. -1.
    10030    2    1    2    0    0  0.00000000000E+00  0.00000000000E+00  0.62704706945E+03  0.26169908580E+04  0.25407583757E+04 0.  0.
        4    1    3    3  502    0  0.13039242023E+03 -0.47014707949E+03 -0.89462363134E+03  0.10190159539E+04  0.12699999809E+01 0. -1.
       -4    1    3    3    0  502 -0.13039242023E+03  0.47014707949E+03  0.15216707008E+04  0.15979749041E+04  0.12699999809E+01 0.  1.
</event>
<event>
 5   0  0.1078103E-05  0.2139680E+04  0.7818609E-02  0.8543963E-01
        1   -1    0    0  501    0  0.00000000000E+00  0.00000000000E+00  0.14247408053E+04  0.14247408054E+04  0.50400001928E-02 0. -1.
       -1   -1    0    0    0  501  0.00000000000E+00  0.00000000000E+00 -0.80334474106E+03  0.80334474108E+03  0.50400001928E-02 0.  1.
    10030    2    1    2    0    0  0.00000000000E+00  0.00000000000E+00  0.62139606428E+03  0.22280855464E+04  0.21396803812E+04 0.  0.
        1    1    3    3  502    0 -0.46937684325E+03 -0.57755735301E+03 -0.48960737377E+03  0.89084369980E+03  0.50400001928E-02 0.  1.
       -1    1    3    3    0  502  0.46937684325E+03  0.57755735301E+03  0.11110034380E+04  0.13372418466E+04  0.50400001928E-02 0. -1.
</event>
<event>
 5   0  0.2624815E-05  0.2786741E+04  0.7818609E-02  0.8307397E-01
        2   -1    0    0  501    0  0.00000000000E+00  0.00000000000E+00  0.17701490930E+04  0.17701490930E+04  0.25500000920E-02 0.  1.
       -2   -1    0    0    0  501  0.00000000000E+00  0.00000000000E+00 -0.10967899426E+04  0.10967899426E+04  0.25500000920E-02 0. -1.
    10030    2    1    2    0    0  0.00000000000E+00  0.00000000000E+00  0.67335915041E+03  0.28669390356E+04  0.27867412669E+04 0.  0.
        4    1    3    3  502    0 -0.15751669084E+03 -0.47165449178E+03 -0.10023973049E+04  0.11189599802E+04  0.12699999809E+01 0. -1.
       -4    1    3    3    0  502  0.15751669084E+03  0.47165449178E+03  0.16757564553E+04  0.17479790554E+04  0.12699999809E+01 0.  1.
</event>
<event>
 5   0  0.1078103E-05  0.2822402E+04  0.7818609E-02  0.8296347E-01
        1   -1    0    0  501    0  0.00000000000E+00  0.00000000000E+00  0.11085965233E+04  0.11085965233E+04  0.50400001928E-02 0.  1.
       -1   -1    0    0    0  501  0.00000000000E+00  0.00000000000E+00 -0.17964046653E+04  0.17964046653E+04  0.50400001928E-02 0. -1.
    10030    2    1    2    0    0  0.00000000000E+00  0.00000000000E+00 -0.68780814195E+03  0.29050011886E+04  0.28224017902E+04 0.  0.
        1    1    3    3  502    0  0.10495149818E+04  0.53615837626E+03 -0.11428558803E+04  0.16416659418E+04  0.50400001928E-02 0. -1.
       -1    1    3    3    0  502 -0.10495149818E+04 -0.53615837626E+03  0.45504773835E+03  0.12633352467E+04  0.50400001928E-02 0.  1.
</event>
<event>
 5   0  0.1078103E-05  0.2889452E+04  0.7818609E-02  0.8276023E-01
        1   -1    0    0  501    0  0.00000000000E+00  0.00000000000E+00  0.20892562416E+04  0.20892562416E+04  0.50400001928E-02 0. -1.
       -1   -1    0    0    0  501  0.00000000000E+00  0.00000000000E+00 -0.99903189013E+03  0.99903189014E+03  0.50400001928E-02 0.  1.
    10030    2    1    2    0    0  0.00000000000E+00  0.00000000000E+00  0.10902243515E+04  0.30882881318E+04  0.28894522748E+04 0.  0.
        1    1    3    3  502    0  0.12471790366E+04 -0.23246394705E+03  0.12838620879E+04  0.18049368124E+04  0.50400001928E-02 0. -1.
       -1    1    3    3    0  502 -0.12471790366E+04  0.23246394705E+03 -0.19363773636E+03  0.12833513194E+04  0.50400001928E-02 0.  1.
</event>
<event>
 5   0  0.2651061E-05  0.2830822E+04  0.7818609E-02  0.8293763E-01
        2   -1    0    0  501    0  0.00000000000E+00  0.00000000000E+00  0.17947857984E+04  0.17947857984E+04  0.25500000920E-02 0.  1.
       -2   -1    0    0    0  501  0.00000000000E+00  0.00000000000E+00 -0.11162270149E+04  0.11162270149E+04  0.25500000920E-02 0. -1.
    10030    2    1    2    0    0  0.00000000000E+00  0.00000000000E+00  0.67855878349E+03  0.29110128134E+04  0.28308220673E+04 0.  0.
        3    1    3    3  502    0  0.76460885602E+03 -0.10689845740E+04  0.87955152552E+03  0.15814441560E+04  0.10100000352E+00 0.  1.
       -3    1    3    3    0  502 -0.76460885602E+03  0.10689845740E+04 -0.20099274203E+03  0.13295686574E+04  0.10100000352E+00 0. -1.
</event>
<event>
 5   0  0.1017456E-05  0.2717067E+04  0.7818609E-02  0.8329489E-01
        1   -1    0    0  501    0  0.00000000000E+00  0.00000000000E+00  0.17164739352E+04  0.17164739352E+04  0.50400001928E-02 0.  1.
       -1   -1    0    0    0  501  0.00000000000E+00  0.00000000000E+00 -0.10752348966E+04  0.10752348966E+04  0.50400001928E-02 0. -1.
    10030    2    1    2    0    0  0.00000000000E+00  0.00000000000E+00  0.64123903868E+03  0.27917088318E+04  0.27170665610E+04 0.  0.
        5    1    3    3  502    0 -0.93434511589E+03  0.57804664418E+02 -0.69093056671E+03  0.11635073325E+04  0.46999998093E+01 0. -1.
       -5    1    3    3    0  502  0.93434511589E+03 -0.57804664418E+02  0.13321696054E+04  0.16282014993E+04  0.46999998093E+01 0.  1.
</event>
<event>
 5   0  0.2651061E-05  0.3199348E+04  0.7818609E-02  0.8188989E-01
       -2   -1    0    0    0  501  0.00000000000E+00  0.00000000000E+00  0.14129900961E+04  0.14129900961E+04  0.25500000920E-02 0.  1.
        2   -1    0    0  501    0  0.00000000000E+00  0.00000000000E+00 -0.18110222291E+04  0.18110222291E+04  0.25500000920E-02 0. -1.
    10030    2    1    2    0    0  0.00000000000E+00  0.00000000000E+00 -0.39803213299E+03  0.32240123251E+04  0.31993477294E+04 0.  0.
        3    1    3    3  502    0 -0.15743178822E+03 -0.23179838842E+03 -0.17860993478E+04  0.18079452844E+04  0.10100000352E+00 0. -1.
       -3    1    3    3    0  502  0.15743178822E+03  0.23179838842E+03  0.13880672148E+04  0.14160670408E+04  0.10100000352E+00 0.  1.
</event>
<event>
 5   0  0.2624815E-05  0.2858887E+04  0.7818609E-02  0.8285216E-01
       -2   -1    0    0    0  501  0.00000000000E+00  0.00000000000E+00  0.13749088181E+04  0.13749088181E+04  0.25500000920E-02 0.  1.
        2   -1    0    0  501    0  0.00000000000E+00  0.00000000000E+00 -0.14861411782E+04  0.14861411783E+04  0.25500000920E-02 0. -1.
    10030    2    1    2    0    0  0.00000000000E+00  0.00000000000E+00 -0.11123236019E+03  0.28610499963E+04  0.28588869239E+04 0.  0.
        4    1    3    3  502    0 -0.65535543156E+03 -0.71821659088E+03 -0.11042549683E+04  0.14712941450E+04  0.12699999809E+01 0. -1.
       -4    1    3    3    0  502  0.65535543156E+03  0.71821659088E+03  0.99302260815E+03  0.13897558513E+04  0.12699999809E+01 0.  1.
</event>
<event>
 5   0  0.2651061E-05  0.2796882E+04  0.7818609E-02  0.8304237E-01
       -2   -1    0    0    0  501  0.00000000000E+00  0.00000000000E+00  0.14600280339E+04  0.14600280339E+04  0.25500000920E-02 0.  1.
        2   -1    0    0  501    0  0.00000000000E+00  0.00000000000E+00 -0.13394515624E+04  0.13394515624E+04  0.25500000920E-02 0. -1.
    10030    2    1    2    0    0  0.00000000000E+00  0.00000000000E+00  0.12057647144E+03  0.27994795963E+04  0.27968817145E+04 0.  0.
        3    1    3    3  502    0  0.26778329974E+03  0.12276460874E+04  0.67471019290E+03  0.14262035851E+04  0.10100000352E+00 0.  1.
       -3    1    3    3    0  502 -0.26778329974E+03 -0.12276460874E+04 -0.55413372146E+03  0.13732760112E+04  0.10100000352E+00 0. -1.
</event>
<event>
 5   0  0.2697964E-05  0.2711900E+04  0.7818609E-02  0.8331154E-01
       -2   -1    0    0    0  501  0.00000000000E+00  0.00000000000E+00  0.17016735293E+04  0.17016735293E+04  0.25500000920E-02 0. -1.
        2   -1    0    0  501    0  0.00000000000E+00  0.00000000000E+00 -0.10804657275E+04  0.10804657275E+04  0.25500000920E-02 0.  1.
    10030    2    1    2    0    0  0.00000000000E+00  0.00000000000E+00  0.62120780174E+03  0.27821392568E+04  0.27118996500E+04 0.  0.
        1    1    3    3  502    0 -0.84793255884E+02 -0.74430197723E+02  0.16968495525E+04  0.17005964114E+04  0.50400001928E-02 0. -1.
       -1    1    3    3    0  502  0.84793255884E+02  0.74430197723E+02 -0.10756417507E+04  0.10815428455E+04  0.50400001928E-02 0.  1.
</event>
<event>
 5   0  0.1075146E-05  0.2760282E+04  0.7818609E-02  0.8315706E-01
       -1   -1    0    0    0  501  0.00000000000E+00  0.00000000000E+00  0.13862361224E+04  0.13862361224E+04  0.50400001928E-02 0. -1.
        1   -1    0    0  501    0  0.00000000000E+00  0.00000000000E+00 -0.13740729270E+04  0.13740729270E+04  0.50400001928E-02 0.  1.
    10030    2    1    2    0    0  0.00000000000E+00  0.00000000000E+00  0.12163195434E+02  0.27603090494E+04  0.27602822510E+04 0.  0.
        2    1    3    3  502    0 -0.53238565789E+03 -0.12618461442E+04 -0.16450536200E+03  0.13794028398E+04  0.25500000920E-02 0. -1.
       -2    1    3    3    0  502  0.53238565789E+03  0.12618461442E+04  0.17666855743E+03  0.13809062096E+04  0.25500000920E-02 0.  1.
</event>
<event>
 5   0  0.1067434E-05  0.2840573E+04  0.7818609E-02  0.8290781E-01
       -1   -1    0    0    0  501  0.00000000000E+00  0.00000000000E+00  0.11803301624E+04  0.11803301625E+04  0.50400001928E-02 0.  1.
        1   -1    0    0  501    0  0.00000000000E+00  0.00000000000E+00 -0.17090254778E+04  0.17090254778E+04  0.50400001928E-02 0. -1.
    10030    2    1    2    0    0  0.00000000000E+00  0.00000000000E+00 -0.52869531531E+03  0.28893556402E+04  0.28405734068E+04 0.  0.
        4    1    3    3  502    0 -0.87673669020E+03  0.36869024600E+03  0.80857161405E+03  0.12483546729E+04  0.12699999809E+01 0.  1.
       -4    1    3    3    0  502  0.87673669020E+03 -0.36869024600E+03 -0.13372669294E+04  0.16410009673E+04  0.12699999809E+01 0. -1.
</event>
<event>
 5   0  0.2518686E-05  0.2761752E+04  0.7818609E-02  0.8315242E-01
        2   -1    0    0  501    0  0.00000000000E+00  0.00000000000E+00  0.17053737443E+04  0.17053737443E+04  0.25500000920E-02 0. -1.
       -2   -1    0    0    0  501  0.00000000000E+00  0.00000000000E+00 -0.11181231635E+04  0.11181231635E+04  0.25500000920E-02 0.  1.
    10030    2    1    2    0    0  0.00000000000E+00  0.00000000000E+00  0.58725058082E+03  0.28234969077E+04  0.27617515354E+04 0.  0.
        5    1    3    3  502    0  0.84403411964E+03  0.15072916849E+03  0.14002688518E+04  0.16419159006E+04  0.46999998093E+01 0. -1.
       -5    1    3    3    0  502 -0.84403411964E+03 -0.15072916849E+03 -0.81301827101E+03  0.11815810071E+04  0.46999998093E+01 0.  1.
</event>
<event>
 5   0  0.1078103E-05  0.2564992E+04  0.7818609E-02  0.8380191E-01
       -1   -1    0    0    0  501  0.00000000000E+00  0.00000000000E+00  0.13839305796E+04  0.13839305796E+04  0.50400001928E-02 0.  1.
        1   -1    0    0  501    0  0.00000000000E+00  0.00000000000E+00 -0.11884963815E+04  0.11884963815E+04  0.50400001928E-02 0. -1.
    10030    2    1    2    0    0  0.00000000000E+00  0.00000000000E+00  0.19543419807E+03  0.25724269611E+04  0.25649923868E+04 0.  0.
        1    1    3    3  502    0  0.30100319862E+03  0.12465059979E+04  0.77253112835E+02  0.12846587764E+04  0.50400001928E-02 0.  1.
       -1    1    3    3    0  502 -0.30100319862E+03 -0.12465059979E+04  0.11818108523E+03  0.12877681846E+04  0.50400001928E-02 0. -1.
</event>
<event>
 5   0  0.1067434E-05  0.2253262E+04  0.7818609E-02  0.8496581E-01
        1   -1    0    0  501    0  0.00000000000E+00  0.00000000000E+00  0.15727774232E+04  0.15727774232E+04  0.50400001928E-02 0. -1.
       -1   -1    0    0    0  501  0.00000000000E+00  0.00000000000E+00 -0.80704183523E+03  0.80704183524E+03  0.50400001928E-02 0.  1.
    10030    2    1    2    0    0  0.00000000000E+00  0.00000000000E+00  0.76573558793E+03  0.23798192584E+04  0.22532617939E+04 0.  0.
        4    1    3    3  502    0  0.37017938852E+03 -0.68572358788E+03 -0.47649468373E+03  0.91339937332E+03  0.12699999809E+01 0.  1.
       -4    1    3    3    0  502 -0.37017938852E+03  0.68572358788E+03  0.12422302717E+04  0.14664198851E+04  0.12699999809E+01 0. -1.
</event>
<event>
 5   0  0.1017456E-05  0.2830734E+04  0.7818609E-02  0.8293790E-01
        1   -1    0    0  501    0  0.00000000000E+00  0.00000000000E+00  0.19466353249E+04  0.19466353249E+04  0.50400001928E-02 0. -1.
       -1   -1    0    0    0  501  0.00000000000E+00  0.00000000000E+00 -0.10290904205E+04  0.10290904205E+04  0.50400001928E-02 0.  1.
    10030    2    1    2    0    0  0.00000000000E+00  0.00000000000E+00  0.91754490445E+03  0.29757257454E+04  0.28307340144E+04 0.  0.
        5    1    3    3  502    0 -0.10234123046E+04  0.54207996304E+03  0.13140928275E+04  0.17515951247E+04  0.46999998093E+01 0. -1.
       -5    1    3    3    0  502  0.10234123046E+04 -0.54207996304E+03 -0.39654792306E+03  0.12241306208E+04  0.46999998093E+01 0.  1.
</event>
<event>
 5   0  0.2624815E-05  0.2716960E+04  0.7818609E-02  0.8329523E-01
       -2   -1    0    0    0  501  0.00000000000E+00  0.00000000000E+00  0.92104651736E+03  0.92104651736E+03  0.25500000920E-02 0. -1.
        2   -1    0    0  501    0  0.00000000000E+00  0.00000000000E+00 -0.20036638874E+04  0.20036638874E+04  0.25500000920E-02 0.  1.
    10030    2    1    2    0    0  0.00000000000E+00  0.00000000000E+00 -0.10826173701E+04  0.29247104048E+04  0.27169598050E+04 0.  0.
        4    1    3    3  502    0  0.98387315044E+02 -0.17261247698E+03 -0.19879385801E+04  0.19978429724E+04  0.12699999809E+01 0.  1.
       -4    1    3    3    0  502 -0.98387315044E+02  0.17261247698E+03  0.90532121007E+03  0.92686743241E+03  0.12699999809E+01 0. -1.
</event>
<event>
 5   0  0.1078103E-05  0.1984408E+04  0.7818609E-02  0.8613945E-01
        1   -1    0    0  501    0  0.00000000000E+00  0.00000000000E+00  0.17423099806E+04  0.17423099806E+04  0.50400001928E-02 0.  1.
       -1   -1    0    0    0  501  0.00000000000E+00  0.00000000000E+00 -0.56503633322E+03  0.56503633324E+03  0.50400001928E-02 0. -1.
    10030    2    1    2    0    0  0.00000000000E+00  0.00000000000E+00  0.11772736473E+04  0.23073463138E+04  0.19844076625E+04 0.  0.
        1    1    3    3  502    0 -0.54731062064E+03  0.73008190507E+03  0.13546730742E+03  0.92245319392E+03  0.50400001928E-02 0. -1.
       -1    1    3    3    0  502  0.54731062064E+03 -0.73008190507E+03  0.10418063399E+04  0.13848931199E+04  0.50400001928E-02 0.  1.
</event>
<event>
 5   0  0.2588048E-05  0.3020567E+04  0.7818609E-02  0.8237882E-01
       -2   -1    0    0    0  501  0.00000000000E+00  0.00000000000E+00  0.85651772337E+03  0.85651772338E+03  0.25500000920E-02 0.  1.
        2   -1    0    0  501    0  0.00000000000E+00  0.00000000000E+00 -0.26630576371E+04  0.26630576371E+04  0.25500000920E-02 0. -1.
    10030    2    1    2    0    0  0.00000000000E+00  0.00000000000E+00 -0.18065399138E+04  0.35195753605E+04  0.30205668770E+04 0.  0.
        2    1    3    3  502    0  0.83782755762E+03  0.12503151599E+04 -0.10493302102E+04  0.18347579964E+04  0.25500000920E-02 0.  1.
       -2    1    3    3    0  502 -0.83782755762E+03 -0.12503151599E+04 -0.75720970353E+03  0.16848173641E+04  0.25500000920E-02 0. -1.
</event>
<event>
 5   0  0.2518686E-05  0.2793272E+04  0.7818609E-02  0.8305360E-01
        2   -1    0    0  501    0  0.00000000000E+00  0.00000000000E+00  0.17111675293E+04  0.17111675293E+04  0.25500000920E-02 0.  1.
       -2   -1    0    0    0  501  0.00000000000E+00  0.00000000000E+00 -0.11399187088E+04  0.11399187088E+04  0.25500000920E-02 0. -1.
    10030    2    1    2    0    0  0.00000000000E+00  0.00000000000E+00  0.57124882054E+03  0.28510862381E+04  0.27932718310E+04 0.  0.
        5    1    3    3  502    0  0.11435471112E+03  0.13385306000E+04 -0.10415468207E+03  0.13474462717E+04  0.46999998093E+01 0. -1.
       -5    1    3    3    0  502 -0.11435471112E+03 -0.13385306000E+04  0.67540350261E+03  0.15036399664E+04  0.46999998093E+01 0.  1.
</event>
<event>
 5   0  0.1105862E-05  0.2868975E+04  0.7818609E-02  0.8282169E-01
       -1   -1    0    0    0  501  0.00000000000E+00  0.00000000000E+00  0.16236382454E+04  0.16236382454E+04  0.50400001928E-02 0. -1.
        1   -1    0    0  501    0  0.00000000000E+00  0.00000000000E+00 -0.12673724853E+04  0.12673724853E+04  0.50400001928E-02 0.  1.
    10030    2    1    2    0    0  0.00000000000E+00  0.00000000000E+00  0.35626576015E+03  0.28910107307E+04  0.28689750353E+04 0.  0.
        3    1    3    3  502    0  0.50833634962E+03  0.39530880647E+02 -0.11729808851E+04  0.12790045747E+04  0.10100000352E+00 0.  1.
       -3    1    3    3    0  502 -0.50833634962E+03 -0.39530880647E+02  0.15292466453E+04  0.16120061561E+04  0.10100000352E+00 0. -1.
</event>
<event>
 5   0  0.1017456E-05  0.2793954E+04  0.7818609E-02  0.8305148E-01
        1   -1    0    0  501    0  0.00000000000E+00  0.00000000000E+00  0.14942399728E+04  0.14942399728E+04  0.50400001928E-02 0.  1.
       -1   -1    0    0    0  501  0.00000000000E+00  0.00000000000E+00 -0.13060452978E+04  0.13060452978E+04  0.50400001928E-02 0. -1.
    10030    2    1    2    0    0  0.00000000000E+00  0.00000000000E+00  0.18819467501E+03  0.28002852706E+04  0.27939542517E+04 0.  0.
        5    1    3    3  502    0  0.11224825270E+04  0.60318871756E+03 -0.47966762777E+03  0.13615824528E+04  0.46999998093E+01 0. -1.
       -5    1    3    3    0  502 -0.11224825270E+04 -0.60318871756E+03  0.66786230278E+03  0.14387028178E+04  0.46999998093E+01 0.  1.
</event>
<event>
 5   0  0.2588048E-05  0.1602420E+04  0.7818609E-02  0.8819063E-01
       -2   -1    0    0    0  501  0.00000000000E+00  0.00000000000E+00  0.98318134294E+03  0.98318134295E+03  0.25500000920E-02 0. -1.
        2   -1    0    0  501    0  0.00000000000E+00  0.00000000000E+00 -0.65291885668E+03  0.65291885668E+03  0.25500000920E-02 0.  1.
    10030    2    1    2    0    0  0.00000000000E+00  0.00000000000E+00  0.33026248627E+03  0.16361001996E+04  0.16024202175E+04 0.  0.
        2    1    3    3  502    0  0.24173404941E+03  0.22734969768E+03  0.90971495104E+03  0.96835144851E+03  0.25500000920E-02 0. -1.
       -2    1    3    3    0  502 -0.24173404941E+03 -0.22734969768E+03 -0.57945246477E+03  0.66774875112E+03  0.25500000920E-02 0.  1.
</event>
<event>
 5   0  0.1067434E-05  0.1572556E+04  0.7818609E-02  0.8837588E-01
       -1   -1    0    0    0  501  0.00000000000E+00  0.00000000000E+00  0.69016474747E+03  0.69016474749E+03  0.50400001928E-02 0.  1.
        1   -1    0    0  501    0  0.00000000000E+00  0.00000000000E+00 -0.89577617640E+03  0.89577617642E+03  0.50400001928E-02 0. -1.
    10030    2    1    2    0    0  0.00000000000E+00  0.00000000000E+00 -0.20561142893E+03  0.15859409239E+04  0.15725560576E+04 0.  0.
        4    1    3    3  502    0 -0.16907192851E+03  0.64942757749E+02  0.66883983377E+03  0.69292944441E+03  0.12699999809E+01 0.  1.
       -4    1    3    3    0  502  0.16907192851E+03 -0.64942757749E+02 -0.87445126269E+03  0.89301147950E+03  0.12699999809E+01 0. -1.
</event>
<event>
 5   0  0.2651061E-05  0.2875995E+04  0.7818609E-02  0.8280056E-01
       -2   -1    0    0    0  501  0.00000000000E+00  0.00000000000E+00  0.14508247727E+04  0.14508247727E+04  0.25500000920E-02 0.  1.
        2   -1    0    0  501    0  0.00000000000E+00  0.00000000000E+00 -0.14252833127E+04  0.14252833127E+04  0.25500000920E-02 0. -1.
    10030    2    1    2    0    0  0.00000000000E+00  0.00000000000E+00  0.25541459940E+02  0.28761080854E+04  0.28759946719E+04 0.  0.
        3    1    3    3  502    0  0.55346483669E+03  0.79963054944E+03 -0.10465651412E+04  0.14286465434E+04  0.10100000352E+00 0. -1.
       -3    1    3    3    0  502 -0.55346483669E+03 -0.79963054944E+03  0.10721066012E+04  0.14474615420E+04  0.10100000352E+00 0.  1.
</event>
<event>
 5   0  0.2518686E-05  0.2780080E+04  0.7818609E-02  0.8309479E-01
        2   -1    0    0  501    0  0.00000000000E+00  0.00000000000E+00  0.12166968164E+04  0.12166968164E+04  0.25500000920E-02 0. -1.
       -2   -1    0    0    0  501  0.00000000000E+00  0.00000000000E+00 -0.15880796347E+04  0.15880796347E+04  0.25500000920E-02 0.  1.
    10030    2    1    2    0    0  0.00000000000E+00  0.00000000000E+00 -0.37138281826E+03  0.28047764511E+04  0.27800801684E+04 0.  0.
        5    1    3    3  502    0 -0.51644398614E+03  0.28221525918E+03  0.10847925299E+04  0.12341623744E+04  0.46999998093E+01 0. -1.
       -5    1    3    3    0  502  0.51644398614E+03 -0.28221525918E+03 -0.14561753482E+04  0.15706140767E+04  0.46999998093E+01 0.  1.
</event>
<event>
 5   0  0.2624815E-05  0.2669102E+04  0.7818609E-02  0.8345100E-01
        2   -1    0    0  501    0  0.00000000000E+00  0.00000000000E+00  0.20707468507E+04  0.20707468507E+04  0.25500000920E-02 0. -1.
       -2   -1    0    0    0  501  0.00000000000E+00  0.00000000000E+00 -0.86008879858E+03  0.86008879859E+03  0.25500000920E-02 0.  1.
    10030    2    1    2    0    0  0.00000000000E+00  0.00000000000E+00  0.12106580521E+04  0.29308356493E+04  0.26691018497E+04 0.  0.
        4    1    3    3  502    0 -0.22499581596E+03  0.11581626965E+04  0.12902413023E+04  0.17483386914E+04  0.12699999809E+01 0. -1.
       -4    1    3    3    0  502  0.22499581596E+03 -0.11581626965E+04 -0.79583250145E+02  0.11824969579E+04  0.12699999809E+01 0.  1.
</event>
<event>
 5   0  0.1067434E-05  0.2767766E+04  0.7818609E-02  0.8313346E-01
        1   -1    0    0  501    0  0.00000000000E+00  0.00000000000E+00  0.10126423157E+04  0.10126423157E+04  0.50400001928E-02 0.  1.
       -1   -1    0    0    0  501  0.00000000000E+00  0.00000000000E+00 -0.18912232014E+04  0.18912232014E+04  0.50400001928E-02 0. -1.
    10030    2    1    2    0    0  0.00000000000E+00  0.00000000000E+00 -0.87858088572E+03  0.29038655171E+04  0.27677663501E+04 0.  0.
        4    1    3    3  502    0  0.53134354742E+03  0.45494715510E+03  0.81350644821E+03  0.10728919953E+04  0.12699999809E+01 0.  1.
       -4    1    3    3    0  502 -0.53134354742E+03 -0.45494715510E+03 -0.16920873339E+04  0.18309735219E+04  0.12699999809E+01 0. -1.
</event>
<event>
 5   0  0.2697964E-05  0.2351222E+04  0.7818609E-02  0.8457995E-01
       -2   -1    0    0    0  501  0.00000000000E+00  0.00000000000E+00  0.15386693356E+04  0.15386693356E+04  0.25500000920E-02 0.  1.
        2   -1    0    0  501    0  0.00000000000E+00  0.00000000000E+00 -0.89821822149E+03  0.89821822149E+03  0.25500000920E-02 0. -1.
    10030    2    1    2    0    0  0.00000000000E+00  0.00000000000E+00  0.64045111409E+03  0.24368875571E+04  0.23512216689E+04 0.  0.
        1    1    3    3  502    0  0.65951457307E+03 -0.52723334231E+03 -0.52757946721E+03  0.99562772339E+03  0.50400001928E-02 0. -1.
       -1    1    3    3    0  502 -0.65951457307E+03  0.52723334231E+03  0.11680305813E+04  0.14412598337E+04  0.50400001928E-02 0.  1.
</event>
<event>
 5   0  0.1067434E-05  0.2785331E+04  0.7818609E-02  0.8307837E-01
       -1   -1    0    0    0  501  0.00000000000E+00  0.00000000000E+00  0.10603780048E+04  0.10603780048E+04  0.50400001928E-02 0.  1.
        1   -1    0    0  501    0  0.00000000000E+00  0.00000000000E+00 -0.18290806424E+04  0.18290806424E+04  0.50400001928E-02 0. -1.
    10030    2    1    2    0    0  0.00000000000E+00  0.00000000000E+00 -0.76870263767E+03  0.28894586472E+04  0.27853307755E+04 0.  0.
        4    1    3    3  502    0 -0.23914022395E+03 -0.11575893506E+04  0.37959907805E+03  0.12414903239E+04  0.12699999809E+01 0.  1.
       -4    1    3    3    0  502  0.23914022395E+03  0.11575893506E+04 -0.11483017157E+04  0.16479683233E+04  0.12699999809E+01 0. -1.
</event>
<event>
 5   0  0.2624815E-05  0.2866491E+04  0.7818609E-02  0.8282918E-01
        2   -1    0    0  501    0  0.00000000000E+00  0.00000000000E+00  0.18041046271E+04  0.18041046271E+04  0.25500000920E-02 0.  1.
       -2   -1    0    0    0  501  0.00000000000E+00  0.00000000000E+00 -0.11386215039E+04  0.11386215039E+04  0.25500000920E-02 0. -1.
    10030    2    1    2    0    0  0.00000000000E+00  0.00000000000E+00  0.66548312319E+03  0.29427261311E+04  0.28664907631E+04 0.  0.
        4    1    3    3  502    0 -0.97094356288E+03 -0.32485213703E+03 -0.69689336292E+03  0.12385161628E+04  0.12699999809E+01 0. -1.
       -4    1    3    3    0  502  0.97094356288E+03  0.32485213703E+03  0.13623764861E+04  0.17042099683E+04  0.12699999809E+01 0.  1.
</event>
<event>
 5   0  0.1078103E-05  0.2809734E+04  0.7818609E-02  0.8300253E-01
        1   -1    0    0  501    0  0.00000000000E+00  0.00000000000E+00  0.13183259458E+04  0.13183259459E+04  0.50400001928E-02 0. -1.
       -1   -1    0    0    0  501  0.00000000000E+00  0.00000000000E+00 -0.14970892028E+04  0.14970892028E+04  0.50400001928E-02 0.  1.
    10030    2    1    2    0    0  0.00000000000E+00  0.00000000000E+00 -0.17876325699E+03  0.28154151487E+04  0.28097341792E+04 0.  0.
        1    1    3    3  502    0 -0.11979607480E+04  0.67746867061E+03 -0.37204734271E+03  0.14256552805E+04  0.50400001928E-02 0.  1.
       -1    1    3    3    0  502  0.11979607480E+04 -0.67746867061E+03  0.19328408572E+03  0.13897598682E+04  0.50400001928E-02 0. -1.
</event>
<event>
 5   0  0.2518686E-05  0.2792443E+04  0.7818609E-02  0.8305618E-01
        2   -1    0    0  501    0  0.00000000000E+00  0.00000000000E+00  0.11711507797E+04  0.11711507797E+04  0.25500000920E-02 0.  1.
       -2   -1    0    0    0  501  0.00000000000E+00  0.00000000000E+00 -0.16645462300E+04  0.16645462300E+04  0.25500000920E-02 0. -1.
    10030    2    1    2    0    0  0.00000000000E+00  0.00000000000E+00 -0.49339545032E+03  0.28356970097E+04  0.27924430989E+04 0.  0.
        5    1    3    3  502    0  0.10719706369E+04  0.54772533819E+02 -0.11534403792E+04  0.15756166651E+04  0.46999998093E+01 0. -1.
       -5    1    3    3    0  502 -0.10719706369E+04 -0.54772533819E+02  0.66004492891E+03  0.12600803447E+04  0.46999998093E+01 0.  1.
</event>
<event>
 5   0  0.2518686E-05  0.2748715E+04  0.7818609E-02  0.8319370E-01
       -2   -1    0    0    0  501  0.00000000000E+00  0.00000000000E+00  0.74313836096E+03  0.74313836096E+03  0.25500000920E-02 0.  1.
        2   -1    0    0  501    0  0.00000000000E+00  0.00000000000E+00 -0.25417313616E+04  0.25417313616E+04  0.25500000920E-02 0. -1.
    10030    2    1    2    0    0  0.00000000000E+00  0.00000000000E+00 -0.17985930006E+04  0.32848697225E+04  0.27487146655E+04 0.  0.
        5    1    3    3  502    0 -0.10237340440E+04  0.56451690858E+03 -0.35769660164E+02  0.11696205759E+04  0.46999998093E+01 0.  1.
       -5    1    3    3    0  502  0.10237340440E+04 -0.56451690858E+03 -0.17628233404E+04  0.21152491467E+04  0.46999998093E+01 0. -1.
</event>
<event>
 5   0  0.2588048E-05  0.2697070E+04  0.7818609E-02  0.8335956E-01
       -2   -1    0    0    0  501  0.00000000000E+00  0.00000000000E+00  0.79242182353E+03  0.79242182353E+03  0.25500000920E-02 0. -1.
        2   -1    0    0  501    0  0.00000000000E+00  0.00000000000E+00 -0.22949222736E+04  0.22949222736E+04  0.25500000920E-02 0.  1.
    10030    2    1    2    0    0  0.00000000000E+00  0.00000000000E+00 -0.15025004501E+04  0.30873440972E+04  0.26970698863E+04 0.  0.
        2    1    3    3  502    0 -0.71347452798E+03  0.10806698250E+04 -0.32041994911E+03  0.13340022926E+04  0.25500000920E-02 0.  1.
       -2    1    3    3    0  502  0.71347452798E+03 -0.10806698250E+04 -0.11820805010E+04  0.17533418046E+04  0.25500000920E-02 0. -1.
</event>
<event>
 5   0  0.2588048E-05  0.2442161E+04  0.7818609E-02  0.8423886E-01
        2   -1    0    0  501    0  0.00000000000E+00  0.00000000000E+00  0.85737591215E+03  0.85737591216E+03  0.25500000920E-02 0.  1.
       -2   -1    0    0    0  501  0.00000000000E+00  0.00000000000E+00 -0.17390708030E+04  0.17390708030E+04  0.25500000920E-02 0. -1.
    10030    2    1    2    0    0  0.00000000000E+00  0.00000000000E+00 -0.88169489086E+03  0.25964467152E+04  0.24421608596E+04 0.  0.
        2    1    3    3  502    0  0.10193311559E+04 -0.64742635071E+03 -0.24817915980E+03  0.12327975423E+04  0.25500000920E-02 0. -1.
       -2    1    3    3    0  502 -0.10193311559E+04  0.64742635071E+03 -0.63351573106E+03  0.13636491728E+04  0.25500000920E-02 0.  1.
</event>
<event>
 5   0  0.2697964E-05  0.2795287E+04  0.7818609E-02  0.8304733E-01
       -2   -1    0    0    0  501  0.00000000000E+00  0.00000000000E+00  0.13786106891E+04  0.13786106891E+04  0.25500000920E-02 0.  1.
        2   -1    0    0  501    0  0.00000000000E+00  0.00000000000E+00 -0.14169392306E+04  0.14169392306E+04  0.25500000920E-02 0. -1.
    10030    2    1    2    0    0  0.00000000000E+00  0.00000000000E+00 -0.38328541446E+02  0.27955499197E+04  0.27952871546E+04 0.  0.
        1    1    3    3  502    0 -0.60124878175E+03  0.10036075514E+03 -0.12769927958E+04  0.14150204873E+04  0.50400001928E-02 0. -1.
       -1    1    3    3    0  502  0.60124878175E+03 -0.10036075514E+03  0.12386642544E+04  0.13805294325E+04  0.50400001928E-02 0.  1.
</event>
<event>
 5   0  0.1017456E-05  0.2753993E+04  0.7818609E-02  0.8317696E-01
       -1   -1    0    0    0  501  0.00000000000E+00  0.00000000000E+00  0.88662787155E+03  0.88662787156E+03  0.50400001928E-02 0. -1.
        1   -1    0    0  501    0  0.00000000000E+00  0.00000000000E+00 -0.21385740774E+04  0.21385740774E+04  0.50400001928E-02 0.  1.
    10030    2    1    2    0    0  0.00000000000E+00  0.00000000000E+00 -0.12519462058E+04  0.30252019490E+04  0.27539930155E+04 0.  0.
        5    1    3    3  502    0 -0.71998415981E+03 -0.82021279115E+03  0.29633747052E+03  0.11309129938E+04  0.46999998093E+01 0. -1.
       -5    1    3    3    0  502  0.71998415981E+03  0.82021279115E+03 -0.15482836764E+04  0.18942889552E+04  0.46999998093E+01 0.  1.
</event>
<event>
 5   0  0.1105862E-05  0.2807443E+04  0.7818609E-02  0.8300961E-01
       -1   -1    0    0    0  501  0.00000000000E+00  0.00000000000E+00  0.15081384637E+04  0.15081384637E+04  0.50400001928E-02 0. -1.
        1   -1    0    0  501    0  0.00000000000E+00  0.00000000000E+00 -0.13065338925E+04  0.13065338925E+04  0.50400001928E-02 0.  1.
    10030    2    1    2    0    0  0.00000000000E+00  0.00000000000E+00  0.20160457117E+03  0.28146723562E+04  0.28074429771E+04 0.  0.
        3    1    3    3  502    0  0.63184655928E+03 -0.11300703641E+04 -0.44294558457E+03  0.13683895291E+04  0.10100000352E+00 0.  1.
       -3    1    3    3    0  502 -0.63184655928E+03  0.11300703641E+04  0.64455015574E+03  0.14462828270E+04  0.10100000352E+00 0. -1.
</event>
<event>
 5   0  0.2651061E-05  0.2769306E+04  0.7818609E-02  0.8312862E-01
        2   -1    0    0  501    0  0.00000000000E+00  0.00000000000E+00  0.16395062235E+04  0.16395062235E+04  0.25500000920E-02 0. -1.
       -2   -1    0    0    0  501  0.00000000000E+00  0.00000000000E+00 -0.11694152592E+04  0.11694152592E+04  0.25500000920E-02 0.  1.
    10030    2    1    2    0    0  0.00000000000E+00  0.00000000000E+00  0.47009096429E+03  0.28089214827E+04  0.27693057580E+04 0.  0.
        3    1    3    3  502    0  0.18145648276E+03  0.65665976340E+03  0.14577504740E+04  0.16090882371E+04  0.10100000352E+00 0. -1.
       -3    1    3    3    0  502 -0.18145648276E+03 -0.65665976340E+03 -0.98765950971E+03  0.11998332456E+04  0.10100000352E+00 0.  1.
</event>
<event>
 5   0  0.1078103E-05  0.2771673E+04  0.7818609E-02  0.8312117E-01
        1   -1    0    0  501    0  0.00000000000E+00  0.00000000000E+00  0.11264148099E+04  0.11264148099E+04  0.50400001928E-02 0. -1.
       -1   -1    0    0    0  501  0.00000000000E+00  0.00000000000E+00 -0.17050045975E+04  0.17050045976E+04  0.50400001928E-02 0.  1.
    10030    2    1    2    0    0  0.00000000000E+00  0.00000000000E+00 -0.57858978762E+03  0.28314194075E+04  0.27716727294E+04 0.  0.
        1    1    3    3  502    0 -0.38579914272E+03  0.12240247547E+04 -0.82350612283E+03  0.15248737367E+04  0.50400001928E-02 0.  1.
       -1    1    3    3    0  502  0.38579914272E+03 -0.12240247547E+04  0.24491633521E+03  0.13065456708E+04  0.50400001928E-02 0. -1.
</event>
<event>
 5   0  0.2588048E-05  0.2792124E+04  0.7818609E-02  0.8305718E-01
       -2   -1    0    0    0  501  0.00000000000E+00  0.00000000000E+00  0.14425026714E+04  0.14425026714E+04  0.25500000920E-02 0.  1.
        2   -1    0    0  501    0  0.00000000000E+00  0.00000000000E+00 -0.13511165523E+04  0.13511165523E+04  0.25500000920E-02 0. -1.
    10030    2    1    2    0    0  0.00000000000E+00  0.00000000000E+00  0.91386119098E+02  0.27936192237E+04  0.27921240918E+04 0.  0.
        2    1    3    3  502    0  0.55224254051E+03 -0.29020901366E+03  0.12952798206E+04  0.14376866518E+04  0.25500000920E-02 0.  1.
       -2    1    3    3    0  502 -0.55224254051E+03  0.29020901366E+03 -0.12038937015E+04  0.13559325719E+04  0.25500000920E-02 0. -1.
</event>
<event>
 5   0  0.1067434E-05  0.2792157E+04  0.7818609E-02  0.8305707E-01
       -1   -1    0    0    0  501  0.00000000000E+00  0.00000000000E+00  0.15648558804E+04  0.15648558804E+04  0.50400001928E-02 0.  1.
        1   -1    0    0  501    0  0.00000000000E+00  0.00000000000E+00 -0.12455050310E+04  0.12455050310E+04  0.50400001928E-02 0. -1.
    10030    2    1    2    0    0  0.00000000000E+00  0.00000000000E+00  0.31935084937E+03  0.28103609114E+04  0.27921574968E+04 0.  0.
        4    1    3    3  502    0  0.49019368449E+03 -0.12027970567E+04  0.67489509032E+03  0.14637266151E+04  0.12699999809E+01 0.  1.
       -4    1    3    3    0  502 -0.49019368449E+03  0.12027970567E+04 -0.35554424095E+03  0.13466342963E+04  0.12699999809E+01 0. -1.
</event>
<event>
 5   0  0.1078103E-05  0.2829915E+04  0.7818609E-02  0.8294041E-01
        1   -1    0    0  501    0  0.00000000000E+00  0.00000000000E+00  0.14913573446E+04  0.14913573446E+04  0.50400001928E-02 0. -1.
       -1   -1    0    0    0  501  0.00000000000E+00  0.00000000000E+00 -0.13424714455E+04  0.13424714455E+04  0.50400001928E-02 0.  1.
    10030    2    1    2    0    0  0.00000000000E+00  0.00000000000E+00  0.14888589909E+03  0.28338287901E+04  0.28299149459E+04 0.  0.
        1    1    3    3  502    0 -0.41621678753E+03 -0.10979436129E+04  0.86508419196E+03  0.14584537191E+04  0.50400001928E-02 0. -1.
       -1    1    3    3    0  502  0.41621678753E+03  0.10979436129E+04 -0.71619829287E+03  0.13753750711E+04  0.50400001928E-02 0.  1.
</event>
<event>
 5   0  0.1075146E-05  0.1948210E+04  0.7818609E-02  0.8631225E-01
        1   -1    0    0  501    0  0.00000000000E+00  0.00000000000E+00  0.65318905821E+03  0.65318905823E+03  0.50400001928E-02 0. -1.
       -1   -1    0    0    0  501  0.00000000000E+00  0.00000000000E+00 -0.14526884186E+04  0.14526884186E+04  0.50400001928E-02 0.  1.
    10030    2    1    2    0    0  0.00000000000E+00  0.00000000000E+00 -0.79949936043E+03  0.21058774769E+04  0.19482096192E+04 0.  0.
        2    1    3    3  502    0  0.58371810114E+03  0.54588499147E+03 -0.10017439604E+04  0.12814867177E+04  0.25500000920E-02 0.  1.
       -2    1    3    3    0  502 -0.58371810114E+03 -0.54588499147E+03  0.20224460000E+03  0.82439075913E+03  0.25500000920E-02 0. -1.
</event>
<event>
 5   0  0.1105862E-05  0.2683495E+04  0.7818609E-02  0.8340380E-01
        1   -1    0    0  501    0  0.00000000000E+00  0.00000000000E+00  0.16243164284E+04  0.16243164284E+04  0.50400001928E-02 0. -1.
       -1   -1    0    0    0  501  0.00000000000E+00  0.00000000000E+00 -0.11083345739E+04  0.11083345739E+04  0.50400001928E-02 0.  1.
    10030    2    1    2    0    0  0.00000000000E+00  0.00000000000E+00  0.51598185455E+03  0.27326510023E+04  0.26834947785E+04 0.  0.
        3    1    3    3  502    0  0.53076577447E+02  0.12862697564E+04 -0.12706126391E+03  0.12936195670E+04  0.10100000352E+00 0. -1.
       -3    1    3    3    0  502 -0.53076577447E+02 -0.12862697564E+04  0.64304311846E+03  0.14390314352E+04  0.10100000352E+00 0.  1.
</event>
<event>
 5   0  0.2624815E-05  0.2811354E+04  0.7818609E-02  0.8299752E-01
       -2   -1    0    0    0  501  0.00000000000E+00  0.00000000000E+00  0.95495325622E+03  0.95495325622E+03  0.25500000920E-02 0.  1.
        2   -1    0    0  501    0  0.00000000000E+00  0.00000000000E+00 -0.20691353226E+04  0.20691353226E+04  0.25500000920E-02 0. -1.
    10030    2    1    2    0    0  0.00000000000E+00  0.00000000000E+00 -0.11141820664E+04  0.30240885788E+04  0.28113537763E+04 0.  0.
        4    1    3    3  502    0 -0.74588221804E+03 -0.56483323702E+03 -0.16855446325E+04  0.19278068341E+04  0.12699999809E+01 0. -1.
       -4    1    3    3    0  502  0.74588221804E+03  0.56483323702E+03  0.57136256610E+03  0.10962817447E+04  0.12699999809E+01 0.  1.
</event>
<event>
 5   0  0.2624815E-05  0.2893411E+04  0.7818609E-02  0.8274841E-01
        2   -1    0    0  501    0  0.00000000000E+00  0.00000000000E+00  0.12749908775E+04  0.12749908775E+04  0.25500000920E-02 0.  1.
       -2   -1    0    0    0  501  0.00000000000E+00  0.00000000000E+00 -0.16415461146E+04  0.16415461146E+04  0.25500000920E-02 0. -1.
    10030    2    1    2    0    0  0.00000000000E+00  0.00000000000E+00 -0.36655523709E+03  0.29165369920E+04  0.28934106663E+04 0.  0.
        4    1    3    3  502    0 -0.34250000845E+03  0.62591185749E+03  0.10853055130E+04  0.12988308507E+04  0.12699999809E+01 0.  1.
       -4    1    3    3    0  502  0.34250000845E+03 -0.62591185749E+03 -0.14518607501E+04  0.16177061414E+04  0.12699999809E+01 0. -1.
</event>
<event>
 5   0  0.1075146E-05  0.2892808E+04  0.7818609E-02  0.8275021E-01
        1   -1    0    0  501    0  0.00000000000E+00  0.00000000000E+00  0.18074953145E+04  0.18074953145E+04  0.50400001928E-02 0.  1.
       -1   -1    0    0    0  501  0.00000000000E+00  0.00000000000E+00 -0.11574492300E+04  0.11574492300E+04  0.50400001928E-02 0. -1.
    10030    2    1    2    0    0  0.00000000000E+00  0.00000000000E+00  0.65004608452E+03  0.29649445445E+04  0.28928076742E+04 0.  0.
        2    1    3    3  502    0 -0.62884998477E+03  0.75678110338E+02  0.16577972029E+04  0.17746749127E+04  0.25500000920E-02 0.  1.
       -2    1    3    3    0  502  0.62884998477E+03 -0.75678110338E+02 -0.10077511184E+04  0.11902696318E+04  0.25500000920E-02 0. -1.
</event>
<event>
 5   0  0.2624815E-05  0.2839977E+04  0.7818609E-02  0.8290963E-01
        2   -1    0    0  501    0  0.00000000000E+00  0.00000000000E+00  0.16555897282E+04  0.16555897282E+04  0.25500000920E-02 0. -1.
       -2   -1    0    0    0  501  0.00000000000E+00  0.00000000000E+00 -0.12179151479E+04  0.12179151479E+04  0.25500000920E-02 0.  1.
    10030    2    1    2    0    0  0.00000000000E+00  0.00000000000E+00  0.43767458028E+03  0.28735048761E+04  0.28399773300E+04 0.  0.
        4    1    3    3  502    0  0.13542847674E+04 -0.41628669771E+03  0.12293247912E+03  0.14221448074E+04  0.12699999809E+01 0.  1.
       -4    1    3    3    0  502 -0.13542847674E+04  0.41628669771E+03  0.31474210117E+03  0.14513600687E+04  0.12699999809E+01 0. -1.
</event>
<event>
 5   0  0.2697964E-05  0.2765406E+04  0.7818609E-02  0.8314090E-01
        2   -1    0    0  501    0  0.00000000000E+00  0.00000000000E+00  0.11251704151E+04  0.11251704151E+04  0.25500000920E-02 0. -1.
       -2   -1    0    0    0  501  0.00000000000E+00  0.00000000000E+00 -0.16991801417E+04  0.16991801417E+04  0.25500000920E-02 0.  1.
    10030    2    1    2    0    0  0.00000000000E+00  0.00000000000E+00 -0.57400972665E+03  0.28243505568E+04  0.27654057391E+04 0.  0.
        1    1    3    3  502    0  0.42351939456E+03 -0.46721550830E+03 -0.15437654131E+04  0.16675942730E+04  0.50400001928E-02 0.  1.
       -1    1    3    3    0  502 -0.42351939456E+03  0.46721550830E+03  0.96975568643E+03  0.11567562838E+04  0.50400001928E-02 0. -1.
</event>
<event>
 5   0  0.2624815E-05  0.2842442E+04  0.7818609E-02  0.8290212E-01
        2   -1    0    0  501    0  0.00000000000E+00  0.00000000000E+00  0.16187779549E+04  0.16187779549E+04  0.25500000920E-02 0. -1.
       -2   -1    0    0    0  501  0.00000000000E+00  0.00000000000E+00 -0.12477739853E+04  0.12477739853E+04  0.25500000920E-02 0.  1.
    10030    2    1    2    0    0  0.00000000000E+00  0.00000000000E+00  0.37100396953E+03  0.28665519402E+04  0.28424419221E+04 0.  0.
        4    1    3    3  502    0 -0.13855609317E+04  0.31636044468E+03  0.18339115683E+03  0.14330027758E+04  0.12699999809E+01 0. -1.
       -4    1    3    3    0  502  0.13855609317E+04 -0.31636044468E+03  0.18761281270E+03  0.14335491644E+04  0.12699999809E+01 0.  1.
</event>
<event>
 5   0  0.1017456E-05  0.2757098E+04  0.7818609E-02  0.8316713E-01
        1   -1    0    0  501    0  0.00000000000E+00  0.00000000000E+00  0.15771839805E+04  0.15771839805E+04  0.50400001928E-02 0. -1.
       -1   -1    0    0    0  501  0.00000000000E+00  0.00000000000E+00 -0.12049304870E+04  0.12049304870E+04  0.50400001928E-02 0.  1.
    10030    2    1    2    0    0  0.00000000000E+00  0.00000000000E+00  0.37225349351E+03  0.27821144676E+04  0.27570977943E+04 0.  0.
        5    1    3    3  502    0  0.12532801125E+02  0.20766694290E+03  0.15612435006E+04  0.15750511066E+04  0.46999998093E+01 0. -1.
       -5    1    3    3    0  502 -0.12532801125E+02 -0.20766694290E+03 -0.11889900071E+04  0.12070633609E+04  0.46999998093E+01 0.  1.
</event>
<event>
 5   0  0.2518686E-05  0.2845101E+04  0.7818609E-02  0.8289401E-01
        2   -1    0    0  501    0  0.00000000000E+00  0.00000000000E+00  0.22119422355E+04  0.22119422355E+04  0.25500000920E-02 0. -1.
       -2   -1    0    0    0  501  0.00000000000E+00  0.00000000000E+00 -0.91487487366E+03  0.91487487366E+03  0.25500000920E-02 0.  1.
    10030    2    1    2    0    0  0.00000000000E+00  0.00000000000E+00  0.12970673618E+04  0.31268171091E+04  0.28451013150E+04 0.  0.
        5    1    3    3  502    0 -0.11751062996E+04 -0.32599018578E+03 -0.15644258614E+03  0.12294880192E+04  0.46999998093E+01 0. -1.
       -5    1    3    3    0  502  0.11751062996E+04  0.32599018578E+03  0.14535099479E+04  0.18973290899E+04  0.46999998093E+01 0.  1.
</event>
<event>
 5   0  0.1017456E-05  0.1533473E+04  0.7818609E-02  0.8862494E-01
       -1   -1    0    0    0  501  0.00000000000E+00  0.00000000000E+00  0.40458146158E+03  0.40458146162E+03  0.50400001928E-02 0.  1.
        1   -1    0    0  501    0  0.00000000000E+00  0.00000000000E+00 -0.14530700289E+04  0.14530700290E+04  0.50400001928E-02 0. -1.
    10030    2    1    2    0    0  0.00000000000E+00  0.00000000000E+00 -0.10484885674E+04  0.18576514906E+04  0.15334734378E+04 0.  0.
        5    1    3    3  502    0  0.63787752686E+03 -0.53432218966E+01 -0.89403515759E+01  0.63797986581E+03  0.46999998093E+01 0.  1.
       -5    1    3    3    0  502 -0.63787752686E+03  0.53432218966E+01 -0.10395482158E+04  0.12196716248E+04  0.46999998093E+01 0. -1.
</event>
<event>
 5   0  0.1105862E-05  0.2777870E+04  0.7818609E-02  0.8310172E-01
       -1   -1    0    0    0  501  0.00000000000E+00  0.00000000000E+00  0.14035875668E+04  0.14035875668E+04  0.50400001928E-02 0.  1.
        1   -1    0    0  501    0  0.00000000000E+00  0.00000000000E+00 -0.13744349973E+04  0.13744349973E+04  0.50400001928E-02 0. -1.
    10030    2    1    2    0    0  0.00000000000E+00  0.00000000000E+00  0.29152569571E+02  0.27780225641E+04  0.27778695963E+04 0.  0.
        3    1    3    3  502    0 -0.12589792290E+04  0.52736005217E+03  0.27150002631E+03  0.13917074399E+04  0.10100000352E+00 0. -1.
       -3    1    3    3    0  502  0.12589792290E+04 -0.52736005217E+03 -0.24234745674E+03  0.13863151242E+04  0.10100000352E+00 0.  1.
</event>
<event>
 5   0  0.2651061E-05  0.1875424E+04  0.7818609E-02  0.8667187E-01
       -2   -1    0    0    0  501  0.00000000000E+00  0.00000000000E+00  0.70245505889E+03  0.70245505889E+03  0.25500000920E-02 0. -1.
        2   -1    0    0  501    0  0.00000000000E+00  0.00000000000E+00 -0.12517583128E+04  0.12517583128E+04  0.25500000920E-02 0.  1.
    10030    2    1    2    0    0  0.00000000000E+00  0.00000000000E+00 -0.54930325388E+03  0.19542133717E+04  0.18754241753E+04 0.  0.
        3    1    3    3  502    0 -0.78847577284E+02 -0.34918432458E+03 -0.11777559504E+04  0.12309572380E+04  0.10100000352E+00 0.  1.
       -3    1    3    3    0  502  0.78847577284E+02  0.34918432458E+03  0.62845269648E+03  0.72325613367E+03  0.10100000352E+00 0. -1.
</event>
<event>
 5   0  0.1078103E-05  0.2842845E+04  0.7818609E-02  0.8290089E-01
       -1   -1    0    0    0  501  0.00000000000E+00  0.00000000000E+00  0.74945887078E+03  0.74945887079E+03  0.50400001928E-02 0.  1.
        1   -1    0    0  501    0  0.00000000000E+00  0.00000000000E+00 -0.26958667323E+04  0.26958667323E+04  0.50400001928E-02 0. -1.
    10030    2    1    2    0    0  0.00000000000E+00  0.00000000000E+00 -0.19464078615E+04  0.34453256031E+04  0.28428445170E+04 0.  0.
        1    1    3    3  502    0 -0.76908926150E+03  0.10577565454E+04 -0.29832810743E+03  0.13413973540E+04  0.50400001928E-02 0.  1.
       -1    1    3    3    0  502  0.76908926150E+03 -0.10577565454E+04 -0.16480797541E+04  0.21039282491E+04  0.50400001928E-02 0. -1.
</event>
<event>
 5   0  0.1067434E-05  0.2845059E+04  0.7818609E-02  0.8289414E-01
        1   -1    0    0  501    0  0.00000000000E+00  0.00000000000E+00  0.13816625581E+04  0.13816625581E+04  0.50400001928E-02 0. -1.
       -1   -1    0    0    0  501  0.00000000000E+00  0.00000000000E+00 -0.14646050564E+04  0.14646050564E+04  0.50400001928E-02 0.  1.
    10030    2    1    2    0    0  0.00000000000E+00  0.00000000000E+00 -0.82942498257E+02  0.28462676145E+04  0.28450588527E+04 0.  0.
        4    1    3    3  502    0  0.57574126038E+03 -0.89899028896E+03 -0.98204451768E+03  0.14505428591E+04  0.12699999809E+01 0.  1.
       -4    1    3    3    0  502 -0.57574126038E+03  0.89899028896E+03  0.89910201942E+03  0.13957247554E+04  0.12699999809E+01 0. -1.
</event>
<event>
 5   0  0.1017456E-05  0.2815031E+04  0.7818609E-02  0.8298617E-01
       -1   -1    0    0    0  501  0.00000000000E+00  0.00000000000E+00  0.13438001698E+04  0.13438001698E+04  0.50400001928E-02 0. -1.
        1   -1    0    0  501    0  0.00000000000E+00  0.00000000000E+00 -0.14742516380E+04  0.14742516380E+04  0.50400001928E-02 0.  1.
    10030    2    1    2    0    0  0.00000000000E+00  0.00000000000E+00 -0.13045146821E+03  0.28180518078E+04  0.28150308002E+04 0.  0.
        5    1    3    3  502    0 -0.20274763010E+03 -0.10126442384E+04 -0.10225587413E+04  0.14533421567E+04  0.46999998093E+01 0.  1.
       -5    1    3    3    0  502  0.20274763010E+03  0.10126442384E+04  0.89210727312E+03  0.13647096511E+04  0.46999998093E+01 0. -1.
</event>
<event>
 5   0  0.1067434E-05  0.2465085E+04  0.7818609E-02  0.8415531E-01
        1   -1    0    0  501    0  0.00000000000E+00  0.00000000000E+00  0.20546069172E+04  0.20546069172E+04  0.50400001928E-02 0.  1.
       -1   -1    0    0    0  501  0.00000000000E+00  0.00000000000E+00 -0.73939249675E+03  0.73939249676E+03  0.50400001928E-02 0. -1.
    10030    2    1    2    0    0  0.00000000000E+00  0.00000000000E+00  0.13152144204E+04  0.27939994140E+04  0.24650849384E+04 0.  0.
        4    1    3    3  502    0  0.23808208379E+03  0.71042964731E+03 -0.45162921376E+03  0.87485079986E+03  0.12699999809E+01 0. -1.
       -4    1    3    3    0  502 -0.23808208379E+03 -0.71042964731E+03  0.17668436342E+04  0.19191486141E+04  0.12699999809E+01 0.  1.
</event>
<event>
 5   0  0.1078103E-05  0.2076346E+04  0.7818609E-02  0.8571735E-01
       -1   -1    0    0    0  501  0.00000000000E+00  0.00000000000E+00  0.58941096922E+03  0.58941096924E+03  0.50400001928E-02 0. -1.
        1   -1    0    0  501    0  0.00000000000E+00  0.00000000000E+00 -0.18286099592E+04  0.18286099592E+04  0.50400001928E-02 0.  1.
    10030    2    1    2    0    0  0.00000000000E+00  0.00000000000E+00 -0.12391989900E+04  0.24180209285E+04  0.20763456055E+04 0.  0.
        1    1    3    3  502    0 -0.72592926920E+03 -0.30962253157E+03 -0.14051038914E+04  0.16115695336E+04  0.50400001928E-02 0.  1.
       -1    1    3    3    0  502  0.72592926920E+03  0.30962253157E+03  0.16590490143E+03  0.80645139486E+03  0.50400001928E-02 0. -1.
</event>
<event>
 5   0  0.2624815E-05  0.2973744E+04  0.7818609E-02  0.8251268E-01
        2   -1    0    0  501    0  0.00000000000E+00  0.00000000000E+00  0.17154832105E+04  0.17154832105E+04  0.25500000920E-02 0.  1.
       -2   -1    0    0    0  501  0.00000000000E+00  0.00000000000E+00 -0.12887261627E+04  0.12887261627E+04  0.25500000920E-02 0. -1.
    10030    2    1    2    0    0  0.00000000000E+00  0.00000000000E+00  0.42675704777E+03  0.30042093731E+04  0.29737438323E+04 0.  0.
        4    1    3    3  502    0 -0.40588046256E+03 -0.13643586863E+04 -0.22064235203E+03  0.14404507055E+04  0.12699999809E+01 0. -1.
       -4    1    3    3    0  502  0.40588046256E+03  0.13643586863E+04  0.64739939980E+03  0.15637586676E+04  0.12699999809E+01 0.  1.
</event>
<event>
 5   0  0.1067434E-05  0.2042158E+04  0.7818609E-02  0.8587160E-01
        1   -1    0    0  501    0  0.00000000000E+00  0.00000000000E+00  0.25459482546E+04  0.25459482546E+04  0.50400001928E-02 0.  1.
       -1   -1    0    0    0  501  0.00000000000E+00  0.00000000000E+00 -0.40951429952E+03  0.40951429955E+03  0.50400001928E-02 0. -1.
    10030    2    1    2    0    0  0.00000000000E+00  0.00000000000E+00  0.21364339551E+04  0.29554625542E+04  0.20421578941E+04 0.  0.
        4    1    3    3  502    0 -0.25323825640E+03 -0.84984212279E+03  0.18008037283E+04  0.20073009065E+04  0.12699999809E+01 0.  1.
       -4    1    3    3    0  502  0.25323825640E+03  0.84984212279E+03  0.33563022674E+03  0.94816164770E+03  0.12699999809E+01 0. -1.
</event>
<event>
 5   0  0.1078103E-05  0.2509336E+04  0.7818609E-02  0.8399667E-01
       -1   -1    0    0    0  501  0.00000000000E+00  0.00000000000E+00  0.82661047386E+03  0.82661047388E+03  0.50400001928E-02 0. -1.
        1   -1    0    0  501    0  0.00000000000E+00  0.00000000000E+00 -0.19043931679E+04  0.19043931680E+04  0.50400001928E-02 0.  1.
    10030    2    1    2    0    0  0.00000000000E+00  0.00000000000E+00 -0.10777826941E+04  0.27310036418E+04  0.25093356404E+04 0.  0.
        1    1    3    3  502    0  0.87533711705E+03  0.54631409550E+03  0.23796897443E+03  0.10589161403E+04  0.50400001928E-02 0. -1.
       -1    1    3    3    0  502 -0.87533711705E+03 -0.54631409550E+03 -0.13157516685E+04  0.16720875015E+04  0.50400001928E-02 0.  1.
</event>
<event>
 5   0  0.1105862E-05  0.2777108E+04  0.7818609E-02  0.8310411E-01
        1   -1    0    0  501    0  0.00000000000E+00  0.00000000000E+00  0.13699028363E+04  0.13699028363E+04  0.50400001928E-02 0. -1.
       -1   -1    0    0    0  501  0.00000000000E+00  0.00000000000E+00 -0.14074590029E+04  0.14074590029E+04  0.50400001928E-02 0.  1.
    10030    2    1    2    0    0  0.00000000000E+00  0.00000000000E+00 -0.37556166632E+02  0.27773618392E+04  0.27771079057E+04 0.  0.
        3    1    3    3  502    0 -0.44257604971E+03 -0.13107933861E+04 -0.13723387500E+03  0.13902827078E+04  0.10100000352E+00 0. -1.
       -3    1    3    3    0  502  0.44257604971E+03  0.13107933861E+04  0.99677708364E+02  0.13870791314E+04  0.10100000352E+00 0.  1.
</event>
<event>
 5   0  0.1105862E-05  0.1742119E+04  0.7818609E-02  0.8737700E-01
        1   -1    0    0  501    0  0.00000000000E+00  0.00000000000E+00  0.19050127436E+04  0.19050127436E+04  0.50400001928E-02 0. -1.
       -1   -1    0    0    0  501  0.00000000000E+00  0.00000000000E+00 -0.39828852369E+03  0.39828852373E+03  0.50400001928E-02 0.  1.
    10030    2    1    2    0    0  0.00000000000E+00  0.00000000000E+00  0.15067242199E+04  0.23033012673E+04  0.17421190698E+04 0.  0.
        3    1    3    3  502    0  0.78107364571E+03 -0.26692962121E+03  0.11212298931E+04  0.13922944897E+04  0.10100000352E+00 0. -1.
       -3    1    3    3    0  502 -0.78107364571E+03  0.26692962121E+03  0.38549432686E+03  0.91100677766E+03  0.10100000352E+00 0.  1.
</event>
<event>
 5   0  0.2624815E-05  0.2816148E+04  0.7818609E-02  0.8298273E-01
       -2   -1    0    0    0  501  0.00000000000E+00  0.00000000000E+00  0.10539593487E+04  0.10539593487E+04  0.25500000920E-02 0.  1.
        2   -1    0    0  501    0  0.00000000000E+00  0.00000000000E+00 -0.18811654377E+04  0.18811654377E+04  0.25500000920E-02 0. -1.
    10030    2    1    2    0    0  0.00000000000E+00  0.00000000000E+00 -0.82720608900E+03  0.29351247864E+04  0.28161476521E+04 0.  0.
        4    1    3    3  502    0 -0.22570034064E+03  0.48323202683E+03 -0.17718153799E+04  0.18503473158E+04  0.12699999809E+01 0. -1.
       -4    1    3    3    0  502  0.22570034064E+03 -0.48323202683E+03  0.94460929091E+03  0.10847774707E+04  0.12699999809E+01 0.  1.
</event>
<event>
 5   0  0.1075146E-05  0.2806057E+04  0.7818609E-02  0.8301390E-01
       -1   -1    0    0    0  501  0.00000000000E+00  0.00000000000E+00  0.13090184547E+04  0.13090184547E+04  0.50400001928E-02 0.  1.
        1   -1    0    0  501    0  0.00000000000E+00  0.00000000000E+00 -0.15037898191E+04  0.15037898191E+04  0.50400001928E-02 0. -1.
    10030    2    1    2    0    0  0.00000000000E+00  0.00000000000E+00 -0.19477136444E+03  0.28128082738E+04  0.28060567530E+04 0.  0.
        2    1    3    3  502    0  0.50134557290E+03  0.58102858231E+02  0.12148726919E+04  0.13155375263E+04  0.25500000920E-02 0.  1.
       -2    1    3    3    0  502 -0.50134557290E+03 -0.58102858231E+02 -0.14096440564E+04  0.14972707475E+04  0.25500000920E-02 0. -1.
</event>
<event>
 5   0  0.1067434E-05  0.2812173E+04  0.7818609E-02  0.8299499E-01
       -1   -1    0    0    0  501  0.00000000000E+00  0.00000000000E+00  0.98439116795E+03  0.98439116797E+03  0.50400001928E-02 0.  1.
        1   -1    0    0  501    0  0.00000000000E+00  0.00000000000E+00 -0.20084279360E+04  0.20084279360E+04  0.50400001928E-02 0. -1.
    10030    2    1    2    0    0  0.00000000000E+00  0.00000000000E+00 -0.10240367680E+04  0.29928191040E+04  0.28121726275E+04 0.  0.
        4    1    3    3  502    0  0.22730333400E+03  0.32625666552E+03  0.92330872619E+03  0.10052914176E+04  0.12699999809E+01 0.  1.
       -4    1    3    3    0  502 -0.22730333400E+03 -0.32625666552E+03 -0.19473454942E+04  0.19875276864E+04  0.12699999809E+01 0. -1.
</event>
<event>
 5   0  0.2624815E-05  0.2751119E+04  0.7818609E-02  0.8318607E-01
        2   -1    0    0  501    0  0.00000000000E+00  0.00000000000E+00  0.22331074767E+04  0.22331074767E+04  0.25500000920E-02 0. -1.
       -2   -1    0    0    0  501  0.00000000000E+00  0.00000000000E+00 -0.84732336591E+03  0.84732336592E+03  0.25500000920E-02 0.  1.
    10030    2    1    2    0    0  0.00000000000E+00  0.00000000000E+00  0.13857841108E+04  0.30804308426E+04  0.27511191494E+04 0.  0.
        4    1    3    3  502    0  0.78619840442E+03  0.70974427102E+03 -0.28984423309E+03  0.10981148181E+04  0.12699999809E+01 0.  1.
       -4    1    3    3    0  502 -0.78619840442E+03 -0.70974427102E+03  0.16756283439E+04  0.19823160245E+04  0.12699999809E+01 0. -1.
</event>
<event>
 5   0  0.2518686E-05  0.2671390E+04  0.7818609E-02  0.8344348E-01
        2   -1    0    0  501    0  0.00000000000E+00  0.00000000000E+00  0.10324718468E+04  0.10324718468E+04  0.25500000920E-02 0. -1.
       -2   -1    0    0    0  501  0.00000000000E+00  0.00000000000E+00 -0.17279706940E+04  0.17279706940E+04  0.25500000920E-02 0.  1.
    10030    2    1    2    0    0  0.00000000000E+00  0.00000000000E+00 -0.69549884716E+03  0.27604425408E+04  0.26713899705E+04 0.  0.
        5    1    3    3  502    0 -0.14924314014E+03  0.12113376023E+04 -0.90846777186E+03  0.15214953448E+04  0.46999998093E+01 0. -1.
       -5    1    3    3    0  502  0.14924314014E+03 -0.12113376023E+04  0.21296892470E+03  0.12389471960E+04  0.46999998093E+01 0.  1.
</event>
<event>
 5   0  0.1067434E-05  0.2890214E+04  0.7818609E-02  0.8275795E-01
        1   -1    0    0  501    0  0.00000000000E+00  0.00000000000E+00  0.18204967273E+04  0.18204967273E+04  0.50400001928E-02 0. -1.
       -1   -1    0    0    0  501  0.00000000000E+00  0.00000000000E+00 -0.11471233626E+04  0.11471233627E+04  0.50400001928E-02 0.  1.
    10030    2    1    2    0    0  0.00000000000E+00  0.00000000000E+00  0.67337336461E+03  0.29676200899E+04  0.28902140595E+04 0.  0.
        4    1    3    3  502    0  0.10102845188E+04  0.30287799340E+03  0.13510324728E+04  0.17139720661E+04  0.12699999809E+01 0. -1.
       -4    1    3    3    0  502 -0.10102845188E+04 -0.30287799340E+03 -0.67765910817E+03  0.12536480238E+04  0.12699999809E+01 0.  1.
</event>
<event>
 5   0  0.2624815E-05  0.2753201E+04  0.7818609E-02  0.8317947E-01
       -2   -1    0    0    0  501  0.00000000000E+00  0.00000000000E+00  0.87471944679E+03  0.87471944680E+03  0.25500000920E-02 0.  1.
        2   -1    0    0  501    0  0.00000000000E+00  0.00000000000E+00 -0.21664412766E+04  0.21664412766E+04  0.25500000920E-02 0. -1.
    10030    2    1    2    0    0  0.00000000000E+00  0.00000000000E+00 -0.12917218298E+04  0.30411607234E+04  0.27532005484E+04 0.  0.
        4    1    3    3  502    0  0.18336329699E+03  0.78392795728E+03  0.58755811249E+03  0.99669016717E+03  0.12699999809E+01 0.  1.
       -4    1    3    3    0  502 -0.18336329699E+03 -0.78392795728E+03 -0.18792799423E+04  0.20444705562E+04  0.12699999809E+01 0. -1.
</event>
<event>
 5   0  0.2651061E-05  0.2856331E+04  0.7818609E-02  0.8285990E-01
       -2   -1    0    0    0  501  0.00000000000E+00  0.00000000000E+00  0.22871544842E+04  0.22871544842E+04  0.25500000920E-02 0.  1.
        2   -1    0    0  501    0  0.00000000000E+00  0.00000000000E+00 -0.89178805996E+03  0.89178805996E+03  0.25500000920E-02 0. -1.
    10030    2    1    2    0    0  0.00000000000E+00  0.00000000000E+00  0.13953664242E+04  0.31789425442E+04  0.28563312555E+04 0.  0.
        3    1    3    3  502    0 -0.34821363882E+02 -0.31996444186E+02  0.22862828854E+04  0.22867719042E+04  0.10100000352E+00 0.  1.
       -3    1    3    3    0  502  0.34821363882E+02  0.31996444186E+02 -0.89091646113E+03  0.89217063993E+03  0.10100000352E+00 0. -1.
</event>
<event>
 5   0  0.1017456E-05  0.2727432E+04  0.7818609E-02  0.8326159E-01
        1   -1    0    0  501    0  0.00000000000E+00  0.00000000000E+00  0.13376922486E+04  0.13376922486E+04  0.50400001928E-02 0.  1.
       -1   -1    0    0    0  501  0.00000000000E+00  0.00000000000E+00 -0.13902463741E+04  0.13902463741E+04  0.50400001928E-02 0. -1.
    10030    2    1    2    0    0  0.00000000000E+00  0.00000000000E+00 -0.52554125528E+02  0.27279386227E+04  0.27274323444E+04 0.  0.
        5    1    3    3  502    0 -0.47735988239E+03 -0.47629316947E+03  0.11592581373E+04  0.13411298071E+04  0.46999998093E+01 0.  1.
       -5    1    3    3    0  502  0.47735988239E+03  0.47629316947E+03 -0.12118122628E+04  0.13868088156E+04  0.46999998093E+01 0. -1.
</event>
<event>
 5   0  0.2588048E-05  0.1610846E+04  0.7818609E-02  0.8813912E-01
       -2   -1    0    0    0  501  0.00000000000E+00  0.00000000000E+00  0.51511106058E+03  0.51511106059E+03  0.25500000920E-02 0. -1.
        2   -1    0    0  501    0  0.00000000000E+00  0.00000000000E+00 -0.12593524770E+04  0.12593524770E+04  0.25500000920E-02 0.  1.
    10030    2    1    2    0    0  0.00000000000E+00  0.00000000000E+00 -0.74424141644E+03  0.17744635376E+04  0.16108462249E+04 0.  0.
        2    1    3    3  502    0  0.13196060529E+03 -0.20929482283E+03 -0.12164515788E+04  0.12413590810E+04  0.25500000920E-02 0.  1.
       -2    1    3    3    0  502 -0.13196060529E+03  0.20929482283E+03  0.47221016241E+03  0.53310445665E+03  0.25500000920E-02 0. -1.
</event>
<event>
 5   0  0.1017456E-05  0.2793158E+04  0.7818609E-02  0.8305396E-01
       -1   -1    0    0    0  501  0.00000000000E+00  0.00000000000E+00  0.19099853151E+04  0.19099853151E+04  0.50400001928E-02 0.  1.
        1   -1    0    0  501    0  0.00000000000E+00  0.00000000000E+00 -0.10211765811E+04  0.10211765811E+04  0.50400001928E-02 0. -1.
    10030    2    1    2    0    0  0.00000000000E+00  0.00000000000E+00  0.88880873399E+03  0.29311618962E+04  0.27931575495E+04 0.  0.
        5    1    3    3  502    0  0.24576046708E+03  0.10147084164E+04  0.14177996233E+04  0.17607411051E+04  0.46999998093E+01 0.  1.
       -5    1    3    3    0  502 -0.24576046708E+03 -0.10147084164E+04 -0.52899088928E+03  0.11704207911E+04  0.46999998093E+01 0. -1.
</event>
<event>
 5   0  0.2588048E-05  0.2788519E+04  0.7818609E-02  0.8306842E-01
        2   -1    0    0  501    0  0.00000000000E+00  0.00000000000E+00  0.19637113634E+04  0.19637113634E+04  0.25500000920E-02 0. -1.
       -2   -1    0    0    0  501  0.00000000000E+00  0.00000000000E+00 -0.98994136334E+03  0.98994136334E+03  0.25500000920E-02 0.  1.
    10030    2    1    2    0    0  0.00000000000E+00  0.00000000000E+00  0.97377000008E+03  0.29536527268E+04  0.27885186779E+04 0.  0.
        2    1    3    3  502    0  0.42104953285E+03  0.29917276637E+03  0.18586340960E+04  0.19290691423E+04  0.25500000920E-02 0. -1.
       -2    1    3    3    0  502 -0.42104953285E+03 -0.29917276637E+03 -0.88486409589E+03  0.10245835844E+04  0.25500000920E-02 0.  1.
</event>
<event>
 5   0  0.1105862E-05  0.2839982E+04  0.7818609E-02  0.8290962E-01
       -1   -1    0    0    0  501  0.00000000000E+00  0.00000000000E+00  0.14242184553E+04  0.14242184553E+04  0.50400001928E-02 0.  1.
        1   -1    0    0  501    0  0.00000000000E+00  0.00000000000E+00 -0.14157765175E+04  0.14157765175E+04  0.50400001928E-02 0. -1.
    10030    2    1    2    0    0  0.00000000000E+00  0.00000000000E+00  0.84419377407E+01  0.28399949728E+04  0.28399824258E+04 0.  0.
        3    1    3    3  502    0  0.84249572138E+03  0.91321985277E+03  0.69168709200E+03  0.14220409922E+04  0.10100000352E+00 0.  1.
       -3    1    3    3    0  502 -0.84249572138E+03 -0.91321985277E+03 -0.68324515426E+03  0.14179539806E+04  0.10100000352E+00 0. -1.
</event>
<event>
 5   0  0.2651061E-05  0.2689392E+04  0.7818609E-02  0.8338455E-01
       -2   -1    0    0    0  501  0.00000000000E+00  0.00000000000E+00  0.66325974035E+03  0.66325974035E+03  0.25500000920E-02 0. -1.
        2   -1    0    0  501    0  0.00000000000E+00  0.00000000000E+00 -0.27262428852E+04  0.27262428852E+04  0.25500000920E-02 0.  1.
    10030    2    1    2    0    0  0.00000000000E+00  0.00000000000E+00 -0.20629831449E+04  0.33895026256E+04  0.26893918630E+04 0.  0.
        3    1    3    3  502    0  0.73343724126E+03 -0.30805800702E+03 -0.23978685063E+04  0.25263814649E+04  0.10100000352E+00 0.  1.
       -3    1    3    3    0  502 -0.73343724126E+03  0.30805800702E+03  0.33488536140E+03  0.86312116069E+03  0.10100000352E+00 0. -1.
</event>
<event>
 5   0  0.1067434E-05  0.2716431E+04  0.7818609E-02  0.8329693E-01
       -1   -1    0    0    0  501  0.00000000000E+00  0.00000000000E+00  0.86599850046E+03  0.86599850048E+03  0.50400001928E-02 0. -1.
        1   -1    0    0  501    0  0.00000000000E+00  0.00000000000E+00 -0.21301990720E+04  0.21301990720E+04  0.50400001928E-02 0.  1.
    10030    2    1    2    0    0  0.00000000000E+00  0.00000000000E+00 -0.12642005715E+04  0.29961975725E+04  0.27164308952E+04 0.  0.
        4    1    3    3  502    0 -0.12949120847E+03 -0.49161915387E+03 -0.20212949623E+04  0.20842486184E+04  0.12699999809E+01 0.  1.
       -4    1    3    3    0  502  0.12949120847E+03  0.49161915387E+03  0.75709439077E+03  0.91194895414E+03  0.12699999809E+01 0. -1.
</event>
<event>
 5   0  0.1078103E-05  0.2605219E+04  0.7818609E-02  0.8366431E-01
        1   -1    0    0  501    0  0.00000000000E+00  0.00000000000E+00  0.19111889120E+04  0.19111889120E+04  0.50400001928E-02 0. -1.
       -1   -1    0    0    0  501  0.00000000000E+00  0.00000000000E+00 -0.88782005365E+03  0.88782005367E+03  0.50400001928E-02 0.  1.
    10030    2    1    2    0    0  0.00000000000E+00  0.00000000000E+00  0.10233688583E+04  0.27990089656E+04  0.26052192556E+04 0.  0.
        1    1    3    3  502    0 -0.81849717101E+03  0.83209018776E+03  0.11330471304E+04  0.16266860481E+04  0.50400001928E-02 0. -1.
       -1    1    3    3    0  502  0.81849717101E+03 -0.83209018776E+03 -0.10967827205E+03  0.11723229175E+04  0.50400001928E-02 0.  1.
</event>
<event>
 5   0  0.2588048E-05  0.2897857E+04  0.7818609E-02  0.8273515E-01
       -2   -1    0    0    0  501  0.00000000000E+00  0.00000000000E+00  0.15738357707E+04  0.15738357707E+04  0.25500000920E-02 0. -1.
        2   -1    0    0  501    0  0.00000000000E+00  0.00000000000E+00 -0.13339345955E+04  0.13339345955E+04  0.25500000920E-02 0.  1.
    10030    2    1    2    0    0  0.00000000000E+00  0.00000000000E+00  0.23990117522E+03  0.29077703662E+04  0.28978571271E+04 0.  0.
        2    1    3    3  502    0  0.72908937892E+03  0.73839199796E+03  0.11346467391E+04  0.15376011471E+04  0.25500000920E-02 0. -1.
       -2    1    3    3    0  502 -0.72908937892E+03 -0.73839199796E+03 -0.89474556383E+03  0.13701692192E+04  0.25500000920E-02 0.  1.
</event>
<event>
 5   0  0.1105862E-05  0.2795920E+04  0.7818609E-02  0.8304536E-01
       -1   -1    0    0    0  501  0.00000000000E+00  0.00000000000E+00  0.11723151741E+04  0.11723151741E+04  0.50400001928E-02 0.  1.
        1   -1    0    0  501    0  0.00000000000E+00  0.00000000000E+00 -0.16670360370E+04  0.16670360370E+04  0.50400001928E-02 0. -1.
    10030    2    1    2    0    0  0.00000000000E+00  0.00000000000E+00 -0.49472086289E+03  0.28393512111E+04  0.27959196283E+04 0.  0.
        3    1    3    3  502    0  0.16340938274E+03 -0.89391281099E+03  0.83145444156E+03  0.12317058247E+04  0.10100000352E+00 0.  1.
       -3    1    3    3    0  502 -0.16340938274E+03  0.89391281099E+03 -0.13261753045E+04  0.16076453864E+04  0.10100000352E+00 0. -1.
</event>
<event>
 5   0  0.2624815E-05  0.2981520E+04  0.7818609E-02  0.8249028E-01
       -2   -1    0    0    0  501  0.00000000000E+00  0.00000000000E+00  0.13220686770E+04  0.13220686770E+04  0.25500000920E-02 0. -1.
        2   -1    0    0  501    0  0.00000000000E+00  0.00000000000E+00 -0.16809752559E+04  0.16809752559E+04  0.25500000920E-02 0.  1.
    10030    2    1    2    0    0  0.00000000000E+00  0.00000000000E+00 -0.35890657890E+03  0.30030439329E+04  0.29815195674E+04 0.  0.
        4    1    3    3  502    0 -0.58972116100E+03 -0.33042035108E+03 -0.15177344429E+04  0.16614656506E+04  0.12699999809E+01 0.  1.
       -4    1    3    3    0  502  0.58972116100E+03  0.33042035108E+03  0.11588278640E+04  0.13415782823E+04  0.12699999809E+01 0. -1.
</event>
<event>
 5   0  0.2651061E-05  0.2534102E+04  0.7818609E-02  0.8390936E-01
        2   -1    0    0  501    0  0.00000000000E+00  0.00000000000E+00  0.10891874131E+04  0.10891874131E+04  0.25500000920E-02 0. -1.
       -2   -1    0    0    0  501  0.00000000000E+00  0.00000000000E+00 -0.14739594106E+04  0.14739594106E+04  0.25500000920E-02 0.  1.
    10030    2    1    2    0    0  0.00000000000E+00  0.00000000000E+00 -0.38477199747E+03  0.25631468236E+04  0.25341018428E+04 0.  0.
        3    1    3    3  502    0 -0.56854851053E+03  0.39177248523E+03 -0.12669586531E+04  0.14428850709E+04  0.10100000352E+00 0.  1.
       -3    1    3    3    0  502  0.56854851053E+03 -0.39177248523E+03  0.88218665565E+03  0.11202617527E+04  0.10100000352E+00 0. -1.
</event>
<event>
 5   0  0.2518686E-05  0.2734242E+04  0.7818609E-02  0.8323979E-01
       -2   -1    0    0    0  501  0.00000000000E+00  0.00000000000E+00  0.82928033409E+03  0.82928033410E+03  0.25500000920E-02 0.  1.
        2   -1    0    0  501    0  0.00000000000E+00  0.00000000000E+00 -0.22537855479E+04  0.22537855479E+04  0.25500000920E-02 0. -1.
    10030    2    1    2    0    0  0.00000000000E+00  0.00000000000E+00 -0.14245052138E+04  0.30830658820E+04  0.27342421489E+04 0.  0.
        5    1    3    3  502    0 -0.86286718794E+03  0.22151591874E+03 -0.18815597355E+04  0.20818016751E+04  0.46999998093E+01 0. -1.
       -5    1    3    3    0  502  0.86286718794E+03 -0.22151591874E+03  0.45705452166E+03  0.10012642069E+04  0.46999998093E+01 0.  1.
</event>
<event>
 5   0  0.1067434E-05  0.2846333E+04  0.7818609E-02  0.8289027E-01
        1   -1    0    0  501    0  0.00000000000E+00  0.00000000000E+00  0.16072552865E+04  0.16072552866E+04  0.50400001928E-02 0. -1.
       -1   -1    0    0    0  501  0.00000000000E+00  0.00000000000E+00 -0.12601621316E+04  0.12601621316E+04  0.50400001928E-02 0.  1.
    10030    2    1    2    0    0  0.00000000000E+00  0.00000000000E+00  0.34709315492E+03  0.28674174182E+04  0.28463325512E+04 0.  0.
        4    1    3    3  502    0 -0.95992266981E+03  0.15103778535E+02  0.12319102589E+04  0.15618207820E+04  0.12699999809E+01 0. -1.
       -4    1    3    3    0  502  0.95992266981E+03 -0.15103778535E+02 -0.88481710397E+03  0.13055966362E+04  0.12699999809E+01 0.  1.
</event>
<event>
 5   0  0.1105862E-05  0.1799195E+04  0.7818609E-02  0.8706728E-01
        1   -1    0    0  501    0  0.00000000000E+00  0.00000000000E+00  0.64291833968E+03  0.64291833970E+03  0.50400001928E-02 0. -1.
       -1   -1    0    0    0  501  0.00000000000E+00  0.00000000000E+00 -0.12587528520E+04  0.12587528520E+04  0.50400001928E-02 0.  1.
    10030    2    1    2    0    0  0.00000000000E+00  0.00000000000E+00 -0.61583451229E+03  0.19016711917E+04  0.17991945906E+04 0.  0.
        3    1    3    3  502    0 -0.43749772477E+03 -0.69794333321E+03 -0.69010055852E+03  0.10746012966E+04  0.10100000352E+00 0.  1.
       -3    1    3    3    0  502  0.43749772477E+03  0.69794333321E+03  0.74266046231E+02  0.82706989509E+03  0.10100000352E+00 0. -1.
</event>
<event>
 5   0  0.1017456E-05  0.2633847E+04  0.7818609E-02  0.8356794E-01
       -1   -1    0    0    0  501  0.00000000000E+00  0.00000000000E+00  0.92624254169E+03  0.92624254170E+03  0.50400001928E-02 0. -1.
        1   -1    0    0  501    0  0.00000000000E+00  0.00000000000E+00 -0.18723898673E+04  0.18723898673E+04  0.50400001928E-02 0.  1.
    10030    2    1    2    0    0  0.00000000000E+00  0.00000000000E+00 -0.94614732558E+03  0.27986324090E+04  0.26338467303E+04 0.  0.
        5    1    3    3  502    0 -0.66331309050E+03 -0.65240539498E+03  0.51725026731E+03  0.10645125572E+04  0.46999998093E+01 0. -1.
       -5    1    3    3    0  502  0.66331309050E+03  0.65240539498E+03 -0.14633975929E+04  0.17341198518E+04  0.46999998093E+01 0.  1.
</event>
<event>
 5   0  0.2624815E-05  0.2918772E+04  0.7818609E-02  0.8267314E-01
       -2   -1    0    0    0  501  0.00000000000E+00  0.00000000000E+00  0.93977641188E+03  0.93977641189E+03  0.25500000920E-02 0.  1.
        2   -1    0    0  501    0  0.00000000000E+00  0.00000000000E+00 -0.22662917177E+04  0.22662917177E+04  0.25500000920E-02 0. -1.
    10030    2    1    2    0    0  0.00000000000E+00  0.00000000000E+00 -0.13265153059E+04  0.32060681296E+04  0.29187720012E+04 0.  0.
        4    1    3    3  502    0  0.11811679785E+04  0.15221659952E+03 -0.15897746139E+04  0.19863817918E+04  0.12699999809E+01 0. -1.
       -4    1    3    3    0  502 -0.11811679785E+04 -0.15221659952E+03  0.26325930807E+03  0.12196863379E+04  0.12699999809E+01 0.  1.
</event>
<event>
 5   0  0.2697964E-05  0.2789906E+04  0.7818609E-02  0.8306409E-01
        2   -1    0    0  501    0  0.00000000000E+00  0.00000000000E+00  0.12097340982E+04  0.12097340982E+04  0.25500000920E-02 0.  1.
       -2   -1    0    0    0  501  0.00000000000E+00  0.00000000000E+00 -0.16085299577E+04  0.16085299577E+04  0.25500000920E-02 0. -1.
    10030    2    1    2    0    0  0.00000000000E+00  0.00000000000E+00 -0.39879585951E+03  0.28182640559E+04  0.27899057603E+04 0.  0.
        1    1    3    3  502    0  0.10087719484E+04  0.77431950425E+03 -0.77855094381E+03  0.14910845418E+04  0.50400001928E-02 0.  1.
       -1    1    3    3    0  502 -0.10087719484E+04 -0.77431950425E+03  0.37975508430E+03  0.13271795141E+04  0.50400001928E-02 0. -1.
</event>
<event>
 5   0  0.2518686E-05  0.2873440E+04  0.7818609E-02  0.8280824E-01
       -2   -1    0    0    0  501  0.00000000000E+00  0.00000000000E+00  0.78012168683E+03  0.78012168683E+03  0.25500000920E-02 0. -1.
        2   -1    0    0  501    0  0.00000000000E+00  0.00000000000E+00 -0.26459522907E+04  0.26459522907E+04  0.25500000920E-02 0.  1.
    10030    2    1    2    0    0  0.00000000000E+00  0.00000000000E+00 -0.18658306038E+04  0.34260739775E+04  0.28734402825E+04 0.  0.
        5    1    3    3  502    0  0.12517626266E+04 -0.22648010182E+03 -0.13669607526E+03  0.12794181556E+04  0.46999998093E+01 0. -1.
       -5    1    3    3    0  502 -0.12517626266E+04  0.22648010182E+03 -0.17291345286E+04  0.21466558219E+04  0.46999998093E+01 0.  1.
</event>
<event>
 5   0  0.2624815E-05  0.2690540E+04  0.7818609E-02  0.8338081E-01
       -2   -1    0    0    0  501  0.00000000000E+00  0.00000000000E+00  0.11529455625E+04  0.11529455625E+04  0.25500000920E-02 0.  1.
        2   -1    0    0  501    0  0.00000000000E+00  0.00000000000E+00 -0.15696762267E+04  0.15696762267E+04  0.25500000920E-02 0. -1.
    10030    2    1    2    0    0  0.00000000000E+00  0.00000000000E+00 -0.41673066420E+03  0.27226217893E+04  0.26905399014E+04 0.  0.
        4    1    3    3  502    0  0.41429031720E+03  0.64879492831E+03  0.90804791104E+03  0.11904301523E+04  0.12699999809E+01 0.  1.
       -4    1    3    3    0  502 -0.41429031720E+03 -0.64879492831E+03 -0.13247785752E+04  0.15321916369E+04  0.12699999809E+01 0. -1.
</event>
<event>
 5   0  0.2588048E-05  0.2876311E+04  0.7818609E-02  0.8279961E-01
        2   -1    0    0  501    0  0.00000000000E+00  0.00000000000E+00  0.14539809125E+04  0.14539809125E+04  0.25500000920E-02 0.  1.
       -2   -1    0    0    0  501  0.00000000000E+00  0.00000000000E+00 -0.14225022077E+04  0.14225022078E+04  0.25500000920E-02 0. -1.
    10030    2    1    2    0    0  0.00000000000E+00  0.00000000000E+00  0.31478704761E+02  0.28764831203E+04  0.28763108720E+04 0.  0.
        2    1    3    3  502    0 -0.89629904504E+03 -0.17347268554E+03 -0.10955635809E+04  0.14260800506E+04  0.25500000920E-02 0. -1.
       -2    1    3    3    0  502  0.89629904504E+03  0.17347268554E+03  0.11270422857E+04  0.14504030697E+04  0.25500000920E-02 0.  1.
</event>
<event>
 5   0  0.2518686E-05  0.2675150E+04  0.7818609E-02  0.8343113E-01
        2   -1    0    0  501    0  0.00000000000E+00  0.00000000000E+00  0.10803992545E+04  0.10803992545E+04  0.25500000920E-02 0.  1.
       -2   -1    0    0    0  501  0.00000000000E+00  0.00000000000E+00 -0.16559686613E+04  0.16559686613E+04  0.25500000920E-02 0. -1.
    10030    2    1    2    0    0  0.00000000000E+00  0.00000000000E+00 -0.57556940682E+03  0.27363679159E+04  0.26751503189E+04 0.  0.
        5    1    3    3  502    0  0.52117180890E+03 -0.93374476355E+03 -0.11096550488E+04  0.15410567008E+04  0.46999998093E+01 0. -1.
       -5    1    3    3    0  502 -0.52117180890E+03  0.93374476355E+03  0.53408564197E+03  0.11953112150E+04  0.46999998093E+01 0.  1.
</event>
<event>
 5   0  0.2518686E-05  0.2845713E+04  0.7818609E-02  0.8289215E-01
       -2   -1    0    0    0  501  0.00000000000E+00  0.00000000000E+00  0.11071722832E+04  0.11071722832E+04  0.25500000920E-02 0.  1.
        2   -1    0    0  501    0  0.00000000000E+00  0.00000000000E+00 -0.18285507624E+04  0.18285507624E+04  0.25500000920E-02 0. -1.
    10030    2    1    2    0    0  0.00000000000E+00  0.00000000000E+00 -0.72137847913E+03  0.29357230456E+04  0.28457130724E+04 0.  0.
        5    1    3    3  502    0  0.14163717269E+04 -0.77247548287E+02 -0.24570723534E+03  0.14396076507E+04  0.46999998093E+01 0. -1.
       -5    1    3    3    0  502 -0.14163717269E+04  0.77247548287E+02 -0.47567124379E+03  0.14961153949E+04  0.46999998093E+01 0.  1.
</event>
<event>
 5   0  0.1075146E-05  0.2864335E+04  0.7818609E-02  0.8283569E-01
       -1   -1    0    0    0  501  0.00000000000E+00  0.00000000000E+00  0.14241538118E+04  0.14241538118E+04  0.50400001928E-02 0. -1.
        1   -1    0    0  501    0  0.00000000000E+00  0.00000000000E+00 -0.14402264880E+04  0.14402264880E+04  0.50400001928E-02 0.  1.
    10030    2    1    2    0    0  0.00000000000E+00  0.00000000000E+00 -0.16072676188E+02  0.28643802998E+04  0.28643352057E+04 0.  0.
        2    1    3    3  502    0 -0.83592947684E+03  0.85391801708E+03  0.78137457743E+03  0.14277605893E+04  0.25500000920E-02 0. -1.
       -2    1    3    3    0  502  0.83592947684E+03 -0.85391801708E+03 -0.79744725362E+03  0.14366197105E+04  0.25500000920E-02 0.  1.
</event>
<event>
 5   0  0.1075146E-05  0.2707841E+04  0.7818609E-02  0.8332465E-01
        1   -1    0    0  501    0  0.00000000000E+00  0.00000000000E+00  0.99563127103E+03  0.99563127104E+03  0.50400001928E-02 0. -1.
       -1   -1    0    0    0  501  0.00000000000E+00  0.00000000000E+00 -0.18411446536E+04  0.18411446536E+04  0.50400001928E-02 0.  1.
    10030    2    1    2    0    0  0.00000000000E+00  0.00000000000E+00 -0.84551338257E+03  0.28367759246E+04  0.27078413481E+04 0.  0.
        2    1    3    3  502    0 -0.24557127706E+03 -0.88833137529E+03  0.61626604897E+03  0.11087027228E+04  0.25500000920E-02 0. -1.
       -2    1    3    3    0  502  0.24557127706E+03  0.88833137529E+03 -0.14617794315E+04  0.17280732018E+04  0.25500000920E-02 0.  1.
</event>
<event>
 5   0  0.8958000E-06  0.2845404E+04  0.7818609E-02  0.8289309E-01
        4   -1    0    0  501    0  0.00000000000E+00  0.00000000000E+00  0.20588251167E+04  0.20588255084E+04  0.12699999809E+01 0. -1.
       -4   -1    0    0    0  501  0.00000000000E+00  0.00000000000E+00 -0.98312369103E+03  0.98312451133E+03  0.12699999809E+01 0.  1.
    10030    2    1    2    0    0  0.00000000000E+00  0.00000000000E+00  0.10757014257E+04  0.30419500197E+04  0.28454044291E+04 0.  0.
        1    1    3    3  502    0 -0.14135250649E+04 -0.88270259597E+02  0.39347873502E+03  0.14699218560E+04  0.50400001928E-02 0.  1.
       -1    1    3    3    0  502  0.14135250649E+04  0.88270259597E+02  0.68222269066E+03  0.15720281637E+04  0.50400001928E-02 0. -1.
</event>
<event>
 5   0  0.1017456E-05  0.2731299E+04  0.7818609E-02  0.8324921E-01
       -1   -1    0    0    0  501  0.00000000000E+00  0.00000000000E+00  0.79220947505E+03  0.79220947506E+03  0.50400001928E-02 0.  1.
        1   -1    0    0  501    0  0.00000000000E+00  0.00000000000E+00 -0.23541727560E+04  0.23541727560E+04  0.50400001928E-02 0. -1.
    10030    2    1    2    0    0  0.00000000000E+00  0.00000000000E+00 -0.15619632810E+04  0.31463822311E+04  0.27312985653E+04 0.  0.
        5    1    3    3  502    0 -0.25007125900E+03  0.47498348471E+03  0.66557308708E+03  0.85507576832E+03  0.46999998093E+01 0.  1.
       -5    1    3    3    0  502  0.25007125900E+03 -0.47498348471E+03 -0.22275363681E+04  0.22913064628E+04  0.46999998093E+01 0. -1.
</event>
<event>
 5   0  0.2651061E-05  0.1608860E+04  0.7818609E-02  0.8815124E-01
       -2   -1    0    0    0  501  0.00000000000E+00  0.00000000000E+00  0.29410831150E+03  0.29410831151E+03  0.25500000920E-02 0.  1.
        2   -1    0    0  501    0  0.00000000000E+00  0.00000000000E+00 -0.22002350703E+04  0.22002350703E+04  0.25500000920E-02 0. -1.
    10030    2    1    2    0    0  0.00000000000E+00  0.00000000000E+00 -0.19061267588E+04  0.24943433818E+04  0.16088597471E+04 0.  0.
        3    1    3    3  502    0  0.15431337056E+03 -0.78204128282E+03 -0.11208071968E+04  0.13753581232E+04  0.10100000352E+00 0.  1.
       -3    1    3    3    0  502 -0.15431337056E+03  0.78204128282E+03 -0.78531956196E+03  0.11189852586E+04  0.10100000352E+00 0. -1.
</event>
<event>
 5   0  0.1078103E-05  0.2758529E+04  0.7818609E-02  0.8316260E-01
        1   -1    0    0  501    0  0.00000000000E+00  0.00000000000E+00  0.18023231396E+04  0.18023231396E+04  0.50400001928E-02 0.  1.
       -1   -1    0    0    0  501  0.00000000000E+00  0.00000000000E+00 -0.10555099296E+04  0.10555099296E+04  0.50400001928E-02 0. -1.
    10030    2    1    2    0    0  0.00000000000E+00  0.00000000000E+00  0.74681321004E+03  0.28578330692E+04  0.27585285717E+04 0.  0.
        1    1    3    3  502    0 -0.38210055642E+03 -0.34276092760E+03  0.16996813177E+04  0.17755006253E+04  0.50400001928E-02 0.  1.
       -1    1    3    3    0  502  0.38210055642E+03  0.34276092760E+03 -0.95286810761E+03  0.10823324440E+04  0.50400001928E-02 0. -1.
</event>
<event>
 5   0  0.1075146E-05  0.2814627E+04  0.7818609E-02  0.8298742E-01
       -1   -1    0    0    0  501  0.00000000000E+00  0.00000000000E+00  0.27690639637E+04  0.27690639637E+04  0.50400001928E-02 0.  1.
        1   -1    0    0  501    0  0.00000000000E+00  0.00000000000E+00 -0.71523493957E+03  0.71523493959E+03  0.50400001928E-02 0. -1.
    10030    2    1    2    0    0  0.00000000000E+00  0.00000000000E+00  0.20538290241E+04  0.34842989033E+04  0.28146270068E+04 0.  0.
        2    1    3    3  502    0 -0.13659894599E+04  0.33150894388E+03  0.11118357792E+04  0.17922065128E+04  0.25500000920E-02 0.  1.
       -2    1    3    3    0  502  0.13659894599E+04 -0.33150894388E+03  0.94199324496E+03  0.16920923905E+04  0.25500000920E-02 0. -1.
</event>
<event>
 5   0  0.1017456E-05  0.2979894E+04  0.7818609E-02  0.8249496E-01
       -1   -1    0    0    0  501  0.00000000000E+00  0.00000000000E+00  0.20602181315E+04  0.20602181315E+04  0.50400001928E-02 0.  1.
        1   -1    0    0  501    0  0.00000000000E+00  0.00000000000E+00 -0.10775277717E+04  0.10775277718E+04  0.50400001928E-02 0. -1.
    10030    2    1    2    0    0  0.00000000000E+00  0.00000000000E+00  0.98269035975E+03  0.31377459033E+04  0.29798941274E+04 0.  0.
        5    1    3    3  502    0 -0.10642734275E+04 -0.50744321596E+02 -0.60529764186E+03  0.12254224740E+04  0.46999998093E+01 0. -1.
       -5    1    3    3    0  502  0.10642734275E+04  0.50744321596E+02  0.15879880016E+04  0.19123234292E+04  0.46999998093E+01 0.  1.
</event>
<event>
 5   0  0.2588048E-05  0.2797020E+04  0.7818609E-02  0.8304194E-01
        2   -1    0    0  501    0  0.00000000000E+00  0.00000000000E+00  0.17608941251E+04  0.17608941251E+04  0.25500000920E-02 0.  1.
       -2   -1    0    0    0  501  0.00000000000E+00  0.00000000000E+00 -0.11107026016E+04  0.11107026016E+04  0.25500000920E-02 0. -1.
    10030    2    1    2    0    0  0.00000000000E+00  0.00000000000E+00  0.65019152353E+03  0.28715967268E+04  0.27970196181E+04 0.  0.
        2    1    3    3  502    0  0.54402349507E+03  0.87063655373E+03 -0.64988832452E+03  0.12150409072E+04  0.25500000920E-02 0. -1.
       -2    1    3    3    0  502 -0.54402349507E+03 -0.87063655373E+03  0.13000798480E+04  0.16565558195E+04  0.25500000920E-02 0.  1.
</event>
<event>
 5   0  0.2624815E-05  0.2770803E+04  0.7818609E-02  0.8312391E-01
       -2   -1    0    0    0  501  0.00000000000E+00  0.00000000000E+00  0.10063556834E+04  0.10063556834E+04  0.25500000920E-02 0.  1.
        2   -1    0    0  501    0  0.00000000000E+00  0.00000000000E+00 -0.19072150003E+04  0.19072150003E+04  0.25500000920E-02 0. -1.
    10030    2    1    2    0    0  0.00000000000E+00  0.00000000000E+00 -0.90085931689E+03  0.29135706838E+04  0.27708025228E+04 0.  0.
        4    1    3    3  502    0  0.54639276151E+03  0.10014847621E+03  0.88412215399E+03  0.10441495885E+04  0.12699999809E+01 0.  1.
       -4    1    3    3    0  502 -0.54639276151E+03 -0.10014847621E+03 -0.17849814709E+04  0.18694210953E+04  0.12699999809E+01 0. -1.
</event>
<event>
 5   0  0.1105862E-05  0.1649243E+04  0.7818609E-02  0.8790854E-01
       -1   -1    0    0    0  501  0.00000000000E+00  0.00000000000E+00  0.43383007814E+03  0.43383007817E+03  0.50400001928E-02 0.  1.
        1   -1    0    0  501    0  0.00000000000E+00  0.00000000000E+00 -0.15674355166E+04  0.15674355166E+04  0.50400001928E-02 0. -1.
    10030    2    1    2    0    0  0.00000000000E+00  0.00000000000E+00 -0.11336054384E+04  0.20012655947E+04  0.16492430660E+04 0.  0.
        3    1    3    3  502    0 -0.44052485506E+03  0.53994842004E+03 -0.31792922924E+02  0.69757956132E+03  0.10100000352E+00 0.  1.
       -3    1    3    3    0  502  0.44052485506E+03 -0.53994842004E+03 -0.11018125155E+04  0.13036860334E+04  0.10100000352E+00 0. -1.
</event>
<event>
 5   0  0.2588048E-05  0.1903990E+04  0.7818609E-02  0.8652873E-01
       -2   -1    0    0    0  501  0.00000000000E+00  0.00000000000E+00  0.57769500901E+03  0.57769500902E+03  0.25500000920E-02 0.  1.
        2   -1    0    0  501    0  0.00000000000E+00  0.00000000000E+00 -0.15688108380E+04  0.15688108380E+04  0.25500000920E-02 0. -1.
    10030    2    1    2    0    0  0.00000000000E+00  0.00000000000E+00 -0.99111582902E+03  0.21465058471E+04  0.19039896966E+04 0.  0.
        2    1    3    3  502    0 -0.73308745009E+02 -0.36694089547E+02 -0.15648240776E+04  0.15669700131E+04  0.25500000920E-02 0. -1.
       -2    1    3    3    0  502  0.73308745009E+02  0.36694089547E+02  0.57370824857E+03  0.57953583391E+03  0.25500000920E-02 0.  1.
</event>
<event>
 5   0  0.1017456E-05  0.1454051E+04  0.7818609E-02  0.8915597E-01
       -1   -1    0    0    0  501  0.00000000000E+00  0.00000000000E+00  0.31064157438E+03  0.31064157442E+03  0.50400001928E-02 0.  1.
        1   -1    0    0  501    0  0.00000000000E+00  0.00000000000E+00 -0.17015298657E+04  0.17015298657E+04  0.50400001928E-02 0. -1.
    10030    2    1    2    0    0  0.00000000000E+00  0.00000000000E+00 -0.13908882914E+04  0.20121714402E+04  0.14540507782E+04 0.  0.
        5    1    3    3  502    0  0.44327070836E+03 -0.38630326680E+03 -0.10374242520E+03  0.59707932104E+03  0.46999998093E+01 0.  1.
       -5    1    3    3    0  502 -0.44327070836E+03  0.38630326680E+03 -0.12871458662E+04  0.14150921191E+04  0.46999998093E+01 0. -1.
</event>
<event>
 5   0  0.1067434E-05  0.1953272E+04  0.7818609E-02  0.8628785E-01
       -1   -1    0    0    0  501  0.00000000000E+00  0.00000000000E+00  0.86202888185E+03  0.86202888187E+03  0.50400001928E-02 0.  1.
        1   -1    0    0  501    0  0.00000000000E+00  0.00000000000E+00 -0.11064799077E+04  0.11064799077E+04  0.50400001928E-02 0. -1.
    10030    2    1    2    0    0  0.00000000000E+00  0.00000000000E+00 -0.24445102584E+03  0.19685087896E+04  0.19532717554E+04 0.  0.
        4    1    3    3  502    0 -0.40543356801E+03 -0.83304379666E+03  0.18917951174E+03  0.94558386502E+03  0.12699999809E+01 0.  1.
       -4    1    3    3    0  502  0.40543356801E+03  0.83304379666E+03 -0.43363053758E+03  0.10229249245E+04  0.12699999809E+01 0. -1.
</event>
<event>
 5   0  0.1075146E-05  0.2793836E+04  0.7818609E-02  0.8305185E-01
        1   -1    0    0  501    0  0.00000000000E+00  0.00000000000E+00  0.11150481919E+04  0.11150481919E+04  0.50400001928E-02 0.  1.
       -1   -1    0    0    0  501  0.00000000000E+00  0.00000000000E+00 -0.17500408395E+04  0.17500408395E+04  0.50400001928E-02 0. -1.
    10030    2    1    2    0    0  0.00000000000E+00  0.00000000000E+00 -0.63499264764E+03  0.28650890314E+04  0.27938359822E+04 0.  0.
        2    1    3    3  502    0 -0.12797229739E+04 -0.51322088300E+03 -0.54747751654E+03  0.14835154855E+04  0.25500000920E-02 0. -1.
       -2    1    3    3    0  502  0.12797229739E+04  0.51322088300E+03 -0.87515131107E+02  0.13815735459E+04  0.25500000920E-02 0.  1.
</event>
<event>
 5   0  0.1017456E-05  0.2812203E+04  0.7818609E-02  0.8299490E-01
        1   -1    0    0  501    0  0.00000000000E+00  0.00000000000E+00  0.12844111542E+04  0.12844111543E+04  0.50400001928E-02 0. -1.
       -1   -1    0    0    0  501  0.00000000000E+00  0.00000000000E+00 -0.15393216208E+04  0.15393216208E+04  0.50400001928E-02 0.  1.
    10030    2    1    2    0    0  0.00000000000E+00  0.00000000000E+00 -0.25491046656E+03  0.28237327751E+04  0.28122033068E+04 0.  0.
        5    1    3    3  502    0  0.55629199588E+02  0.77508653409E+03  0.10492049445E+04  0.13056442274E+04  0.46999998093E+01 0. -1.
       -5    1    3    3    0  502 -0.55629199588E+02 -0.77508653409E+03 -0.13041154110E+04  0.15180885476E+04  0.46999998093E+01 0.  1.
</event>
<event>
 5   0  0.1078103E-05  0.2821952E+04  0.7818609E-02  0.8296486E-01
        1   -1    0    0  501    0  0.00000000000E+00  0.00000000000E+00  0.16996632877E+04  0.16996632877E+04  0.50400001928E-02 0. -1.
       -1   -1    0    0    0  501  0.00000000000E+00  0.00000000000E+00 -0.11713217996E+04  0.11713217996E+04  0.50400001928E-02 0.  1.
    10030    2    1    2    0    0  0.00000000000E+00  0.00000000000E+00  0.52834148810E+03  0.28709850874E+04  0.28219515665E+04 0.  0.
        1    1    3    3  502    0 -0.26561978361E+03  0.12714682744E+04 -0.29646442377E+03  0.13323200054E+04  0.50400001928E-02 0. -1.
       -1    1    3    3    0  502  0.26561978361E+03 -0.12714682744E+04  0.82480591188E+03  0.15386650820E+04  0.50400001928E-02 0.  1.
</event>
<event>
 5   0  0.2651061E-05  0.2906464E+04  0.7818609E-02  0.8270957E-01
        2   -1    0    0  501    0  0.00000000000E+00  0.00000000000E+00  0.16165400528E+04  0.16165400528E+04  0.25500000920E-02 0. -1.
       -2   -1    0    0    0  501  0.00000000000E+00  0.00000000000E+00 -0.13064221743E+04  0.13064221743E+04  0.25500000920E-02 0.  1.
    10030    2    1    2    0    0  0.00000000000E+00  0.00000000000E+00  0.31011787841E+03  0.29229622271E+04  0.29064643611E+04 0.  0.
        3    1    3    3  502    0  0.54682378313E+03  0.12418007891E+04  0.67839562106E+03  0.15170056290E+04  0.10100000352E+00 0. -1.
       -3    1    3    3    0  502 -0.54682378313E+03 -0.12418007891E+04 -0.36827774265E+03  0.14059565981E+04  0.10100000352E+00 0.  1.
</event>
<event>
 5   0  0.2651061E-05  0.2804828E+04  0.7818609E-02  0.8301771E-01
       -2   -1    0    0    0  501  0.00000000000E+00  0.00000000000E+00  0.95385305000E+03  0.95385305000E+03  0.25500000920E-02 0.  1.
        2   -1    0    0  501    0  0.00000000000E+00  0.00000000000E+00 -0.20619160711E+04  0.20619160711E+04  0.25500000920E-02 0. -1.
    10030    2    1    2    0    0  0.00000000000E+00  0.00000000000E+00 -0.11080630211E+04  0.30157691211E+04  0.28048279329E+04 0.  0.
        3    1    3    3  502    0  0.73413435720E+03 -0.11221617401E+04 -0.11258795678E+03  0.13456880335E+04  0.10100000352E+00 0.  1.
       -3    1    3    3    0  502 -0.73413435720E+03  0.11221617401E+04 -0.99547506435E+03  0.16700810876E+04  0.10100000352E+00 0. -1.
</event>
<event>
 5   0  0.1017456E-05  0.2774366E+04  0.7818609E-02  0.8311271E-01
        1   -1    0    0  501    0  0.00000000000E+00  0.00000000000E+00  0.11926319130E+04  0.11926319130E+04  0.50400001928E-02 0. -1.
       -1   -1    0    0    0  501  0.00000000000E+00  0.00000000000E+00 -0.16134706636E+04  0.16134706636E+04  0.50400001928E-02 0.  1.
    10030    2    1    2    0    0  0.00000000000E+00  0.00000000000E+00 -0.42083875063E+03  0.28061025766E+04  0.27743659485E+04 0.  0.
        5    1    3    3  502    0 -0.26077327438E+02 -0.12459456057E+04  0.40580701198E+03  0.13106341596E+04  0.46999998093E+01 0. -1.
       -5    1    3    3    0  502  0.26077327438E+02  0.12459456057E+04 -0.82664576260E+03  0.14954684170E+04  0.46999998093E+01 0.  1.
</event>
<event>
 5   0  0.1105862E-05  0.2454242E+04  0.7818609E-02  0.8419471E-01
       -1   -1    0    0    0  501  0.00000000000E+00  0.00000000000E+00  0.91770257995E+03  0.91770257996E+03  0.50400001928E-02 0.  1.
        1   -1    0    0  501    0  0.00000000000E+00  0.00000000000E+00 -0.16408652031E+04  0.16408652031E+04  0.50400001928E-02 0. -1.
    10030    2    1    2    0    0  0.00000000000E+00  0.00000000000E+00 -0.72316262318E+03  0.25585677831E+04  0.24542422295E+04 0.  0.
        3    1    3    3  502    0 -0.80628888699E+03 -0.79212111470E+03 -0.85966530000E+03  0.14200641069E+04  0.10100000352E+00 0. -1.
       -3    1    3    3    0  502  0.80628888699E+03  0.79212111470E+03  0.13650267682E+03  0.11385036761E+04  0.10100000352E+00 0.  1.
</event>
<event>
 5   0  0.1105862E-05  0.2791761E+04  0.7818609E-02  0.8305831E-01
        1   -1    0    0  501    0  0.00000000000E+00  0.00000000000E+00  0.13152942198E+04  0.13152942198E+04  0.50400001928E-02 0. -1.
       -1   -1    0    0    0  501  0.00000000000E+00  0.00000000000E+00 -0.14814039570E+04  0.14814039570E+04  0.50400001928E-02 0.  1.
    10030    2    1    2    0    0  0.00000000000E+00  0.00000000000E+00 -0.16610973725E+03  0.27966981768E+04  0.27917607790E+04 0.  0.
        3    1    3    3  502    0 -0.49756352016E+03 -0.12955225727E+04  0.67323435251E+02  0.13894173772E+04  0.10100000352E+00 0. -1.
       -3    1    3    3    0  502  0.49756352016E+03  0.12955225727E+04 -0.23343317250E+03  0.14072807996E+04  0.10100000352E+00 0.  1.
</event>
<event>
 5   0  0.2588048E-05  0.2855678E+04  0.7818609E-02  0.8286188E-01
       -2   -1    0    0    0  501  0.00000000000E+00  0.00000000000E+00  0.11379587048E+04  0.11379587048E+04  0.25500000920E-02 0.  1.
        2   -1    0    0  501    0  0.00000000000E+00  0.00000000000E+00 -0.17915619651E+04  0.17915619651E+04  0.25500000920E-02 0. -1.
    10030    2    1    2    0    0  0.00000000000E+00  0.00000000000E+00 -0.65360326031E+03  0.29295206699E+04  0.28556775262E+04 0.  0.
        2    1    3    3  502    0  0.55596117493E+03 -0.72827220494E+03 -0.14502220691E+04  0.17154058652E+04  0.25500000920E-02 0. -1.
       -2    1    3    3    0  502 -0.55596117493E+03  0.72827220494E+03  0.79661880883E+03  0.12141148048E+04  0.25500000920E-02 0.  1.
</event>
<event>
 5   0  0.2588048E-05  0.1675957E+04  0.7818609E-02  0.8775197E-01
        2   -1    0    0  501    0  0.00000000000E+00  0.00000000000E+00  0.11459569484E+04  0.11459569484E+04  0.25500000920E-02 0.  1.
       -2   -1    0    0    0  501  0.00000000000E+00  0.00000000000E+00 -0.61276986199E+03  0.61276986200E+03  0.25500000920E-02 0. -1.
    10030    2    1    2    0    0  0.00000000000E+00  0.00000000000E+00  0.53318708638E+03  0.17587268104E+04  0.16759568981E+04 0.  0.
        2    1    3    3  502    0 -0.62650108188E+03 -0.13852315963E+03  0.83220770531E+03  0.10508386823E+04  0.25500000920E-02 0.  1.
       -2    1    3    3    0  502  0.62650108188E+03  0.13852315963E+03 -0.29902061893E+03  0.70788812810E+03  0.25500000920E-02 0. -1.
</event>
<event>
 5   0  0.1067434E-05  0.2733151E+04  0.7818609E-02  0.8324328E-01
        1   -1    0    0  501    0  0.00000000000E+00  0.00000000000E+00  0.10718386064E+04  0.10718386064E+04  0.50400001928E-02 0.  1.
       -1   -1    0    0    0  501  0.00000000000E+00  0.00000000000E+00 -0.17423593682E+04  0.17423593682E+04  0.50400001928E-02 0. -1.
    10030    2    1    2    0    0  0.00000000000E+00  0.00000000000E+00 -0.67052076185E+03  0.28141979746E+04  0.27331505901E+04 0.  0.
        4    1    3    3  502    0  0.60347267385E+03  0.45472741736E+03  0.83717547470E+03  0.11277502740E+04  0.12699999809E+01 0.  1.
       -4    1    3    3    0  502 -0.60347267385E+03 -0.45472741736E+03 -0.15076962365E+04  0.16864477006E+04  0.12699999809E+01 0. -1.
</event>
<event>
 5   0  0.2697964E-05  0.2719175E+04  0.7818609E-02  0.8328810E-01
       -2   -1    0    0    0  501  0.00000000000E+00  0.00000000000E+00  0.14107872575E+04  0.14107872575E+04  0.25500000920E-02 0.  1.
        2   -1    0    0  501    0  0.00000000000E+00  0.00000000000E+00 -0.13102459806E+04  0.13102459806E+04  0.25500000920E-02 0. -1.
    10030    2    1    2    0    0  0.00000000000E+00  0.00000000000E+00  0.10054127689E+03  0.27210332381E+04  0.27191751202E+04 0.  0.
        1    1    3    3  502    0  0.47113378143E+03 -0.10389253632E+04  0.79046886198E+03  0.13878666982E+04  0.50400001928E-02 0.  1.
       -1    1    3    3    0  502 -0.47113378143E+03  0.10389253632E+04 -0.68992758509E+03  0.13331665398E+04  0.50400001928E-02 0. -1.
</event>
<event>
 5   0  0.8958000E-06  0.2816151E+04  0.7818609E-02  0.8298272E-01
       -3   -1    0    0    0  501  0.00000000000E+00  0.00000000000E+00  0.20675906495E+04  0.20675906520E+04  0.10100000352E+00 0. -1.
        3   -1    0    0  501    0  0.00000000000E+00  0.00000000000E+00 -0.95893114098E+03  0.95893114630E+03  0.10100000352E+00 0.  1.
    10030    2    1    2    0    0  0.00000000000E+00  0.00000000000E+00  0.11086595085E+04  0.30265217983E+04  0.28161513257E+04 0.  0.
        5    1    3    3  502    0 -0.85871466128E+03 -0.55445075156E+03 -0.48643878821E+03  0.11320120539E+04  0.46999998093E+01 0.  1.
       -5    1    3    3    0  502  0.85871466128E+03  0.55445075156E+03  0.15950982967E+04  0.18945097444E+04  0.46999998093E+01 0. -1.
</event>
<event>
 5   0  0.2518686E-05  0.2444969E+04  0.7818609E-02  0.8422857E-01
       -2   -1    0    0    0  501  0.00000000000E+00  0.00000000000E+00  0.12034143440E+04  0.12034143440E+04  0.25500000920E-02 0. -1.
        2   -1    0    0  501    0  0.00000000000E+00  0.00000000000E+00 -0.12418568288E+04  0.12418568288E+04  0.25500000920E-02 0.  1.
    10030    2    1    2    0    0  0.00000000000E+00  0.00000000000E+00 -0.38442484846E+02  0.24452711728E+04  0.24449689741E+04 0.  0.
        5    1    3    3  502    0  0.42212209687E+03  0.91171555293E+03 -0.71575108741E+03  0.12335858394E+04  0.46999998093E+01 0.  1.
       -5    1    3    3    0  502 -0.42212209687E+03 -0.91171555293E+03  0.67730860256E+03  0.12116853334E+04  0.46999998093E+01 0. -1.
</event>
<event>
 5   0  0.2518686E-05  0.2018398E+04  0.7818609E-02  0.8598067E-01
        2   -1    0    0  501    0  0.00000000000E+00  0.00000000000E+00  0.11204209407E+04  0.11204209407E+04  0.25500000920E-02 0.  1.
       -2   -1    0    0    0  501  0.00000000000E+00  0.00000000000E+00 -0.90901768599E+03  0.90901768599E+03  0.25500000920E-02 0. -1.
    10030    2    1    2    0    0  0.00000000000E+00  0.00000000000E+00  0.21140325471E+03  0.20294386267E+04  0.20183978308E+04 0.  0.
        5    1    3    3  502    0 -0.81877725933E+02 -0.42424328929E+03  0.10227068934E+04  0.11102422305E+04  0.46999998093E+01 0.  1.
       -5    1    3    3    0  502  0.81877725933E+02  0.42424328929E+03 -0.81130363874E+03  0.91919639618E+03  0.46999998093E+01 0. -1.
</event>
<event>
 5   0  0.2588048E-05  0.2746654E+04  0.7818609E-02  0.8320024E-01
       -2   -1    0    0    0  501  0.00000000000E+00  0.00000000000E+00  0.10395842363E+04  0.10395842363E+04  0.25500000920E-02 0.  1.
        2   -1    0    0  501    0  0.00000000000E+00  0.00000000000E+00 -0.18142121769E+04  0.18142121769E+04  0.25500000920E-02 0. -1.
    10030    2    1    2    0    0  0.00000000000E+00  0.00000000000E+00 -0.77462794060E+03  0.28537964132E+04  0.27466535132E+04 0.  0.
        2    1    3    3  502    0 -0.83103144537E+03 -0.54224061582E+02 -0.15219154977E+04  0.17348718380E+04  0.25500000920E-02 0. -1.
       -2    1    3    3    0  502  0.83103144537E+03  0.54224061582E+02  0.74728755708E+03  0.11189245752E+04  0.25500000920E-02 0.  1.
</event>
<event>
 5   0  0.1017456E-05  0.1732954E+04  0.7818609E-02  0.8742789E-01
       -1   -1    0    0    0  501  0.00000000000E+00  0.00000000000E+00  0.10991296942E+04  0.10991296942E+04  0.50400001928E-02 0. -1.
        1   -1    0    0  501    0  0.00000000000E+00  0.00000000000E+00 -0.68307016070E+03  0.68307016072E+03  0.50400001928E-02 0.  1.
    10030    2    1    2    0    0  0.00000000000E+00  0.00000000000E+00  0.41605953345E+03  0.17821998549E+04  0.17329543524E+04 0.  0.
        5    1    3    3  502    0 -0.49957049289E+03  0.33123094354E+03 -0.43543066676E+03  0.74088229219E+03  0.46999998093E+01 0.  1.
       -5    1    3    3    0  502  0.49957049289E+03 -0.33123094354E+03  0.85149020021E+03  0.10413175627E+04  0.46999998093E+01 0. -1.
</event>
<event>
 5   0  0.2651061E-05  0.1759578E+04  0.7818609E-02  0.8728096E-01
       -2   -1    0    0    0  501  0.00000000000E+00  0.00000000000E+00  0.53638448154E+03  0.53638448154E+03  0.25500000920E-02 0. -1.
        2   -1    0    0  501    0  0.00000000000E+00  0.00000000000E+00 -0.14430477699E+04  0.14430477699E+04  0.25500000920E-02 0.  1.
    10030    2    1    2    0    0  0.00000000000E+00  0.00000000000E+00 -0.90666328839E+03  0.19794322515E+04  0.17595777106E+04 0.  0.
        3    1    3    3  502    0 -0.46298467157E+03  0.68418662097E+03 -0.79373238179E+03  0.11456339915E+04  0.10100000352E+00 0.  1.
       -3    1    3    3    0  502  0.46298467157E+03 -0.68418662097E+03 -0.11293090660E+03  0.83379825995E+03  0.10100000352E+00 0. -1.
</event>
<event>
 5   0  0.1105862E-05  0.2676599E+04  0.7818609E-02  0.8342638E-01
        1   -1    0    0  501    0  0.00000000000E+00  0.00000000000E+00  0.16825113943E+04  0.16825113943E+04  0.50400001928E-02 0. -1.
       -1   -1    0    0    0  501  0.00000000000E+00  0.00000000000E+00 -0.10645072973E+04  0.10645072973E+04  0.50400001928E-02 0.  1.
    10030    2    1    2    0    0  0.00000000000E+00  0.00000000000E+00  0.61800409699E+03  0.27470186916E+04  0.26765990787E+04 0.  0.
        3    1    3    3  502    0 -0.70171408816E+03 -0.19090288846E+03  0.14620363273E+04  0.16329105324E+04  0.10100000352E+00 0. -1.
       -3    1    3    3    0  502  0.70171408816E+03  0.19090288846E+03 -0.84403223031E+03  0.11141081592E+04  0.10100000352E+00 0.  1.
</event>
<event>
 5   0  0.2624815E-05  0.2763489E+04  0.7818609E-02  0.8314694E-01
       -2   -1    0    0    0  501  0.00000000000E+00  0.00000000000E+00  0.18952216936E+04  0.18952216936E+04  0.25500000920E-02 0. -1.
        2   -1    0    0  501    0  0.00000000000E+00  0.00000000000E+00 -0.10073853085E+04  0.10073853085E+04  0.25500000920E-02 0.  1.
    10030    2    1    2    0    0  0.00000000000E+00  0.00000000000E+00  0.88783638519E+03  0.29026070021E+04  0.27634894539E+04 0.  0.
        4    1    3    3  502    0 -0.12759687204E+04 -0.23402686419E+02  0.10002749633E+04  0.16214794098E+04  0.12699999809E+01 0. -1.
       -4    1    3    3    0  502  0.12759687204E+04  0.23402686419E+02 -0.11243857815E+03  0.12811275923E+04  0.12699999809E+01 0.  1.
</event>
<event>
 5   0  0.1075146E-05  0.2855475E+04  0.7818609E-02  0.8286249E-01
       -1   -1    0    0    0  501  0.00000000000E+00  0.00000000000E+00  0.74017859807E+03  0.74017859809E+03  0.50400001928E-02 0. -1.
        1   -1    0    0  501    0  0.00000000000E+00  0.00000000000E+00 -0.27539769599E+04  0.27539769599E+04  0.50400001928E-02 0.  1.
    10030    2    1    2    0    0  0.00000000000E+00  0.00000000000E+00 -0.20137983618E+04  0.34941555580E+04  0.28554753057E+04 0.  0.
        2    1    3    3  502    0  0.24306971845E+03 -0.11236946971E+04  0.29008514828E+02  0.11500496313E+04  0.25500000920E-02 0.  1.
       -2    1    3    3    0  502 -0.24306971845E+03  0.11236946971E+04 -0.20428068766E+04  0.23441059267E+04  0.25500000920E-02 0. -1.
</event>
<event>
 5   0  0.1078103E-05  0.2794826E+04  0.7818609E-02  0.8304876E-01
        1   -1    0    0  501    0  0.00000000000E+00  0.00000000000E+00  0.18520380913E+04  0.18520380913E+04  0.50400001928E-02 0.  1.
       -1   -1    0    0    0  501  0.00000000000E+00  0.00000000000E+00 -0.10543862010E+04  0.10543862010E+04  0.50400001928E-02 0. -1.
    10030    2    1    2    0    0  0.00000000000E+00  0.00000000000E+00  0.79765189030E+03  0.29064242922E+04  0.27948262251E+04 0.  0.
        1    1    3    3  502    0  0.88949606087E+03  0.74020694766E+03 -0.41581443395E+03  0.12296386507E+04  0.50400001928E-02 0. -1.
       -1    1    3    3    0  502 -0.88949606087E+03 -0.74020694766E+03  0.12134663242E+04  0.16767856416E+04  0.50400001928E-02 0.  1.
</event>
<event>
 5   0  0.2518686E-05  0.2947452E+04  0.7818609E-02  0.8258898E-01
        2   -1    0    0  501    0  0.00000000000E+00  0.00000000000E+00  0.15441600275E+04  0.15441600275E+04  0.25500000920E-02 0.  1.
       -2   -1    0    0    0  501  0.00000000000E+00  0.00000000000E+00 -0.14065045210E+04  0.14065045210E+04  0.25500000920E-02 0. -1.
    10030    2    1    2    0    0  0.00000000000E+00  0.00000000000E+00  0.13765550650E+03  0.29506645484E+04  0.29474518213E+04 0.  0.
        5    1    3    3  502    0 -0.54035815936E+03 -0.13302337561E+04  0.40136023275E+03  0.14908457039E+04  0.46999998093E+01 0.  1.
       -5    1    3    3    0  502  0.54035815936E+03  0.13302337561E+04 -0.26370472625E+03  0.14598188446E+04  0.46999998093E+01 0. -1.
</event>
<event>
 5   0  0.1017456E-05  0.2818830E+04  0.7818609E-02  0.8297446E-01
       -1   -1    0    0    0  501  0.00000000000E+00  0.00000000000E+00  0.10132969193E+04  0.10132969193E+04  0.50400001928E-02 0. -1.
        1   -1    0    0  501    0  0.00000000000E+00  0.00000000000E+00 -0.19603837064E+04  0.19603837064E+04  0.50400001928E-02 0.  1.
    10030    2    1    2    0    0  0.00000000000E+00  0.00000000000E+00 -0.94708678706E+03  0.29736806257E+04  0.28188300909E+04 0.  0.
        5    1    3    3  502    0 -0.10371259404E+04 -0.74823303962E+03 -0.10984936322E+04  0.16858805556E+04  0.46999998093E+01 0. -1.
       -5    1    3    3    0  502  0.10371259404E+04  0.74823303962E+03  0.15140684516E+03  0.12878000701E+04  0.46999998093E+01 0.  1.
</event>
<event>
 5   0  0.2651061E-05  0.2440542E+04  0.7818609E-02  0.8424479E-01
       -2   -1    0    0    0  501  0.00000000000E+00  0.00000000000E+00  0.72302993705E+03  0.72302993705E+03  0.25500000920E-02 0.  1.
        2   -1    0    0  501    0  0.00000000000E+00  0.00000000000E+00 -0.20594736990E+04  0.20594736990E+04  0.25500000920E-02 0. -1.
    10030    2    1    2    0    0  0.00000000000E+00  0.00000000000E+00 -0.13364437620E+04  0.27825036361E+04  0.24405418570E+04 0.  0.
        3    1    3    3  502    0 -0.10711593542E+03 -0.12012503680E+04 -0.45619424001E+03  0.12894143884E+04  0.10100000352E+00 0.  1.
       -3    1    3    3    0  502  0.10711593542E+03  0.12012503680E+04 -0.88024952198E+03  0.14930892477E+04  0.10100000352E+00 0. -1.
</event>
<event>
 5   0  0.2697964E-05  0.2491851E+04  0.7818609E-02  0.8405895E-01
        2   -1    0    0  501    0  0.00000000000E+00  0.00000000000E+00  0.49306108300E+03  0.49306108301E+03  0.25500000920E-02 0.  1.
       -2   -1    0    0    0  501  0.00000000000E+00  0.00000000000E+00 -0.31483519540E+04  0.31483519540E+04  0.25500000920E-02 0. -1.
    10030    2    1    2    0    0  0.00000000000E+00  0.00000000000E+00 -0.26552908710E+04  0.36414130370E+04  0.24918505767E+04 0.  0.
        1    1    3    3  502    0  0.41176759569E+03  0.59125980262E+03  0.15773554198E+03  0.73757793371E+03  0.50400001928E-02 0.  1.
       -1    1    3    3    0  502 -0.41176759569E+03 -0.59125980262E+03 -0.28130264130E+04  0.29038351033E+04  0.50400001928E-02 0. -1.
</event>
<event>
 5   0  0.1075146E-05  0.2129896E+04  0.7818609E-02  0.8548187E-01
       -1   -1    0    0    0  501  0.00000000000E+00  0.00000000000E+00  0.83846340809E+03  0.83846340811E+03  0.50400001928E-02 0.  1.
        1   -1    0    0  501    0  0.00000000000E+00  0.00000000000E+00 -0.13526104228E+04  0.13526104228E+04  0.50400001928E-02 0. -1.
    10030    2    1    2    0    0  0.00000000000E+00  0.00000000000E+00 -0.51414701470E+03  0.21910738309E+04  0.21298960960E+04 0.  0.
        2    1    3    3  502    0 -0.91965170973E+03  0.11431052142E+03  0.28267615407E+03  0.96888181457E+03  0.25500000920E-02 0.  1.
       -2    1    3    3    0  502  0.91965170973E+03 -0.11431052142E+03 -0.79682316877E+03  0.12221920163E+04  0.25500000920E-02 0. -1.
</event>
<event>
 5   0  0.1075146E-05  0.2860998E+04  0.7818609E-02  0.8284577E-01
       -1   -1    0    0    0  501  0.00000000000E+00  0.00000000000E+00  0.12517936949E+04  0.12517936949E+04  0.50400001928E-02 0. -1.
        1   -1    0    0  501    0  0.00000000000E+00  0.00000000000E+00 -0.16347158561E+04  0.16347158561E+04  0.50400001928E-02 0.  1.
    10030    2    1    2    0    0  0.00000000000E+00  0.00000000000E+00 -0.38292216115E+03  0.28865095510E+04  0.28609977292E+04 0.  0.
        2    1    3    3  502    0  0.78500426742E+03  0.11813879664E+04 -0.37863566564E+03  0.14680852136E+04  0.25500000920E-02 0. -1.
       -2    1    3    3    0  502 -0.78500426742E+03 -0.11813879664E+04 -0.42864955075E+01  0.14184243375E+04  0.25500000920E-02 0.  1.
</event>
<event>
 5   0  0.2651061E-05  0.2593350E+04  0.7818609E-02  0.8370464E-01
        2   -1    0    0  501    0  0.00000000000E+00  0.00000000000E+00  0.12930970876E+04  0.12930970876E+04  0.25500000920E-02 0. -1.
       -2   -1    0    0    0  501  0.00000000000E+00  0.00000000000E+00 -0.13002629327E+04  0.13002629327E+04  0.25500000920E-02 0.  1.
    10030    2    1    2    0    0  0.00000000000E+00  0.00000000000E+00 -0.71658450302E+01  0.25933600203E+04  0.25933501201E+04 0.  0.
        3    1    3    3  502    0 -0.11212560612E+04 -0.57894945953E+03  0.29469421184E+03  0.12958558254E+04  0.10100000352E+00 0.  1.
       -3    1    3    3    0  502  0.11212560612E+04  0.57894945953E+03 -0.30186005687E+03  0.12975041949E+04  0.10100000352E+00 0. -1.
</event>
<event>
 5   0  0.2651061E-05  0.2679531E+04  0.7818609E-02  0.8341677E-01
       -2   -1    0    0    0  501  0.00000000000E+00  0.00000000000E+00  0.13359048431E+04  0.13359048431E+04  0.25500000920E-02 0.  1.
        2   -1    0    0  501    0  0.00000000000E+00  0.00000000000E+00 -0.13436377330E+04  0.13436377330E+04  0.25500000920E-02 0. -1.
    10030    2    1    2    0    0  0.00000000000E+00  0.00000000000E+00 -0.77328899338E+01  0.26795425762E+04  0.26795314180E+04 0.  0.
        3    1    3    3  502    0 -0.97905792779E+03  0.33483335247E+03  0.84719781655E+03  0.13373152024E+04  0.10100000352E+00 0.  1.
       -3    1    3    3    0  502  0.97905792779E+03 -0.33483335247E+03 -0.85493070649E+03  0.13422273738E+04  0.10100000352E+00 0. -1.
</event>
<event>
 5   0  0.1067434E-05  0.2788863E+04  0.7818609E-02  0.8306734E-01
       -1   -1    0    0    0  501  0.00000000000E+00  0.00000000000E+00  0.23381042348E+04  0.23381042348E+04  0.50400001928E-02 0. -1.
        1   -1    0    0  501    0  0.00000000000E+00  0.00000000000E+00 -0.83163047158E+03  0.83163047160E+03  0.50400001928E-02 0.  1.
    10030    2    1    2    0    0  0.00000000000E+00  0.00000000000E+00  0.15064737632E+04  0.31697347064E+04  0.27888626552E+04 0.  0.
        4    1    3    3  502    0 -0.12122782014E+03 -0.13624342398E+04  0.44507392064E+03  0.14384073310E+04  0.12699999809E+01 0.  1.
       -4    1    3    3    0  502  0.12122782014E+03  0.13624342398E+04  0.10613998426E+04  0.17313273754E+04  0.12699999809E+01 0. -1.
</event>
<event>
 5   0  0.1067434E-05  0.2848771E+04  0.7818609E-02  0.8288285E-01
        1   -1    0    0  501    0  0.00000000000E+00  0.00000000000E+00  0.12356835821E+04  0.12356835821E+04  0.50400001928E-02 0. -1.
       -1   -1    0    0    0  501  0.00000000000E+00  0.00000000000E+00 -0.16419038975E+04  0.16419038975E+04  0.50400001928E-02 0.  1.
    10030    2    1    2    0    0  0.00000000000E+00  0.00000000000E+00 -0.40622031541E+03  0.28775874795E+04  0.28487707450E+04 0.  0.
        4    1    3    3  502    0 -0.80570016506E+03 -0.18901788164E+03 -0.13741436202E+04  0.16041049895E+04  0.12699999809E+01 0.  1.
       -4    1    3    3    0  502  0.80570016506E+03  0.18901788164E+03  0.96792330478E+03  0.12734824900E+04  0.12699999809E+01 0. -1.
</event>
<event>
 5   0  0.1078103E-05  0.2800216E+04  0.7818609E-02  0.8303201E-01
       -1   -1    0    0    0  501  0.00000000000E+00  0.00000000000E+00  0.18258326924E+04  0.18258326924E+04  0.50400001928E-02 0.  1.
        1   -1    0    0  501    0  0.00000000000E+00  0.00000000000E+00 -0.10736480755E+04  0.10736480755E+04  0.50400001928E-02 0. -1.
    10030    2    1    2    0    0  0.00000000000E+00  0.00000000000E+00  0.75218461693E+03  0.28994807679E+04  0.28002155320E+04 0.  0.
        1    1    3    3  502    0  0.32110224027E+03 -0.13627671048E+04  0.38417450464E+03  0.14518370710E+04  0.50400001928E-02 0.  1.
       -1    1    3    3    0  502 -0.32110224027E+03  0.13627671048E+04  0.36801011229E+03  0.14476436970E+04  0.50400001928E-02 0. -1.
</event>
<event>
 5   0  0.1078103E-05  0.2793522E+04  0.7818609E-02  0.8305282E-01
        1   -1    0    0  501    0  0.00000000000E+00  0.00000000000E+00  0.28191025001E+04  0.28191025001E+04  0.50400001928E-02 0. -1.
       -1   -1    0    0    0  501  0.00000000000E+00  0.00000000000E+00 -0.69204337199E+03  0.69204337200E+03  0.50400001928E-02 0.  1.
    10030    2    1    2    0    0  0.00000000000E+00  0.00000000000E+00  0.21270591281E+04  0.35111458721E+04  0.27935219349E+04 0.  0.
        1    1    3    3  502    0  0.37948034650E+03 -0.39740052625E+03 -0.55048800911E+03  0.77779789138E+03  0.50400001928E-02 0.  1.
       -1    1    3    3    0  502 -0.37948034650E+03  0.39740052625E+03  0.26775471372E+04  0.27333479807E+04  0.50400001928E-02 0. -1.
</event>
<event>
 5   0  0.1075146E-05  0.2802385E+04  0.7818609E-02  0.8302528E-01
        1   -1    0    0  501    0  0.00000000000E+00  0.00000000000E+00  0.29125216921E+04  0.29125216921E+04  0.50400001928E-02 0. -1.
       -1   -1    0    0    0  501  0.00000000000E+00  0.00000000000E+00 -0.67410321202E+03  0.67410321204E+03  0.50400001928E-02 0.  1.
    10030    2    1    2    0    0  0.00000000000E+00  0.00000000000E+00  0.22384184801E+04  0.35866249042E+04  0.28023848614E+04 0.  0.
        2    1    3    3  502    0 -0.69806018024E+03 -0.97039171893E+03  0.20548049162E+04  0.23772192467E+04  0.25500000920E-02 0.  1.
       -2    1    3    3    0  502  0.69806018024E+03  0.97039171893E+03  0.18361356391E+03  0.12094056574E+04  0.25500000920E-02 0. -1.
</event>
<event>
 5   0  0.1017456E-05  0.2753666E+04  0.7818609E-02  0.8317799E-01
       -1   -1    0    0    0  501  0.00000000000E+00  0.00000000000E+00  0.12452449432E+04  0.12452449432E+04  0.50400001928E-02 0. -1.
        1   -1    0    0  501    0  0.00000000000E+00  0.00000000000E+00 -0.15223263343E+04  0.15223263343E+04  0.50400001928E-02 0.  1.
    10030    2    1    2    0    0  0.00000000000E+00  0.00000000000E+00 -0.27708139107E+03  0.27675712775E+04  0.27536660434E+04 0.  0.
        5    1    3    3  502    0  0.90891738795E+03 -0.10287700105E+03  0.89570018852E+03  0.12802403732E+04  0.46999998093E+01 0. -1.
       -5    1    3    3    0  502 -0.90891738795E+03  0.10287700105E+03 -0.11727815796E+04  0.14873309043E+04  0.46999998093E+01 0.  1.
</event>
<event>
 5   0  0.1075146E-05  0.2779432E+04  0.7818609E-02  0.8309682E-01
        1   -1    0    0  501    0  0.00000000000E+00  0.00000000000E+00  0.13114135536E+04  0.13114135536E+04  0.50400001928E-02 0. -1.
       -1   -1    0    0    0  501  0.00000000000E+00  0.00000000000E+00 -0.14726937694E+04  0.14726937694E+04  0.50400001928E-02 0.  1.
    10030    2    1    2    0    0  0.00000000000E+00  0.00000000000E+00 -0.16128021574E+03  0.27841073230E+04  0.27794320064E+04 0.  0.
        2    1    3    3  502    0  0.93837799723E+03 -0.94799101953E+03  0.30997781257E+03  0.13694256033E+04  0.25500000920E-02 0.  1.
       -2    1    3    3    0  502 -0.93837799723E+03  0.94799101953E+03 -0.47125802831E+03  0.14146817197E+04  0.25500000920E-02 0. -1.
</event>
<event>
 5   0  0.2697964E-05  0.2824043E+04  0.7818609E-02  0.8295843E-01
        2   -1    0    0  501    0  0.00000000000E+00  0.00000000000E+00  0.18456529902E+04  0.18456529902E+04  0.25500000920E-02 0.  1.
       -2   -1    0    0    0  501  0.00000000000E+00  0.00000000000E+00 -0.10802707253E+04  0.10802707253E+04  0.25500000920E-02 0. -1.
    10030    2    1    2    0    0  0.00000000000E+00  0.00000000000E+00  0.76538226487E+03  0.29259237155E+04  0.28240431260E+04 0.  0.
        1    1    3    3  502    0 -0.54932385998E+03  0.32048462322E+03 -0.92347909533E+03  0.11212853055E+04  0.50400001928E-02 0. -1.
       -1    1    3    3    0  502  0.54932385998E+03 -0.32048462322E+03  0.16888613602E+04  0.18046384100E+04  0.50400001928E-02 0.  1.
</event>
<event>
 5   0  0.2697964E-05  0.1667798E+04  0.7818609E-02  0.8779946E-01
        2   -1    0    0  501    0  0.00000000000E+00  0.00000000000E+00  0.11393166006E+04  0.11393166006E+04  0.25500000920E-02 0.  1.
       -2   -1    0    0    0  501  0.00000000000E+00  0.00000000000E+00 -0.61035509512E+03  0.61035509513E+03  0.25500000920E-02 0. -1.
    10030    2    1    2    0    0  0.00000000000E+00  0.00000000000E+00  0.52896150544E+03  0.17496716957E+04  0.16677981798E+04 0.  0.
        1    1    3    3  502    0 -0.55476869076E+02 -0.68462299234E+03 -0.23159762535E+03  0.72486121756E+03  0.50400001928E-02 0. -1.
       -1    1    3    3    0  502  0.55476869076E+02  0.68462299234E+03  0.76055913079E+03  0.10248104781E+04  0.50400001928E-02 0.  1.
</event>
<event>
 5   0  0.2588048E-05  0.2775167E+04  0.7818609E-02  0.8311020E-01
       -2   -1    0    0    0  501  0.00000000000E+00  0.00000000000E+00  0.12805132583E+04  0.12805132583E+04  0.25500000920E-02 0. -1.
        2   -1    0    0  501    0  0.00000000000E+00  0.00000000000E+00 -0.15036064503E+04  0.15036064503E+04  0.25500000920E-02 0.  1.
    10030    2    1    2    0    0  0.00000000000E+00  0.00000000000E+00 -0.22309319205E+03  0.27841197086E+04  0.27751670183E+04 0.  0.
        2    1    3    3  502    0 -0.75622100919E+03 -0.10254375915E+04  0.43976742024E+03  0.13478827296E+04  0.25500000920E-02 0. -1.
       -2    1    3    3    0  502  0.75622100919E+03  0.10254375915E+04 -0.66286061229E+03  0.14362369791E+04  0.25500000920E-02 0.  1.
</event>
<event>
 5   0  0.1067434E-05  0.2604071E+04  0.7818609E-02  0.8366820E-01
       -1   -1    0    0    0  501  0.00000000000E+00  0.00000000000E+00  0.12776244524E+04  0.12776244524E+04  0.50400001928E-02 0. -1.
        1   -1    0    0  501    0  0.00000000000E+00  0.00000000000E+00 -0.13269127329E+04  0.13269127329E+04  0.50400001928E-02 0.  1.
    10030    2    1    2    0    0  0.00000000000E+00  0.00000000000E+00 -0.49288280494E+02  0.26045371852E+04  0.26040707776E+04 0.  0.
        4    1    3    3  502    0 -0.75372428471E+02 -0.12817449786E+04  0.19159668192E+03  0.12981764497E+04  0.12699999809E+01 0. -1.
       -4    1    3    3    0  502  0.75372428471E+02  0.12817449786E+04 -0.24088496241E+03  0.13063607355E+04  0.12699999809E+01 0.  1.
</event>
<event>
 5   0  0.1067434E-05  0.2708334E+04  0.7818609E-02  0.8332306E-01
       -1   -1    0    0    0  501  0.00000000000E+00  0.00000000000E+00  0.10986967274E+04  0.10986967274E+04  0.50400001928E-02 0. -1.
        1   -1    0    0  501    0  0.00000000000E+00  0.00000000000E+00 -0.16690389269E+04  0.16690389269E+04  0.50400001928E-02 0.  1.
    10030    2    1    2    0    0  0.00000000000E+00  0.00000000000E+00 -0.57034219947E+03  0.27677356543E+04  0.27083335149E+04 0.  0.
        4    1    3    3  502    0 -0.23923512224E+03 -0.12639517655E+04  0.14714221491E+03  0.12947818170E+04  0.12699999809E+01 0. -1.
       -4    1    3    3    0  502  0.23923512224E+03  0.12639517655E+04 -0.71748441438E+03  0.14729538374E+04  0.12699999809E+01 0.  1.
</event>
<event>
 5   0  0.1078103E-05  0.2756856E+04  0.7818609E-02  0.8316789E-01
       -1   -1    0    0    0  501  0.00000000000E+00  0.00000000000E+00  0.10728467907E+04  0.10728467907E+04  0.50400001928E-02 0. -1.
        1   -1    0    0  501    0  0.00000000000E+00  0.00000000000E+00 -0.17710487876E+04  0.17710487876E+04  0.50400001928E-02 0.  1.
    10030    2    1    2    0    0  0.00000000000E+00  0.00000000000E+00 -0.69820199689E+03  0.28438955783E+04  0.27568561863E+04 0.  0.
        1    1    3    3  502    0 -0.12580316286E+04  0.54236647647E+03 -0.50642514245E+03  0.14605722845E+04  0.50400001928E-02 0.  1.
       -1    1    3    3    0  502  0.12580316286E+04 -0.54236647647E+03 -0.19177685443E+03  0.13833232938E+04  0.50400001928E-02 0. -1.
</event>
<event>
 5   0  0.1075146E-05  0.2642307E+04  0.7818609E-02  0.8353971E-01
        1   -1    0    0  501    0  0.00000000000E+00  0.00000000000E+00  0.11893418616E+04  0.11893418616E+04  0.50400001928E-02 0.  1.
       -1   -1    0    0    0  501  0.00000000000E+00  0.00000000000E+00 -0.14675739352E+04  0.14675739352E+04  0.50400001928E-02 0. -1.
    10030    2    1    2    0    0  0.00000000000E+00  0.00000000000E+00 -0.27823207363E+03  0.26569157968E+04  0.26423074130E+04 0.  0.
        2    1    3    3  502    0  0.31942920829E+03  0.11290198447E+04 -0.74970155286E+03  0.13923983795E+04  0.25500000920E-02 0. -1.
       -2    1    3    3    0  502 -0.31942920829E+03 -0.11290198447E+04  0.47146947923E+03  0.12645174173E+04  0.25500000920E-02 0.  1.
</event>
<event>
 5   0  0.1075146E-05  0.2777716E+04  0.7818609E-02  0.8310220E-01
       -1   -1    0    0    0  501  0.00000000000E+00  0.00000000000E+00  0.88967831013E+03  0.88967831014E+03  0.50400001928E-02 0. -1.
        1   -1    0    0  501    0  0.00000000000E+00  0.00000000000E+00 -0.21681172428E+04  0.21681172428E+04  0.50400001928E-02 0.  1.
    10030    2    1    2    0    0  0.00000000000E+00  0.00000000000E+00 -0.12784389327E+04  0.30577955530E+04  0.27777162453E+04 0.  0.
        2    1    3    3  502    0  0.69088189303E+01 -0.13600240786E+04 -0.94904742259E+03  0.16584342726E+04  0.25500000920E-02 0. -1.
       -2    1    3    3    0  502 -0.69088189303E+01  0.13600240786E+04 -0.32939151012E+03  0.13993612804E+04  0.25500000920E-02 0.  1.
</event>
<event>
 5   0  0.2651061E-05  0.2886806E+04  0.7818609E-02  0.8276814E-01
        2   -1    0    0  501    0  0.00000000000E+00  0.00000000000E+00  0.14108686739E+04  0.14108686739E+04  0.25500000920E-02 0. -1.
       -2   -1    0    0    0  501  0.00000000000E+00  0.00000000000E+00 -0.14766880447E+04  0.14766880447E+04  0.25500000920E-02 0.  1.
    10030    2    1    2    0    0  0.00000000000E+00  0.00000000000E+00 -0.65819370835E+02  0.28875567186E+04  0.28868064732E+04 0.  0.
        3    1    3    3  502    0 -0.12899110512E+04  0.11166032161E+03 -0.67109928142E+03  0.14583253420E+04  0.10100000352E+00 0.  1.
       -3    1    3    3    0  502  0.12899110512E+04 -0.11166032161E+03  0.60527991059E+03  0.14292313766E+04  0.10100000352E+00 0. -1.
</event>
<event>
 5   0  0.2697964E-05  0.2825944E+04  0.7818609E-02  0.8295259E-01
       -2   -1    0    0    0  501  0.00000000000E+00  0.00000000000E+00  0.10063473537E+04  0.10063473537E+04  0.25500000920E-02 0.  1.
        2   -1    0    0  501    0  0.00000000000E+00  0.00000000000E+00 -0.19838967757E+04  0.19838967757E+04  0.25500000920E-02 0. -1.
    10030    2    1    2    0    0  0.00000000000E+00  0.00000000000E+00 -0.97754942196E+03  0.29902441294E+04  0.28259435736E+04 0.  0.
        1    1    3    3  502    0 -0.14070348998E+04 -0.22369641780E+02 -0.62362701464E+03  0.15392070242E+04  0.50400001928E-02 0. -1.
       -1    1    3    3    0  502  0.14070348998E+04  0.22369641780E+02 -0.35392240732E+03  0.14510371051E+04  0.50400001928E-02 0.  1.
</event>
<event>
 5   0  0.2651061E-05  0.2697109E+04  0.7818609E-02  0.8335944E-01
        2   -1    0    0  501    0  0.00000000000E+00  0.00000000000E+00  0.12286831648E+04  0.12286831648E+04  0.25500000920E-02 0.  1.
       -2   -1    0    0    0  501  0.00000000000E+00  0.00000000000E+00 -0.14801201352E+04  0.14801201352E+04  0.25500000920E-02 0. -1.
    10030    2    1    2    0    0  0.00000000000E+00  0.00000000000E+00 -0.25143697039E+03  0.27088033001E+04  0.26971085941E+04 0.  0.
        3    1    3    3  502    0 -0.11920417615E+03 -0.97196263553E+03  0.80548986774E+03  0.12679648803E+04  0.10100000352E+00 0.  1.
       -3    1    3    3    0  502  0.11920417615E+03  0.97196263553E+03 -0.10569268381E+04  0.14408384198E+04  0.10100000352E+00 0. -1.
</event>
<event>
 5   0  0.1078103E-05  0.2630371E+04  0.7818609E-02  0.8357958E-01
        1   -1    0    0  501    0  0.00000000000E+00  0.00000000000E+00  0.14860403198E+04  0.14860403198E+04  0.50400001928E-02 0.  1.
       -1   -1    0    0    0  501  0.00000000000E+00  0.00000000000E+00 -0.11639741462E+04  0.11639741462E+04  0.50400001928E-02 0. -1.
    10030    2    1    2    0    0  0.00000000000E+00  0.00000000000E+00  0.32206617358E+03  0.26500144660E+04  0.26303707058E+04 0.  0.
        1    1    3    3  502    0 -0.32605719858E+03  0.86911905667E+03  0.10996729049E+04  0.14390836422E+04  0.50400001928E-02 0.  1.
       -1    1    3    3    0  502  0.32605719858E+03 -0.86911905667E+03 -0.77760673135E+03  0.12109308238E+04  0.50400001928E-02 0. -1.
</event>
<event>
 5   0  0.2588048E-05  0.2763797E+04  0.7818609E-02  0.8314597E-01
       -2   -1    0    0    0  501  0.00000000000E+00  0.00000000000E+00  0.13135420414E+04  0.13135420414E+04  0.25500000920E-02 0. -1.
        2   -1    0    0  501    0  0.00000000000E+00  0.00000000000E+00 -0.14538123938E+04  0.14538123938E+04  0.25500000920E-02 0.  1.
    10030    2    1    2    0    0  0.00000000000E+00  0.00000000000E+00 -0.14027035236E+03  0.27673544352E+04  0.27637971703E+04 0.  0.
        2    1    3    3  502    0  0.58098276215E+02  0.69373439629E+03  0.11251352770E+04  0.13230919144E+04  0.25500000920E-02 0. -1.
       -2    1    3    3    0  502 -0.58098276215E+02 -0.69373439629E+03 -0.12654056294E+04  0.14442625208E+04  0.25500000920E-02 0.  1.
</event>
<event>
 5   0  0.2588048E-05  0.1852007E+04  0.7818609E-02  0.8679121E-01
        2   -1    0    0  501    0  0.00000000000E+00  0.00000000000E+00  0.13464544818E+04  0.13464544818E+04  0.25500000920E-02 0. -1.
       -2   -1    0    0    0  501  0.00000000000E+00  0.00000000000E+00 -0.63684490188E+03  0.63684490189E+03  0.25500000920E-02 0.  1.
    10030    2    1    2    0    0  0.00000000000E+00  0.00000000000E+00  0.70960957995E+03  0.19832993837E+04  0.18520072056E+04 0.  0.
        2    1    3    3  502    0  0.43342675328E+03  0.26424452011E+03 -0.47456533042E+03  0.69490731016E+03  0.25500000920E-02 0.  1.
       -2    1    3    3    0  502 -0.43342675328E+03 -0.26424452011E+03  0.11841749104E+04  0.12883920736E+04  0.25500000920E-02 0. -1.
</event>
<event>
 5   0  0.1078103E-05  0.2788934E+04  0.7818609E-02  0.8306712E-01
        1   -1    0    0  501    0  0.00000000000E+00  0.00000000000E+00  0.20961343152E+04  0.20961343152E+04  0.50400001928E-02 0.  1.
       -1   -1    0    0    0  501  0.00000000000E+00  0.00000000000E+00 -0.92767845049E+03  0.92767845050E+03  0.50400001928E-02 0. -1.
    10030    2    1    2    0    0  0.00000000000E+00  0.00000000000E+00  0.11684558647E+04  0.30238127657E+04  0.27889343008E+04 0.  0.
        1    1    3    3  502    0 -0.16157387329E+03  0.51678104879E+03 -0.80905330916E+03  0.97351734756E+03  0.50400001928E-02 0. -1.
       -1    1    3    3    0  502  0.16157387329E+03 -0.51678104879E+03  0.19775091739E+04  0.20502954182E+04  0.50400001928E-02 0.  1.
</event>
<event>
 5   0  0.1067434E-05  0.2979995E+04  0.7818609E-02  0.8249467E-01
        1   -1    0    0  501    0  0.00000000000E+00  0.00000000000E+00  0.17532789591E+04  0.17532789591E+04  0.50400001928E-02 0.  1.
       -1   -1    0    0    0  501  0.00000000000E+00  0.00000000000E+00 -0.12662518285E+04  0.12662518285E+04  0.50400001928E-02 0. -1.
    10030    2    1    2    0    0  0.00000000000E+00  0.00000000000E+00  0.48702713057E+03  0.30195307876E+04  0.29799950925E+04 0.  0.
        4    1    3    3  502    0 -0.98413462770E+03 -0.11118662001E+04  0.11808247362E+03  0.14895343218E+04  0.12699999809E+01 0.  1.
       -4    1    3    3    0  502  0.98413462770E+03  0.11118662001E+04  0.36894465694E+03  0.15299964658E+04  0.12699999809E+01 0. -1.
</event>
<event>
 5   0  0.1017456E-05  0.2730628E+04  0.7818609E-02  0.8325135E-01
        1   -1    0    0  501    0  0.00000000000E+00  0.00000000000E+00  0.17806480344E+04  0.17806480344E+04  0.50400001928E-02 0. -1.
       -1   -1    0    0    0  501  0.00000000000E+00  0.00000000000E+00 -0.10468561058E+04  0.10468561058E+04  0.50400001928E-02 0.  1.
    10030    2    1    2    0    0  0.00000000000E+00  0.00000000000E+00  0.73379192854E+03  0.28275041402E+04  0.27306279623E+04 0.  0.
        5    1    3    3  502    0 -0.99437784621E+03  0.75427371877E+03 -0.20622385771E+03  0.12650164083E+04  0.46999998093E+01 0.  1.
       -5    1    3    3    0  502  0.99437784621E+03 -0.75427371877E+03  0.94001578626E+03  0.15624877319E+04  0.46999998093E+01 0. -1.
</event>
<event>
 5   0  0.2624815E-05  0.1870098E+04  0.7818609E-02  0.8669885E-01
        2   -1    0    0  501    0  0.00000000000E+00  0.00000000000E+00  0.18321441678E+04  0.18321441678E+04  0.25500000920E-02 0. -1.
       -2   -1    0    0    0  501  0.00000000000E+00  0.00000000000E+00 -0.47720965697E+03  0.47720965697E+03  0.25500000920E-02 0.  1.
    10030    2    1    2    0    0  0.00000000000E+00  0.00000000000E+00  0.13549345108E+04  0.23093538248E+04  0.18700982753E+04 0.  0.
        4    1    3    3  502    0  0.46249718585E+03  0.48778837062E+03  0.14801170727E+04  0.16256042887E+04  0.12699999809E+01 0. -1.
       -4    1    3    3    0  502 -0.46249718585E+03 -0.48778837062E+03 -0.12518256190E+03  0.68374953611E+03  0.12699999809E+01 0.  1.
</event>
<event>
 5   0  0.1017456E-05  0.2734552E+04  0.7818609E-02  0.8323880E-01
        1   -1    0    0  501    0  0.00000000000E+00  0.00000000000E+00  0.19845280929E+04  0.19845280929E+04  0.50400001928E-02 0.  1.
       -1   -1    0    0    0  501  0.00000000000E+00  0.00000000000E+00 -0.94200893070E+03  0.94200893071E+03  0.50400001928E-02 0. -1.
    10030    2    1    2    0    0  0.00000000000E+00  0.00000000000E+00  0.10425191622E+04  0.29265370236E+04  0.27345516537E+04 0.  0.
        5    1    3    3  502    0  0.94030105906E+03  0.40424805753E+03 -0.44894012506E+03  0.11176546424E+04  0.46999998093E+01 0.  1.
       -5    1    3    3    0  502 -0.94030105906E+03 -0.40424805753E+03  0.14914592872E+04  0.18088823812E+04  0.46999998093E+01 0. -1.
</event>
<event>
 5   0  0.2697964E-05  0.2732062E+04  0.7818609E-02  0.8324676E-01
        2   -1    0    0  501    0  0.00000000000E+00  0.00000000000E+00  0.16950792512E+04  0.16950792512E+04  0.25500000920E-02 0. -1.
       -2   -1    0    0    0  501  0.00000000000E+00  0.00000000000E+00 -0.11008577563E+04  0.11008577563E+04  0.25500000920E-02 0.  1.
    10030    2    1    2    0    0  0.00000000000E+00  0.00000000000E+00  0.59422149487E+03  0.27959370075E+04  0.27320623282E+04 0.  0.
        1    1    3    3  502    0 -0.41932336643E+03 -0.12995628376E+04  0.25957228254E+03  0.13899904404E+04  0.50400001928E-02 0. -1.
       -1    1    3    3    0  502  0.41932336643E+03  0.12995628376E+04  0.33464921233E+03  0.14059465672E+04  0.50400001928E-02 0.  1.
</event>
<event>
 5   0  0.1017456E-05  0.2322497E+04  0.7818609E-02  0.8469103E-01
        1   -1    0    0  501    0  0.00000000000E+00  0.00000000000E+00  0.13346118569E+04  0.13346118569E+04  0.50400001928E-02 0. -1.
       -1   -1    0    0    0  501  0.00000000000E+00  0.00000000000E+00 -0.10104045955E+04  0.10104045955E+04  0.50400001928E-02 0.  1.
    10030    2    1    2    0    0  0.00000000000E+00  0.00000000000E+00  0.32420726141E+03  0.23450164525E+04  0.23224968921E+04 0.  0.
        5    1    3    3  502    0  0.39504896994E+03 -0.42763166795E+03  0.11766063950E+04  0.13127670131E+04  0.46999998093E+01 0. -1.
       -5    1    3    3    0  502 -0.39504896994E+03  0.42763166795E+03 -0.85239913357E+03  0.10322494393E+04  0.46999998093E+01 0.  1.
</event>
<event>
 5   0  0.1105862E-05  0.2612094E+04  0.7818609E-02  0.8364105E-01
       -1   -1    0    0    0  501  0.00000000000E+00  0.00000000000E+00  0.13653875920E+04  0.13653875920E+04  0.50400001928E-02 0.  1.
        1   -1    0    0  501    0  0.00000000000E+00  0.00000000000E+00 -0.12492857755E+04  0.12492857755E+04  0.50400001928E-02 0. -1.
    10030    2    1    2    0    0  0.00000000000E+00  0.00000000000E+00  0.11610181646E+03  0.26146733675E+04  0.26120944062E+04 0.  0.
        3    1    3    3  502    0 -0.50567760677E+03  0.51523011884E+03  0.11475129988E+04  0.13557131002E+04  0.10100000352E+00 0.  1.
       -3    1    3    3    0  502  0.50567760677E+03 -0.51523011884E+03 -0.10314111824E+04  0.12589602673E+04  0.10100000352E+00 0. -1.
</event>
<event>
 5   0  0.1105862E-05  0.2855848E+04  0.7818609E-02  0.8286136E-01
       -1   -1    0    0    0  501  0.00000000000E+00  0.00000000000E+00  0.23253535984E+04  0.23253535984E+04  0.50400001928E-02 0.  1.
        1   -1    0    0  501    0  0.00000000000E+00  0.00000000000E+00 -0.87684195781E+03  0.87684195782E+03  0.50400001928E-02 0. -1.
    10030    2    1    2    0    0  0.00000000000E+00  0.00000000000E+00  0.14485116406E+04  0.32021955562E+04  0.28558484566E+04 0.  0.
        3    1    3    3  502    0 -0.81691664695E+03 -0.11622533457E+04  0.56261323934E+03  0.15279788333E+04  0.10100000352E+00 0. -1.
       -3    1    3    3    0  502  0.81691664695E+03  0.11622533457E+04  0.88589840123E+03  0.16742167229E+04  0.10100000352E+00 0.  1.
</event>
<event>
 5   0  0.1017456E-05  0.2662347E+04  0.7818609E-02  0.8347326E-01
        1   -1    0    0  501    0  0.00000000000E+00  0.00000000000E+00  0.26124604613E+04  0.26124604613E+04  0.50400001928E-02 0. -1.
       -1   -1    0    0    0  501  0.00000000000E+00  0.00000000000E+00 -0.67829649226E+03  0.67829649228E+03  0.50400001928E-02 0.  1.
    10030    2    1    2    0    0  0.00000000000E+00  0.00000000000E+00  0.19341639690E+04  0.32907569536E+04  0.26623469099E+04 0.  0.
        5    1    3    3  502    0  0.48519222901E+03  0.12116911937E+04  0.64383164648E+03  0.14553859718E+04  0.46999998093E+01 0.  1.
       -5    1    3    3    0  502 -0.48519222901E+03 -0.12116911937E+04  0.12903323226E+04  0.18353709817E+04  0.46999998093E+01 0. -1.
</event>
<event>
 5   0  0.2624815E-05  0.2824288E+04  0.7818609E-02  0.8295767E-01
        2   -1    0    0  501    0  0.00000000000E+00  0.00000000000E+00  0.23654188690E+04  0.23654188690E+04  0.25500000920E-02 0.  1.
       -2   -1    0    0    0  501  0.00000000000E+00  0.00000000000E+00 -0.84304338326E+03  0.84304338327E+03  0.25500000920E-02 0. -1.
    10030    2    1    2    0    0  0.00000000000E+00  0.00000000000E+00  0.15223754857E+04  0.32084622522E+04  0.28242880350E+04 0.  0.
        4    1    3    3  502    0 -0.10403949468E+04 -0.95012742087E+03  0.86887281363E+03  0.16553263546E+04  0.12699999809E+01 0.  1.
       -4    1    3    3    0  502  0.10403949468E+04  0.95012742087E+03  0.65350267209E+03  0.15531358976E+04  0.12699999809E+01 0. -1.
</event>
<event>
 5   0  0.2651061E-05  0.2615088E+04  0.7818609E-02  0.8363094E-01
        2   -1    0    0  501    0  0.00000000000E+00  0.00000000000E+00  0.97352447790E+03  0.97352447790E+03  0.25500000920E-02 0.  1.
       -2   -1    0    0    0  501  0.00000000000E+00  0.00000000000E+00 -0.17561663662E+04  0.17561663662E+04  0.25500000920E-02 0. -1.
    10030    2    1    2    0    0  0.00000000000E+00  0.00000000000E+00 -0.78264188831E+03  0.27296908441E+04  0.26150877192E+04 0.  0.
        3    1    3    3  502    0  0.58725643752E+03  0.58452491645E+03  0.66450642501E+03  0.10621244279E+04  0.10100000352E+00 0. -1.
       -3    1    3    3    0  502 -0.58725643752E+03 -0.58452491645E+03 -0.14471483133E+04  0.16675664162E+04  0.10100000352E+00 0.  1.
</event>
<event>
 5   0  0.2588048E-05  0.2183407E+04  0.7818609E-02  0.8525366E-01
       -2   -1    0    0    0  501  0.00000000000E+00  0.00000000000E+00  0.88880825066E+03  0.88880825066E+03  0.25500000920E-02 0.  1.
        2   -1    0    0  501    0  0.00000000000E+00  0.00000000000E+00 -0.13409158297E+04  0.13409158297E+04  0.25500000920E-02 0. -1.
    10030    2    1    2    0    0  0.00000000000E+00  0.00000000000E+00 -0.45210757905E+03  0.22297240804E+04  0.21834074772E+04 0.  0.
        2    1    3    3  502    0 -0.10366103761E+04 -0.34228354682E+03 -0.23616093709E+03  0.11169114050E+04  0.25500000920E-02 0. -1.
       -2    1    3    3    0  502  0.10366103761E+04  0.34228354682E+03 -0.21594664197E+03  0.11128126754E+04  0.25500000920E-02 0.  1.
</event>
<event>
 5   0  0.2697964E-05  0.2673660E+04  0.7818609E-02  0.8343602E-01
        2   -1    0    0  501    0  0.00000000000E+00  0.00000000000E+00  0.22161363905E+04  0.22161363905E+04  0.25500000920E-02 0.  1.
       -2   -1    0    0    0  501  0.00000000000E+00  0.00000000000E+00 -0.80641022303E+03  0.80641022303E+03  0.25500000920E-02 0. -1.
    10030    2    1    2    0    0  0.00000000000E+00  0.00000000000E+00  0.14097261674E+04  0.30225466135E+04  0.26736604429E+04 0.  0.
        1    1    3    3  502    0  0.43247876030E+03  0.88926107650E+03  0.17218593385E+04  0.19856038683E+04  0.50400001928E-02 0.  1.
       -1    1    3    3    0  502 -0.43247876030E+03 -0.88926107650E+03 -0.31213317106E+03  0.10369427452E+04  0.50400001928E-02 0. -1.
</event>
<event>
 5   0  0.2518686E-05  0.2736650E+04  0.7818609E-02  0.8323210E-01
       -2   -1    0    0    0  501  0.00000000000E+00  0.00000000000E+00  0.14689895632E+04  0.14689895632E+04  0.25500000920E-02 0. -1.
        2   -1    0    0  501    0  0.00000000000E+00  0.00000000000E+00 -0.12745587174E+04  0.12745587174E+04  0.25500000920E-02 0.  1.
    10030    2    1    2    0    0  0.00000000000E+00  0.00000000000E+00  0.19443084580E+03  0.27435482806E+04  0.27366501081E+04 0.  0.
        5    1    3    3  502    0  0.48039255032E+03  0.11648773078E+04 -0.43758516003E+03  0.13338736847E+04  0.46999998093E+01 0.  1.
       -5    1    3    3    0  502 -0.48039255032E+03 -0.11648773078E+04  0.63201600584E+03  0.14096745959E+04  0.46999998093E+01 0. -1.
</event>
<event>
 5   0  0.2651061E-05  0.2785822E+04  0.7818609E-02  0.8307684E-01
       -2   -1    0    0    0  501  0.00000000000E+00  0.00000000000E+00  0.11833557707E+04  0.11833557707E+04  0.25500000920E-02 0.  1.
        2   -1    0    0  501    0  0.00000000000E+00  0.00000000000E+00 -0.16395755036E+04  0.16395755036E+04  0.25500000920E-02 0. -1.
    10030    2    1    2    0    0  0.00000000000E+00  0.00000000000E+00 -0.45621973291E+03  0.28229312742E+04  0.27858220572E+04 0.  0.
        3    1    3    3  502    0  0.13159141305E+04  0.24083848271E+03  0.16508985451E+03  0.13479198210E+04  0.10100000352E+00 0. -1.
       -3    1    3    3    0  502 -0.13159141305E+04 -0.24083848271E+03 -0.62130958742E+03  0.14750114532E+04  0.10100000352E+00 0.  1.
</event>
<event>
 5   0  0.1078103E-05  0.2828747E+04  0.7818609E-02  0.8294399E-01
        1   -1    0    0  501    0  0.00000000000E+00  0.00000000000E+00  0.15266035383E+04  0.15266035383E+04  0.50400001928E-02 0. -1.
       -1   -1    0    0    0  501  0.00000000000E+00  0.00000000000E+00 -0.13103938698E+04  0.13103938699E+04  0.50400001928E-02 0.  1.
    10030    2    1    2    0    0  0.00000000000E+00  0.00000000000E+00  0.21620966845E+03  0.28369974081E+04  0.28287466612E+04 0.  0.
        1    1    3    3  502    0  0.12080512320E+04 -0.47225846063E+03 -0.45748693967E+03  0.13753945371E+04  0.50400001928E-02 0.  1.
       -1    1    3    3    0  502 -0.12080512320E+04  0.47225846063E+03  0.67369660812E+03  0.14616028710E+04  0.50400001928E-02 0. -1.
</event>
<event>
 5   0  0.1105862E-05  0.2254550E+04  0.7818609E-02  0.8496060E-01
       -1   -1    0    0    0  501  0.00000000000E+00  0.00000000000E+00  0.49438797276E+03  0.49438797278E+03  0.50400001928E-02 0. -1.
        1   -1    0    0  501    0  0.00000000000E+00  0.00000000000E+00 -0.25703479364E+04  0.25703479364E+04  0.50400001928E-02 0.  1.
    10030    2    1    2    0    0  0.00000000000E+00  0.00000000000E+00 -0.20759599636E+04  0.30647359092E+04  0.22545501597E+04 0.  0.
        3    1    3    3  502    0 -0.20417880762E+03  0.91404403692E+03 -0.18517121444E+03  0.95470093525E+03  0.10100000352E+00 0. -1.
       -3    1    3    3    0  502  0.20417880762E+03 -0.91404403692E+03 -0.18907887492E+04  0.21100349739E+04  0.10100000352E+00 0.  1.
</event>
<event>
 5   0  0.1017456E-05  0.2841540E+04  0.7818609E-02  0.8290487E-01
       -1   -1    0    0    0  501  0.00000000000E+00  0.00000000000E+00  0.85861745371E+03  0.85861745372E+03  0.50400001928E-02 0.  1.
        1   -1    0    0  501    0  0.00000000000E+00  0.00000000000E+00 -0.23509747226E+04  0.23509747226E+04  0.50400001928E-02 0. -1.
    10030    2    1    2    0    0  0.00000000000E+00  0.00000000000E+00 -0.14923572689E+04  0.32095921763E+04  0.28415403781E+04 0.  0.
        5    1    3    3  502    0 -0.85947596687E+03  0.63645095917E+03  0.31027315511E+03  0.11135799396E+04  0.46999998093E+01 0.  1.
       -5    1    3    3    0  502  0.85947596687E+03 -0.63645095917E+03 -0.18026304240E+04  0.20960122367E+04  0.46999998093E+01 0. -1.
</event>
<event>
 5   0  0.1105862E-05  0.2416376E+04  0.7818609E-02  0.8433398E-01
        1   -1    0    0  501    0  0.00000000000E+00  0.00000000000E+00  0.12794758089E+04  0.12794758089E+04  0.50400001928E-02 0.  1.
       -1   -1    0    0    0  501  0.00000000000E+00  0.00000000000E+00 -0.11408720213E+04  0.11408720213E+04  0.50400001928E-02 0. -1.
    10030    2    1    2    0    0  0.00000000000E+00  0.00000000000E+00  0.13860378754E+03  0.24203478302E+04  0.24163759246E+04 0.  0.
        3    1    3    3  502    0  0.45240303476E+03  0.11164189345E+04 -0.23901576107E+02  0.12048365195E+04  0.10100000352E+00 0.  1.
       -3    1    3    3    0  502 -0.45240303476E+03 -0.11164189345E+04  0.16250536365E+03  0.12155113107E+04  0.10100000352E+00 0. -1.
</event>
<event>
 5   0  0.2588048E-05  0.2701925E+04  0.7818609E-02  0.8334381E-01
        2   -1    0    0  501    0  0.00000000000E+00  0.00000000000E+00  0.15800331924E+04  0.15800331924E+04  0.25500000920E-02 0.  1.
       -2   -1    0    0    0  501  0.00000000000E+00  0.00000000000E+00 -0.11551017664E+04  0.11551017664E+04  0.25500000920E-02 0. -1.
    10030    2    1    2    0    0  0.00000000000E+00  0.00000000000E+00  0.42493142596E+03  0.27351349588E+04  0.27019245967E+04 0.  0.
        2    1    3    3  502    0 -0.77716087516E+03 -0.26414855495E+03 -0.87373078223E+03  0.11988156509E+04  0.25500000920E-02 0. -1.
       -2    1    3    3    0  502  0.77716087516E+03  0.26414855495E+03  0.12986622082E+04  0.15363193079E+04  0.25500000920E-02 0.  1.
</event>
<event>
 5   0  0.2651061E-05  0.2895050E+04  0.7818609E-02  0.8274352E-01
       -2   -1    0    0    0  501  0.00000000000E+00  0.00000000000E+00  0.10449359337E+04  0.10449359337E+04  0.25500000920E-02 0.  1.
        2   -1    0    0  501    0  0.00000000000E+00  0.00000000000E+00 -0.20052219000E+04  0.20052219000E+04  0.25500000920E-02 0. -1.
    10030    2    1    2    0    0  0.00000000000E+00  0.00000000000E+00 -0.96028596627E+03  0.30501578337E+04  0.28950498568E+04 0.  0.
        3    1    3    3  502    0 -0.14448346387E+04  0.24228392433E+02 -0.39077965612E+03  0.14969445207E+04  0.10100000352E+00 0. -1.
       -3    1    3    3    0  502  0.14448346387E+04 -0.24228392433E+02 -0.56950631014E+03  0.15532133130E+04  0.10100000352E+00 0.  1.
</event>
<event>
 5   0  0.1105862E-05  0.2768520E+04  0.7818609E-02  0.8313109E-01
       -1   -1    0    0    0  501  0.00000000000E+00  0.00000000000E+00  0.12577686969E+04  0.12577686969E+04  0.50400001928E-02 0.  1.
        1   -1    0    0  501    0  0.00000000000E+00  0.00000000000E+00 -0.15234723771E+04  0.15234723771E+04  0.50400001928E-02 0. -1.
    10030    2    1    2    0    0  0.00000000000E+00  0.00000000000E+00 -0.26570368019E+03  0.27812410740E+04  0.27685200859E+04 0.  0.
        3    1    3    3  502    0  0.52763537237E+03  0.11496664760E+04 -0.69761267118E+03  0.14445745192E+04  0.10100000352E+00 0. -1.
       -3    1    3    3    0  502 -0.52763537237E+03 -0.11496664760E+04  0.43190899098E+03  0.13366665549E+04  0.10100000352E+00 0.  1.
</event>
<event>
 5   0  0.1075146E-05  0.2856286E+04  0.7818609E-02  0.8286004E-01
       -1   -1    0    0    0  501  0.00000000000E+00  0.00000000000E+00  0.12503298706E+04  0.12503298706E+04  0.50400001928E-02 0. -1.
        1   -1    0    0  501    0  0.00000000000E+00  0.00000000000E+00 -0.16312435849E+04  0.16312435849E+04  0.50400001928E-02 0.  1.
    10030    2    1    2    0    0  0.00000000000E+00  0.00000000000E+00 -0.38091371433E+03  0.28815734555E+04  0.28562861064E+04 0.  0.
        2    1    3    3  502    0  0.33735990140E+03 -0.21166724080E+03  0.11931726938E+04  0.12578854484E+04  0.25500000920E-02 0. -1.
       -2    1    3    3    0  502 -0.33735990140E+03  0.21166724080E+03 -0.15740864082E+04  0.16236880071E+04  0.25500000920E-02 0.  1.
</event>
<event>
 5   0  0.2588048E-05  0.2797844E+04  0.7818609E-02  0.8303938E-01
        2   -1    0    0  501    0  0.00000000000E+00  0.00000000000E+00  0.17229050423E+04  0.17229050423E+04  0.25500000920E-02 0. -1.
       -2   -1    0    0    0  501  0.00000000000E+00  0.00000000000E+00 -0.11358620431E+04  0.11358620431E+04  0.25500000920E-02 0.  1.
    10030    2    1    2    0    0  0.00000000000E+00  0.00000000000E+00  0.58704299924E+03  0.28587670854E+04  0.27978437707E+04 0.  0.
        2    1    3    3  502    0  0.51762287227E+03  0.11539285438E+04 -0.31740937300E+03  0.13039299184E+04  0.25500000920E-02 0.  1.
       -2    1    3    3    0  502 -0.51762287227E+03 -0.11539285438E+04  0.90445237223E+03  0.15548371670E+04  0.25500000920E-02 0. -1.
</event>
<event>
 5   0  0.1067434E-05  0.1853226E+04  0.7818609E-02  0.8678495E-01
       -1   -1    0    0    0  501  0.00000000000E+00  0.00000000000E+00  0.12721208113E+04  0.12721208113E+04  0.50400001928E-02 0.  1.
        1   -1    0    0  501    0  0.00000000000E+00  0.00000000000E+00 -0.67494538677E+03  0.67494538679E+03  0.50400001928E-02 0. -1.
    10030    2    1    2    0    0  0.00000000000E+00  0.00000000000E+00  0.59717542453E+03  0.19470661981E+04  0.18532264546E+04 0.  0.
        4    1    3    3  502    0  0.67692030961E+03 -0.52606279137E+03  0.66802823883E+03  0.10868424480E+04  0.12699999809E+01 0.  1.
       -4    1    3    3    0  502 -0.67692030961E+03  0.52606279137E+03 -0.70852814300E+02  0.86022375009E+03  0.12699999809E+01 0. -1.
</event>
<event>
 5   0  0.2697964E-05  0.2132139E+04  0.7818609E-02  0.8547216E-01
        2   -1    0    0  501    0  0.00000000000E+00  0.00000000000E+00  0.91788583990E+03  0.91788583991E+03  0.25500000920E-02 0. -1.
       -2   -1    0    0    0  501  0.00000000000E+00  0.00000000000E+00 -0.12381761350E+04  0.12381761350E+04  0.25500000920E-02 0.  1.
    10030    2    1    2    0    0  0.00000000000E+00  0.00000000000E+00 -0.32029029510E+03  0.21560619749E+04  0.21321391527E+04 0.  0.
        1    1    3    3  502    0 -0.77711246586E+02  0.62278928226E+03  0.71126541655E+03  0.94858000229E+03  0.50400001928E-02 0. -1.
       -1    1    3    3    0  502  0.77711246586E+02 -0.62278928226E+03 -0.10315557117E+04  0.12074819726E+04  0.50400001928E-02 0.  1.
</event>
<event>
 5   0  0.1067434E-05  0.2601845E+04  0.7818609E-02  0.8367575E-01
        1   -1    0    0  501    0  0.00000000000E+00  0.00000000000E+00  0.78039543080E+03  0.78039543082E+03  0.50400001928E-02 0. -1.
       -1   -1    0    0    0  501  0.00000000000E+00  0.00000000000E+00 -0.21686440701E+04  0.21686440701E+04  0.50400001928E-02 0.  1.
    10030    2    1    2    0    0  0.00000000000E+00  0.00000000000E+00 -0.13882486393E+04  0.29490395009E+04  0.26018454400E+04 0.  0.
        4    1    3    3  502    0  0.10358010029E+04 -0.20550502618E+03 -0.15553028773E+04  0.18799161382E+04  0.12699999809E+01 0.  1.
       -4    1    3    3    0  502 -0.10358010029E+04  0.20550502618E+03  0.16705423805E+03  0.10691233627E+04  0.12699999809E+01 0. -1.
</event>
<event>
 5   0  0.1105862E-05  0.2890088E+04  0.7818609E-02  0.8275833E-01
       -1   -1    0    0    0  501  0.00000000000E+00  0.00000000000E+00  0.14203565105E+04  0.14203565106E+04  0.50400001928E-02 0. -1.
        1   -1    0    0  501    0  0.00000000000E+00  0.00000000000E+00 -0.14701604543E+04  0.14701604543E+04  0.50400001928E-02 0.  1.
    10030    2    1    2    0    0  0.00000000000E+00  0.00000000000E+00 -0.49803943736E+02  0.28905169649E+04  0.28900878691E+04 0.  0.
        3    1    3    3  502    0  0.38618148597E+03 -0.75866932668E+03  0.11429343045E+04  0.14251365275E+04  0.10100000352E+00 0.  1.
       -3    1    3    3    0  502 -0.38618148597E+03  0.75866932668E+03 -0.11927382482E+04  0.14653804374E+04  0.10100000352E+00 0. -1.
</event>
<event>
 5   0  0.1075146E-05  0.2746743E+04  0.7818609E-02  0.8319996E-01
        1   -1    0    0  501    0  0.00000000000E+00  0.00000000000E+00  0.18462860156E+04  0.18462860156E+04  0.50400001928E-02 0. -1.
       -1   -1    0    0    0  501  0.00000000000E+00  0.00000000000E+00 -0.10215909250E+04  0.10215909250E+04  0.50400001928E-02 0.  1.
    10030    2    1    2    0    0  0.00000000000E+00  0.00000000000E+00  0.82469509067E+03  0.28678769406E+04  0.27467428263E+04 0.  0.
        2    1    3    3  502    0 -0.12388737794E+03 -0.13564449227E+04  0.22893573395E+03  0.13811960328E+04  0.25500000920E-02 0. -1.
       -2    1    3    3    0  502  0.12388737794E+03  0.13564449227E+04  0.59575935672E+03  0.14866809078E+04  0.25500000920E-02 0.  1.
</event>
<event>
 5   0  0.2697964E-05  0.1782560E+04  0.7818609E-02  0.8715629E-01
       -2   -1    0    0    0  501  0.00000000000E+00  0.00000000000E+00  0.41878034991E+03  0.41878034992E+03  0.25500000920E-02 0. -1.
        2   -1    0    0  501    0  0.00000000000E+00  0.00000000000E+00 -0.18968901099E+04  0.18968901099E+04  0.25500000920E-02 0.  1.
    10030    2    1    2    0    0  0.00000000000E+00  0.00000000000E+00 -0.14781097600E+04  0.23156704598E+04  0.17825602979E+04 0.  0.
        1    1    3    3  502    0  0.41041845557E+03  0.78907028864E+03 -0.66437163570E+03  0.11101643569E+04  0.50400001928E-02 0. -1.
       -1    1    3    3    0  502 -0.41041845557E+03 -0.78907028864E+03 -0.81373812426E+03  0.12055061028E+04  0.50400001928E-02 0.  1.
</event>
<event>
 5   0  0.2518686E-05  0.2782225E+04  0.7818609E-02  0.8308808E-01
        2   -1    0    0  501    0  0.00000000000E+00  0.00000000000E+00  0.11971985104E+04  0.11971985104E+04  0.25500000920E-02 0.  1.
       -2   -1    0    0    0  501  0.00000000000E+00  0.00000000000E+00 -0.16164356939E+04  0.16164356939E+04  0.25500000920E-02 0. -1.
    10030    2    1    2    0    0  0.00000000000E+00  0.00000000000E+00 -0.41923718346E+03  0.28136342043E+04  0.27822252999E+04 0.  0.
        5    1    3    3  502    0 -0.66152313538E+03 -0.32369127159E+03 -0.14031040532E+04  0.15846488482E+04  0.46999998093E+01 0. -1.
       -5    1    3    3    0  502  0.66152313538E+03  0.32369127159E+03  0.98386686977E+03  0.12289853560E+04  0.46999998093E+01 0.  1.
</event>
<event>
 5   0  0.1017456E-05  0.1553480E+04  0.7818609E-02  0.8849648E-01
        1   -1    0    0  501    0  0.00000000000E+00  0.00000000000E+00  0.11789147307E+04  0.11789147308E+04  0.50400001928E-02 0. -1.
       -1   -1    0    0    0  501  0.00000000000E+00  0.00000000000E+00 -0.51176323004E+03  0.51176323007E+03  0.50400001928E-02 0.  1.
    10030    2    1    2    0    0  0.00000000000E+00  0.00000000000E+00  0.66715150070E+03  0.16906779608E+04  0.15534802356E+04 0.  0.
        5    1    3    3  502    0 -0.30940129516E+02 -0.21443687755E+03  0.11453478944E+04  0.11656690590E+04  0.46999998093E+01 0. -1.
       -5    1    3    3    0  502  0.30940129516E+02  0.21443687755E+03 -0.47819639365E+03  0.52500890180E+03  0.46999998093E+01 0.  1.
</event>
<event>
 5   0  0.2624815E-05  0.2861533E+04  0.7818609E-02  0.8284415E-01
       -2   -1    0    0    0  501  0.00000000000E+00  0.00000000000E+00  0.86026579952E+03  0.86026579952E+03  0.25500000920E-02 0.  1.
        2   -1    0    0  501    0  0.00000000000E+00  0.00000000000E+00 -0.23796047099E+04  0.23796047099E+04  0.25500000920E-02 0. -1.
    10030    2    1    2    0    0  0.00000000000E+00  0.00000000000E+00 -0.15193389104E+04  0.32398705094E+04  0.28615328398E+04 0.  0.
        4    1    3    3  502    0  0.19914940996E+03 -0.13273709730E+04 -0.13206780050E+04  0.18830204972E+04  0.12699999809E+01 0. -1.
       -4    1    3    3    0  502 -0.19914940996E+03  0.13273709730E+04 -0.19866090543E+03  0.13568500122E+04  0.12699999809E+01 0.  1.
</event>
<event>
 5   0  0.1078103E-05  0.2701298E+04  0.7818609E-02  0.8334584E-01
        1   -1    0    0  501    0  0.00000000000E+00  0.00000000000E+00  0.14534725389E+04  0.14534725389E+04  0.50400001928E-02 0.  1.
       -1   -1    0    0    0  501  0.00000000000E+00  0.00000000000E+00 -0.12550997537E+04  0.12550997537E+04  0.50400001928E-02 0. -1.
    10030    2    1    2    0    0  0.00000000000E+00  0.00000000000E+00  0.19837278519E+03  0.27085722925E+04  0.27012982253E+04 0.  0.
        1    1    3    3  502    0 -0.11629531066E+04  0.50372709802E+03  0.56740432523E+03  0.13885779005E+04  0.50400001928E-02 0.  1.
       -1    1    3    3    0  502  0.11629531066E+04 -0.50372709802E+03 -0.36903154004E+03  0.13199943920E+04  0.50400001928E-02 0. -1.
</event>
<event>
 5   0  0.1017456E-05  0.2777604E+04  0.7818609E-02  0.8310255E-01
        1   -1    0    0  501    0  0.00000000000E+00  0.00000000000E+00  0.11090495061E+04  0.11090495061E+04  0.50400001928E-02 0. -1.
       -1   -1    0    0    0  501  0.00000000000E+00  0.00000000000E+00 -0.17391211097E+04  0.17391211097E+04  0.50400001928E-02 0.  1.
    10030    2    1    2    0    0  0.00000000000E+00  0.00000000000E+00 -0.63007160356E+03  0.28481706158E+04  0.27776042971E+04 0.  0.
        5    1    3    3  502    0  0.19482406401E+03  0.15970784368E+01 -0.17250299651E+04  0.17360038701E+04  0.46999998093E+01 0.  1.
       -5    1    3    3    0  502 -0.19482406401E+03 -0.15970784368E+01  0.10949583616E+04  0.11121667457E+04  0.46999998093E+01 0. -1.
</event>
<event>
 5   0  0.1075146E-05  0.1975270E+04  0.7818609E-02  0.8618271E-01
       -1   -1    0    0    0  501  0.00000000000E+00  0.00000000000E+00  0.86122213453E+03  0.86122213455E+03  0.50400001928E-02 0. -1.
        1   -1    0    0  501    0  0.00000000000E+00  0.00000000000E+00 -0.11326027174E+04  0.11326027174E+04  0.50400001928E-02 0.  1.
    10030    2    1    2    0    0  0.00000000000E+00  0.00000000000E+00 -0.27138058286E+03  0.19938248520E+04  0.19752696321E+04 0.  0.
        2    1    3    3  502    0 -0.30816811223E+03  0.41925631438E+03  0.71164697938E+03  0.88158089011E+03  0.25500000920E-02 0. -1.
       -2    1    3    3    0  502  0.30816811223E+03 -0.41925631438E+03 -0.98302756223E+03  0.11122439618E+04  0.25500000920E-02 0.  1.
</event>
<event>
 5   0  0.1075146E-05  0.2670266E+04  0.7818609E-02  0.8344718E-01
        1   -1    0    0  501    0  0.00000000000E+00  0.00000000000E+00  0.14990260309E+04  0.14990260309E+04  0.50400001928E-02 0. -1.
       -1   -1    0    0    0  501  0.00000000000E+00  0.00000000000E+00 -0.11891586706E+04  0.11891586707E+04  0.50400001928E-02 0.  1.
    10030    2    1    2    0    0  0.00000000000E+00  0.00000000000E+00  0.30986736029E+03  0.26881847016E+04  0.26702657562E+04 0.  0.
        2    1    3    3  502    0  0.46947180040E+02 -0.58947086539E+03  0.13600044143E+04  0.14830009932E+04  0.25500000920E-02 0. -1.
       -2    1    3    3    0  502 -0.46947180040E+02  0.58947086539E+03 -0.10501370540E+04  0.12051837084E+04  0.25500000920E-02 0.  1.
</event>
<event>
 5   0  0.1017456E-05  0.2406646E+04  0.7818609E-02  0.8437019E-01
       -1   -1    0    0    0  501  0.00000000000E+00  0.00000000000E+00  0.12361615860E+04  0.12361615860E+04  0.50400001928E-02 0. -1.
        1   -1    0    0  501    0  0.00000000000E+00  0.00000000000E+00 -0.11713571290E+04  0.11713571290E+04  0.50400001928E-02 0.  1.
    10030    2    1    2    0    0  0.00000000000E+00  0.00000000000E+00  0.64804457043E+02  0.24075187150E+04  0.24066463690E+04 0.  0.
        5    1    3    3  502    0  0.64687096502E+03  0.74248102003E+02 -0.97989824963E+03  0.11765107291E+04  0.46999998093E+01 0.  1.
       -5    1    3    3    0  502 -0.64687096502E+03 -0.74248102003E+02  0.10447027067E+04  0.12310079859E+04  0.46999998093E+01 0. -1.
</event>
<event>
 5   0  0.1017456E-05  0.2010576E+04  0.7818609E-02  0.8601692E-01
       -1   -1    0    0    0  501  0.00000000000E+00  0.00000000000E+00  0.70880788733E+03  0.70880788735E+03  0.50400001928E-02 0.  1.
        1   -1    0    0  501    0  0.00000000000E+00  0.00000000000E+00 -0.14257799573E+04  0.14257799573E+04  0.50400001928E-02 0. -1.
    10030    2    1    2    0    0  0.00000000000E+00  0.00000000000E+00 -0.71697206998E+03  0.21345878447E+04  0.20105761158E+04 0.  0.
        5    1    3    3  502    0 -0.59882112136E+02  0.77577808811E+03 -0.10342720424E+04  0.12942790491E+04  0.46999998093E+01 0. -1.
       -5    1    3    3    0  502  0.59882112136E+02 -0.77577808811E+03  0.31729997243E+03  0.84030879553E+03  0.46999998093E+01 0.  1.
</event>
<event>
 5   0  0.1075146E-05  0.2805032E+04  0.7818609E-02  0.8301708E-01
        1   -1    0    0  501    0  0.00000000000E+00  0.00000000000E+00  0.11505628493E+04  0.11505628493E+04  0.50400001928E-02 0. -1.
       -1   -1    0    0    0  501  0.00000000000E+00  0.00000000000E+00 -0.17096427830E+04  0.17096427830E+04  0.50400001928E-02 0.  1.
    10030    2    1    2    0    0  0.00000000000E+00  0.00000000000E+00 -0.55907993368E+03  0.28602056323E+04  0.28050322434E+04 0.  0.
        2    1    3    3  502    0  0.88704305648E+03 -0.10855609417E+04 -0.32236037162E+03  0.14384728539E+04  0.25500000920E-02 0. -1.
       -2    1    3    3    0  502 -0.88704305648E+03  0.10855609417E+04 -0.23671956205E+03  0.14217327784E+04  0.25500000920E-02 0.  1.
</event>
<event>
 5   0  0.1075146E-05  0.2918507E+04  0.7818609E-02  0.8267392E-01
        1   -1    0    0  501    0  0.00000000000E+00  0.00000000000E+00  0.11646842291E+04  0.11646842291E+04  0.50400001928E-02 0. -1.
       -1   -1    0    0    0  501  0.00000000000E+00  0.00000000000E+00 -0.18283245983E+04  0.18283245983E+04  0.50400001928E-02 0.  1.
    10030    2    1    2    0    0  0.00000000000E+00  0.00000000000E+00 -0.66364036921E+03  0.29930088273E+04  0.29185070329E+04 0.  0.
        2    1    3    3  502    0  0.34085059513E+02  0.13306704135E+04  0.28142055676E+03  0.13605304372E+04  0.25500000920E-02 0. -1.
       -2    1    3    3    0  502 -0.34085059513E+02 -0.13306704135E+04 -0.94506092596E+03  0.16324783902E+04  0.25500000920E-02 0.  1.
</event>
<event>
 5   0  0.8958000E-06  0.2802137E+04  0.7818609E-02  0.8302605E-01
       -4   -1    0    0    0  501  0.00000000000E+00  0.00000000000E+00  0.12208833152E+04  0.12208839758E+04  0.12699999809E+01 0. -1.
        4   -1    0    0  501    0  0.00000000000E+00  0.00000000000E+00 -0.16078451458E+04  0.16078456474E+04  0.12699999809E+01 0.  1.
    10030    2    1    2    0    0  0.00000000000E+00  0.00000000000E+00 -0.38696183061E+03  0.28287296232E+04  0.28021370100E+04 0.  0.
        1    1    3    3  502    0 -0.13927073535E+04 -0.64401902158E+02 -0.53559691828E+02  0.13952240028E+04  0.50400001928E-02 0. -1.
       -1    1    3    3    0  502  0.13927073535E+04  0.64401902158E+02 -0.33340213878E+03  0.14335056204E+04  0.50400001928E-02 0.  1.
</event>
<event>
 5   0  0.2697964E-05  0.2199978E+04  0.7818609E-02  0.8518437E-01
       -2   -1    0    0    0  501  0.00000000000E+00  0.00000000000E+00  0.75526551978E+03  0.75526551979E+03  0.25500000920E-02 0. -1.
        2   -1    0    0  501    0  0.00000000000E+00  0.00000000000E+00 -0.16020540421E+04  0.16020540421E+04  0.25500000920E-02 0.  1.
    10030    2    1    2    0    0  0.00000000000E+00  0.00000000000E+00 -0.84678852233E+03  0.23573195619E+04  0.21999783443E+04 0.  0.
        1    1    3    3  502    0 -0.79821900112E+03  0.52060315724E+03  0.16525424207E+03  0.96720741603E+03  0.50400001928E-02 0. -1.
       -1    1    3    3    0  502  0.79821900112E+03 -0.52060315724E+03 -0.10120427644E+04  0.13901121459E+04  0.50400001928E-02 0.  1.
</event>
<event>
 5   0  0.1017456E-05  0.2659772E+04  0.7818609E-02  0.8348177E-01
        1   -1    0    0  501    0  0.00000000000E+00  0.00000000000E+00  0.91349056049E+03  0.91349056050E+03  0.50400001928E-02 0. -1.
       -1   -1    0    0    0  501  0.00000000000E+00  0.00000000000E+00 -0.19360871339E+04  0.19360871339E+04  0.50400001928E-02 0.  1.
    10030    2    1    2    0    0  0.00000000000E+00  0.00000000000E+00 -0.10225965734E+04  0.28495776944E+04  0.26597724121E+04 0.  0.
        5    1    3    3  502    0  0.94734599521E+03 -0.50305648832E+01 -0.15112209580E+04  0.17836200871E+04  0.46999998093E+01 0.  1.
       -5    1    3    3    0  502 -0.94734599521E+03  0.50305648832E+01  0.48862438463E+03  0.10659576073E+04  0.46999998093E+01 0. -1.
</event>
<event>
 5   0  0.1075146E-05  0.2867141E+04  0.7818609E-02  0.8282722E-01
        1   -1    0    0  501    0  0.00000000000E+00  0.00000000000E+00  0.14097278885E+04  0.14097278885E+04  0.50400001928E-02 0. -1.
       -1   -1    0    0    0  501  0.00000000000E+00  0.00000000000E+00 -0.14578162467E+04  0.14578162467E+04  0.50400001928E-02 0.  1.
    10030    2    1    2    0    0  0.00000000000E+00  0.00000000000E+00 -0.48088358170E+02  0.28675441353E+04  0.28671408890E+04 0.  0.
        2    1    3    3  502    0 -0.35034729780E+02 -0.91723532487E+03 -0.11253694049E+04  0.14522411546E+04  0.25500000920E-02 0.  1.
       -2    1    3    3    0  502  0.35034729780E+02  0.91723532487E+03  0.10772810467E+04  0.14153029807E+04  0.25500000920E-02 0. -1.
</event>
<event>
 5   0  0.1078103E-05  0.2269376E+04  0.7818609E-02  0.8490095E-01
        1   -1    0    0  501    0  0.00000000000E+00  0.00000000000E+00  0.13895738075E+04  0.13895738075E+04  0.50400001928E-02 0.  1.
       -1   -1    0    0    0  501  0.00000000000E+00  0.00000000000E+00 -0.92655504115E+03  0.92655504116E+03  0.50400001928E-02 0. -1.
    10030    2    1    2    0    0  0.00000000000E+00  0.00000000000E+00  0.46301876631E+03  0.23161288486E+04  0.22693757876E+04 0.  0.
        1    1    3    3  502    0  0.55871445927E+01 -0.27561987068E+03  0.13548757816E+04  0.13826373034E+04  0.50400001928E-02 0.  1.
       -1    1    3    3    0  502 -0.55871445927E+01  0.27561987068E+03 -0.89185701526E+03  0.93349154521E+03  0.50400001928E-02 0. -1.
</event>
<event>
 5   0  0.2518686E-05  0.2768839E+04  0.7818609E-02  0.8313008E-01
        2   -1    0    0  501    0  0.00000000000E+00  0.00000000000E+00  0.23590627604E+04  0.23590627604E+04  0.25500000920E-02 0.  1.
       -2   -1    0    0    0  501  0.00000000000E+00  0.00000000000E+00 -0.81244845768E+03  0.81244845768E+03  0.25500000920E-02 0. -1.
    10030    2    1    2    0    0  0.00000000000E+00  0.00000000000E+00  0.15466143027E+04  0.31715112180E+04  0.27688386744E+04 0.  0.
        5    1    3    3  502    0 -0.13630446692E+04 -0.20185210394E+03  0.61980340675E+03  0.15108982081E+04  0.46999998093E+01 0.  1.
       -5    1    3    3    0  502  0.13630446692E+04  0.20185210394E+03  0.92681089593E+03  0.16606130100E+04  0.46999998093E+01 0. -1.
</event>
<event>
 5   0  0.2518686E-05  0.2776560E+04  0.7818609E-02  0.8310583E-01
        2   -1    0    0  501    0  0.00000000000E+00  0.00000000000E+00  0.15988482344E+04  0.15988482344E+04  0.25500000920E-02 0.  1.
       -2   -1    0    0    0  501  0.00000000000E+00  0.00000000000E+00 -0.12054434898E+04  0.12054434898E+04  0.25500000920E-02 0. -1.
    10030    2    1    2    0    0  0.00000000000E+00  0.00000000000E+00  0.39340474457E+03  0.28042917242E+04  0.27765598826E+04 0.  0.
        5    1    3    3  502    0 -0.30040005952E+03 -0.11404343453E+04  0.93645790880E+03  0.15059237021E+04  0.46999998093E+01 0.  1.
       -5    1    3    3    0  502  0.30040005952E+03  0.11404343453E+04 -0.54305316423E+03  0.12983680221E+04  0.46999998093E+01 0. -1.
</event>
<event>
 5   0  0.2624815E-05  0.1402483E+04  0.7818609E-02  0.8952023E-01
       -2   -1    0    0    0  501  0.00000000000E+00  0.00000000000E+00  0.82935224665E+03  0.82935224665E+03  0.25500000920E-02 0. -1.
        2   -1    0    0  501    0  0.00000000000E+00  0.00000000000E+00 -0.59292012310E+03  0.59292012311E+03  0.25500000920E-02 0.  1.
    10030    2    1    2    0    0  0.00000000000E+00  0.00000000000E+00  0.23643212354E+03  0.14222723698E+04  0.14024829927E+04 0.  0.
        4    1    3    3  502    0  0.23539587778E+03 -0.65756520339E+03  0.54602911484E+02  0.70056142260E+03  0.12699999809E+01 0. -1.
       -4    1    3    3    0  502 -0.23539587778E+03  0.65756520339E+03  0.18182921206E+03  0.72171094716E+03  0.12699999809E+01 0.  1.
</event>
<event>
 5   0  0.1017456E-05  0.2838084E+04  0.7818609E-02  0.8291541E-01
        1   -1    0    0  501    0  0.00000000000E+00  0.00000000000E+00  0.10453730390E+04  0.10453730390E+04  0.50400001928E-02 0. -1.
       -1   -1    0    0    0  501  0.00000000000E+00  0.00000000000E+00 -0.19262790157E+04  0.19262790157E+04  0.50400001928E-02 0.  1.
    10030    2    1    2    0    0  0.00000000000E+00  0.00000000000E+00 -0.88090597673E+03  0.29716520548E+04  0.28380839654E+04 0.  0.
        5    1    3    3  502    0  0.13281704148E+04 -0.13542873159E+03 -0.94400251796E+03  0.16350964608E+04  0.46999998093E+01 0. -1.
       -5    1    3    3    0  502 -0.13281704148E+04  0.13542873159E+03  0.63096541230E+02  0.13365555940E+04  0.46999998093E+01 0.  1.
</event>
<event>
 5   0  0.2588048E-05  0.2827713E+04  0.7818609E-02  0.8294716E-01
        2   -1    0    0  501    0  0.00000000000E+00  0.00000000000E+00  0.16375162485E+04  0.16375162485E+04  0.25500000920E-02 0. -1.
       -2   -1    0    0    0  501  0.00000000000E+00  0.00000000000E+00 -0.12207452851E+04  0.12207452851E+04  0.25500000920E-02 0.  1.
    10030    2    1    2    0    0  0.00000000000E+00  0.00000000000E+00  0.41677096339E+03  0.28582615336E+04  0.28277130262E+04 0.  0.
        2    1    3    3  502    0  0.18179067783E+03 -0.32574928235E+03 -0.11701032886E+04  0.12281295337E+04  0.25500000920E-02 0.  1.
       -2    1    3    3    0  502 -0.18179067783E+03  0.32574928235E+03  0.15868742520E+04  0.16301319999E+04  0.25500000920E-02 0. -1.
</event>
<event>
 5   0  0.1075146E-05  0.2769883E+04  0.7818609E-02  0.8312680E-01
        1   -1    0    0  501    0  0.00000000000E+00  0.00000000000E+00  0.14588260026E+04  0.14588260026E+04  0.50400001928E-02 0.  1.
       -1   -1    0    0    0  501  0.00000000000E+00  0.00000000000E+00 -0.13147994534E+04  0.13147994535E+04  0.50400001928E-02 0. -1.
    10030    2    1    2    0    0  0.00000000000E+00  0.00000000000E+00  0.14402654912E+03  0.27736254560E+04  0.27698834855E+04 0.  0.
        2    1    3    3  502    0 -0.55321782376E+03 -0.12467391754E+04 -0.16842586989E+03  0.13743274012E+04  0.25500000920E-02 0. -1.
       -2    1    3    3    0  502  0.55321782376E+03  0.12467391754E+04  0.31245241901E+03  0.13992980548E+04  0.25500000920E-02 0.  1.
</event>
<event>
 5   0  0.2588048E-05  0.2752673E+04  0.7818609E-02  0.8318114E-01
       -2   -1    0    0    0  501  0.00000000000E+00  0.00000000000E+00  0.97943965268E+03  0.97943965269E+03  0.25500000920E-02 0. -1.
        2   -1    0    0  501    0  0.00000000000E+00  0.00000000000E+00 -0.19340667094E+04  0.19340667094E+04  0.25500000920E-02 0.  1.
    10030    2    1    2    0    0  0.00000000000E+00  0.00000000000E+00 -0.95462705673E+03  0.29135063621E+04  0.27526726112E+04 0.  0.
        2    1    3    3  502    0 -0.47606516697E+03 -0.69854810121E+03  0.67228478747E+03  0.10800807046E+04  0.25500000920E-02 0. -1.
       -2    1    3    3    0  502  0.47606516697E+03  0.69854810121E+03 -0.16269118442E+04  0.18334256575E+04  0.25500000920E-02 0.  1.
</event>
<event>
 5   0  0.1017456E-05  0.1574803E+04  0.7818609E-02  0.8836179E-01
        1   -1    0    0  501    0  0.00000000000E+00  0.00000000000E+00  0.15040108770E+04  0.15040108770E+04  0.50400001928E-02 0. -1.
       -1   -1    0    0    0  501  0.00000000000E+00  0.00000000000E+00 -0.41223192114E+03  0.41223192117E+03  0.50400001928E-02 0.  1.
    10030    2    1    2    0    0  0.00000000000E+00  0.00000000000E+00  0.10917789558E+04  0.19162427981E+04  0.15748032172E+04 0.  0.
        5    1    3    3  502    0 -0.42744310812E+03 -0.65924416375E+03  0.48302921888E+03  0.92230677890E+03  0.46999998093E+01 0. -1.
       -5    1    3    3    0  502  0.42744310812E+03  0.65924416375E+03  0.60874973695E+03  0.99393601924E+03  0.46999998093E+01 0.  1.
</event>
<event>
 5   0  0.2624815E-05  0.2972419E+04  0.7818609E-02  0.8251651E-01
        2   -1    0    0  501    0  0.00000000000E+00  0.00000000000E+00  0.12220703761E+04  0.12220703761E+04  0.25500000920E-02 0. -1.
       -2   -1    0    0    0  501  0.00000000000E+00  0.00000000000E+00 -0.18074399704E+04  0.18074399704E+04  0.25500000920E-02 0.  1.
    10030    2    1    2    0    0  0.00000000000E+00  0.00000000000E+00 -0.58536959428E+03  0.30295103464E+04  0.29724191120E+04 0.  0.
        4    1    3    3  502    0 -0.65347083465E+03 -0.92166675027E+03  0.69142988423E+03  0.13246020640E+04  0.12699999809E+01 0.  1.
       -4    1    3    3    0  502  0.65347083465E+03  0.92166675027E+03 -0.12767994785E+04  0.17049082824E+04  0.12699999809E+01 0. -1.
</event>
<event>
 5   0  0.1078103E-05  0.2839140E+04  0.7818609E-02  0.8291219E-01
       -1   -1    0    0    0  501  0.00000000000E+00  0.00000000000E+00  0.10800969751E+04  0.10800969751E+04  0.50400001928E-02 0.  1.
        1   -1    0    0  501    0  0.00000000000E+00  0.00000000000E+00 -0.18657390906E+04  0.18657390906E+04  0.50400001928E-02 0. -1.
    10030    2    1    2    0    0  0.00000000000E+00  0.00000000000E+00 -0.78564211546E+03  0.29458360657E+04  0.28391401150E+04 0.  0.
        1    1    3    3  502    0  0.30467191981E+02  0.25153190560E+03 -0.18420882027E+04  0.18594314981E+04  0.50400001928E-02 0. -1.
       -1    1    3    3    0  502 -0.30467191981E+02 -0.25153190560E+03  0.10564460873E+04  0.10864045677E+04  0.50400001928E-02 0.  1.
</event>
<event>
 5   0  0.1017456E-05  0.2811720E+04  0.7818609E-02  0.8299639E-01
        1   -1    0    0  501    0  0.00000000000E+00  0.00000000000E+00  0.20922011794E+04  0.20922011794E+04  0.50400001928E-02 0.  1.
       -1   -1    0    0    0  501  0.00000000000E+00  0.00000000000E+00 -0.94467103941E+03  0.94467103943E+03  0.50400001928E-02 0. -1.
    10030    2    1    2    0    0  0.00000000000E+00  0.00000000000E+00  0.11475301399E+04  0.30368722188E+04  0.28117196608E+04 0.  0.
        5    1    3    3  502    0 -0.30771507732E+03  0.38749389097E+03 -0.84750215918E+03  0.98138783576E+03  0.46999998093E+01 0. -1.
       -5    1    3    3    0  502  0.30771507732E+03 -0.38749389097E+03  0.19950322991E+04  0.20554843830E+04  0.46999998093E+01 0.  1.
</event>
<event>
 5   0  0.1078103E-05  0.1783351E+04  0.7818609E-02  0.8715204E-01
       -1   -1    0    0    0  501  0.00000000000E+00  0.00000000000E+00  0.11131252087E+04  0.11131252087E+04  0.50400001928E-02 0.  1.
        1   -1    0    0  501    0  0.00000000000E+00  0.00000000000E+00 -0.71428170599E+03  0.71428170601E+03  0.50400001928E-02 0. -1.
    10030    2    1    2    0    0  0.00000000000E+00  0.00000000000E+00  0.39884350267E+03  0.18274069147E+04  0.17833507485E+04 0.  0.
        1    1    3    3  502    0  0.22407645061E+03 -0.84419216505E+03  0.15504323786E+02  0.87356227674E+03  0.50400001928E-02 0. -1.
       -1    1    3    3    0  502 -0.22407645061E+03  0.84419216505E+03  0.38333917889E+03  0.95384463795E+03  0.50400001928E-02 0.  1.
</event>
<event>
 5   0  0.2588048E-05  0.2741361E+04  0.7818609E-02  0.8321708E-01
       -2   -1    0    0    0  501  0.00000000000E+00  0.00000000000E+00  0.10420961421E+04  0.10420961421E+04  0.25500000920E-02 0. -1.
        2   -1    0    0  501    0  0.00000000000E+00  0.00000000000E+00 -0.18028710923E+04  0.18028710923E+04  0.25500000920E-02 0.  1.
    10030    2    1    2    0    0  0.00000000000E+00  0.00000000000E+00 -0.76077495024E+03  0.28449672344E+04  0.27413609832E+04 0.  0.
        2    1    3    3  502    0 -0.11923343097E+04 -0.57728105706E+03 -0.74561197034E+03  0.15201485899E+04  0.25500000920E-02 0.  1.
       -2    1    3    3    0  502  0.11923343097E+04  0.57728105706E+03 -0.15162979898E+02  0.13248186445E+04  0.25500000920E-02 0. -1.
</event>
<event>
 5   0  0.2651061E-05  0.2788546E+04  0.7818609E-02  0.8306833E-01
       -2   -1    0    0    0  501  0.00000000000E+00  0.00000000000E+00  0.12102251099E+04  0.12102251099E+04  0.25500000920E-02 0. -1.
        2   -1    0    0  501    0  0.00000000000E+00  0.00000000000E+00 -0.16063099787E+04  0.16063099787E+04  0.25500000920E-02 0.  1.
    10030    2    1    2    0    0  0.00000000000E+00  0.00000000000E+00 -0.39608486882E+03  0.28165350887E+04  0.27885456214E+04 0.  0.
        3    1    3    3  502    0  0.75727956379E+02  0.17791418390E+03 -0.15927018790E+04  0.16043962932E+04  0.10100000352E+00 0.  1.
       -3    1    3    3    0  502 -0.75727956379E+02 -0.17791418390E+03  0.11966170102E+04  0.12121387955E+04  0.10100000352E+00 0. -1.
</event>
<event>
 5   0  0.1017456E-05  0.2775792E+04  0.7818609E-02  0.8310824E-01
        1   -1    0    0  501    0  0.00000000000E+00  0.00000000000E+00  0.19321527808E+04  0.19321527808E+04  0.50400001928E-02 0. -1.
       -1   -1    0    0    0  501  0.00000000000E+00  0.00000000000E+00 -0.99694746298E+03  0.99694746300E+03  0.50400001928E-02 0.  1.
    10030    2    1    2    0    0  0.00000000000E+00  0.00000000000E+00  0.93520531781E+03  0.29291002438E+04  0.27757916442E+04 0.  0.
        5    1    3    3  502    0  0.23974596415E+03  0.88926798043E+03 -0.62798744412E+03  0.11147492939E+04  0.46999998093E+01 0.  1.
       -5    1    3    3    0  502 -0.23974596415E+03 -0.88926798043E+03  0.15631927619E+04  0.18143509499E+04  0.46999998093E+01 0. -1.
</event>
<event>
 5   0  0.2518686E-05  0.2731240E+04  0.7818609E-02  0.8324939E-01
       -2   -1    0    0    0  501  0.00000000000E+00  0.00000000000E+00  0.15375538258E+04  0.15375538258E+04  0.25500000920E-02 0. -1.
        2   -1    0    0  501    0  0.00000000000E+00  0.00000000000E+00 -0.12129123430E+04  0.12129123430E+04  0.25500000920E-02 0.  1.
    10030    2    1    2    0    0  0.00000000000E+00  0.00000000000E+00  0.32464148278E+03  0.27504661688E+04  0.27312400212E+04 0.  0.
        5    1    3    3  502    0 -0.10877371787E+04 -0.47101193855E+03  0.84523265785E+03  0.14558381613E+04  0.46999998093E+01 0. -1.
       -5    1    3    3    0  502  0.10877371787E+04  0.47101193855E+03 -0.52059117507E+03  0.12946280075E+04  0.46999998093E+01 0.  1.
</event>
<event>
 5   0  0.2518686E-05  0.2863041E+04  0.7818609E-02  0.8283959E-01
       -2   -1    0    0    0  501  0.00000000000E+00  0.00000000000E+00  0.10602188605E+04  0.10602188605E+04  0.25500000920E-02 0. -1.
        2   -1    0    0  501    0  0.00000000000E+00  0.00000000000E+00 -0.19328569125E+04  0.19328569125E+04  0.25500000920E-02 0.  1.
    10030    2    1    2    0    0  0.00000000000E+00  0.00000000000E+00 -0.87263805207E+03  0.29930757730E+04  0.28630412874E+04 0.  0.
        5    1    3    3  502    0 -0.14014557430E+04  0.26109836172E+03 -0.30009853678E+03  0.14568224929E+04  0.46999998093E+01 0. -1.
       -5    1    3    3    0  502  0.14014557430E+04 -0.26109836172E+03 -0.57253951529E+03  0.15362532801E+04  0.46999998093E+01 0.  1.
</event>
<event>
 5   0  0.2518686E-05  0.2576478E+04  0.7818609E-02  0.8376235E-01
        2   -1    0    0  501    0  0.00000000000E+00  0.00000000000E+00  0.19636027573E+04  0.19636027573E+04  0.25500000920E-02 0. -1.
       -2   -1    0    0    0  501  0.00000000000E+00  0.00000000000E+00 -0.84516079112E+03  0.84516079112E+03  0.25500000920E-02 0.  1.
    10030    2    1    2    0    0  0.00000000000E+00  0.00000000000E+00  0.11184419662E+04  0.28087635485E+04  0.25764782629E+04 0.  0.
        5    1    3    3  502    0 -0.61418273593E+03  0.72170482552E+03 -0.39206731386E+03  0.10255813751E+04  0.46999998093E+01 0.  1.
       -5    1    3    3    0  502  0.61418273593E+03 -0.72170482552E+03  0.15105092801E+04  0.17831821734E+04  0.46999998093E+01 0. -1.
</event>
<event>
 5   0  0.1078103E-05  0.2774371E+04  0.7818609E-02  0.8311270E-01
        1   -1    0    0  501    0  0.00000000000E+00  0.00000000000E+00  0.16021626536E+04  0.16021626536E+04  0.50400001928E-02 0. -1.
       -1   -1    0    0    0  501  0.00000000000E+00  0.00000000000E+00 -0.12010535831E+04  0.12010535831E+04  0.50400001928E-02 0.  1.
    10030    2    1    2    0    0  0.00000000000E+00  0.00000000000E+00  0.40110907055E+03  0.28032162367E+04  0.27743707004E+04 0.  0.
        1    1    3    3  502    0 -0.11845152153E+04 -0.41253540970E+03 -0.39807608871E+03  0.13159507331E+04  0.50400001928E-02 0.  1.
       -1    1    3    3    0  502  0.11845152153E+04  0.41253540970E+03  0.79918515926E+03  0.14872655036E+04  0.50400001928E-02 0. -1.
</event>
<event>
 5   0  0.2624815E-05  0.2802418E+04  0.7818609E-02  0.8302518E-01
       -2   -1    0    0    0  501  0.00000000000E+00  0.00000000000E+00  0.11288077661E+04  0.11288077661E+04  0.25500000920E-02 0. -1.
        2   -1    0    0  501    0  0.00000000000E+00  0.00000000000E+00 -0.17393454832E+04  0.17393454832E+04  0.25500000920E-02 0.  1.
    10030    2    1    2    0    0  0.00000000000E+00  0.00000000000E+00 -0.61053771713E+03  0.28681532493E+04  0.28024180197E+04 0.  0.
        4    1    3    3  502    0 -0.13036730287E+04 -0.13085754403E+03  0.20306877414E+03  0.13258678677E+04  0.12699999809E+01 0. -1.
       -4    1    3    3    0  502  0.13036730287E+04  0.13085754403E+03 -0.81360649127E+03  0.15422853816E+04  0.12699999809E+01 0.  1.
</event>
<event>
 5   0  0.1078103E-05  0.2774389E+04  0.7818609E-02  0.8311264E-01
       -1   -1    0    0    0  501  0.00000000000E+00  0.00000000000E+00  0.14131292242E+04  0.14131292242E+04  0.50400001928E-02 0. -1.
        1   -1    0    0  501    0  0.00000000000E+00  0.00000000000E+00 -0.13617354274E+04  0.13617354274E+04  0.50400001928E-02 0.  1.
    10030    2    1    2    0    0  0.00000000000E+00  0.00000000000E+00  0.51393796776E+02  0.27748646516E+04  0.27743886736E+04 0.  0.
        1    1    3    3  502    0  0.35442051717E+03  0.58689197120E+03  0.12318275169E+04  0.14097713007E+04  0.50400001928E-02 0. -1.
       -1    1    3    3    0  502 -0.35442051717E+03 -0.58689197120E+03 -0.11804337202E+04  0.13650933509E+04  0.50400001928E-02 0.  1.
</event>
<event>
 5   0  0.1078103E-05  0.2778131E+04  0.7818609E-02  0.8310090E-01
        1   -1    0    0  501    0  0.00000000000E+00  0.00000000000E+00  0.18054641925E+04  0.18054641925E+04  0.50400001928E-02 0. -1.
       -1   -1    0    0    0  501  0.00000000000E+00  0.00000000000E+00 -0.10687019211E+04  0.10687019211E+04  0.50400001928E-02 0.  1.
    10030    2    1    2    0    0  0.00000000000E+00  0.00000000000E+00  0.73676227143E+03  0.28741661136E+04  0.27781310631E+04 0.  0.
        1    1    3    3  502    0 -0.33508200549E+03  0.10880613604E+04  0.11917216856E+04  0.16481377522E+04  0.50400001928E-02 0. -1.
       -1    1    3    3    0  502  0.33508200549E+03 -0.10880613604E+04 -0.45495941412E+03  0.12260283614E+04  0.50400001928E-02 0.  1.
</event>
<event>
 5   0  0.1075146E-05  0.2679159E+04  0.7818609E-02  0.8341799E-01
       -1   -1    0    0    0  501  0.00000000000E+00  0.00000000000E+00  0.16731724346E+04  0.16731724346E+04  0.50400001928E-02 0. -1.
        1   -1    0    0  501    0  0.00000000000E+00  0.00000000000E+00 -0.10724976304E+04  0.10724976304E+04  0.50400001928E-02 0.  1.
    10030    2    1    2    0    0  0.00000000000E+00  0.00000000000E+00  0.60067480419E+03  0.27456700650E+04  0.26791591751E+04 0.  0.
        2    1    3    3  502    0  0.10414595274E+04 -0.30931153273E+03 -0.50280261860E+03  0.11971307551E+04  0.25500000920E-02 0.  1.
       -2    1    3    3    0  502 -0.10414595274E+04  0.30931153273E+03  0.11034774228E+04  0.15485393099E+04  0.25500000920E-02 0. -1.
</event>
<event>
 5   0  0.2624815E-05  0.2723874E+04  0.7818609E-02  0.8327300E-01
        2   -1    0    0  501    0  0.00000000000E+00  0.00000000000E+00  0.12256474177E+04  0.12256474177E+04  0.25500000920E-02 0. -1.
       -2   -1    0    0    0  501  0.00000000000E+00  0.00000000000E+00 -0.15133811858E+04  0.15133811858E+04  0.25500000920E-02 0.  1.
    10030    2    1    2    0    0  0.00000000000E+00  0.00000000000E+00 -0.28773376810E+03  0.27390286034E+04  0.27238735229E+04 0.  0.
        4    1    3    3  502    0 -0.96654875969E+03 -0.80498515914E+02 -0.11053108325E+04  0.14705135719E+04  0.12699999809E+01 0.  1.
       -4    1    3    3    0  502  0.96654875969E+03  0.80498515914E+02  0.81757706440E+03  0.12685150315E+04  0.12699999809E+01 0. -1.
</event>
<event>
 5   0  0.1067434E-05  0.2801623E+04  0.7818609E-02  0.8302765E-01
       -1   -1    0    0    0  501  0.00000000000E+00  0.00000000000E+00  0.15253827796E+04  0.15253827796E+04  0.50400001928E-02 0. -1.
        1   -1    0    0  501    0  0.00000000000E+00  0.00000000000E+00 -0.12864133535E+04  0.12864133535E+04  0.50400001928E-02 0.  1.
    10030    2    1    2    0    0  0.00000000000E+00  0.00000000000E+00  0.23896942607E+03  0.28117961331E+04  0.28016229417E+04 0.  0.
        4    1    3    3  502    0 -0.86380014455E+03 -0.10475432430E+04  0.46537164651E+03  0.14352943663E+04  0.12699999809E+01 0.  1.
       -4    1    3    3    0  502  0.86380014455E+03  0.10475432430E+04 -0.22640222044E+03  0.13765017668E+04  0.12699999809E+01 0. -1.
</event>
<event>
 5   0  0.1105862E-05  0.2643035E+04  0.7818609E-02  0.8353728E-01
       -1   -1    0    0    0  501  0.00000000000E+00  0.00000000000E+00  0.10064618199E+04  0.10064618200E+04  0.50400001928E-02 0. -1.
        1   -1    0    0  501    0  0.00000000000E+00  0.00000000000E+00 -0.17351965515E+04  0.17351965515E+04  0.50400001928E-02 0.  1.
    10030    2    1    2    0    0  0.00000000000E+00  0.00000000000E+00 -0.72873473154E+03  0.27416583714E+04  0.26430354361E+04 0.  0.
        3    1    3    3  502    0  0.60183027800E+03  0.75741449225E+03 -0.12982571289E+04  0.16190577444E+04  0.10100000352E+00 0.  1.
       -3    1    3    3    0  502 -0.60183027800E+03 -0.75741449225E+03  0.56952239738E+03  0.11226006271E+04  0.10100000352E+00 0. -1.
</event>
<event>
 5   0  0.2697964E-05  0.2828250E+04  0.7818609E-02  0.8294551E-01
        2   -1    0    0  501    0  0.00000000000E+00  0.00000000000E+00  0.10821380229E+04  0.10821380229E+04  0.25500000920E-02 0. -1.
       -2   -1    0    0    0  501  0.00000000000E+00  0.00000000000E+00 -0.18479622106E+04  0.18479622106E+04  0.25500000920E-02 0.  1.
    10030    2    1    2    0    0  0.00000000000E+00  0.00000000000E+00 -0.76582418770E+03  0.29301002335E+04  0.28282504649E+04 0.  0.
        1    1    3    3  502    0  0.47948187792E+03  0.10784274470E+03  0.99081630826E+03  0.11060062774E+04  0.50400001928E-02 0. -1.
       -1    1    3    3    0  502 -0.47948187792E+03 -0.10784274470E+03 -0.17566404960E+04  0.18240939562E+04  0.50400001928E-02 0.  1.
</event>
<event>
 5   0  0.2518686E-05  0.2525766E+04  0.7818609E-02  0.8393863E-01
       -2   -1    0    0    0  501  0.00000000000E+00  0.00000000000E+00  0.17792595246E+04  0.17792595246E+04  0.25500000920E-02 0.  1.
        2   -1    0    0  501    0  0.00000000000E+00  0.00000000000E+00 -0.89636935717E+03  0.89636935718E+03  0.25500000920E-02 0. -1.
    10030    2    1    2    0    0  0.00000000000E+00  0.00000000000E+00  0.88289016740E+03  0.26756288818E+04  0.25257661937E+04 0.  0.
        5    1    3    3  502    0  0.10065637365E+04 -0.22399616378E+03  0.12137470443E+04  0.15926546438E+04  0.46999998093E+01 0.  1.
       -5    1    3    3    0  502 -0.10065637365E+04  0.22399616378E+03 -0.33085687687E+03  0.10829742379E+04  0.46999998093E+01 0. -1.
</event>
<event>
 5   0  0.1067434E-05  0.2740253E+04  0.7818609E-02  0.8322061E-01
       -1   -1    0    0    0  501  0.00000000000E+00  0.00000000000E+00  0.72054719071E+03  0.72054719072E+03  0.50400001928E-02 0. -1.
        1   -1    0    0  501    0  0.00000000000E+00  0.00000000000E+00 -0.26053061244E+04  0.26053061244E+04  0.50400001928E-02 0.  1.
    10030    2    1    2    0    0  0.00000000000E+00  0.00000000000E+00 -0.18847589337E+04  0.33258533151E+04  0.27402525496E+04 0.  0.
        4    1    3    3  502    0 -0.68035288254E+03  0.30460097277E+03  0.45289503044E+03  0.87222549773E+03  0.12699999809E+01 0. -1.
       -4    1    3    3    0  502  0.68035288254E+03 -0.30460097277E+03 -0.23376539641E+04  0.24536278174E+04  0.12699999809E+01 0.  1.
</event>
<event>
 5   0  0.2624815E-05  0.2808365E+04  0.7818609E-02  0.8300676E-01
       -2   -1    0    0    0  501  0.00000000000E+00  0.00000000000E+00  0.13750940752E+04  0.13750940752E+04  0.25500000920E-02 0.  1.
        2   -1    0    0  501    0  0.00000000000E+00  0.00000000000E+00 -0.14338861183E+04  0.14338861183E+04  0.25500000920E-02 0. -1.
    10030    2    1    2    0    0  0.00000000000E+00  0.00000000000E+00 -0.58792043156E+02  0.28089801935E+04  0.28083648665E+04 0.  0.
        4    1    3    3  502    0 -0.31286524054E+03  0.12395816072E+04 -0.61028094026E+03  0.14166480363E+04  0.12699999809E+01 0. -1.
       -4    1    3    3    0  502  0.31286524054E+03 -0.12395816072E+04  0.55148889710E+03  0.13923321573E+04  0.12699999809E+01 0.  1.
</event>
<event>
 5   0  0.2588048E-05  0.2794934E+04  0.7818609E-02  0.8304843E-01
        2   -1    0    0  501    0  0.00000000000E+00  0.00000000000E+00  0.98169154758E+03  0.98169154758E+03  0.25500000920E-02 0. -1.
       -2   -1    0    0    0  501  0.00000000000E+00  0.00000000000E+00 -0.19893349874E+04  0.19893349874E+04  0.25500000920E-02 0.  1.
    10030    2    1    2    0    0  0.00000000000E+00  0.00000000000E+00 -0.10076434399E+04  0.29710265350E+04  0.27949335180E+04 0.  0.
        2    1    3    3  502    0  0.23354666112E+03  0.39807392260E+03 -0.19059830897E+04  0.19610656361E+04  0.25500000920E-02 0.  1.
       -2    1    3    3    0  502 -0.23354666112E+03 -0.39807392260E+03  0.89833964988E+03  0.10099608989E+04  0.25500000920E-02 0. -1.
</event>
<event>
 5   0  0.1078103E-05  0.2400297E+04  0.7818609E-02  0.8439392E-01
       -1   -1    0    0    0  501  0.00000000000E+00  0.00000000000E+00  0.10307507277E+04  0.10307507277E+04  0.50400001928E-02 0.  1.
        1   -1    0    0  501    0  0.00000000000E+00  0.00000000000E+00 -0.13973862846E+04  0.13973862846E+04  0.50400001928E-02 0. -1.
    10030    2    1    2    0    0  0.00000000000E+00  0.00000000000E+00 -0.36663555686E+03  0.24281370123E+04  0.24002974231E+04 0.  0.
        1    1    3    3  502    0  0.68159312623E+03  0.46198784565E+03  0.69993853058E+03  0.10807015804E+04  0.50400001928E-02 0.  1.
       -1    1    3    3    0  502 -0.68159312623E+03 -0.46198784565E+03 -0.10665740874E+04  0.13474354319E+04  0.50400001928E-02 0. -1.
</event>
<event>
 5   0  0.2588048E-05  0.2786342E+04  0.7818609E-02  0.8307521E-01
       -2   -1    0    0    0  501  0.00000000000E+00  0.00000000000E+00  0.11515437679E+04  0.11515437679E+04  0.25500000920E-02 0. -1.
        2   -1    0    0  501    0  0.00000000000E+00  0.00000000000E+00 -0.16854992092E+04  0.16854992092E+04  0.25500000920E-02 0.  1.
    10030    2    1    2    0    0  0.00000000000E+00  0.00000000000E+00 -0.53395544124E+03  0.28370429771E+04  0.27863424845E+04 0.  0.
        2    1    3    3  502    0  0.24622183228E+03 -0.40668199785E+03  0.10663968536E+04  0.11675691361E+04  0.25500000920E-02 0. -1.
       -2    1    3    3    0  502 -0.24622183228E+03  0.40668199785E+03 -0.16003522949E+04  0.16694738410E+04  0.25500000920E-02 0.  1.
</event>
<event>
 5   0  0.1075146E-05  0.2698784E+04  0.7818609E-02  0.8335400E-01
       -1   -1    0    0    0  501  0.00000000000E+00  0.00000000000E+00  0.14177900525E+04  0.14177900525E+04  0.50400001928E-02 0. -1.
        1   -1    0    0  501    0  0.00000000000E+00  0.00000000000E+00 -0.12842933880E+04  0.12842933880E+04  0.50400001928E-02 0.  1.
    10030    2    1    2    0    0  0.00000000000E+00  0.00000000000E+00  0.13349666451E+03  0.27020834405E+04  0.26987837187E+04 0.  0.
        2    1    3    3  502    0 -0.12520905287E+04  0.35460430516E+03  0.42409294318E+03  0.13686963615E+04  0.25500000920E-02 0. -1.
       -2    1    3    3    0  502  0.12520905287E+04 -0.35460430516E+03 -0.29059627867E+03  0.13333870791E+04  0.25500000920E-02 0.  1.
</event>
<event>
 5   0  0.1067434E-05  0.2792284E+04  0.7818609E-02  0.8305668E-01
       -1   -1    0    0    0  501  0.00000000000E+00  0.00000000000E+00  0.14011016780E+04  0.14011016780E+04  0.50400001928E-02 0.  1.
        1   -1    0    0  501    0  0.00000000000E+00  0.00000000000E+00 -0.13911999367E+04  0.13911999368E+04  0.50400001928E-02 0. -1.
    10030    2    1    2    0    0  0.00000000000E+00  0.00000000000E+00  0.99017412079E+01  0.27923016147E+04  0.27922840585E+04 0.  0.
        4    1    3    3  502    0  0.23316648163E+03  0.11640021982E+04  0.73976378353E+03  0.13987565170E+04  0.12699999809E+01 0.  1.
       -4    1    3    3    0  502 -0.23316648163E+03 -0.11640021982E+04 -0.72986204232E+03  0.13935450977E+04  0.12699999809E+01 0. -1.
</event>
<event>
 5   0  0.2697964E-05  0.2784558E+04  0.7818609E-02  0.8308079E-01
        2   -1    0    0  501    0  0.00000000000E+00  0.00000000000E+00  0.16520151165E+04  0.16520151165E+04  0.25500000920E-02 0.  1.
       -2   -1    0    0    0  501  0.00000000000E+00  0.00000000000E+00 -0.11733796081E+04  0.11733796081E+04  0.25500000920E-02 0. -1.
    10030    2    1    2    0    0  0.00000000000E+00  0.00000000000E+00  0.47863550839E+03  0.28253947246E+04  0.27845580260E+04 0.  0.
        1    1    3    3  502    0 -0.20403115844E+03 -0.67323959707E+03 -0.97978514706E+03  0.12061754446E+04  0.50400001928E-02 0. -1.
       -1    1    3    3    0  502  0.20403115844E+03  0.67323959707E+03  0.14584206554E+04  0.16192192801E+04  0.50400001928E-02 0.  1.
</event>
<event>
 5   0  0.2588048E-05  0.2771979E+04  0.7818609E-02  0.8312021E-01
       -2   -1    0    0    0  501  0.00000000000E+00  0.00000000000E+00  0.99339097745E+03  0.99339097746E+03  0.25500000920E-02 0. -1.
        2   -1    0    0  501    0  0.00000000000E+00  0.00000000000E+00 -0.19337468443E+04  0.19337468443E+04  0.25500000920E-02 0.  1.
    10030    2    1    2    0    0  0.00000000000E+00  0.00000000000E+00 -0.94035586684E+03  0.29271378218E+04  0.27719788367E+04 0.  0.
        2    1    3    3  502    0  0.88477710120E+03  0.10639322840E+04 -0.55321969795E+03  0.14902464420E+04  0.25500000920E-02 0. -1.
       -2    1    3    3    0  502 -0.88477710120E+03 -0.10639322840E+04 -0.38713616890E+03  0.14368913797E+04  0.25500000920E-02 0.  1.
</event>
<event>
 5   0  0.1078103E-05  0.2822319E+04  0.7818609E-02  0.8296372E-01
       -1   -1    0    0    0  501  0.00000000000E+00  0.00000000000E+00  0.10483300625E+04  0.10483300625E+04  0.50400001928E-02 0. -1.
        1   -1    0    0  501    0  0.00000000000E+00  0.00000000000E+00 -0.18995656300E+04  0.18995656300E+04  0.50400001928E-02 0.  1.
    10030    2    1    2    0    0  0.00000000000E+00  0.00000000000E+00 -0.85123556746E+03  0.29478956925E+04  0.28223194402E+04 0.  0.
        1    1    3    3  502    0 -0.10295999391E+02 -0.34867194218E+03 -0.18538248218E+04  0.18863574955E+04  0.50400001928E-02 0.  1.
       -1    1    3    3    0  502  0.10295999391E+02  0.34867194218E+03  0.10025892543E+04  0.10615381970E+04  0.50400001928E-02 0. -1.
</event>
<event>
 5   0  0.1075146E-05  0.2784277E+04  0.7818609E-02  0.8308166E-01
        1   -1    0    0  501    0  0.00000000000E+00  0.00000000000E+00  0.11894239098E+04  0.11894239098E+04  0.50400001928E-02 0.  1.
       -1   -1    0    0    0  501  0.00000000000E+00  0.00000000000E+00 -0.16294018888E+04  0.16294018888E+04  0.50400001928E-02 0. -1.
    10030    2    1    2    0    0  0.00000000000E+00  0.00000000000E+00 -0.43997797897E+03  0.28188257986E+04  0.27842769727E+04 0.  0.
        2    1    3    3  502    0  0.84065741199E+03 -0.56471310062E+03 -0.11870611095E+04  0.15603588843E+04  0.25500000920E-02 0. -1.
       -2    1    3    3    0  502 -0.84065741199E+03  0.56471310062E+03  0.74708313048E+03  0.12584669142E+04  0.25500000920E-02 0.  1.
</event>
<event>
 5   0  0.2697964E-05  0.2876452E+04  0.7818609E-02  0.8279918E-01
       -2   -1    0    0    0  501  0.00000000000E+00  0.00000000000E+00  0.10790785253E+04  0.10790785253E+04  0.25500000920E-02 0. -1.
        2   -1    0    0  501    0  0.00000000000E+00  0.00000000000E+00 -0.19169077956E+04  0.19169077956E+04  0.25500000920E-02 0.  1.
    10030    2    1    2    0    0  0.00000000000E+00  0.00000000000E+00 -0.83782927025E+03  0.29959863209E+04  0.28764520071E+04 0.  0.
        1    1    3    3  502    0  0.50337622916E+03 -0.13414117864E+04 -0.28832148156E+03  0.14614727112E+04  0.50400001928E-02 0. -1.
       -1    1    3    3    0  502 -0.50337622916E+03  0.13414117864E+04 -0.54950778868E+03  0.15345136098E+04  0.50400001928E-02 0.  1.
</event>
<event>
 5   0  0.1075146E-05  0.2312001E+04  0.7818609E-02  0.8473204E-01
        1   -1    0    0  501    0  0.00000000000E+00  0.00000000000E+00  0.19200976266E+04  0.19200976266E+04  0.50400001928E-02 0.  1.
       -1   -1    0    0    0  501  0.00000000000E+00  0.00000000000E+00 -0.69597367355E+03  0.69597367357E+03  0.50400001928E-02 0. -1.
    10030    2    1    2    0    0  0.00000000000E+00  0.00000000000E+00  0.12241239530E+04  0.26160713001E+04  0.23120012100E+04 0.  0.
        2    1    3    3  502    0  0.77158406738E+03  0.75827020646E+03  0.10731076739E+04  0.15237702447E+04  0.25500000920E-02 0.  1.
       -2    1    3    3    0  502 -0.77158406738E+03 -0.75827020646E+03  0.15101627915E+03  0.10923010554E+04  0.25500000920E-02 0. -1.
</event>
<event>
 5   0  0.1105862E-05  0.2798568E+04  0.7818609E-02  0.8303713E-01
       -1   -1    0    0    0  501  0.00000000000E+00  0.00000000000E+00  0.15000138432E+04  0.15000138432E+04  0.50400001928E-02 0.  1.
        1   -1    0    0  501    0  0.00000000000E+00  0.00000000000E+00 -0.13053181080E+04  0.13053181080E+04  0.50400001928E-02 0. -1.
    10030    2    1    2    0    0  0.00000000000E+00  0.00000000000E+00  0.19469573517E+03  0.28053319512E+04  0.27985676563E+04 0.  0.
        3    1    3    3  502    0  0.29930027275E+03 -0.92217350887E+03 -0.91405596494E+03  0.13324724954E+04  0.10100000352E+00 0. -1.
       -3    1    3    3    0  502 -0.29930027275E+03  0.92217350887E+03  0.11087517001E+04  0.14728594558E+04  0.10100000352E+00 0.  1.
</event>
<event>
 5   0  0.2624815E-05  0.2135138E+04  0.7818609E-02  0.8545921E-01
        2   -1    0    0  501    0  0.00000000000E+00  0.00000000000E+00  0.10721902490E+04  0.10721902490E+04  0.25500000920E-02 0. -1.
       -2   -1    0    0    0  501  0.00000000000E+00  0.00000000000E+00 -0.10629675709E+04  0.10629675709E+04  0.25500000920E-02 0.  1.
    10030    2    1    2    0    0  0.00000000000E+00  0.00000000000E+00  0.92226780901E+01  0.21351578200E+04  0.21351379015E+04 0.  0.
        4    1    3    3  502    0  0.88402706845E+03  0.14557503798E+03  0.58513884924E+03  0.10700864616E+04  0.12699999809E+01 0. -1.
       -4    1    3    3    0  502 -0.88402706845E+03 -0.14557503798E+03 -0.57591617115E+03  0.10650713584E+04  0.12699999809E+01 0.  1.
</event>
<event>
 5   0  0.2624815E-05  0.1436942E+04  0.7818609E-02  0.8927504E-01
       -2   -1    0    0    0  501  0.00000000000E+00  0.00000000000E+00  0.27082630974E+03  0.27082630975E+03  0.25500000920E-02 0.  1.
        2   -1    0    0  501    0  0.00000000000E+00  0.00000000000E+00 -0.19060205067E+04  0.19060205067E+04  0.25500000920E-02 0. -1.
    10030    2    1    2    0    0  0.00000000000E+00  0.00000000000E+00 -0.16351941969E+04  0.21768468164E+04  0.14369418918E+04 0.  0.
        4    1    3    3  502    0 -0.32683521513E+03  0.59824513150E+03 -0.47387331344E+03  0.83022649037E+03  0.12699999809E+01 0.  1.
       -4    1    3    3    0  502  0.32683521513E+03 -0.59824513150E+03 -0.11613208835E+04  0.13466203260E+04  0.12699999809E+01 0. -1.
</event>
<event>
 5   0  0.2624815E-05  0.1848078E+04  0.7818609E-02  0.8681142E-01
       -2   -1    0    0    0  501  0.00000000000E+00  0.00000000000E+00  0.40449083909E+03  0.40449083910E+03  0.25500000920E-02 0. -1.
        2   -1    0    0  501    0  0.00000000000E+00  0.00000000000E+00 -0.21109215389E+04  0.21109215389E+04  0.25500000920E-02 0.  1.
    10030    2    1    2    0    0  0.00000000000E+00  0.00000000000E+00 -0.17064306998E+04  0.25154123780E+04  0.18480783799E+04 0.  0.
        4    1    3    3  502    0 -0.74040706975E+03 -0.43333289394E+03 -0.13205032413E+04  0.15747096396E+04  0.12699999809E+01 0.  1.
       -4    1    3    3    0  502  0.74040706975E+03  0.43333289394E+03 -0.38592745854E+03  0.94070273841E+03  0.12699999809E+01 0. -1.
</event>
<event>
 5   0  0.2651061E-05  0.2808653E+04  0.7818609E-02  0.8300587E-01
        2   -1    0    0  501    0  0.00000000000E+00  0.00000000000E+00  0.10193969747E+04  0.10193969747E+04  0.25500000920E-02 0. -1.
       -2   -1    0    0    0  501  0.00000000000E+00  0.00000000000E+00 -0.19346077775E+04  0.19346077775E+04  0.25500000920E-02 0.  1.
    10030    2    1    2    0    0  0.00000000000E+00  0.00000000000E+00 -0.91521080274E+03  0.29540047522E+04  0.28086532827E+04 0.  0.
        3    1    3    3  502    0  0.35391616252E+03 -0.12805734804E+04 -0.93613284651E+03  0.16252599193E+04  0.10100000352E+00 0.  1.
       -3    1    3    3    0  502 -0.35391616252E+03  0.12805734804E+04  0.20922043779E+02  0.13287448329E+04  0.10100000352E+00 0. -1.
</event>
<event>
 5   0  0.1078103E-05  0.2036409E+04  0.7818609E-02  0.8589785E-01
        1   -1    0    0  501    0  0.00000000000E+00  0.00000000000E+00  0.12102588234E+04  0.12102588234E+04  0.50400001928E-02 0. -1.
       -1   -1    0    0    0  501  0.00000000000E+00  0.00000000000E+00 -0.85662720021E+03  0.85662720022E+03  0.50400001928E-02 0.  1.
    10030    2    1    2    0    0  0.00000000000E+00  0.00000000000E+00  0.35363162320E+03  0.20668860236E+04  0.20364092196E+04 0.  0.
        1    1    3    3  502    0  0.53705528730E+03  0.56647735384E+03  0.84037044441E+03  0.11469731723E+04  0.50400001928E-02 0. -1.
       -1    1    3    3    0  502 -0.53705528730E+03 -0.56647735384E+03 -0.48673882121E+03  0.91991285138E+03  0.50400001928E-02 0.  1.
</event>
<event>
 5   0  0.2588048E-05  0.2239971E+04  0.7818609E-02  0.8501973E-01
       -2   -1    0    0    0  501  0.00000000000E+00  0.00000000000E+00  0.51735828096E+03  0.51735828097E+03  0.25500000920E-02 0.  1.
        2   -1    0    0  501    0  0.00000000000E+00  0.00000000000E+00 -0.24245631304E+04  0.24245631304E+04  0.25500000920E-02 0. -1.
    10030    2    1    2    0    0  0.00000000000E+00  0.00000000000E+00 -0.19072048494E+04  0.29419214113E+04  0.22399712616E+04 0.  0.
        2    1    3    3  502    0 -0.25469425784E+03 -0.80994423717E+03  0.56907343342E+01  0.84906490727E+03  0.25500000920E-02 0.  1.
       -2    1    3    3    0  502  0.25469425784E+03  0.80994423717E+03 -0.19128955837E+04  0.20928565041E+04  0.25500000920E-02 0. -1.
</event>
<event>
 5   0  0.2697964E-05  0.1800097E+04  0.7818609E-02  0.8706248E-01
       -2   -1    0    0    0  501  0.00000000000E+00  0.00000000000E+00  0.50958919006E+03  0.50958919006E+03  0.25500000920E-02 0. -1.
        2   -1    0    0  501    0  0.00000000000E+00  0.00000000000E+00 -0.15896869838E+04  0.15896869838E+04  0.25500000920E-02 0.  1.
    10030    2    1    2    0    0  0.00000000000E+00  0.00000000000E+00 -0.10800977937E+04  0.20992761738E+04  0.18000970002E+04 0.  0.
        1    1    3    3  502    0  0.88269790369E+03  0.15652252713E+03 -0.44651681765E+03  0.10015149321E+04  0.50400001928E-02 0. -1.
       -1    1    3    3    0  502 -0.88269790369E+03 -0.15652252713E+03 -0.63358097605E+03  0.10977612418E+04  0.50400001928E-02 0.  1.
</event>
<event>
 5   0  0.1075146E-05  0.2794769E+04  0.7818609E-02  0.8304894E-01
        1   -1    0    0  501    0  0.00000000000E+00  0.00000000000E+00  0.19564721671E+04  0.19564721671E+04  0.50400001928E-02 0.  1.
       -1   -1    0    0    0  501  0.00000000000E+00  0.00000000000E+00 -0.99806378324E+03  0.99806378325E+03  0.50400001928E-02 0. -1.
    10030    2    1    2    0    0  0.00000000000E+00  0.00000000000E+00  0.95840838387E+03  0.29545359504E+04  0.27947694094E+04 0.  0.
        2    1    3    3  502    0  0.24374667035E+01 -0.13262638290E+04  0.94448026286E+03  0.16281967487E+04  0.25500000920E-02 0. -1.
       -2    1    3    3    0  502 -0.24374667035E+01  0.13262638290E+04  0.13928121015E+02  0.13263392017E+04  0.25500000920E-02 0.  1.
</event>
<event>
 5   0  0.1075146E-05  0.2838949E+04  0.7818609E-02  0.8291277E-01
       -1   -1    0    0    0  501  0.00000000000E+00  0.00000000000E+00  0.13302453581E+04  0.13302453581E+04  0.50400001928E-02 0. -1.
        1   -1    0    0  501    0  0.00000000000E+00  0.00000000000E+00 -0.15146893726E+04  0.15146893726E+04  0.50400001928E-02 0.  1.
    10030    2    1    2    0    0  0.00000000000E+00  0.00000000000E+00 -0.18444401446E+03  0.28449347307E+04  0.28389494584E+04 0.  0.
        2    1    3    3  502    0 -0.10999022716E+03  0.27089081715E+03  0.12997452740E+04  0.13322227525E+04  0.25500000920E-02 0. -1.
       -2    1    3    3    0  502  0.10999022716E+03 -0.27089081715E+03 -0.14841892885E+04  0.15127119782E+04  0.25500000920E-02 0.  1.
</event>
<event>
 5   0  0.2624815E-05  0.1458015E+04  0.7818609E-02  0.8912863E-01
        2   -1    0    0  501    0  0.00000000000E+00  0.00000000000E+00  0.12595083833E+04  0.12595083833E+04  0.25500000920E-02 0.  1.
       -2   -1    0    0    0  501  0.00000000000E+00  0.00000000000E+00 -0.42195183396E+03  0.42195183397E+03  0.25500000920E-02 0. -1.
    10030    2    1    2    0    0  0.00000000000E+00  0.00000000000E+00  0.83755654930E+03  0.16814602172E+04  0.14580149138E+04 0.  0.
        4    1    3    3  502    0 -0.18295432958E+03 -0.36072672991E+03  0.11182376393E+04  0.11891396433E+04  0.12699999809E+01 0.  1.
       -4    1    3    3    0  502  0.18295432958E+03  0.36072672991E+03 -0.28068108998E+03  0.49232057397E+03  0.12699999809E+01 0. -1.
</event>
<event>
 5   0  0.2624815E-05  0.2809393E+04  0.7818609E-02  0.8300358E-01
        2   -1    0    0  501    0  0.00000000000E+00  0.00000000000E+00  0.15671101624E+04  0.15671101624E+04  0.25500000920E-02 0.  1.
       -2   -1    0    0    0  501  0.00000000000E+00  0.00000000000E+00 -0.12591151201E+04  0.12591151201E+04  0.25500000920E-02 0. -1.
    10030    2    1    2    0    0  0.00000000000E+00  0.00000000000E+00  0.30799504232E+03  0.28262252826E+04  0.28093928885E+04 0.  0.
        4    1    3    3  502    0 -0.66848603406E+03 -0.49106102954E+03  0.12944369352E+04  0.15373949084E+04  0.12699999809E+01 0.  1.
       -4    1    3    3    0  502  0.66848603406E+03  0.49106102954E+03 -0.98644189283E+03  0.12888303741E+04  0.12699999809E+01 0. -1.
</event>
<event>
 5   0  0.2624815E-05  0.2662905E+04  0.7818609E-02  0.8347142E-01
        2   -1    0    0  501    0  0.00000000000E+00  0.00000000000E+00  0.15170848445E+04  0.15170848445E+04  0.25500000920E-02 0. -1.
       -2   -1    0    0    0  501  0.00000000000E+00  0.00000000000E+00 -0.11685342754E+04  0.11685342754E+04  0.25500000920E-02 0.  1.
    10030    2    1    2    0    0  0.00000000000E+00  0.00000000000E+00  0.34855056910E+03  0.26856191199E+04  0.26629049096E+04 0.  0.
        4    1    3    3  502    0  0.37951751807E+02  0.76552425429E+03 -0.92372443057E+03  0.12003066924E+04  0.12699999809E+01 0.  1.
       -4    1    3    3    0  502 -0.37951751807E+02 -0.76552425429E+03  0.12722749997E+04  0.14853124274E+04  0.12699999809E+01 0. -1.
</event>
<event>
 5   0  0.1105862E-05  0.2775647E+04  0.7818609E-02  0.8310869E-01
       -1   -1    0    0    0  501  0.00000000000E+00  0.00000000000E+00  0.98209462201E+03  0.98209462202E+03  0.50400001928E-02 0. -1.
        1   -1    0    0  501    0  0.00000000000E+00  0.00000000000E+00 -0.19611691697E+04  0.19611691697E+04  0.50400001928E-02 0.  1.
    10030    2    1    2    0    0  0.00000000000E+00  0.00000000000E+00 -0.97907454766E+03  0.29432637917E+04  0.27756467314E+04 0.  0.
        3    1    3    3  502    0  0.91241100091E+03 -0.92422176524E+01  0.61930382135E+03  0.11027767165E+04  0.10100000352E+00 0. -1.
       -3    1    3    3    0  502 -0.91241100091E+03  0.92422176524E+01 -0.15983783690E+04  0.18404870752E+04  0.10100000352E+00 0.  1.
</event>
<event>
 5   0  0.1017456E-05  0.2678871E+04  0.7818609E-02  0.8341893E-01
       -1   -1    0    0    0  501  0.00000000000E+00  0.00000000000E+00  0.86990292884E+03  0.86990292885E+03  0.50400001928E-02 0. -1.
        1   -1    0    0  501    0  0.00000000000E+00  0.00000000000E+00 -0.20623995040E+04  0.20623995040E+04  0.50400001928E-02 0.  1.
    10030    2    1    2    0    0  0.00000000000E+00  0.00000000000E+00 -0.11924965751E+04  0.29323024328E+04  0.26788709330E+04 0.  0.
        5    1    3    3  502    0 -0.98703048503E+03 -0.55099033422E+03 -0.13827238204E+04  0.17859918198E+04  0.46999998093E+01 0.  1.
       -5    1    3    3    0  502  0.98703048503E+03  0.55099033422E+03  0.19022724526E+03  0.11463106131E+04  0.46999998093E+01 0. -1.
</event>
<event>
 5   0  0.2588048E-05  0.3074386E+04  0.7818609E-02  0.8222803E-01
       -2   -1    0    0    0  501  0.00000000000E+00  0.00000000000E+00  0.27768754481E+04  0.27768754481E+04  0.25500000920E-02 0. -1.
        2   -1    0    0  501    0  0.00000000000E+00  0.00000000000E+00 -0.85094299796E+03  0.85094299796E+03  0.25500000920E-02 0.  1.
    10030    2    1    2    0    0  0.00000000000E+00  0.00000000000E+00  0.19259324502E+04  0.36278184461E+04  0.30743862599E+04 0.  0.
        2    1    3    3  502    0 -0.47114131396E+03  0.14370645868E+04  0.63801441095E+03  0.16413991449E+04  0.25500000920E-02 0.  1.
       -2    1    3    3    0  502  0.47114131396E+03 -0.14370645868E+04  0.12879180392E+04  0.19864193012E+04  0.25500000920E-02 0. -1.
</event>
<event>
 5   0  0.1075146E-05  0.2734241E+04  0.7818609E-02  0.8323980E-01
       -1   -1    0    0    0  501  0.00000000000E+00  0.00000000000E+00  0.10174454470E+04  0.10174454471E+04  0.50400001928E-02 0.  1.
        1   -1    0    0  501    0  0.00000000000E+00  0.00000000000E+00 -0.18369722655E+04  0.18369722655E+04  0.50400001928E-02 0. -1.
    10030    2    1    2    0    0  0.00000000000E+00  0.00000000000E+00 -0.81952681843E+03  0.28544177125E+04  0.27342414435E+04 0.  0.
        2    1    3    3  502    0  0.66684856406E+03 -0.11827690657E+04 -0.57610730388E+03  0.14749675575E+04  0.25500000920E-02 0. -1.
       -2    1    3    3    0  502 -0.66684856406E+03  0.11827690657E+04 -0.24341951455E+03  0.13794501550E+04  0.25500000920E-02 0.  1.
</event>
<event>
 5   0  0.1075146E-05  0.2714799E+04  0.7818609E-02  0.8330219E-01
       -1   -1    0    0    0  501  0.00000000000E+00  0.00000000000E+00  0.10914973942E+04  0.10914973942E+04  0.50400001928E-02 0. -1.
        1   -1    0    0  501    0  0.00000000000E+00  0.00000000000E+00 -0.16880784057E+04  0.16880784057E+04  0.50400001928E-02 0.  1.
    10030    2    1    2    0    0  0.00000000000E+00  0.00000000000E+00 -0.59658101154E+03  0.27795757999E+04  0.27147988367E+04 0.  0.
        2    1    3    3  502    0 -0.79477577635E+03 -0.82327776407E+03 -0.10458338822E+04  0.15502333117E+04  0.25500000920E-02 0.  1.
       -2    1    3    3    0  502  0.79477577635E+03  0.82327776407E+03  0.44925287067E+03  0.12293424882E+04  0.25500000920E-02 0. -1.
</event>
<event>
 5   0  0.1078103E-05  0.1753380E+04  0.7818609E-02  0.8731492E-01
       -1   -1    0    0    0  501  0.00000000000E+00  0.00000000000E+00  0.37958255595E+03  0.37958255598E+03  0.50400001928E-02 0.  1.
        1   -1    0    0  501    0  0.00000000000E+00  0.00000000000E+00 -0.20248177921E+04  0.20248177922E+04  0.50400001928E-02 0. -1.
    10030    2    1    2    0    0  0.00000000000E+00  0.00000000000E+00 -0.16452352362E+04  0.24044003481E+04  0.17533801789E+04 0.  0.
        1    1    3    3  502    0  0.11096968627E+03  0.99466113265E+02 -0.20073220876E+04  0.20128461795E+04  0.50400001928E-02 0. -1.
       -1    1    3    3    0  502 -0.11096968627E+03 -0.99466113265E+02  0.36208685142E+03  0.39155416861E+03  0.50400001928E-02 0.  1.
</event>
<event>
 5   0  0.2588048E-05  0.2788491E+04  0.7818609E-02  0.8306850E-01
        2   -1    0    0  501    0  0.00000000000E+00  0.00000000000E+00  0.94150101580E+03  0.94150101581E+03  0.25500000920E-02 0. -1.
       -2   -1    0    0    0  501  0.00000000000E+00  0.00000000000E+00 -0.20647036514E+04  0.20647036514E+04  0.25500000920E-02 0.  1.
    10030    2    1    2    0    0  0.00000000000E+00  0.00000000000E+00 -0.11232026356E+04  0.30062046672E+04  0.27884910508E+04 0.  0.
        2    1    3    3  502    0 -0.78104542648E+03 -0.83872666369E+02 -0.18034276345E+04  0.19670835811E+04  0.25500000920E-02 0.  1.
       -2    1    3    3    0  502  0.78104542648E+03  0.83872666369E+02  0.68022499889E+03  0.10391210861E+04  0.25500000920E-02 0. -1.
</event>
<event>
 5   0  0.2624815E-05  0.2833132E+04  0.7818609E-02  0.8293055E-01
        2   -1    0    0  501    0  0.00000000000E+00  0.00000000000E+00  0.13754061459E+04  0.13754061459E+04  0.25500000920E-02 0.  1.
       -2   -1    0    0    0  501  0.00000000000E+00  0.00000000000E+00 -0.14589577754E+04  0.14589577754E+04  0.25500000920E-02 0. -1.
    10030    2    1    2    0    0  0.00000000000E+00  0.00000000000E+00 -0.83551629571E+02  0.28343639213E+04  0.28331321825E+04 0.  0.
        4    1    3    3  502    0  0.63556706503E+03  0.12046134952E+04  0.34777594803E+03  0.14056987194E+04  0.12699999809E+01 0.  1.
       -4    1    3    3    0  502 -0.63556706503E+03 -0.12046134952E+04 -0.43132757760E+03  0.14286652019E+04  0.12699999809E+01 0. -1.
</event>
<event>
 5   0  0.1078103E-05  0.2800649E+04  0.7818609E-02  0.8303067E-01
        1   -1    0    0  501    0  0.00000000000E+00  0.00000000000E+00  0.20167845977E+04  0.20167845977E+04  0.50400001928E-02 0. -1.
       -1   -1    0    0    0  501  0.00000000000E+00  0.00000000000E+00 -0.97229458486E+03  0.97229458487E+03  0.50400001928E-02 0.  1.
    10030    2    1    2    0    0  0.00000000000E+00  0.00000000000E+00  0.10444900129E+04  0.29890791826E+04  0.28006490271E+04 0.  0.
        1    1    3    3  502    0  0.16210199185E+03 -0.75340650421E+03  0.17701014631E+04  0.19305847834E+04  0.50400001928E-02 0. -1.
       -1    1    3    3    0  502 -0.16210199185E+03  0.75340650421E+03 -0.72561145023E+03  0.10584943992E+04  0.50400001928E-02 0.  1.
</event>
<event>
 5   0  0.2697964E-05  0.2828249E+04  0.7818609E-02  0.8294552E-01
       -2   -1    0    0    0  501  0.00000000000E+00  0.00000000000E+00  0.94163297467E+03  0.94163297468E+03  0.25500000920E-02 0. -1.
        2   -1    0    0  501    0  0.00000000000E+00  0.00000000000E+00 -0.21237020312E+04  0.21237020312E+04  0.25500000920E-02 0.  1.
    10030    2    1    2    0    0  0.00000000000E+00  0.00000000000E+00 -0.11820690565E+04  0.30653350058E+04  0.28282488299E+04 0.  0.
        1    1    3    3  502    0  0.77935619345E+03 -0.11603882199E+04 -0.35895621294E+03  0.14431723598E+04  0.50400001928E-02 0.  1.
       -1    1    3    3    0  502 -0.77935619345E+03  0.11603882199E+04 -0.82311284354E+03  0.16221626461E+04  0.50400001928E-02 0. -1.
</event>
<event>
 5   0  0.1075146E-05  0.2822507E+04  0.7818609E-02  0.8296315E-01
       -1   -1    0    0    0  501  0.00000000000E+00  0.00000000000E+00  0.13056406913E+04  0.13056406913E+04  0.50400001928E-02 0.  1.
        1   -1    0    0  501    0  0.00000000000E+00  0.00000000000E+00 -0.15254093456E+04  0.15254093456E+04  0.50400001928E-02 0. -1.
    10030    2    1    2    0    0  0.00000000000E+00  0.00000000000E+00 -0.21976865430E+03  0.28310500368E+04  0.28225070504E+04 0.  0.
        2    1    3    3  502    0 -0.12609771322E+04  0.62106590952E+03  0.16394789739E+02  0.14057222275E+04  0.25500000920E-02 0.  1.
       -2    1    3    3    0  502  0.12609771322E+04 -0.62106590952E+03 -0.23616344404E+03  0.14253278093E+04  0.25500000920E-02 0. -1.
</event>
<event>
 5   0  0.1078103E-05  0.2712466E+04  0.7818609E-02  0.8330971E-01
       -1   -1    0    0    0  501  0.00000000000E+00  0.00000000000E+00  0.98134958022E+03  0.98134958023E+03  0.50400001928E-02 0.  1.
        1   -1    0    0  501    0  0.00000000000E+00  0.00000000000E+00 -0.18743253336E+04  0.18743253336E+04  0.50400001928E-02 0. -1.
    10030    2    1    2    0    0  0.00000000000E+00  0.00000000000E+00 -0.89297575341E+03  0.28556749139E+04  0.27124663164E+04 0.  0.
        1    1    3    3  502    0  0.48484004967E+03 -0.32017012693E+03  0.84368812145E+03  0.10243966176E+04  0.50400001928E-02 0.  1.
       -1    1    3    3    0  502 -0.48484004967E+03  0.32017012693E+03 -0.17366638749E+04  0.18312782962E+04  0.50400001928E-02 0. -1.
</event>
<event>
 5   0  0.1078103E-05  0.2776056E+04  0.7818609E-02  0.8310741E-01
        1   -1    0    0  501    0  0.00000000000E+00  0.00000000000E+00  0.19531542156E+04  0.19531542156E+04  0.50400001928E-02 0.  1.
       -1   -1    0    0    0  501  0.00000000000E+00  0.00000000000E+00 -0.98641582488E+03  0.98641582489E+03  0.50400001928E-02 0. -1.
    10030    2    1    2    0    0  0.00000000000E+00  0.00000000000E+00  0.96673839070E+03  0.29395700405E+04  0.27760563587E+04 0.  0.
        1    1    3    3  502    0 -0.39492993133E+03 -0.13161281057E+02  0.18923366688E+04  0.19331531078E+04  0.50400001928E-02 0.  1.
       -1    1    3    3    0  502  0.39492993133E+03  0.13161281057E+02 -0.92559827811E+03  0.10064169327E+04  0.50400001928E-02 0. -1.
</event>
<event>
 5   0  0.1078103E-05  0.2378210E+04  0.7818609E-02  0.8447707E-01
       -1   -1    0    0    0  501  0.00000000000E+00  0.00000000000E+00  0.58274796482E+03  0.58274796484E+03  0.50400001928E-02 0. -1.
        1   -1    0    0  501    0  0.00000000000E+00  0.00000000000E+00 -0.24263845931E+04  0.24263845931E+04  0.50400001928E-02 0.  1.
    10030    2    1    2    0    0  0.00000000000E+00  0.00000000000E+00 -0.18436366282E+04  0.30091325579E+04  0.23782099853E+04 0.  0.
        1    1    3    3  502    0 -0.10812104320E+04 -0.49473820200E+03 -0.93920386443E+03  0.15152180654E+04  0.50400001928E-02 0. -1.
       -1    1    3    3    0  502  0.10812104320E+04  0.49473820200E+03 -0.90443276382E+03  0.14939144925E+04  0.50400001928E-02 0.  1.
</event>
<event>
 5   0  0.1078103E-05  0.2452213E+04  0.7818609E-02  0.8420211E-01
       -1   -1    0    0    0  501  0.00000000000E+00  0.00000000000E+00  0.66429715381E+03  0.66429715383E+03  0.50400001928E-02 0. -1.
        1   -1    0    0  501    0  0.00000000000E+00  0.00000000000E+00 -0.22630486661E+04  0.22630486661E+04  0.50400001928E-02 0.  1.
    10030    2    1    2    0    0  0.00000000000E+00  0.00000000000E+00 -0.15987515123E+04  0.29273458200E+04  0.24522127052E+04 0.  0.
        1    1    3    3  502    0 -0.70301342907E+03  0.41455514394E+03  0.29293002616E+03  0.86711697543E+03  0.50400001928E-02 0. -1.
       -1    1    3    3    0  502  0.70301342907E+03 -0.41455514394E+03 -0.18916815385E+04  0.20602288445E+04  0.50400001928E-02 0.  1.
</event>
<event>
 5   0  0.1075146E-05  0.2792126E+04  0.7818609E-02  0.8305717E-01
        1   -1    0    0  501    0  0.00000000000E+00  0.00000000000E+00  0.19693462737E+04  0.19693462737E+04  0.50400001928E-02 0.  1.
       -1   -1    0    0    0  501  0.00000000000E+00  0.00000000000E+00 -0.98966474433E+03  0.98966474434E+03  0.50400001928E-02 0. -1.
    10030    2    1    2    0    0  0.00000000000E+00  0.00000000000E+00  0.97968152939E+03  0.29590110181E+04  0.27921264846E+04 0.  0.
        2    1    3    3  502    0  0.12979834092E+03 -0.99595261829E+03  0.15174476612E+04  0.18197298238E+04  0.25500000920E-02 0.  1.
       -2    1    3    3    0  502 -0.12979834092E+03  0.99595261829E+03 -0.53776613177E+03  0.11392811943E+04  0.25500000920E-02 0. -1.
</event>
<event>
 5   0  0.1078103E-05  0.2819329E+04  0.7818609E-02  0.8297293E-01
        1   -1    0    0  501    0  0.00000000000E+00  0.00000000000E+00  0.16313304079E+04  0.16313304079E+04  0.50400001928E-02 0. -1.
       -1   -1    0    0    0  501  0.00000000000E+00  0.00000000000E+00 -0.12181182934E+04  0.12181182934E+04  0.50400001928E-02 0.  1.
    10030    2    1    2    0    0  0.00000000000E+00  0.00000000000E+00  0.41321211443E+03  0.28494487013E+04  0.28193285814E+04 0.  0.
        1    1    3    3  502    0  0.25463587565E+03 -0.13524956918E+04  0.51493803953E+03  0.14694370385E+04  0.50400001928E-02 0.  1.
       -1    1    3    3    0  502 -0.25463587565E+03  0.13524956918E+04 -0.10172592510E+03  0.13800116628E+04  0.50400001928E-02 0. -1.
</event>
<event>
 5   0  0.2588048E-05  0.2788462E+04  0.7818609E-02  0.8306859E-01
        2   -1    0    0  501    0  0.00000000000E+00  0.00000000000E+00  0.15296527259E+04  0.15296527259E+04  0.25500000920E-02 0.  1.
       -2   -1    0    0    0  501  0.00000000000E+00  0.00000000000E+00 -0.12707985989E+04  0.12707985989E+04  0.25500000920E-02 0. -1.
    10030    2    1    2    0    0  0.00000000000E+00  0.00000000000E+00  0.25885412696E+03  0.28004513248E+04  0.27884623296E+04 0.  0.
        2    1    3    3  502    0  0.12344878736E+04  0.60855549024E+03  0.35305108909E+03  0.14208959027E+04  0.25500000920E-02 0. -1.
       -2    1    3    3    0  502 -0.12344878736E+04 -0.60855549024E+03 -0.94196962129E+02  0.13795554221E+04  0.25500000920E-02 0.  1.
</event>
<event>
 5   0  0.1075146E-05  0.2714262E+04  0.7818609E-02  0.8330392E-01
       -1   -1    0    0    0  501  0.00000000000E+00  0.00000000000E+00  0.83481395978E+03  0.83481395980E+03  0.50400001928E-02 0. -1.
        1   -1    0    0  501    0  0.00000000000E+00  0.00000000000E+00 -0.22062459773E+04  0.22062459773E+04  0.50400001928E-02 0.  1.
    10030    2    1    2    0    0  0.00000000000E+00  0.00000000000E+00 -0.13714320175E+04  0.30410599371E+04  0.27142622869E+04 0.  0.
        2    1    3    3  502    0  0.27905586341E+03 -0.38017227651E+03  0.74005728942E+03  0.87754653801E+03  0.25500000920E-02 0. -1.
       -2    1    3    3    0  502 -0.27905586341E+03  0.38017227651E+03 -0.21114893069E+04  0.21635133991E+04  0.25500000920E-02 0.  1.
</event>
<event>
 5   0  0.1017456E-05  0.2753842E+04  0.7818609E-02  0.8317744E-01
        1   -1    0    0  501    0  0.00000000000E+00  0.00000000000E+00  0.12014016078E+04  0.12014016079E+04  0.50400001928E-02 0.  1.
       -1   -1    0    0    0  501  0.00000000000E+00  0.00000000000E+00 -0.15780828132E+04  0.15780828132E+04  0.50400001928E-02 0. -1.
    10030    2    1    2    0    0  0.00000000000E+00  0.00000000000E+00 -0.37668120537E+03  0.27794844211E+04  0.27538418467E+04 0.  0.
        5    1    3    3  502    0 -0.10960402986E+04 -0.31356904701E+03  0.59102783833E+03  0.12841206638E+04  0.46999998093E+01 0.  1.
       -5    1    3    3    0  502  0.10960402986E+04  0.31356904701E+03 -0.96770904369E+03  0.14953637573E+04  0.46999998093E+01 0. -1.
</event>
<event>
 5   0  0.2697964E-05  0.2767783E+04  0.7818609E-02  0.8313341E-01
        2   -1    0    0  501    0  0.00000000000E+00  0.00000000000E+00  0.17169198729E+04  0.17169198729E+04  0.25500000920E-02 0. -1.
       -2   -1    0    0    0  501  0.00000000000E+00  0.00000000000E+00 -0.11154605145E+04  0.11154605145E+04  0.25500000920E-02 0.  1.
    10030    2    1    2    0    0  0.00000000000E+00  0.00000000000E+00  0.60145935842E+03  0.28323803874E+04  0.27677834632E+04 0.  0.
        1    1    3    3  502    0  0.10266625213E+04 -0.43001627332E+03 -0.54077998059E+03  0.12374946123E+04  0.50400001928E-02 0.  1.
       -1    1    3    3    0  502 -0.10266625213E+04  0.43001627332E+03  0.11422393390E+04  0.15948857751E+04  0.50400001928E-02 0. -1.
</event>
<event>
 5   0  0.2697964E-05  0.2829728E+04  0.7818609E-02  0.8294098E-01
       -2   -1    0    0    0  501  0.00000000000E+00  0.00000000000E+00  0.87249798910E+03  0.87249798911E+03  0.25500000920E-02 0.  1.
        2   -1    0    0  501    0  0.00000000000E+00  0.00000000000E+00 -0.22943775832E+04  0.22943775832E+04  0.25500000920E-02 0. -1.
    10030    2    1    2    0    0  0.00000000000E+00  0.00000000000E+00 -0.14218795941E+04  0.31668755723E+04  0.28297277803E+04 0.  0.
        1    1    3    3  502    0  0.36296361948E+03  0.41313567039E+03 -0.21698757038E+04  0.22384781082E+04  0.50400001928E-02 0. -1.
       -1    1    3    3    0  502 -0.36296361948E+03 -0.41313567039E+03  0.74799610967E+03  0.92839746408E+03  0.50400001928E-02 0.  1.
</event>
<event>
 5   0  0.2588048E-05  0.2700543E+04  0.7818609E-02  0.8334829E-01
        2   -1    0    0  501    0  0.00000000000E+00  0.00000000000E+00  0.14724877790E+04  0.14724877790E+04  0.25500000920E-02 0.  1.
       -2   -1    0    0    0  501  0.00000000000E+00  0.00000000000E+00 -0.12381992656E+04  0.12381992656E+04  0.25500000920E-02 0. -1.
    10030    2    1    2    0    0  0.00000000000E+00  0.00000000000E+00  0.23428851338E+03  0.27106870446E+04  0.27005431206E+04 0.  0.
        2    1    3    3  502    0 -0.51270531150E+03 -0.12336513965E+04 -0.79732193936E+02  0.13383272123E+04  0.25500000920E-02 0. -1.
       -2    1    3    3    0  502  0.51270531150E+03  0.12336513965E+04  0.31402070731E+03  0.13723598322E+04  0.25500000920E-02 0.  1.
</event>
<event>
 5   0  0.2518686E-05  0.2692252E+04  0.7818609E-02  0.8337523E-01
        2   -1    0    0  501    0  0.00000000000E+00  0.00000000000E+00  0.15719598832E+04  0.15719598832E+04  0.25500000920E-02 0. -1.
       -2   -1    0    0    0  501  0.00000000000E+00  0.00000000000E+00 -0.11527361868E+04  0.11527361868E+04  0.25500000920E-02 0.  1.
    10030    2    1    2    0    0  0.00000000000E+00  0.00000000000E+00  0.41922369646E+03  0.27246960700E+04  0.26922518764E+04 0.  0.
        5    1    3    3  502    0 -0.11863117300E+04 -0.48341084115E+03 -0.20890687805E+03  0.12979544428E+04  0.46999998093E+01 0.  1.
       -5    1    3    3    0  502  0.11863117300E+04  0.48341084115E+03  0.62813057452E+03  0.14267416272E+04  0.46999998093E+01 0. -1.
</event>
<event>
 5   0  0.1067434E-05  0.2772172E+04  0.7818609E-02  0.8311960E-01
       -1   -1    0    0    0  501  0.00000000000E+00  0.00000000000E+00  0.13549213327E+04  0.13549213328E+04  0.50400001928E-02 0. -1.
        1   -1    0    0  501    0  0.00000000000E+00  0.00000000000E+00 -0.14179679487E+04  0.14179679487E+04  0.50400001928E-02 0.  1.
    10030    2    1    2    0    0  0.00000000000E+00  0.00000000000E+00 -0.63046615967E+02  0.27728892815E+04  0.27721724498E+04 0.  0.
        4    1    3    3  502    0  0.93368558991E+03  0.36492261285E+03 -0.98900440490E+03  0.14082146924E+04  0.12699999809E+01 0.  1.
       -4    1    3    3    0  502 -0.93368558991E+03 -0.36492261285E+03  0.92595778893E+03  0.13646745890E+04  0.12699999809E+01 0. -1.
</event>
<event>
 5   0  0.2697964E-05  0.2812468E+04  0.7818609E-02  0.8299408E-01
       -2   -1    0    0    0  501  0.00000000000E+00  0.00000000000E+00  0.66947614998E+03  0.66947614998E+03  0.25500000920E-02 0. -1.
        2   -1    0    0  501    0  0.00000000000E+00  0.00000000000E+00 -0.29537930301E+04  0.29537930301E+04  0.25500000920E-02 0.  1.
    10030    2    1    2    0    0  0.00000000000E+00  0.00000000000E+00 -0.22843168801E+04  0.36232691801E+04  0.28124679451E+04 0.  0.
        1    1    3    3  502    0 -0.58602418485E+03 -0.18018009364E+03  0.48822853031E+03  0.78374505370E+03  0.50400001928E-02 0. -1.
       -1    1    3    3    0  502  0.58602418485E+03  0.18018009364E+03 -0.27725454104E+04  0.28395241264E+04  0.50400001928E-02 0.  1.
</event>
<event>
 5   0  0.1078103E-05  0.2399386E+04  0.7818609E-02  0.8439734E-01
       -1   -1    0    0    0  501  0.00000000000E+00  0.00000000000E+00  0.13486452185E+04  0.13486452185E+04  0.50400001928E-02 0.  1.
        1   -1    0    0  501    0  0.00000000000E+00  0.00000000000E+00 -0.10671916326E+04  0.10671916326E+04  0.50400001928E-02 0. -1.
    10030    2    1    2    0    0  0.00000000000E+00  0.00000000000E+00  0.28145358594E+03  0.24158368511E+04  0.23993856652E+04 0.  0.
        1    1    3    3  502    0 -0.11211903022E+04 -0.42603568417E+03  0.16715163551E+03  0.12109970137E+04  0.50400001928E-02 0. -1.
       -1    1    3    3    0  502  0.11211903022E+04  0.42603568417E+03  0.11430195043E+03  0.12048398374E+04  0.50400001928E-02 0.  1.
</event>
<event>
 5   0  0.1075146E-05  0.2818034E+04  0.7818609E-02  0.8297691E-01
        1   -1    0    0  501    0  0.00000000000E+00  0.00000000000E+00  0.79671020758E+03  0.79671020760E+03  0.50400001928E-02 0. -1.
       -1   -1    0    0    0  501  0.00000000000E+00  0.00000000000E+00 -0.24919075899E+04  0.24919075899E+04  0.50400001928E-02 0.  1.
    10030    2    1    2    0    0  0.00000000000E+00  0.00000000000E+00 -0.16951973823E+04  0.32886177975E+04  0.28180335081E+04 0.  0.
        2    1    3    3  502    0  0.10620214372E+03 -0.12512392677E+04 -0.15934229312E+04  0.20287619964E+04  0.25500000920E-02 0.  1.
       -2    1    3    3    0  502 -0.10620214372E+03  0.12512392677E+04 -0.10177445106E+03  0.12598558010E+04  0.25500000920E-02 0. -1.
</event>
<event>
 5   0  0.1078103E-05  0.2733400E+04  0.7818609E-02  0.8324248E-01
        1   -1    0    0  501    0  0.00000000000E+00  0.00000000000E+00  0.19387550726E+04  0.19387550726E+04  0.50400001928E-02 0. -1.
       -1   -1    0    0    0  501  0.00000000000E+00  0.00000000000E+00 -0.96343755862E+03  0.96343755863E+03  0.50400001928E-02 0.  1.
    10030    2    1    2    0    0  0.00000000000E+00  0.00000000000E+00  0.97531751400E+03  0.29021926313E+04  0.27334004126E+04 0.  0.
        1    1    3    3  502    0  0.56695152724E+03 -0.12010522753E+04  0.82991332414E+03  0.15661151707E+04  0.50400001928E-02 0. -1.
       -1    1    3    3    0  502 -0.56695152724E+03  0.12010522753E+04  0.14540418986E+03  0.13360774606E+04  0.50400001928E-02 0.  1.
</event>
<event>
 5   0  0.1017456E-05  0.2832997E+04  0.7818609E-02  0.8293097E-01
       -1   -1    0    0    0  501  0.00000000000E+00  0.00000000000E+00  0.15970322176E+04  0.15970322176E+04  0.50400001928E-02 0. -1.
        1   -1    0    0  501    0  0.00000000000E+00  0.00000000000E+00 -0.12563732677E+04  0.12563732677E+04  0.50400001928E-02 0.  1.
    10030    2    1    2    0    0  0.00000000000E+00  0.00000000000E+00  0.34065894991E+03  0.28534054854E+04  0.28329974133E+04 0.  0.
        5    1    3    3  502    0  0.23525863671E+03 -0.13425120166E+04  0.55880385003E+03  0.14730814552E+04  0.46999998093E+01 0. -1.
       -5    1    3    3    0  502 -0.23525863671E+03  0.13425120166E+04 -0.21814490012E+03  0.13803240302E+04  0.46999998093E+01 0.  1.
</event>
<event>
 5   0  0.1075146E-05  0.2660664E+04  0.7818609E-02  0.8347882E-01
       -1   -1    0    0    0  501  0.00000000000E+00  0.00000000000E+00  0.99305512509E+03  0.99305512511E+03  0.50400001928E-02 0.  1.
        1   -1    0    0  501    0  0.00000000000E+00  0.00000000000E+00 -0.17821605532E+04  0.17821605532E+04  0.50400001928E-02 0. -1.
    10030    2    1    2    0    0  0.00000000000E+00  0.00000000000E+00 -0.78910542810E+03  0.27752156783E+04  0.26606643314E+04 0.  0.
        2    1    3    3  502    0 -0.95652703717E+03 -0.78546548832E+03  0.11417917693E+03  0.12429549029E+04  0.25500000920E-02 0.  1.
       -2    1    3    3    0  502  0.95652703717E+03  0.78546548832E+03 -0.90328460504E+03  0.15322607754E+04  0.25500000920E-02 0. -1.
</event>
<event>
 5   0  0.2697964E-05  0.2447000E+04  0.7818609E-02  0.8422114E-01
       -2   -1    0    0    0  501  0.00000000000E+00  0.00000000000E+00  0.10231948900E+04  0.10231948900E+04  0.25500000920E-02 0. -1.
        2   -1    0    0  501    0  0.00000000000E+00  0.00000000000E+00 -0.14630180756E+04  0.14630180756E+04  0.25500000920E-02 0.  1.
    10030    2    1    2    0    0  0.00000000000E+00  0.00000000000E+00 -0.43982318561E+03  0.24862129655E+04  0.24470003015E+04 0.  0.
        1    1    3    3  502    0  0.44428672528E+03  0.12944110172E+03 -0.13706721082E+04  0.14466816241E+04  0.50400001928E-02 0.  1.
       -1    1    3    3    0  502 -0.44428672528E+03 -0.12944110172E+03  0.93084892263E+03  0.10395313415E+04  0.50400001928E-02 0. -1.
</event>
<event>
 5   0  0.2651061E-05  0.2537090E+04  0.7818609E-02  0.8389890E-01
       -2   -1    0    0    0  501  0.00000000000E+00  0.00000000000E+00  0.11514218614E+04  0.11514218614E+04  0.25500000920E-02 0.  1.
        2   -1    0    0  501    0  0.00000000000E+00  0.00000000000E+00 -0.13975814935E+04  0.13975814935E+04  0.25500000920E-02 0. -1.
    10030    2    1    2    0    0  0.00000000000E+00  0.00000000000E+00 -0.24615963217E+03  0.25490033549E+04  0.25370895803E+04 0.  0.
        3    1    3    3  502    0 -0.13088699501E+03  0.14788289375E+03  0.11358827000E+04  0.11529224927E+04  0.10100000352E+00 0.  1.
       -3    1    3    3    0  502  0.13088699501E+03 -0.14788289375E+03 -0.13820423322E+04  0.13960808622E+04  0.10100000352E+00 0. -1.
</event>
<event>
 5   0  0.1078103E-05  0.2349886E+04  0.7818609E-02  0.8458507E-01
        1   -1    0    0  501    0  0.00000000000E+00  0.00000000000E+00  0.10694286626E+04  0.10694286626E+04  0.50400001928E-02 0.  1.
       -1   -1    0    0    0  501  0.00000000000E+00  0.00000000000E+00 -0.12908677787E+04  0.12908677787E+04  0.50400001928E-02 0. -1.
    10030    2    1    2    0    0  0.00000000000E+00  0.00000000000E+00 -0.22143911614E+03  0.23602964413E+04  0.23498859566E+04 0.  0.
        1    1    3    3  502    0  0.94162174124E+03  0.69865606791E+03 -0.34759146580E+02  0.11730217402E+04  0.50400001928E-02 0.  1.
       -1    1    3    3    0  502 -0.94162174124E+03 -0.69865606791E+03 -0.18667996956E+03  0.11872747011E+04  0.50400001928E-02 0. -1.
</event>
<event>
 5   0  0.1075146E-05  0.2579437E+04  0.7818609E-02  0.8375220E-01
       -1   -1    0    0    0  501  0.00000000000E+00  0.00000000000E+00  0.10576988218E+04  0.10576988218E+04  0.50400001928E-02 0.  1.
        1   -1    0    0  501    0  0.00000000000E+00  0.00000000000E+00 -0.15726343027E+04  0.15726343027E+04  0.50400001928E-02 0. -1.
    10030    2    1    2    0    0  0.00000000000E+00  0.00000000000E+00 -0.51493548095E+03  0.26303331245E+04  0.25794367207E+04 0.  0.
        2    1    3    3  502    0  0.50691064646E+03 -0.11823544897E+04 -0.35122154487E+03  0.13335205722E+04  0.25500000920E-02 0. -1.
       -2    1    3    3    0  502 -0.50691064646E+03  0.11823544897E+04 -0.16371393609E+03  0.12968125523E+04  0.25500000920E-02 0.  1.
</event>
<event>
 5   0  0.1078103E-05  0.1767648E+04  0.7818609E-02  0.8723696E-01
       -1   -1    0    0    0  501  0.00000000000E+00  0.00000000000E+00  0.55045925870E+03  0.55045925873E+03  0.50400001928E-02 0. -1.
        1   -1    0    0  501    0  0.00000000000E+00  0.00000000000E+00 -0.14190786725E+04  0.14190786725E+04  0.50400001928E-02 0.  1.
    10030    2    1    2    0    0  0.00000000000E+00  0.00000000000E+00 -0.86861941377E+03  0.19695379312E+04  0.17676481484E+04 0.  0.
        1    1    3    3  502    0  0.67647725243E+03 -0.10592994727E+01 -0.10680636927E+04  0.12642715875E+04  0.50400001928E-02 0.  1.
       -1    1    3    3    0  502 -0.67647725243E+03  0.10592994727E+01  0.19944427895E+03  0.70526634374E+03  0.50400001928E-02 0. -1.
</event>
<event>
 5   0  0.1075146E-05  0.2760628E+04  0.7818609E-02  0.8315597E-01
        1   -1    0    0  501    0  0.00000000000E+00  0.00000000000E+00  0.13101393852E+04  0.13101393852E+04  0.50400001928E-02 0.  1.
       -1   -1    0    0    0  501  0.00000000000E+00  0.00000000000E+00 -0.14542476133E+04  0.14542476133E+04  0.50400001928E-02 0. -1.
    10030    2    1    2    0    0  0.00000000000E+00  0.00000000000E+00 -0.14410822807E+03  0.27643869985E+04  0.27606282431E+04 0.  0.
        2    1    3    3  502    0 -0.13256792161E+04  0.20100429880E+02  0.31244481430E+03  0.13621494681E+04  0.25500000920E-02 0.  1.
       -2    1    3    3    0  502  0.13256792161E+04 -0.20100429880E+02 -0.45655304237E+03  0.14022375305E+04  0.25500000920E-02 0. -1.
</event>
<event>
 5   0  0.1105862E-05  0.2780340E+04  0.7818609E-02  0.8309398E-01
        1   -1    0    0  501    0  0.00000000000E+00  0.00000000000E+00  0.10249038892E+04  0.10249038892E+04  0.50400001928E-02 0.  1.
       -1   -1    0    0    0  501  0.00000000000E+00  0.00000000000E+00 -0.18856136358E+04  0.18856136358E+04  0.50400001928E-02 0. -1.
    10030    2    1    2    0    0  0.00000000000E+00  0.00000000000E+00 -0.86070974665E+03  0.29105175251E+04  0.27803400863E+04 0.  0.
        3    1    3    3  502    0  0.97573965919E+03  0.44835831497E+03  0.49386370809E+03  0.11819451906E+04  0.10100000352E+00 0.  1.
       -3    1    3    3    0  502 -0.97573965919E+03 -0.44835831497E+03 -0.13545734547E+04  0.17285723345E+04  0.10100000352E+00 0. -1.
</event>
<event>
 5   0  0.2697964E-05  0.2789474E+04  0.7818609E-02  0.8306544E-01
        2   -1    0    0  501    0  0.00000000000E+00  0.00000000000E+00  0.25055888935E+04  0.25055888935E+04  0.25500000920E-02 0.  1.
       -2   -1    0    0    0  501  0.00000000000E+00  0.00000000000E+00 -0.77638066657E+03  0.77638066657E+03  0.25500000920E-02 0. -1.
    10030    2    1    2    0    0  0.00000000000E+00  0.00000000000E+00  0.17292082270E+04  0.32819695601E+04  0.27894736244E+04 0.  0.
        1    1    3    3  502    0  0.88391414831E+02  0.48256165344E+03 -0.67151558368E+03  0.83163211262E+03  0.50400001928E-02 0. -1.
       -1    1    3    3    0  502 -0.88391414831E+02 -0.48256165344E+03  0.24007238106E+04  0.24503374475E+04  0.50400001928E-02 0.  1.
</event>
<event>
 5   0  0.1017456E-05  0.2799351E+04  0.7818609E-02  0.8303470E-01
       -1   -1    0    0    0  501  0.00000000000E+00  0.00000000000E+00  0.15061911039E+04  0.15061911039E+04  0.50400001928E-02 0. -1.
        1   -1    0    0  501    0  0.00000000000E+00  0.00000000000E+00 -0.13006929452E+04  0.13006929452E+04  0.50400001928E-02 0.  1.
    10030    2    1    2    0    0  0.00000000000E+00  0.00000000000E+00  0.20549815872E+03  0.28068840491E+04  0.27993514556E+04 0.  0.
        5    1    3    3  502    0 -0.61261046614E+03  0.73519885933E+02  0.13624629395E+04  0.14956684487E+04  0.46999998093E+01 0. -1.
       -5    1    3    3    0  502  0.61261046614E+03 -0.73519885933E+02 -0.11569647808E+04  0.13112156004E+04  0.46999998093E+01 0.  1.
</event>
<event>
 5   0  0.2588048E-05  0.2740885E+04  0.7818609E-02  0.8321860E-01
        2   -1    0    0  501    0  0.00000000000E+00  0.00000000000E+00  0.16717647023E+04  0.16717647023E+04  0.25500000920E-02 0. -1.
       -2   -1    0    0    0  501  0.00000000000E+00  0.00000000000E+00 -0.11234309291E+04  0.11234309291E+04  0.25500000920E-02 0.  1.
    10030    2    1    2    0    0  0.00000000000E+00  0.00000000000E+00  0.54833377317E+03  0.27951956314E+04  0.27408846548E+04 0.  0.
        2    1    3    3  502    0  0.11542946369E+03  0.25371255997E+03 -0.10942175955E+04  0.11291617114E+04  0.25500000920E-02 0.  1.
       -2    1    3    3    0  502 -0.11542946369E+03 -0.25371255997E+03  0.16425513686E+04  0.16660339201E+04  0.25500000920E-02 0. -1.
</event>
<event>
 5   0  0.1075146E-05  0.2642908E+04  0.7818609E-02  0.8353771E-01
        1   -1    0    0  501    0  0.00000000000E+00  0.00000000000E+00  0.85147392281E+03  0.85147392283E+03  0.50400001928E-02 0.  1.
       -1   -1    0    0    0  501  0.00000000000E+00  0.00000000000E+00 -0.20508442890E+04  0.20508442890E+04  0.50400001928E-02 0. -1.
    10030    2    1    2    0    0  0.00000000000E+00  0.00000000000E+00 -0.11993703662E+04  0.29023182119E+04  0.26429078167E+04 0.  0.
        2    1    3    3  502    0 -0.20389900233E+03  0.12515879693E+04 -0.10079165046E+04  0.16198589224E+04  0.25500000920E-02 0.  1.
       -2    1    3    3    0  502  0.20389900233E+03 -0.12515879693E+04 -0.19145386164E+03  0.12824592895E+04  0.25500000920E-02 0. -1.
</event>
<event>
 5   0  0.2651061E-05  0.2867583E+04  0.7818609E-02  0.8282588E-01
        2   -1    0    0  501    0  0.00000000000E+00  0.00000000000E+00  0.10004279313E+04  0.10004279313E+04  0.25500000920E-02 0.  1.
       -2   -1    0    0    0  501  0.00000000000E+00  0.00000000000E+00 -0.20548785967E+04  0.20548785967E+04  0.25500000920E-02 0. -1.
    10030    2    1    2    0    0  0.00000000000E+00  0.00000000000E+00 -0.10544506654E+04  0.30553065281E+04  0.28675829150E+04 0.  0.
        3    1    3    3  502    0 -0.90331785789E+03  0.48475656916E+03 -0.15952359225E+04  0.18962462241E+04  0.10100000352E+00 0. -1.
       -3    1    3    3    0  502  0.90331785789E+03 -0.48475656916E+03  0.54078525710E+03  0.11590603040E+04  0.10100000352E+00 0.  1.
</event>
<event>
 5   0  0.1078103E-05  0.2903105E+04  0.7818609E-02  0.8271954E-01
       -1   -1    0    0    0  501  0.00000000000E+00  0.00000000000E+00  0.21776889856E+04  0.21776889857E+04  0.50400001928E-02 0. -1.
        1   -1    0    0  501    0  0.00000000000E+00  0.00000000000E+00 -0.96754125676E+03  0.96754125678E+03  0.50400001928E-02 0.  1.
    10030    2    1    2    0    0  0.00000000000E+00  0.00000000000E+00  0.12101477289E+04  0.31452302424E+04  0.29031045025E+04 0.  0.
        1    1    3    3  502    0  0.13424460262E+02  0.75496627078E+03 -0.73801721656E+03  0.10558521194E+04  0.50400001928E-02 0.  1.
       -1    1    3    3    0  502 -0.13424460262E+02 -0.75496627078E+03  0.19481649454E+04  0.20893781230E+04  0.50400001928E-02 0. -1.
</event>
<event>
 5   0  0.2651061E-05  0.1787898E+04  0.7818609E-02  0.8712762E-01
       -2   -1    0    0    0  501  0.00000000000E+00  0.00000000000E+00  0.67330291175E+03  0.67330291175E+03  0.25500000920E-02 0.  1.
        2   -1    0    0  501    0  0.00000000000E+00  0.00000000000E+00 -0.11869025875E+04  0.11869025875E+04  0.25500000920E-02 0. -1.
    10030    2    1    2    0    0  0.00000000000E+00  0.00000000000E+00 -0.51359967571E+03  0.18602054992E+04  0.17878981717E+04 0.  0.
        3    1    3    3  502    0  0.28597529588E+03  0.56827881833E+03 -0.91022952115E+03  0.11105136094E+04  0.10100000352E+00 0. -1.
       -3    1    3    3    0  502 -0.28597529588E+03 -0.56827881833E+03  0.39662984543E+03  0.74969188985E+03  0.10100000352E+00 0.  1.
</event>
<event>
 5   0  0.1105862E-05  0.2766339E+04  0.7818609E-02  0.8313795E-01
       -1   -1    0    0    0  501  0.00000000000E+00  0.00000000000E+00  0.82533614284E+03  0.82533614285E+03  0.50400001928E-02 0. -1.
        1   -1    0    0  501    0  0.00000000000E+00  0.00000000000E+00 -0.23180353961E+04  0.23180353961E+04  0.50400001928E-02 0.  1.
    10030    2    1    2    0    0  0.00000000000E+00  0.00000000000E+00 -0.14926992532E+04  0.31433715389E+04  0.27663393810E+04 0.  0.
        3    1    3    3  502    0 -0.61418559275E+03 -0.11912256177E+04 -0.35781728819E+03  0.13871826255E+04  0.10100000352E+00 0. -1.
       -3    1    3    3    0  502  0.61418559275E+03  0.11912256177E+04 -0.11348819650E+04  0.17561889134E+04  0.10100000352E+00 0.  1.
</event>
<event>
 5   0  0.1017456E-05  0.1910400E+04  0.7818609E-02  0.8649697E-01
        1   -1    0    0  501    0  0.00000000000E+00  0.00000000000E+00  0.18420145461E+04  0.18420145461E+04  0.50400001928E-02 0. -1.
       -1   -1    0    0    0  501  0.00000000000E+00  0.00000000000E+00 -0.49533093415E+03  0.49533093417E+03  0.50400001928E-02 0.  1.
    10030    2    1    2    0    0  0.00000000000E+00  0.00000000000E+00  0.13466836120E+04  0.23373454803E+04  0.19103997340E+04 0.  0.
        5    1    3    3  502    0  0.51439265658E+03  0.71662742732E+03  0.11215951004E+04  0.14269380975E+04  0.46999998093E+01 0. -1.
       -5    1    3    3    0  502 -0.51439265658E+03 -0.71662742732E+03  0.22508851158E+03  0.91040738286E+03  0.46999998093E+01 0.  1.
</event>
<event>
 5   0  0.1105862E-05  0.2767199E+04  0.7818609E-02  0.8313525E-01
       -1   -1    0    0    0  501  0.00000000000E+00  0.00000000000E+00  0.18169729606E+04  0.18169729606E+04  0.50400001928E-02 0. -1.
        1   -1    0    0  501    0  0.00000000000E+00  0.00000000000E+00 -0.10535915029E+04  0.10535915029E+04  0.50400001928E-02 0.  1.
    10030    2    1    2    0    0  0.00000000000E+00  0.00000000000E+00  0.76338145767E+03  0.28705644635E+04  0.27671987802E+04 0.  0.
        3    1    3    3  502    0 -0.97632073861E+03  0.53831931634E+02  0.13971575222E+04  0.17053296495E+04  0.10100000352E+00 0. -1.
       -3    1    3    3    0  502  0.97632073861E+03 -0.53831931634E+02 -0.63377606453E+03  0.11652348140E+04  0.10100000352E+00 0.  1.
</event>
<event>
 5   0  0.2518686E-05  0.2745892E+04  0.7818609E-02  0.8320266E-01
       -2   -1    0    0    0  501  0.00000000000E+00  0.00000000000E+00  0.89378871024E+03  0.89378871024E+03  0.25500000920E-02 0. -1.
        2   -1    0    0  501    0  0.00000000000E+00  0.00000000000E+00 -0.21089783833E+04  0.21089783833E+04  0.25500000920E-02 0.  1.
    10030    2    1    2    0    0  0.00000000000E+00  0.00000000000E+00 -0.12151896731E+04  0.30027670936E+04  0.27458922551E+04 0.  0.
        5    1    3    3  502    0 -0.61714807873E+03  0.12232670482E+04 -0.70358423337E+03  0.15402294912E+04  0.46999998093E+01 0. -1.
       -5    1    3    3    0  502  0.61714807873E+03 -0.12232670482E+04 -0.51160543971E+03  0.14625376023E+04  0.46999998093E+01 0.  1.
</event>
<event>
 5   0  0.2697964E-05  0.2491252E+04  0.7818609E-02  0.8406109E-01
       -2   -1    0    0    0  501  0.00000000000E+00  0.00000000000E+00  0.11131003284E+04  0.11131003284E+04  0.25500000920E-02 0. -1.
        2   -1    0    0  501    0  0.00000000000E+00  0.00000000000E+00 -0.13939300735E+04  0.13939300735E+04  0.25500000920E-02 0.  1.
    10030    2    1    2    0    0  0.00000000000E+00  0.00000000000E+00 -0.28082974510E+03  0.25070304018E+04  0.24912519122E+04 0.  0.
        1    1    3    3  502    0 -0.29889482417E+03  0.14968553696E+03 -0.13479481134E+04  0.13887793174E+04  0.50400001928E-02 0.  1.
       -1    1    3    3    0  502  0.29889482417E+03 -0.14968553696E+03  0.10671183683E+04  0.11182510845E+04  0.50400001928E-02 0. -1.
</event>
<event>
 5   0  0.2697964E-05  0.2644711E+04  0.7818609E-02  0.8353171E-01
       -2   -1    0    0    0  501  0.00000000000E+00  0.00000000000E+00  0.67667381627E+03  0.67667381628E+03  0.25500000920E-02 0. -1.
        2   -1    0    0  501    0  0.00000000000E+00  0.00000000000E+00 -0.25841462862E+04  0.25841462862E+04  0.25500000920E-02 0.  1.
    10030    2    1    2    0    0  0.00000000000E+00  0.00000000000E+00 -0.19074724699E+04  0.32608201025E+04  0.26447110461E+04 0.  0.
        1    1    3    3  502    0  0.12152012013E+04 -0.12558177913E+03 -0.32973306933E+03  0.12653887308E+04  0.50400001928E-02 0. -1.
       -1    1    3    3    0  502 -0.12152012013E+04  0.12558177913E+03 -0.15777394006E+04  0.19954313717E+04  0.50400001928E-02 0.  1.
</event>
<event>
 5   0  0.1075146E-05  0.2799843E+04  0.7818609E-02  0.8303317E-01
        1   -1    0    0  501    0  0.00000000000E+00  0.00000000000E+00  0.13108978847E+04  0.13108978848E+04  0.50400001928E-02 0. -1.
       -1   -1    0    0    0  501  0.00000000000E+00  0.00000000000E+00 -0.14949904287E+04  0.14949904287E+04  0.50400001928E-02 0.  1.
    10030    2    1    2    0    0  0.00000000000E+00  0.00000000000E+00 -0.18409254393E+03  0.28058883134E+04  0.27998427032E+04 0.  0.
        2    1    3    3  502    0  0.12001643503E+04 -0.69557293550E+03 -0.28103664948E+03  0.14153436949E+04  0.25500000920E-02 0.  1.
       -2    1    3    3    0  502 -0.12001643503E+04  0.69557293550E+03  0.96944105550E+02  0.13905446185E+04  0.25500000920E-02 0. -1.
</event>
<event>
 5   0  0.2518686E-05  0.2746011E+04  0.7818609E-02  0.8320229E-01
        2   -1    0    0  501    0  0.00000000000E+00  0.00000000000E+00  0.19233340824E+04  0.19233340824E+04  0.25500000920E-02 0. -1.
       -2   -1    0    0    0  501  0.00000000000E+00  0.00000000000E+00 -0.98014384870E+03  0.98014384871E+03  0.25500000920E-02 0.  1.
    10030    2    1    2    0    0  0.00000000000E+00  0.00000000000E+00  0.94319023367E+03  0.29034779311E+04  0.27460109758E+04 0.  0.
        5    1    3    3  502    0  0.80306862768E+02  0.34524203405E+03 -0.93092312117E+03  0.99613312454E+03  0.46999998093E+01 0.  1.
       -5    1    3    3    0  502 -0.80306862768E+02 -0.34524203405E+03  0.18741133548E+04  0.19073448065E+04  0.46999998093E+01 0. -1.
</event>
<event>
 5   0  0.2588048E-05  0.2944817E+04  0.7818609E-02  0.8259667E-01
        2   -1    0    0  501    0  0.00000000000E+00  0.00000000000E+00  0.18021248452E+04  0.18021248452E+04  0.25500000920E-02 0. -1.
       -2   -1    0    0    0  501  0.00000000000E+00  0.00000000000E+00 -0.12030167700E+04  0.12030167700E+04  0.25500000920E-02 0.  1.
    10030    2    1    2    0    0  0.00000000000E+00  0.00000000000E+00  0.59910807524E+03  0.30051416152E+04  0.29448167415E+04 0.  0.
        2    1    3    3  502    0 -0.12145611944E+04  0.81184284452E+03  0.48699776580E+03  0.15399397790E+04  0.25500000920E-02 0.  1.
       -2    1    3    3    0  502  0.12145611944E+04 -0.81184284452E+03  0.11211030944E+03  0.14652018361E+04  0.25500000920E-02 0. -1.
</event>
<event>
 5   0  0.1017456E-05  0.2824151E+04  0.7818609E-02  0.8295810E-01
       -1   -1    0    0    0  501  0.00000000000E+00  0.00000000000E+00  0.15330702685E+04  0.15330702685E+04  0.50400001928E-02 0. -1.
        1   -1    0    0  501    0  0.00000000000E+00  0.00000000000E+00 -0.13006295945E+04  0.13006295945E+04  0.50400001928E-02 0.  1.
    10030    2    1    2    0    0  0.00000000000E+00  0.00000000000E+00  0.23244067396E+03  0.28336998630E+04  0.28241505354E+04 0.  0.
        5    1    3    3  502    0  0.12508076795E+04 -0.64274973938E+03 -0.11833264509E+02  0.14063460437E+04  0.46999998093E+01 0. -1.
       -5    1    3    3    0  502 -0.12508076795E+04  0.64274973938E+03  0.24427393847E+03  0.14273538193E+04  0.46999998093E+01 0.  1.
</event>
<event>
 5   0  0.1067434E-05  0.1405531E+04  0.7818609E-02  0.8949825E-01
        1   -1    0    0  501    0  0.00000000000E+00  0.00000000000E+00  0.54731371358E+03  0.54731371361E+03  0.50400001928E-02 0.  1.
       -1   -1    0    0    0  501  0.00000000000E+00  0.00000000000E+00 -0.90236971552E+03  0.90236971553E+03  0.50400001928E-02 0. -1.
    10030    2    1    2    0    0  0.00000000000E+00  0.00000000000E+00 -0.35505600194E+03  0.14496834291E+04  0.14055309602E+04 0.  0.
        4    1    3    3  502    0 -0.16436223554E+03  0.35917934198E+03 -0.77703826682E+03  0.87167357719E+03  0.12699999809E+01 0. -1.
       -4    1    3    3    0  502  0.16436223554E+03 -0.35917934198E+03  0.42198226488E+03  0.57800985195E+03  0.12699999809E+01 0.  1.
</event>
<event>
 5   0  0.1105862E-05  0.2615779E+04  0.7818609E-02  0.8362861E-01
        1   -1    0    0  501    0  0.00000000000E+00  0.00000000000E+00  0.19281127590E+04  0.19281127590E+04  0.50400001928E-02 0.  1.
       -1   -1    0    0    0  501  0.00000000000E+00  0.00000000000E+00 -0.88717597147E+03  0.88717597149E+03  0.50400001928E-02 0. -1.
    10030    2    1    2    0    0  0.00000000000E+00  0.00000000000E+00  0.10409367875E+04  0.28152887305E+04  0.26157792798E+04 0.  0.
        3    1    3    3  502    0  0.89017376954E+03  0.83498178527E+03  0.10263977255E+04  0.15947088207E+04  0.10100000352E+00 0. -1.
       -3    1    3    3    0  502 -0.89017376954E+03 -0.83498178527E+03  0.14539062053E+02  0.12205799098E+04  0.10100000352E+00 0.  1.
</event>
<event>
 5   0  0.1017456E-05  0.3054429E+04  0.7818609E-02  0.8228357E-01
       -1   -1    0    0    0  501  0.00000000000E+00  0.00000000000E+00  0.12506174318E+04  0.12506174318E+04  0.50400001928E-02 0. -1.
        1   -1    0    0  501    0  0.00000000000E+00  0.00000000000E+00 -0.18649854995E+04  0.18649854995E+04  0.50400001928E-02 0.  1.
    10030    2    1    2    0    0  0.00000000000E+00  0.00000000000E+00 -0.61436806772E+03  0.31156029314E+04  0.30544285068E+04 0.  0.
        5    1    3    3  502    0  0.58315304736E+02 -0.20648220451E+02 -0.18636995551E+04  0.18647319232E+04  0.46999998093E+01 0.  1.
       -5    1    3    3    0  502 -0.58315304736E+02  0.20648220451E+02  0.12493314874E+04  0.12508710082E+04  0.46999998093E+01 0. -1.
</event>
<event>
 5   0  0.2588048E-05  0.3120409E+04  0.7818609E-02  0.8210159E-01
       -2   -1    0    0    0  501  0.00000000000E+00  0.00000000000E+00  0.11453039124E+04  0.11453039124E+04  0.25500000920E-02 0.  1.
        2   -1    0    0  501    0  0.00000000000E+00  0.00000000000E+00 -0.21254077753E+04  0.21254077753E+04  0.25500000920E-02 0. -1.
    10030    2    1    2    0    0  0.00000000000E+00  0.00000000000E+00 -0.98010386291E+03  0.32707116878E+04  0.31204088454E+04 0.  0.
        2    1    3    3  502    0 -0.11991099712E+04 -0.65126774289E+03  0.30283924751E+03  0.13977574917E+04  0.25500000920E-02 0.  1.
       -2    1    3    3    0  502  0.11991099712E+04  0.65126774289E+03 -0.12829431104E+04  0.18729541960E+04  0.25500000920E-02 0. -1.
</event>
<event>
 5   0  0.2588048E-05  0.2841419E+04  0.7818609E-02  0.8290523E-01
        2   -1    0    0  501    0  0.00000000000E+00  0.00000000000E+00  0.14814427210E+04  0.14814427210E+04  0.25500000920E-02 0. -1.
       -2   -1    0    0    0  501  0.00000000000E+00  0.00000000000E+00 -0.13624665355E+04  0.13624665355E+04  0.25500000920E-02 0.  1.
    10030    2    1    2    0    0  0.00000000000E+00  0.00000000000E+00  0.11897618554E+03  0.28439092565E+04  0.28414194562E+04 0.  0.
        2    1    3    3  502    0  0.84698207549E+03  0.11237022341E+04  0.25544214020E+03  0.14301524514E+04  0.25500000920E-02 0.  1.
       -2    1    3    3    0  502 -0.84698207549E+03 -0.11237022341E+04 -0.13646595466E+03  0.14137568051E+04  0.25500000920E-02 0. -1.
</event>
<event>
 5   0  0.1067434E-05  0.2829057E+04  0.7818609E-02  0.8294304E-01
       -1   -1    0    0    0  501  0.00000000000E+00  0.00000000000E+00  0.94409409420E+03  0.94409409421E+03  0.50400001928E-02 0. -1.
        1   -1    0    0  501    0  0.00000000000E+00  0.00000000000E+00 -0.21193763114E+04  0.21193763114E+04  0.50400001928E-02 0.  1.
    10030    2    1    2    0    0  0.00000000000E+00  0.00000000000E+00 -0.11752822172E+04  0.30634704056E+04  0.28290568456E+04 0.  0.
        4    1    3    3  502    0 -0.82021937261E+03  0.52833421885E+02  0.65898241229E+03  0.10534754968E+04  0.12699999809E+01 0. -1.
       -4    1    3    3    0  502  0.82021937261E+03 -0.52833421885E+02 -0.18342646295E+04  0.20099949088E+04  0.12699999809E+01 0.  1.
</event>
<event>
 5   0  0.1078103E-05  0.2560988E+04  0.7818609E-02  0.8381575E-01
       -1   -1    0    0    0  501  0.00000000000E+00  0.00000000000E+00  0.11794757017E+04  0.11794757017E+04  0.50400001928E-02 0.  1.
        1   -1    0    0  501    0  0.00000000000E+00  0.00000000000E+00 -0.13901642869E+04  0.13901642870E+04  0.50400001928E-02 0. -1.
    10030    2    1    2    0    0  0.00000000000E+00  0.00000000000E+00 -0.21068858527E+03  0.25696399886E+04  0.25609880889E+04 0.  0.
        1    1    3    3  502    0 -0.12738187546E+04  0.66413731638E+02 -0.21815184212E+03  0.12940692522E+04  0.50400001928E-02 0. -1.
       -1    1    3    3    0  502  0.12738187546E+04 -0.66413731638E+02  0.74632568467E+01  0.12755707364E+04  0.50400001928E-02 0.  1.
</event>
<event>
 5   0  0.1078103E-05  0.2119833E+04  0.7818609E-02  0.8552557E-01
        1   -1    0    0  501    0  0.00000000000E+00  0.00000000000E+00  0.18790782987E+04  0.18790782987E+04  0.50400001928E-02 0. -1.
       -1   -1    0    0    0  501  0.00000000000E+00  0.00000000000E+00 -0.59785851936E+03  0.59785851938E+03  0.50400001928E-02 0.  1.
    10030    2    1    2    0    0  0.00000000000E+00  0.00000000000E+00  0.12812197794E+04  0.24769368181E+04  0.21198329835E+04 0.  0.
        1    1    3    3  502    0  0.98942712405E+03 -0.18538761920E+03  0.25292042723E+03  0.10379322452E+04  0.50400001928E-02 0. -1.
       -1    1    3    3    0  502 -0.98942712405E+03  0.18538761920E+03  0.10282993521E+04  0.14390045729E+04  0.50400001928E-02 0.  1.
</event>
<event>
 5   0  0.1017456E-05  0.2973123E+04  0.7818609E-02  0.8251448E-01
        1   -1    0    0  501    0  0.00000000000E+00  0.00000000000E+00  0.27371517976E+04  0.27371517976E+04  0.50400001928E-02 0. -1.
       -1   -1    0    0    0  501  0.00000000000E+00  0.00000000000E+00 -0.80735921325E+03  0.80735921327E+03  0.50400001928E-02 0.  1.
    10030    2    1    2    0    0  0.00000000000E+00  0.00000000000E+00  0.19297925844E+04  0.35445110109E+04  0.29731227502E+04 0.  0.
        5    1    3    3  502    0 -0.12883192478E+04  0.74166490324E+03  0.96853567955E+03  0.17742369530E+04  0.46999998093E+01 0. -1.
       -5    1    3    3    0  502  0.12883192478E+04 -0.74166490324E+03  0.96125690482E+03  0.17702740579E+04  0.46999998093E+01 0.  1.
</event>
<event>
 5   0  0.2624815E-05  0.2461429E+04  0.7818609E-02  0.8416857E-01
        2   -1    0    0  501    0  0.00000000000E+00  0.00000000000E+00  0.10223921173E+04  0.10223921173E+04  0.25500000920E-02 0.  1.
       -2   -1    0    0    0  501  0.00000000000E+00  0.00000000000E+00 -0.14814843117E+04  0.14814843117E+04  0.25500000920E-02 0. -1.
    10030    2    1    2    0    0  0.00000000000E+00  0.00000000000E+00 -0.45909219433E+03  0.25038764290E+04  0.24614287576E+04 0.  0.
        4    1    3    3  502    0 -0.11963670847E+03 -0.12244342991E+04 -0.26334519697E+03  0.12581353665E+04  0.12699999809E+01 0. -1.
       -4    1    3    3    0  502  0.11963670847E+03  0.12244342991E+04 -0.19574699736E+03  0.12457410625E+04  0.12699999809E+01 0.  1.
</event>
<event>
 5   0  0.2651061E-05  0.2696498E+04  0.7818609E-02  0.8336142E-01
       -2   -1    0    0    0  501  0.00000000000E+00  0.00000000000E+00  0.15662973366E+04  0.15662973366E+04  0.25500000920E-02 0. -1.
        2   -1    0    0  501    0  0.00000000000E+00  0.00000000000E+00 -0.11605555668E+04  0.11605555668E+04  0.25500000920E-02 0.  1.
    10030    2    1    2    0    0  0.00000000000E+00  0.00000000000E+00  0.40574176980E+03  0.27268529034E+04  0.26964977977E+04 0.  0.
        3    1    3    3  502    0  0.10596314239E+04 -0.83267108950E+03  0.24351267263E+03  0.13694737419E+04  0.10100000352E+00 0.  1.
       -3    1    3    3    0  502 -0.10596314239E+04  0.83267108950E+03  0.16222909717E+03  0.13573791615E+04  0.10100000352E+00 0. -1.
</event>
<event>
 5   0  0.2697964E-05  0.2681047E+04  0.7818609E-02  0.8341181E-01
        2   -1    0    0  501    0  0.00000000000E+00  0.00000000000E+00  0.15102260942E+04  0.15102260942E+04  0.25500000920E-02 0. -1.
       -2   -1    0    0    0  501  0.00000000000E+00  0.00000000000E+00 -0.11898899932E+04  0.11898899932E+04  0.25500000920E-02 0.  1.
    10030    2    1    2    0    0  0.00000000000E+00  0.00000000000E+00  0.32033610095E+03  0.27001160874E+04  0.26810467486E+04 0.  0.
        1    1    3    3  502    0  0.85304493619E+03  0.70588075212E+03 -0.60088507215E+03  0.12597682999E+04  0.50400001928E-02 0.  1.
       -1    1    3    3    0  502 -0.85304493619E+03 -0.70588075212E+03  0.92122117310E+03  0.14403477876E+04  0.50400001928E-02 0. -1.
</event>
<event>
 5   0  0.2651061E-05  0.2966154E+04  0.7818609E-02  0.8253462E-01
        2   -1    0    0  501    0  0.00000000000E+00  0.00000000000E+00  0.18413033430E+04  0.18413033430E+04  0.25500000920E-02 0.  1.
       -2   -1    0    0    0  501  0.00000000000E+00  0.00000000000E+00 -0.11945438818E+04  0.11945438818E+04  0.25500000920E-02 0. -1.
    10030    2    1    2    0    0  0.00000000000E+00  0.00000000000E+00  0.64675946114E+03  0.30358472248E+04  0.29661541720E+04 0.  0.
        3    1    3    3  502    0  0.10794101341E+04 -0.43380665769E+03 -0.61812719313E+03  0.13173441809E+04  0.10100000352E+00 0. -1.
       -3    1    3    3    0  502 -0.10794101341E+04  0.43380665769E+03  0.12648866543E+04  0.17185030440E+04  0.10100000352E+00 0.  1.
</event>
<event>
 5   0  0.2518686E-05  0.2655292E+04  0.7818609E-02  0.8349659E-01
        2   -1    0    0  501    0  0.00000000000E+00  0.00000000000E+00  0.14270476711E+04  0.14270476711E+04  0.25500000920E-02 0. -1.
       -2   -1    0    0    0  501  0.00000000000E+00  0.00000000000E+00 -0.12351680605E+04  0.12351680605E+04  0.25500000920E-02 0.  1.
    10030    2    1    2    0    0  0.00000000000E+00  0.00000000000E+00  0.19187961060E+03  0.26622157316E+04  0.26552918515E+04 0.  0.
        5    1    3    3  502    0  0.97102306653E+01 -0.62388025271E+03 -0.10789951166E+04  0.12464242496E+04  0.46999998093E+01 0.  1.
       -5    1    3    3    0  502 -0.97102306653E+01  0.62388025271E+03  0.12708747272E+04  0.14157914820E+04  0.46999998093E+01 0. -1.
</event>
<event>
 5   0  0.2518686E-05  0.2790877E+04  0.7818609E-02  0.8306106E-01
        2   -1    0    0  501    0  0.00000000000E+00  0.00000000000E+00  0.11817706213E+04  0.11817706213E+04  0.25500000920E-02 0.  1.
       -2   -1    0    0    0  501  0.00000000000E+00  0.00000000000E+00 -0.16477379464E+04  0.16477379464E+04  0.25500000920E-02 0. -1.
    10030    2    1    2    0    0  0.00000000000E+00  0.00000000000E+00 -0.46596732503E+03  0.28295085677E+04  0.27908767774E+04 0.  0.
        5    1    3    3  502    0 -0.56318552501E+03 -0.64172537246E+03  0.88603211947E+03  0.12304732407E+04  0.46999998093E+01 0.  1.
       -5    1    3    3    0  502  0.56318552501E+03  0.64172537246E+03 -0.13519994445E+04  0.15990353271E+04  0.46999998093E+01 0. -1.
</event>
<event>
 5   0  0.1105862E-05  0.2473651E+04  0.7818609E-02  0.8412433E-01
        1   -1    0    0  501    0  0.00000000000E+00  0.00000000000E+00  0.14032762692E+04  0.14032762692E+04  0.50400001928E-02 0.  1.
       -1   -1    0    0    0  501  0.00000000000E+00  0.00000000000E+00 -0.10901185119E+04  0.10901185119E+04  0.50400001928E-02 0. -1.
    10030    2    1    2    0    0  0.00000000000E+00  0.00000000000E+00  0.31315775728E+03  0.24933947810E+04  0.24736510977E+04 0.  0.
        3    1    3    3  502    0 -0.93789392943E+03 -0.60375873117E+03  0.69522956847E+03  0.13143491893E+04  0.10100000352E+00 0.  1.
       -3    1    3    3    0  502  0.93789392943E+03  0.60375873117E+03 -0.38207181119E+03  0.11790455918E+04  0.10100000352E+00 0. -1.
</event>
<event>
 5   0  0.2697964E-05  0.2852427E+04  0.7818609E-02  0.8287174E-01
       -2   -1    0    0    0  501  0.00000000000E+00  0.00000000000E+00  0.82491350239E+03  0.82491350239E+03  0.25500000920E-02 0. -1.
        2   -1    0    0  501    0  0.00000000000E+00  0.00000000000E+00 -0.24658155912E+04  0.24658155912E+04  0.25500000920E-02 0.  1.
    10030    2    1    2    0    0  0.00000000000E+00  0.00000000000E+00 -0.16409020888E+04  0.32907290936E+04  0.28524267392E+04 0.  0.
        1    1    3    3  502    0  0.31573877995E+03  0.62115418743E+03  0.61517656198E+03  0.92949755468E+03  0.50400001928E-02 0. -1.
       -1    1    3    3    0  502 -0.31573877995E+03 -0.62115418743E+03 -0.22560786508E+04  0.23612315389E+04  0.50400001928E-02 0.  1.
</event>
<event>
 5   0  0.1105862E-05  0.2771630E+04  0.7818609E-02  0.8312131E-01
        1   -1    0    0  501    0  0.00000000000E+00  0.00000000000E+00  0.16462444688E+04  0.16462444688E+04  0.50400001928E-02 0.  1.
       -1   -1    0    0    0  501  0.00000000000E+00  0.00000000000E+00 -0.11665841458E+04  0.11665841458E+04  0.50400001928E-02 0. -1.
    10030    2    1    2    0    0  0.00000000000E+00  0.00000000000E+00  0.47966032299E+03  0.28128286146E+04  0.27716296271E+04 0.  0.
        3    1    3    3  502    0 -0.10943617275E+04 -0.58618817906E+03 -0.38514721297E+03  0.12998394354E+04  0.10100000352E+00 0. -1.
       -3    1    3    3    0  502  0.10943617275E+04  0.58618817906E+03  0.86480753596E+03  0.15129891792E+04  0.10100000352E+00 0.  1.
</event>
<event>
 5   0  0.1075146E-05  0.2119231E+04  0.7818609E-02  0.8552819E-01
        1   -1    0    0  501    0  0.00000000000E+00  0.00000000000E+00  0.10973218305E+04  0.10973218305E+04  0.50400001928E-02 0. -1.
       -1   -1    0    0    0  501  0.00000000000E+00  0.00000000000E+00 -0.10232048078E+04  0.10232048078E+04  0.50400001928E-02 0.  1.
    10030    2    1    2    0    0  0.00000000000E+00  0.00000000000E+00  0.74117022767E+02  0.21205266383E+04  0.21192309668E+04 0.  0.
        2    1    3    3  502    0  0.71990122724E+03 -0.59846800695E+03  0.53371189081E+03  0.10776224361E+04  0.25500000920E-02 0. -1.
       -2    1    3    3    0  502 -0.71990122724E+03  0.59846800695E+03 -0.45959486804E+03  0.10429042022E+04  0.25500000920E-02 0.  1.
</event>
<event>
 5   0  0.1067434E-05  0.2768591E+04  0.7818609E-02  0.8313086E-01
        1   -1    0    0  501    0  0.00000000000E+00  0.00000000000E+00  0.12262592053E+04  0.12262592053E+04  0.50400001928E-02 0.  1.
       -1   -1    0    0    0  501  0.00000000000E+00  0.00000000000E+00 -0.15626992931E+04  0.15626992931E+04  0.50400001928E-02 0. -1.
    10030    2    1    2    0    0  0.00000000000E+00  0.00000000000E+00 -0.33644008773E+03  0.27889584984E+04  0.27685912615E+04 0.  0.
        4    1    3    3  502    0  0.86606704608E+03  0.10066746977E+04 -0.56200073196E+03  0.14419821466E+04  0.12699999809E+01 0. -1.
       -4    1    3    3    0  502 -0.86606704608E+03 -0.10066746977E+04  0.22556064423E+03  0.13469763519E+04  0.12699999809E+01 0.  1.
</event>
<event>
 5   0  0.2624815E-05  0.2697174E+04  0.7818609E-02  0.8335922E-01
        2   -1    0    0  501    0  0.00000000000E+00  0.00000000000E+00  0.17341198086E+04  0.17341198086E+04  0.25500000920E-02 0. -1.
       -2   -1    0    0    0  501  0.00000000000E+00  0.00000000000E+00 -0.10487668070E+04  0.10487668070E+04  0.25500000920E-02 0.  1.
    10030    2    1    2    0    0  0.00000000000E+00  0.00000000000E+00  0.68535300159E+03  0.27828866155E+04  0.26971742951E+04 0.  0.
        4    1    3    3  502    0 -0.65147871339E+03  0.11568261347E+04  0.58687139743E+03  0.14515821954E+04  0.12699999809E+01 0. -1.
       -4    1    3    3    0  502  0.65147871339E+03 -0.11568261347E+04  0.98481604156E+02  0.13313044202E+04  0.12699999809E+01 0.  1.
</event>
<event>
 5   0  0.1017456E-05  0.2823370E+04  0.7818609E-02  0.8296049E-01
        1   -1    0    0  501    0  0.00000000000E+00  0.00000000000E+00  0.22288596046E+04  0.22288596046E+04  0.50400001928E-02 0. -1.
       -1   -1    0    0    0  501  0.00000000000E+00  0.00000000000E+00 -0.89411399495E+03  0.89411399496E+03  0.50400001928E-02 0.  1.
    10030    2    1    2    0    0  0.00000000000E+00  0.00000000000E+00  0.13347456096E+04  0.31229735995E+04  0.28233700184E+04 0.  0.
        5    1    3    3  502    0 -0.54855436625E+03 -0.12921160262E+04  0.50198445242E+03  0.14908005227E+04  0.46999998093E+01 0. -1.
       -5    1    3    3    0  502  0.54855436625E+03  0.12921160262E+04  0.83276115719E+03  0.16321730769E+04  0.46999998093E+01 0.  1.
</event>
<event>
 5   0  0.1017456E-05  0.2832272E+04  0.7818609E-02  0.8293319E-01
       -1   -1    0    0    0  501  0.00000000000E+00  0.00000000000E+00  0.84131725583E+03  0.84131725585E+03  0.50400001928E-02 0. -1.
        1   -1    0    0  501    0  0.00000000000E+00  0.00000000000E+00 -0.23836924005E+04  0.23836924005E+04  0.50400001928E-02 0.  1.
    10030    2    1    2    0    0  0.00000000000E+00  0.00000000000E+00 -0.15423751446E+04  0.32250096563E+04  0.28322722674E+04 0.  0.
        5    1    3    3  502    0 -0.97906072778E+03  0.81105073974E+03 -0.60952333138E+02  0.12728316809E+04  0.46999998093E+01 0. -1.
       -5    1    3    3    0  502  0.97906072778E+03 -0.81105073974E+03 -0.14814228115E+04  0.19521779754E+04  0.46999998093E+01 0.  1.
</event>
<event>
 5   0  0.1017456E-05  0.1724734E+04  0.7818609E-02  0.8747382E-01
       -1   -1    0    0    0  501  0.00000000000E+00  0.00000000000E+00  0.76960901960E+03  0.76960901962E+03  0.50400001928E-02 0. -1.
        1   -1    0    0  501    0  0.00000000000E+00  0.00000000000E+00 -0.96630528791E+03  0.96630528792E+03  0.50400001928E-02 0.  1.
    10030    2    1    2    0    0  0.00000000000E+00  0.00000000000E+00 -0.19669626830E+03  0.17359143075E+04  0.17247344900E+04 0.  0.
        5    1    3    3  502    0 -0.77911733614E+03  0.27004200762E+03  0.15569372947E+03  0.83917169682E+03  0.46999998093E+01 0. -1.
       -5    1    3    3    0  502  0.77911733614E+03 -0.27004200762E+03 -0.35238999777E+03  0.89674261072E+03  0.46999998093E+01 0.  1.
</event>
<event>
 5   0  0.2518686E-05  0.2612458E+04  0.7818609E-02  0.8363982E-01
       -2   -1    0    0    0  501  0.00000000000E+00  0.00000000000E+00  0.10521823591E+04  0.10521823591E+04  0.25500000920E-02 0.  1.
        2   -1    0    0  501    0  0.00000000000E+00  0.00000000000E+00 -0.16216147456E+04  0.16216147456E+04  0.25500000920E-02 0. -1.
    10030    2    1    2    0    0  0.00000000000E+00  0.00000000000E+00 -0.56943238655E+03  0.26737971047E+04  0.26124581746E+04 0.  0.
        5    1    3    3  502    0 -0.44856857973E+03  0.47408621844E+03  0.87332748108E+03  0.10902726688E+04  0.46999998093E+01 0.  1.
       -5    1    3    3    0  502  0.44856857973E+03 -0.47408621844E+03 -0.14427598676E+04  0.15835244358E+04  0.46999998093E+01 0. -1.
</event>
<event>
 5   0  0.2697964E-05  0.2634987E+04  0.7818609E-02  0.8356413E-01
       -2   -1    0    0    0  501  0.00000000000E+00  0.00000000000E+00  0.14711566064E+04  0.14711566064E+04  0.25500000920E-02 0.  1.
        2   -1    0    0  501    0  0.00000000000E+00  0.00000000000E+00 -0.11798805364E+04  0.11798805364E+04  0.25500000920E-02 0. -1.
    10030    2    1    2    0    0  0.00000000000E+00  0.00000000000E+00  0.29127607007E+03  0.26510371428E+04  0.26349869418E+04 0.  0.
        1    1    3    3  502    0 -0.11345064152E+04 -0.65219420275E+03  0.29930001749E+03  0.13424017971E+04  0.50400001928E-02 0. -1.
       -1    1    3    3    0  502  0.11345064152E+04  0.65219420275E+03 -0.80239474240E+01  0.13086353457E+04  0.50400001928E-02 0.  1.
</event>
<event>
 5   0  0.1075146E-05  0.1919559E+04  0.7818609E-02  0.8645181E-01
       -1   -1    0    0    0  501  0.00000000000E+00  0.00000000000E+00  0.74442325363E+03  0.74442325364E+03  0.50400001928E-02 0.  1.
        1   -1    0    0  501    0  0.00000000000E+00  0.00000000000E+00 -0.12374367789E+04  0.12374367789E+04  0.50400001928E-02 0. -1.
    10030    2    1    2    0    0  0.00000000000E+00  0.00000000000E+00 -0.49301352526E+03  0.19818600325E+04  0.19195590255E+04 0.  0.
        2    1    3    3  502    0 -0.84407688143E+02 -0.21089144783E+03 -0.12092832905E+04  0.12304332316E+04  0.25500000920E-02 0. -1.
       -2    1    3    3    0  502  0.84407688143E+02  0.21089144783E+03  0.71626976527E+03  0.75142680098E+03  0.25500000920E-02 0.  1.
</event>
<event>
 5   0  0.2518686E-05  0.1971046E+04  0.7818609E-02  0.8620278E-01
       -2   -1    0    0    0  501  0.00000000000E+00  0.00000000000E+00  0.49067842472E+03  0.49067842473E+03  0.25500000920E-02 0.  1.
        2   -1    0    0  501    0  0.00000000000E+00  0.00000000000E+00 -0.19794142694E+04  0.19794142694E+04  0.25500000920E-02 0. -1.
    10030    2    1    2    0    0  0.00000000000E+00  0.00000000000E+00 -0.14887358446E+04  0.24700926941E+04  0.19710462963E+04 0.  0.
        5    1    3    3  502    0  0.22865856101E+03  0.76044133077E+03 -0.14758243993E+04  0.16758984165E+04  0.46999998093E+01 0. -1.
       -5    1    3    3    0  502 -0.22865856101E+03 -0.76044133077E+03 -0.12911445355E+02  0.79419427754E+03  0.46999998093E+01 0.  1.
</event>
<event>
 5   0  0.2697964E-05  0.2847712E+04  0.7818609E-02  0.8288607E-01
        2   -1    0    0  501    0  0.00000000000E+00  0.00000000000E+00  0.13776338465E+04  0.13776338465E+04  0.25500000920E-02 0. -1.
       -2   -1    0    0    0  501  0.00000000000E+00  0.00000000000E+00 -0.14716291126E+04  0.14716291126E+04  0.25500000920E-02 0.  1.
    10030    2    1    2    0    0  0.00000000000E+00  0.00000000000E+00 -0.93995266140E+02  0.28492629591E+04  0.28477121168E+04 0.  0.
        1    1    3    3  502    0 -0.74375815594E+03  0.15798163295E+03  0.11574983591E+04  0.13848959680E+04  0.50400001928E-02 0. -1.
       -1    1    3    3    0  502  0.74375815594E+03 -0.15798163295E+03 -0.12514936252E+04  0.14643669912E+04  0.50400001928E-02 0.  1.
</event>
<event>
 5   0  0.8958000E-06  0.2811391E+04  0.7818609E-02  0.8299741E-01
       -3   -1    0    0    0  501  0.00000000000E+00  0.00000000000E+00  0.18855931370E+04  0.18855931397E+04  0.10100000352E+00 0. -1.
        3   -1    0    0  501    0  0.00000000000E+00  0.00000000000E+00 -0.10479352219E+04  0.10479352267E+04  0.10100000352E+00 0.  1.
    10030    2    1    2    0    0  0.00000000000E+00  0.00000000000E+00  0.83765791517E+03  0.29335283665E+04  0.28113907402E+04 0.  0.
        5    1    3    3  502    0 -0.64223404128E+03 -0.50751192101E+03  0.16112458279E+04  0.18072543046E+04  0.46999998093E+01 0. -1.
       -5    1    3    3    0  502  0.64223404128E+03  0.50751192101E+03 -0.77358791271E+03  0.11262740619E+04  0.46999998093E+01 0.  1.
</event>
<event>
 5   0  0.2697964E-05  0.1659626E+04  0.7818609E-02  0.8784732E-01
        2   -1    0    0  501    0  0.00000000000E+00  0.00000000000E+00  0.15438345242E+04  0.15438345242E+04  0.25500000920E-02 0. -1.
       -2   -1    0    0    0  501  0.00000000000E+00  0.00000000000E+00 -0.44602572650E+03  0.44602572651E+03  0.25500000920E-02 0.  1.
    10030    2    1    2    0    0  0.00000000000E+00  0.00000000000E+00  0.10978087977E+04  0.19898602507E+04  0.16596263619E+04 0.  0.
        1    1    3    3  502    0  0.76074083278E+03  0.22504568940E+03  0.25713606178E+03  0.83396110897E+03  0.50400001928E-02 0.  1.
       -1    1    3    3    0  502 -0.76074083278E+03 -0.22504568940E+03  0.84067273595E+03  0.11558991418E+04  0.50400001928E-02 0. -1.
</event>
<event>
 5   0  0.2651061E-05  0.2832203E+04  0.7818609E-02  0.8293340E-01
       -2   -1    0    0    0  501  0.00000000000E+00  0.00000000000E+00  0.14627334555E+04  0.14627334555E+04  0.25500000920E-02 0.  1.
        2   -1    0    0  501    0  0.00000000000E+00  0.00000000000E+00 -0.13709564676E+04  0.13709564676E+04  0.25500000920E-02 0. -1.
    10030    2    1    2    0    0  0.00000000000E+00  0.00000000000E+00  0.91776987953E+02  0.28336899231E+04  0.28322033057E+04 0.  0.
        3    1    3    3  502    0 -0.46263281627E+03 -0.91031062861E+03  0.10275504358E+04  0.14486388341E+04  0.10100000352E+00 0.  1.
       -3    1    3    3    0  502  0.46263281627E+03  0.91031062861E+03 -0.93577344786E+03  0.13850510890E+04  0.10100000352E+00 0. -1.
</event>
<event>
 5   0  0.1067434E-05  0.2791445E+04  0.7818609E-02  0.8305929E-01
        1   -1    0    0  501    0  0.00000000000E+00  0.00000000000E+00  0.16263741273E+04  0.16263741273E+04  0.50400001928E-02 0. -1.
       -1   -1    0    0    0  501  0.00000000000E+00  0.00000000000E+00 -0.11977821292E+04  0.11977821292E+04  0.50400001928E-02 0.  1.
    10030    2    1    2    0    0  0.00000000000E+00  0.00000000000E+00  0.42859199814E+03  0.28241562565E+04  0.27914454070E+04 0.  0.
        4    1    3    3  502    0 -0.11938616094E+04 -0.19538764907E+03 -0.48996337430E+03  0.13052002133E+04  0.12699999809E+01 0.  1.
       -4    1    3    3    0  502  0.11938616094E+04  0.19538764907E+03  0.91855537244E+03  0.15189560431E+04  0.12699999809E+01 0. -1.
</event>
<event>
 5   0  0.1067434E-05  0.1923619E+04  0.7818609E-02  0.8643188E-01
        1   -1    0    0  501    0  0.00000000000E+00  0.00000000000E+00  0.17139358799E+04  0.17139358800E+04  0.50400001928E-02 0. -1.
       -1   -1    0    0    0  501  0.00000000000E+00  0.00000000000E+00 -0.53973878151E+03  0.53973878153E+03  0.50400001928E-02 0.  1.
    10030    2    1    2    0    0  0.00000000000E+00  0.00000000000E+00  0.11741970984E+04  0.22536746615E+04  0.19236191551E+04 0.  0.
        4    1    3    3  502    0  0.25036085558E+03  0.90257923976E+03  0.33109760102E+03  0.99345713363E+03  0.12699999809E+01 0.  1.
       -4    1    3    3    0  502 -0.25036085558E+03 -0.90257923976E+03  0.84309949742E+03  0.12602175279E+04  0.12699999809E+01 0. -1.
</event>
<event>
 5   0  0.1078103E-05  0.2681624E+04  0.7818609E-02  0.8340992E-01
       -1   -1    0    0    0  501  0.00000000000E+00  0.00000000000E+00  0.90815998240E+03  0.90815998242E+03  0.50400001928E-02 0.  1.
        1   -1    0    0  501    0  0.00000000000E+00  0.00000000000E+00 -0.19795821631E+04  0.19795821631E+04  0.50400001928E-02 0. -1.
    10030    2    1    2    0    0  0.00000000000E+00  0.00000000000E+00 -0.10714221807E+04  0.28877421455E+04  0.26816243603E+04 0.  0.
        1    1    3    3  502    0 -0.12490107522E+04 -0.13299178863E+03 -0.10408765124E+04  0.16312996626E+04  0.50400001928E-02 0. -1.
       -1    1    3    3    0  502  0.12490107522E+04  0.13299178863E+03 -0.30545668266E+02  0.12564424829E+04  0.50400001928E-02 0.  1.
</event>
<event>
 5   0  0.2518686E-05  0.2824091E+04  0.7818609E-02  0.8295828E-01
        2   -1    0    0  501    0  0.00000000000E+00  0.00000000000E+00  0.17113176885E+04  0.17113176885E+04  0.25500000920E-02 0.  1.
       -2   -1    0    0    0  501  0.00000000000E+00  0.00000000000E+00 -0.11651096194E+04  0.11651096194E+04  0.25500000920E-02 0. -1.
    10030    2    1    2    0    0  0.00000000000E+00  0.00000000000E+00  0.54620806909E+03  0.28764273078E+04  0.28240911463E+04 0.  0.
        5    1    3    3  502    0  0.75133370547E+03 -0.11551896632E+04  0.58684681398E+03  0.14977906289E+04  0.46999998093E+01 0.  1.
       -5    1    3    3    0  502 -0.75133370547E+03  0.11551896632E+04 -0.40638744890E+02  0.13786366789E+04  0.46999998093E+01 0. -1.
</event>
<event>
 5   0  0.1078103E-05  0.2480831E+04  0.7818609E-02  0.8409846E-01
       -1   -1    0    0    0  501  0.00000000000E+00  0.00000000000E+00  0.11019876209E+04  0.11019876209E+04  0.50400001928E-02 0. -1.
        1   -1    0    0  501    0  0.00000000000E+00  0.00000000000E+00 -0.13962324915E+04  0.13962324915E+04  0.50400001928E-02 0.  1.
    10030    2    1    2    0    0  0.00000000000E+00  0.00000000000E+00 -0.29424487053E+03  0.24982201124E+04  0.24808312490E+04 0.  0.
        1    1    3    3  502    0 -0.13149536803E+03  0.38246224373E+03  0.10337274706E+04  0.11100274245E+04  0.50400001928E-02 0. -1.
       -1    1    3    3    0  502  0.13149536803E+03 -0.38246224373E+03 -0.13279723412E+04  0.13881926878E+04  0.50400001928E-02 0.  1.
</event>
<event>
 5   0  0.2518686E-05  0.2710362E+04  0.7818609E-02  0.8331651E-01
        2   -1    0    0  501    0  0.00000000000E+00  0.00000000000E+00  0.21117720445E+04  0.21117720445E+04  0.25500000920E-02 0. -1.
       -2   -1    0    0    0  501  0.00000000000E+00  0.00000000000E+00 -0.86965598089E+03  0.86965598089E+03  0.25500000920E-02 0.  1.
    10030    2    1    2    0    0  0.00000000000E+00  0.00000000000E+00  0.12421160636E+04  0.29814280254E+04  0.27103617388E+04 0.  0.
        5    1    3    3  502    0  0.28324212920E+03 -0.26236882199E+03  0.20499845718E+04  0.20860302820E+04  0.46999998093E+01 0. -1.
       -5    1    3    3    0  502 -0.28324212920E+03  0.26236882199E+03 -0.80786850818E+03  0.89539774347E+03  0.46999998093E+01 0.  1.
</event>
<event>
 5   0  0.2697964E-05  0.1630881E+04  0.7818609E-02  0.8801798E-01
        2   -1    0    0  501    0  0.00000000000E+00  0.00000000000E+00  0.92092879558E+03  0.92092879559E+03  0.25500000920E-02 0.  1.
       -2   -1    0    0    0  501  0.00000000000E+00  0.00000000000E+00 -0.72203575480E+03  0.72203575481E+03  0.25500000920E-02 0. -1.
    10030    2    1    2    0    0  0.00000000000E+00  0.00000000000E+00  0.19889304078E+03  0.16429645504E+04  0.16308813789E+04 0.  0.
        1    1    3    3  502    0  0.60871453221E+03 -0.53160948837E+03 -0.99930063919E+01  0.80823380903E+03  0.50400001928E-02 0. -1.
       -1    1    3    3    0  502 -0.60871453221E+03  0.53160948837E+03  0.20888604717E+03  0.83473074137E+03  0.50400001928E-02 0.  1.
</event>
<event>
 5   0  0.2624815E-05  0.2753482E+04  0.7818609E-02  0.8317858E-01
       -2   -1    0    0    0  501  0.00000000000E+00  0.00000000000E+00  0.72888659755E+03  0.72888659755E+03  0.25500000920E-02 0.  1.
        2   -1    0    0  501    0  0.00000000000E+00  0.00000000000E+00 -0.26004253115E+04  0.26004253115E+04  0.25500000920E-02 0. -1.
    10030    2    1    2    0    0  0.00000000000E+00  0.00000000000E+00 -0.18715387139E+04  0.33293119090E+04  0.27534815470E+04 0.  0.
        4    1    3    3  502    0 -0.35149679729E+03  0.16479744720E+03  0.66133524111E+03  0.76685990321E+03  0.12699999809E+01 0.  1.
       -4    1    3    3    0  502  0.35149679729E+03 -0.16479744720E+03 -0.25328739550E+04  0.25624520058E+04  0.12699999809E+01 0. -1.
</event>
<event>
 5   0  0.2518686E-05  0.2849035E+04  0.7818609E-02  0.8288205E-01
        2   -1    0    0  501    0  0.00000000000E+00  0.00000000000E+00  0.26808547282E+04  0.26808547282E+04  0.25500000920E-02 0. -1.
       -2   -1    0    0    0  501  0.00000000000E+00  0.00000000000E+00 -0.75694159389E+03  0.75694159389E+03  0.25500000920E-02 0.  1.
    10030    2    1    2    0    0  0.00000000000E+00  0.00000000000E+00  0.19239131343E+04  0.34377963221E+04  0.28490352409E+04 0.  0.
        5    1    3    3  502    0  0.80069559360E+03 -0.84814210171E+03  0.19487373457E+04  0.22711357931E+04  0.46999998093E+01 0. -1.
       -5    1    3    3    0  502 -0.80069559360E+03  0.84814210171E+03 -0.24824211428E+02  0.11666605289E+04  0.46999998093E+01 0.  1.
</event>
<event>
 5   0  0.1067434E-05  0.2075089E+04  0.7818609E-02  0.8572297E-01
        1   -1    0    0  501    0  0.00000000000E+00  0.00000000000E+00  0.14772934326E+04  0.14772934326E+04  0.50400001928E-02 0.  1.
       -1   -1    0    0    0  501  0.00000000000E+00  0.00000000000E+00 -0.72869661398E+03  0.72869661399E+03  0.50400001928E-02 0. -1.
    10030    2    1    2    0    0  0.00000000000E+00  0.00000000000E+00  0.74859681857E+03  0.22059900466E+04  0.20750891279E+04 0.  0.
        4    1    3    3  502    0 -0.16760263815E+02  0.96860366560E+03  0.76924898217E+03  0.12370204432E+04  0.12699999809E+01 0.  1.
       -4    1    3    3    0  502  0.16760263815E+02 -0.96860366560E+03 -0.20652163592E+02  0.96896960335E+03  0.12699999809E+01 0. -1.
</event>
<event>
 5   0  0.2697964E-05  0.2783072E+04  0.7818609E-02  0.8308543E-01
       -2   -1    0    0    0  501  0.00000000000E+00  0.00000000000E+00  0.11049155407E+04  0.11049155407E+04  0.25500000920E-02 0. -1.
        2   -1    0    0  501    0  0.00000000000E+00  0.00000000000E+00 -0.17525071189E+04  0.17525071189E+04  0.25500000920E-02 0.  1.
    10030    2    1    2    0    0  0.00000000000E+00  0.00000000000E+00 -0.64759157825E+03  0.28574226596E+04  0.27830719364E+04 0.  0.
        1    1    3    3  502    0  0.69220501485E+03  0.63052394375E+03  0.73310486821E+03  0.11891807996E+04  0.50400001928E-02 0. -1.
       -1    1    3    3    0  502 -0.69220501485E+03 -0.63052394375E+03 -0.13806964465E+04  0.16682418600E+04  0.50400001928E-02 0.  1.
</event>
<event>
 5   0  0.1067434E-05  0.2813035E+04  0.7818609E-02  0.8299233E-01
        1   -1    0    0  501    0  0.00000000000E+00  0.00000000000E+00  0.17322539587E+04  0.17322539587E+04  0.50400001928E-02 0.  1.
       -1   -1    0    0    0  501  0.00000000000E+00  0.00000000000E+00 -0.11420335157E+04  0.11420335157E+04  0.50400001928E-02 0. -1.
    10030    2    1    2    0    0  0.00000000000E+00  0.00000000000E+00  0.59022044304E+03  0.28742874744E+04  0.28130354271E+04 0.  0.
        4    1    3    3  502    0 -0.63663209158E+03 -0.25226520169E+03 -0.96019782613E+03  0.11793725579E+04  0.12699999809E+01 0. -1.
       -4    1    3    3    0  502  0.63663209158E+03  0.25226520169E+03  0.15504182692E+04  0.16949149165E+04  0.12699999809E+01 0.  1.
</event>
<event>
 5   0  0.1075146E-05  0.2976685E+04  0.7818609E-02  0.8250420E-01
        1   -1    0    0  501    0  0.00000000000E+00  0.00000000000E+00  0.18523257488E+04  0.18523257488E+04  0.50400001928E-02 0. -1.
       -1   -1    0    0    0  501  0.00000000000E+00  0.00000000000E+00 -0.11958820585E+04  0.11958820586E+04  0.50400001928E-02 0.  1.
    10030    2    1    2    0    0  0.00000000000E+00  0.00000000000E+00  0.65644369021E+03  0.30482078073E+04  0.29766848201E+04 0.  0.
        2    1    3    3  502    0 -0.51383227422E+03 -0.40478329328E+03  0.16972400779E+04  0.18189274319E+04  0.25500000920E-02 0. -1.
       -2    1    3    3    0  502  0.51383227422E+03  0.40478329328E+03 -0.10407963877E+04  0.12292803754E+04  0.25500000920E-02 0.  1.
</event>
<event>
 5   0  0.1075146E-05  0.2898980E+04  0.7818609E-02  0.8273181E-01
       -1   -1    0    0    0  501  0.00000000000E+00  0.00000000000E+00  0.11463636149E+04  0.11463636150E+04  0.50400001928E-02 0. -1.
        1   -1    0    0  501    0  0.00000000000E+00  0.00000000000E+00 -0.18327700557E+04  0.18327700557E+04  0.50400001928E-02 0.  1.
    10030    2    1    2    0    0  0.00000000000E+00  0.00000000000E+00 -0.68640644079E+03  0.29791336707E+04  0.28989797560E+04 0.  0.
        2    1    3    3  502    0 -0.12882426629E+04 -0.53631502624E+03 -0.74624336286E+03  0.15824291840E+04  0.25500000920E-02 0.  1.
       -2    1    3    3    0  502  0.12882426629E+04  0.53631502624E+03  0.59836922063E+02  0.13967044867E+04  0.25500000920E-02 0. -1.
</event>
<event>
 5   0  0.1078103E-05  0.2823311E+04  0.7818609E-02  0.8296068E-01
        1   -1    0    0  501    0  0.00000000000E+00  0.00000000000E+00  0.15321567479E+04  0.15321567479E+04  0.50400001928E-02 0.  1.
       -1   -1    0    0    0  501  0.00000000000E+00  0.00000000000E+00 -0.13006313391E+04  0.13006313391E+04  0.50400001928E-02 0. -1.
    10030    2    1    2    0    0  0.00000000000E+00  0.00000000000E+00  0.23152540880E+03  0.28327880870E+04  0.28233108810E+04 0.  0.
        1    1    3    3  502    0  0.11538877573E+04 -0.59246983179E+03 -0.44314720772E+03  0.13707140131E+04  0.50400001928E-02 0. -1.
       -1    1    3    3    0  502 -0.11538877573E+04  0.59246983179E+03  0.67467261652E+03  0.14620740739E+04  0.50400001928E-02 0.  1.
</event>
<event>
 5   0  0.1067434E-05  0.2788427E+04  0.7818609E-02  0.8306870E-01
       -1   -1    0    0    0  501  0.00000000000E+00  0.00000000000E+00  0.12241486286E+04  0.12241486286E+04  0.50400001928E-02 0. -1.
        1   -1    0    0  501    0  0.00000000000E+00  0.00000000000E+00 -0.15879045085E+04  0.15879045085E+04  0.50400001928E-02 0.  1.
    10030    2    1    2    0    0  0.00000000000E+00  0.00000000000E+00 -0.36375587987E+03  0.28120531371E+04  0.27884268873E+04 0.  0.
        4    1    3    3  502    0 -0.23379967909E+03  0.19011887490E+03  0.11909134710E+04  0.12284477949E+04  0.12699999809E+01 0. -1.
       -4    1    3    3    0  502  0.23379967909E+03 -0.19011887490E+03 -0.15546693508E+04  0.15836053422E+04  0.12699999809E+01 0.  1.
</event>
<event>
 5   0  0.2624815E-05  0.2852555E+04  0.7818609E-02  0.8287135E-01
        2   -1    0    0  501    0  0.00000000000E+00  0.00000000000E+00  0.16452069418E+04  0.16452069418E+04  0.25500000920E-02 0. -1.
       -2   -1    0    0    0  501  0.00000000000E+00  0.00000000000E+00 -0.12364815096E+04  0.12364815096E+04  0.25500000920E-02 0.  1.
    10030    2    1    2    0    0  0.00000000000E+00  0.00000000000E+00  0.40872543218E+03  0.28816884515E+04  0.28525553198E+04 0.  0.
        4    1    3    3  502    0 -0.95508061286E+03  0.47757245985E+03 -0.75081593025E+03  0.13053660810E+04  0.12699999809E+01 0.  1.
       -4    1    3    3    0  502  0.95508061286E+03 -0.47757245985E+03  0.11595413624E+04  0.15763223704E+04  0.12699999809E+01 0. -1.
</event>
<event>
 5   0  0.2588048E-05  0.2899114E+04  0.7818609E-02  0.8273141E-01
        2   -1    0    0  501    0  0.00000000000E+00  0.00000000000E+00  0.18766869966E+04  0.18766869966E+04  0.25500000920E-02 0. -1.
       -2   -1    0    0    0  501  0.00000000000E+00  0.00000000000E+00 -0.11196410409E+04  0.11196410409E+04  0.25500000920E-02 0.  1.
    10030    2    1    2    0    0  0.00000000000E+00  0.00000000000E+00  0.75704595574E+03  0.29963280375E+04  0.28991141974E+04 0.  0.
        2    1    3    3  502    0 -0.10019266111E+04  0.84335264693E+03  0.10207409617E+04  0.16604254672E+04  0.25500000920E-02 0. -1.
       -2    1    3    3    0  502  0.10019266111E+04 -0.84335264693E+03 -0.26369500598E+03  0.13359025703E+04  0.25500000920E-02 0.  1.
</event>
<event>
 5   0  0.1017456E-05  0.2841352E+04  0.7818609E-02  0.8290544E-01
        1   -1    0    0  501    0  0.00000000000E+00  0.00000000000E+00  0.18606404048E+04  0.18606404048E+04  0.50400001928E-02 0.  1.
       -1   -1    0    0    0  501  0.00000000000E+00  0.00000000000E+00 -0.10847451538E+04  0.10847451538E+04  0.50400001928E-02 0. -1.
    10030    2    1    2    0    0  0.00000000000E+00  0.00000000000E+00  0.77589525098E+03  0.29453855586E+04  0.28413522570E+04 0.  0.
        5    1    3    3  502    0  0.88434090015E+02 -0.14169927909E+04  0.44090038430E+03  0.14866419867E+04  0.46999998093E+01 0. -1.
       -5    1    3    3    0  502 -0.88434090015E+02  0.14169927909E+04  0.33499486668E+03  0.14587435719E+04  0.46999998093E+01 0.  1.
</event>
<event>
 5   0  0.2588048E-05  0.2822147E+04  0.7818609E-02  0.8296425E-01
       -2   -1    0    0    0  501  0.00000000000E+00  0.00000000000E+00  0.18566880837E+04  0.18566880837E+04  0.25500000920E-02 0. -1.
        2   -1    0    0  501    0  0.00000000000E+00  0.00000000000E+00 -0.10724087914E+04  0.10724087914E+04  0.25500000920E-02 0.  1.
    10030    2    1    2    0    0  0.00000000000E+00  0.00000000000E+00  0.78427929232E+03  0.29290968750E+04  0.28221471427E+04 0.  0.
        2    1    3    3  502    0 -0.90650882304E+03 -0.83405000237E+03 -0.32222502961E+03  0.12732739778E+04  0.25500000920E-02 0.  1.
       -2    1    3    3    0  502  0.90650882304E+03  0.83405000237E+03  0.11065043219E+04  0.16558228973E+04  0.25500000920E-02 0. -1.
</event>
<event>
 5   0  0.1017456E-05  0.2860927E+04  0.7818609E-02  0.8284599E-01
       -1   -1    0    0    0  501  0.00000000000E+00  0.00000000000E+00  0.75675962123E+03  0.75675962125E+03  0.50400001928E-02 0. -1.
        1   -1    0    0  501    0  0.00000000000E+00  0.00000000000E+00 -0.27039311111E+04  0.27039311111E+04  0.50400001928E-02 0.  1.
    10030    2    1    2    0    0  0.00000000000E+00  0.00000000000E+00 -0.19471714899E+04  0.34606907324E+04  0.28609270410E+04 0.  0.
        5    1    3    3  502    0  0.14100970048E+04 -0.22695019629E+03 -0.87739209407E+03  0.16762216236E+04  0.46999998093E+01 0. -1.
       -5    1    3    3    0  502 -0.14100970048E+04  0.22695019629E+03 -0.10697793958E+04  0.17844691088E+04  0.46999998093E+01 0.  1.
</event>
<event>
 5   0  0.2697964E-05  0.2779646E+04  0.7818609E-02  0.8309615E-01
        2   -1    0    0  501    0  0.00000000000E+00  0.00000000000E+00  0.12833897351E+04  0.12833897351E+04  0.25500000920E-02 0. -1.
       -2   -1    0    0    0  501  0.00000000000E+00  0.00000000000E+00 -0.15050830895E+04  0.15050830895E+04  0.25500000920E-02 0.  1.
    10030    2    1    2    0    0  0.00000000000E+00  0.00000000000E+00 -0.22169335436E+03  0.27884728247E+04  0.27796461556E+04 0.  0.
        1    1    3    3  502    0 -0.51396862214E+03 -0.36502749050E+03  0.11317145637E+04  0.12954484424E+04  0.50400001928E-02 0. -1.
       -1    1    3    3    0  502  0.51396862214E+03  0.36502749050E+03 -0.13534079180E+04  0.14930243822E+04  0.50400001928E-02 0.  1.
</event>
<event>
 5   0  0.2624815E-05  0.1582015E+04  0.7818609E-02  0.8831674E-01
        2   -1    0    0  501    0  0.00000000000E+00  0.00000000000E+00  0.11335995294E+04  0.11335995294E+04  0.25500000920E-02 0. -1.
       -2   -1    0    0    0  501  0.00000000000E+00  0.00000000000E+00 -0.55195216552E+03  0.55195216552E+03  0.25500000920E-02 0.  1.
    10030    2    1    2    0    0  0.00000000000E+00  0.00000000000E+00  0.58164736386E+03  0.16855516949E+04  0.15820148104E+04 0.  0.
        4    1    3    3  502    0 -0.34351966034E+03  0.15704128963E+03 -0.44966019595E+03  0.58725090754E+03  0.12699999809E+01 0.  1.
       -4    1    3    3    0  502  0.34351966034E+03 -0.15704128963E+03  0.10313075598E+04  0.10983007874E+04  0.12699999809E+01 0. -1.
</event>
<event>
 5   0  0.1017456E-05  0.2771216E+04  0.7818609E-02  0.8312261E-01
       -1   -1    0    0    0  501  0.00000000000E+00  0.00000000000E+00  0.83148677881E+03  0.83148677883E+03  0.50400001928E-02 0.  1.
        1   -1    0    0  501    0  0.00000000000E+00  0.00000000000E+00 -0.23090085157E+04  0.23090085157E+04  0.50400001928E-02 0. -1.
    10030    2    1    2    0    0  0.00000000000E+00  0.00000000000E+00 -0.14775217369E+04  0.31404952946E+04  0.27712163777E+04 0.  0.
        5    1    3    3  502    0  0.35597207437E+03 -0.39480734188E+03  0.71131828594E+03  0.88802294388E+03  0.46999998093E+01 0.  1.
       -5    1    3    3    0  502 -0.35597207437E+03  0.39480734188E+03 -0.21888400229E+04  0.22524723507E+04  0.46999998093E+01 0. -1.
</event>
<event>
 5   0  0.2624815E-05  0.2290867E+04  0.7818609E-02  0.8481531E-01
       -2   -1    0    0    0  501  0.00000000000E+00  0.00000000000E+00  0.59441222883E+03  0.59441222884E+03  0.25500000920E-02 0.  1.
        2   -1    0    0  501    0  0.00000000000E+00  0.00000000000E+00 -0.22072522347E+04  0.22072522347E+04  0.25500000920E-02 0. -1.
    10030    2    1    2    0    0  0.00000000000E+00  0.00000000000E+00 -0.16128400059E+04  0.28016644635E+04  0.22908668407E+04 0.  0.
        4    1    3    3  502    0  0.11265236635E+03  0.44640767728E+03 -0.20891098193E+04  0.21392409449E+04  0.12699999809E+01 0. -1.
       -4    1    3    3    0  502 -0.11265236635E+03 -0.44640767728E+03  0.47626981347E+03  0.66242351868E+03  0.12699999809E+01 0.  1.
</event>
<event>
 5   0  0.2518686E-05  0.2728793E+04  0.7818609E-02  0.8325723E-01
       -2   -1    0    0    0  501  0.00000000000E+00  0.00000000000E+00  0.10987397759E+04  0.10987397759E+04  0.25500000920E-02 0. -1.
        2   -1    0    0  501    0  0.00000000000E+00  0.00000000000E+00 -0.16942839990E+04  0.16942839990E+04  0.25500000920E-02 0.  1.
    10030    2    1    2    0    0  0.00000000000E+00  0.00000000000E+00 -0.59554422311E+03  0.27930237749E+04  0.27287925691E+04 0.  0.
        5    1    3    3  502    0 -0.52774036191E+03 -0.10576507999E+04 -0.99529679153E+03  0.15452420190E+04  0.46999998093E+01 0.  1.
       -5    1    3    3    0  502  0.52774036191E+03  0.10576507999E+04  0.39975256842E+03  0.12477817558E+04  0.46999998093E+01 0. -1.
</event>
<event>
 5   0  0.2697964E-05  0.2565530E+04  0.7818609E-02  0.8380005E-01
        2   -1    0    0  501    0  0.00000000000E+00  0.00000000000E+00  0.10047025612E+04  0.10047025612E+04  0.25500000920E-02 0. -1.
       -2   -1    0    0    0  501  0.00000000000E+00  0.00000000000E+00 -0.16377841198E+04  0.16377841198E+04  0.25500000920E-02 0.  1.
    10030    2    1    2    0    0  0.00000000000E+00  0.00000000000E+00 -0.63308155862E+03  0.26424866811E+04  0.25655298867E+04 0.  0.
        1    1    3    3  502    0  0.10823203151E+04 -0.56970787947E+03 -0.71479336281E+03  0.14166558806E+04  0.50400001928E-02 0.  1.
       -1    1    3    3    0  502 -0.10823203151E+04  0.56970787947E+03  0.81711804192E+02  0.12258308005E+04  0.50400001928E-02 0. -1.
</event>
<event>
 5   0  0.1067434E-05  0.2835570E+04  0.7818609E-02  0.8292310E-01
        1   -1    0    0  501    0  0.00000000000E+00  0.00000000000E+00  0.16002868308E+04  0.16002868308E+04  0.50400001928E-02 0. -1.
       -1   -1    0    0    0  501  0.00000000000E+00  0.00000000000E+00 -0.12560963256E+04  0.12560963256E+04  0.50400001928E-02 0.  1.
    10030    2    1    2    0    0  0.00000000000E+00  0.00000000000E+00  0.34419050516E+03  0.28563831564E+04  0.28355700719E+04 0.  0.
        4    1    3    3  502    0 -0.55187241727E+03 -0.11959912206E+04 -0.35630679577E+03  0.13645198094E+04  0.12699999809E+01 0.  1.
       -4    1    3    3    0  502  0.55187241727E+03  0.11959912206E+04  0.70049730093E+03  0.14918633470E+04  0.12699999809E+01 0. -1.
</event>
<event>
 5   0  0.2697964E-05  0.2760990E+04  0.7818609E-02  0.8315483E-01
        2   -1    0    0  501    0  0.00000000000E+00  0.00000000000E+00  0.60847739503E+03  0.60847739503E+03  0.25500000920E-02 0. -1.
       -2   -1    0    0    0  501  0.00000000000E+00  0.00000000000E+00 -0.31320249469E+04  0.31320249469E+04  0.25500000920E-02 0.  1.
    10030    2    1    2    0    0  0.00000000000E+00  0.00000000000E+00 -0.25235475519E+04  0.37405023419E+04  0.27609899535E+04 0.  0.
        1    1    3    3  502    0 -0.61383163245E+03  0.69343248430E+03 -0.26487607079E+04  0.28059884481E+04  0.50400001928E-02 0.  1.
       -1    1    3    3    0  502  0.61383163245E+03 -0.69343248430E+03  0.12521315601E+03  0.93451389382E+03  0.50400001928E-02 0. -1.
</event>
<event>
 5   0  0.1075146E-05  0.2725645E+04  0.7818609E-02  0.8326732E-01
       -1   -1    0    0    0  501  0.00000000000E+00  0.00000000000E+00  0.94285098413E+03  0.94285098415E+03  0.50400001928E-02 0. -1.
        1   -1    0    0  501    0  0.00000000000E+00  0.00000000000E+00 -0.19698610572E+04  0.19698610572E+04  0.50400001928E-02 0.  1.
    10030    2    1    2    0    0  0.00000000000E+00  0.00000000000E+00 -0.10270100731E+04  0.29127120414E+04  0.27256451981E+04 0.  0.
        2    1    3    3  502    0  0.46394826841E+03  0.29771503936E+03 -0.18454010716E+04  0.19259769873E+04  0.25500000920E-02 0.  1.
       -2    1    3    3    0  502 -0.46394826841E+03 -0.29771503936E+03  0.81839099855E+03  0.98673505407E+03  0.25500000920E-02 0. -1.
</event>
<event>
 5   0  0.2651061E-05  0.2691689E+04  0.7818609E-02  0.8337707E-01
        2   -1    0    0  501    0  0.00000000000E+00  0.00000000000E+00  0.17524622174E+04  0.17524622174E+04  0.25500000920E-02 0. -1.
       -2   -1    0    0    0  501  0.00000000000E+00  0.00000000000E+00 -0.10335730575E+04  0.10335730575E+04  0.25500000920E-02 0.  1.
    10030    2    1    2    0    0  0.00000000000E+00  0.00000000000E+00  0.71888915989E+03  0.27860352748E+04  0.26916892333E+04 0.  0.
        3    1    3    3  502    0 -0.65599939002E+03  0.25343891369E+03  0.15471541700E+04  0.16994859571E+04  0.10100000352E+00 0. -1.
       -3    1    3    3    0  502  0.65599939002E+03 -0.25343891369E+03 -0.82826501007E+03  0.10865493177E+04  0.10100000352E+00 0.  1.
</event>
<event>
 5   0  0.1067434E-05  0.1459641E+04  0.7818609E-02  0.8911744E-01
        1   -1    0    0  501    0  0.00000000000E+00  0.00000000000E+00  0.10501585674E+04  0.10501585674E+04  0.50400001928E-02 0.  1.
       -1   -1    0    0    0  501  0.00000000000E+00  0.00000000000E+00 -0.50719755101E+03  0.50719755104E+03  0.50400001928E-02 0. -1.
    10030    2    1    2    0    0  0.00000000000E+00  0.00000000000E+00  0.54296101639E+03  0.15573561185E+04  0.14596408512E+04 0.  0.
        4    1    3    3  502    0 -0.32370800982E+03 -0.45563987150E+03 -0.22923572587E+03  0.60410694338E+03  0.12699999809E+01 0. -1.
       -4    1    3    3    0  502  0.32370800982E+03  0.45563987150E+03  0.77219674226E+03  0.95324917507E+03  0.12699999809E+01 0.  1.
</event>
<event>
 5   0  0.1067434E-05  0.2827789E+04  0.7818609E-02  0.8294692E-01
       -1   -1    0    0    0  501  0.00000000000E+00  0.00000000000E+00  0.13597390497E+04  0.13597390497E+04  0.50400001928E-02 0. -1.
        1   -1    0    0  501    0  0.00000000000E+00  0.00000000000E+00 -0.14702073169E+04  0.14702073169E+04  0.50400001928E-02 0.  1.
    10030    2    1    2    0    0  0.00000000000E+00  0.00000000000E+00 -0.11046826717E+03  0.28299463666E+04  0.28277894546E+04 0.  0.
        4    1    3    3  502    0 -0.14937011497E+03 -0.96417198511E+03 -0.10793218733E+04  0.14549489226E+04  0.12699999809E+01 0.  1.
       -4    1    3    3    0  502  0.14937011497E+03  0.96417198511E+03  0.96885360615E+03  0.13749974441E+04  0.12699999809E+01 0. -1.
</event>
<event>
 5   0  0.2697964E-05  0.2830099E+04  0.7818609E-02  0.8293984E-01
        2   -1    0    0  501    0  0.00000000000E+00  0.00000000000E+00  0.13758132808E+04  0.13758132808E+04  0.25500000920E-02 0.  1.
       -2   -1    0    0    0  501  0.00000000000E+00  0.00000000000E+00 -0.14554048662E+04  0.14554048662E+04  0.25500000920E-02 0. -1.
    10030    2    1    2    0    0  0.00000000000E+00  0.00000000000E+00 -0.79591585345E+02  0.28312181470E+04  0.28300991812E+04 0.  0.
        1    1    3    3  502    0  0.52251854343E+03  0.85795258669E+03  0.95722108715E+03  0.13875808009E+04  0.50400001928E-02 0.  1.
       -1    1    3    3    0  502 -0.52251854343E+03 -0.85795258669E+03 -0.10368126725E+04  0.14436373461E+04  0.50400001928E-02 0. -1.
</event>
<event>
 5   0  0.2624815E-05  0.2421881E+04  0.7818609E-02  0.8431357E-01
       -2   -1    0    0    0  501  0.00000000000E+00  0.00000000000E+00  0.70228055451E+03  0.70228055452E+03  0.25500000920E-02 0. -1.
        2   -1    0    0  501    0  0.00000000000E+00  0.00000000000E+00 -0.20880206752E+04  0.20880206752E+04  0.25500000920E-02 0.  1.
    10030    2    1    2    0    0  0.00000000000E+00  0.00000000000E+00 -0.13857401207E+04  0.27903012298E+04  0.24218805236E+04 0.  0.
        4    1    3    3  502    0 -0.30562722538E+03  0.10980195875E+04 -0.11641423458E+04  0.16291973575E+04  0.12699999809E+01 0.  1.
       -4    1    3    3    0  502  0.30562722538E+03 -0.10980195875E+04 -0.22159777493E+03  0.11611038723E+04  0.12699999809E+01 0. -1.
</event>
<event>
 5   0  0.1017456E-05  0.2838795E+04  0.7818609E-02  0.8291324E-01
        1   -1    0    0  501    0  0.00000000000E+00  0.00000000000E+00  0.13226844091E+04  0.13226844091E+04  0.50400001928E-02 0.  1.
       -1   -1    0    0    0  501  0.00000000000E+00  0.00000000000E+00 -0.15231820567E+04  0.15231820567E+04  0.50400001928E-02 0. -1.
    10030    2    1    2    0    0  0.00000000000E+00  0.00000000000E+00 -0.20049764758E+03  0.28458664658E+04  0.28387949265E+04 0.  0.
        5    1    3    3  502    0 -0.25679199780E+03 -0.85302043410E+02 -0.14970784419E+04  0.15213429988E+04  0.46999998093E+01 0. -1.
       -5    1    3    3    0  502  0.25679199780E+03  0.85302043410E+02  0.12965807943E+04  0.13245234671E+04  0.46999998093E+01 0.  1.
</event>
<event>
 5   0  0.2697964E-05  0.2724064E+04  0.7818609E-02  0.8327239E-01
       -2   -1    0    0    0  501  0.00000000000E+00  0.00000000000E+00  0.89628137666E+03  0.89628137666E+03  0.25500000920E-02 0. -1.
        2   -1    0    0  501    0  0.00000000000E+00  0.00000000000E+00 -0.20698085894E+04  0.20698085894E+04  0.25500000920E-02 0.  1.
    10030    2    1    2    0    0  0.00000000000E+00  0.00000000000E+00 -0.11735272127E+04  0.29660899660E+04  0.27240637965E+04 0.  0.
        1    1    3    3  502    0 -0.11899554274E+04  0.55822782420E+03 -0.19793883009E+03  0.13292072838E+04  0.50400001928E-02 0. -1.
       -1    1    3    3    0  502  0.11899554274E+04 -0.55822782420E+03 -0.97558838264E+03  0.16368826822E+04  0.50400001928E-02 0.  1.
</event>
<event>
 5   0  0.2651061E-05  0.2960637E+04  0.7818609E-02  0.8255061E-01
       -2   -1    0    0    0  501  0.00000000000E+00  0.00000000000E+00  0.12068315067E+04  0.12068315067E+04  0.25500000920E-02 0. -1.
        2   -1    0    0  501    0  0.00000000000E+00  0.00000000000E+00 -0.18157815880E+04  0.18157815880E+04  0.25500000920E-02 0.  1.
    10030    2    1    2    0    0  0.00000000000E+00  0.00000000000E+00 -0.60895008132E+03  0.30226130947E+04  0.29606367083E+04 0.  0.
        3    1    3    3  502    0  0.39070453066E+03 -0.59851592160E+03  0.10189914858E+04  0.12446746551E+04  0.10100000352E+00 0. -1.
       -3    1    3    3    0  502 -0.39070453066E+03  0.59851592160E+03 -0.16279415671E+04  0.17779384396E+04  0.10100000352E+00 0.  1.
</event>
<event>
 5   0  0.1078103E-05  0.2778434E+04  0.7818609E-02  0.8309995E-01
       -1   -1    0    0    0  501  0.00000000000E+00  0.00000000000E+00  0.15109926971E+04  0.15109926971E+04  0.50400001928E-02 0. -1.
        1   -1    0    0  501    0  0.00000000000E+00  0.00000000000E+00 -0.12772557847E+04  0.12772557847E+04  0.50400001928E-02 0.  1.
    10030    2    1    2    0    0  0.00000000000E+00  0.00000000000E+00  0.23373691241E+03  0.27882484819E+04  0.27784342087E+04 0.  0.
        1    1    3    3  502    0  0.44252961065E+03  0.45047431745E+03 -0.11249047828E+04  0.12900272622E+04  0.50400001928E-02 0.  1.
       -1    1    3    3    0  502 -0.44252961065E+03 -0.45047431745E+03  0.13586416952E+04  0.14982212196E+04  0.50400001928E-02 0. -1.
</event>
<event>
 5   0  0.1067434E-05  0.2737560E+04  0.7818609E-02  0.8322920E-01
       -1   -1    0    0    0  501  0.00000000000E+00  0.00000000000E+00  0.94405783576E+03  0.94405783577E+03  0.50400001928E-02 0.  1.
        1   -1    0    0  501    0  0.00000000000E+00  0.00000000000E+00 -0.19845799550E+04  0.19845799550E+04  0.50400001928E-02 0. -1.
    10030    2    1    2    0    0  0.00000000000E+00  0.00000000000E+00 -0.10405221193E+04  0.29286377908E+04  0.27375596850E+04 0.  0.
        4    1    3    3  502    0  0.13210057870E+04 -0.21008878246E+03 -0.83098751001E+03  0.15747175748E+04  0.12699999809E+01 0. -1.
       -4    1    3    3    0  502 -0.13210057870E+04  0.21008878246E+03 -0.20953460925E+03  0.13539202160E+04  0.12699999809E+01 0.  1.
</event>
<event>
 5   0  0.1105862E-05  0.1636595E+04  0.7818609E-02  0.8798376E-01
       -1   -1    0    0    0  501  0.00000000000E+00  0.00000000000E+00  0.32129865334E+03  0.32129865338E+03  0.50400001928E-02 0. -1.
        1   -1    0    0  501    0  0.00000000000E+00  0.00000000000E+00 -0.20840759311E+04  0.20840759311E+04  0.50400001928E-02 0.  1.
    10030    2    1    2    0    0  0.00000000000E+00  0.00000000000E+00 -0.17627772778E+04  0.24053745845E+04  0.16365949898E+04 0.  0.
        3    1    3    3  502    0 -0.18430174261E+01 -0.81525021831E+03 -0.98504946897E+03  0.12786550675E+04  0.10100000352E+00 0.  1.
       -3    1    3    3    0  502  0.18430174261E+01  0.81525021831E+03 -0.77772780881E+03  0.11267195170E+04  0.10100000352E+00 0. -1.
</event>
<event>
 5   0  0.1017456E-05  0.2627236E+04  0.7818609E-02  0.8359008E-01
        1   -1    0    0  501    0  0.00000000000E+00  0.00000000000E+00  0.21895357272E+04  0.21895357272E+04  0.50400001928E-02 0. -1.
       -1   -1    0    0    0  501  0.00000000000E+00  0.00000000000E+00 -0.78810874770E+03  0.78810874772E+03  0.50400001928E-02 0.  1.
    10030    2    1    2    0    0  0.00000000000E+00  0.00000000000E+00  0.14014269795E+04  0.29776444749E+04  0.26272360077E+04 0.  0.
        5    1    3    3  502    0 -0.85748736662E+02 -0.91461774426E+03  0.17649352447E+04  0.19896977087E+04  0.46999998093E+01 0. -1.
       -5    1    3    3    0  502  0.85748736662E+02  0.91461774426E+03 -0.36350826524E+03  0.98794676620E+03  0.46999998093E+01 0.  1.
</event>
<event>
 5   0  0.1017456E-05  0.2341884E+04  0.7818609E-02  0.8461588E-01
        1   -1    0    0  501    0  0.00000000000E+00  0.00000000000E+00  0.16115009999E+04  0.16115009999E+04  0.50400001928E-02 0.  1.
       -1   -1    0    0    0  501  0.00000000000E+00  0.00000000000E+00 -0.85082467786E+03  0.85082467787E+03  0.50400001928E-02 0. -1.
    10030    2    1    2    0    0  0.00000000000E+00  0.00000000000E+00  0.76067632208E+03  0.24623256778E+04  0.23418837026E+04 0.  0.
        5    1    3    3  502    0  0.45676719745E+03  0.47182537248E+03  0.13996432487E+04  0.15460526409E+04  0.46999998093E+01 0.  1.
       -5    1    3    3    0  502 -0.45676719745E+03 -0.47182537248E+03 -0.63896692666E+03  0.91627303689E+03  0.46999998093E+01 0. -1.
</event>
<event>
 5   0  0.2624815E-05  0.2860033E+04  0.7818609E-02  0.8284869E-01
        2   -1    0    0  501    0  0.00000000000E+00  0.00000000000E+00  0.25055940153E+04  0.25055940153E+04  0.25500000920E-02 0.  1.
       -2   -1    0    0    0  501  0.00000000000E+00  0.00000000000E+00 -0.81615266930E+03  0.81615266931E+03  0.25500000920E-02 0. -1.
    10030    2    1    2    0    0  0.00000000000E+00  0.00000000000E+00  0.16894413460E+04  0.33217466846E+04  0.28600330374E+04 0.  0.
        4    1    3    3  502    0 -0.11649373396E+04  0.73694253385E+03  0.12866504217E+04  0.18856389432E+04  0.12699999809E+01 0.  1.
       -4    1    3    3    0  502  0.11649373396E+04 -0.73694253385E+03  0.40279092427E+03  0.14361077414E+04  0.12699999809E+01 0. -1.
</event>
<event>
 5   0  0.2697964E-05  0.2757124E+04  0.7818609E-02  0.8316705E-01
        2   -1    0    0  501    0  0.00000000000E+00  0.00000000000E+00  0.16268025655E+04  0.16268025655E+04  0.25500000920E-02 0.  1.
       -2   -1    0    0    0  501  0.00000000000E+00  0.00000000000E+00 -0.11682014800E+04  0.11682014800E+04  0.25500000920E-02 0. -1.
    10030    2    1    2    0    0  0.00000000000E+00  0.00000000000E+00  0.45860108554E+03  0.27950040455E+04  0.27571239832E+04 0.  0.
        1    1    3    3  502    0 -0.22742712064E+03 -0.12236833060E+04 -0.37155618558E+03  0.12989141340E+04  0.50400001928E-02 0. -1.
       -1    1    3    3    0  502  0.22742712064E+03  0.12236833060E+04  0.83015727111E+03  0.14960899115E+04  0.50400001928E-02 0.  1.
</event>
<event>
 5   0  0.1075146E-05  0.2784693E+04  0.7818609E-02  0.8308036E-01
       -1   -1    0    0    0  501  0.00000000000E+00  0.00000000000E+00  0.15231169324E+04  0.15231169324E+04  0.50400001928E-02 0.  1.
        1   -1    0    0  501    0  0.00000000000E+00  0.00000000000E+00 -0.12728034202E+04  0.12728034202E+04  0.50400001928E-02 0. -1.
    10030    2    1    2    0    0  0.00000000000E+00  0.00000000000E+00  0.25031351218E+03  0.27959203526E+04  0.27846927593E+04 0.  0.
        2    1    3    3  502    0  0.21034051462E+03 -0.73394448959E+03  0.12942012400E+04  0.15026225392E+04  0.25500000920E-02 0.  1.
       -2    1    3    3    0  502 -0.21034051462E+03  0.73394448959E+03 -0.10438877278E+04  0.12932978134E+04  0.25500000920E-02 0. -1.
</event>
<event>
 5   0  0.2518686E-05  0.2908886E+04  0.7818609E-02  0.8270239E-01
        2   -1    0    0  501    0  0.00000000000E+00  0.00000000000E+00  0.20412505077E+04  0.20412505077E+04  0.25500000920E-02 0.  1.
       -2   -1    0    0    0  501  0.00000000000E+00  0.00000000000E+00 -0.10363273553E+04  0.10363273553E+04  0.25500000920E-02 0. -1.
    10030    2    1    2    0    0  0.00000000000E+00  0.00000000000E+00  0.10049231524E+04  0.30775778630E+04  0.29088855187E+04 0.  0.
        5    1    3    3  502    0 -0.13670777210E+04  0.38038213770E+03  0.84000844977E+03  0.16490082934E+04  0.46999998093E+01 0. -1.
       -5    1    3    3    0  502  0.13670777210E+04 -0.38038213770E+03  0.16491470265E+03  0.14285695696E+04  0.46999998093E+01 0.  1.
</event>
<event>
 5   0  0.1075146E-05  0.1506371E+04  0.7818609E-02  0.8880227E-01
        1   -1    0    0  501    0  0.00000000000E+00  0.00000000000E+00  0.14790014430E+04  0.14790014430E+04  0.50400001928E-02 0. -1.
       -1   -1    0    0    0  501  0.00000000000E+00  0.00000000000E+00 -0.38356178136E+03  0.38356178140E+03  0.50400001928E-02 0.  1.
    10030    2    1    2    0    0  0.00000000000E+00  0.00000000000E+00  0.10954396617E+04  0.18625632244E+04  0.15063710408E+04 0.  0.
        2    1    3    3  502    0 -0.62312816899E+03 -0.26875078428E+02  0.25651602102E+02  0.62423472310E+03  0.25500000920E-02 0.  1.
       -2    1    3    3    0  502  0.62312816899E+03  0.26875078428E+02  0.10697880596E+04  0.12383285013E+04  0.25500000920E-02 0. -1.
</event>
<event>
 5   0  0.2588048E-05  0.2927257E+04  0.7818609E-02  0.8264814E-01
       -2   -1    0    0    0  501  0.00000000000E+00  0.00000000000E+00  0.10617420025E+04  0.10617420025E+04  0.25500000920E-02 0.  1.
        2   -1    0    0  501    0  0.00000000000E+00  0.00000000000E+00 -0.20176360075E+04  0.20176360075E+04  0.25500000920E-02 0. -1.
    10030    2    1    2    0    0  0.00000000000E+00  0.00000000000E+00 -0.95589400505E+03  0.30793780100E+04  0.29272573477E+04 0.  0.
        2    1    3    3  502    0  0.11649011092E+04 -0.96490032117E+02 -0.14045764286E+04  0.18273313504E+04  0.25500000920E-02 0. -1.
       -2    1    3    3    0  502 -0.11649011092E+04  0.96490032117E+02  0.44868242352E+03  0.12520466596E+04  0.25500000920E-02 0.  1.
</event>
<event>
 5   0  0.2651061E-05  0.1540918E+04  0.7818609E-02  0.8857689E-01
        2   -1    0    0  501    0  0.00000000000E+00  0.00000000000E+00  0.23753060487E+04  0.23753060487E+04  0.25500000920E-02 0. -1.
       -2   -1    0    0    0  501  0.00000000000E+00  0.00000000000E+00 -0.24990777166E+03  0.24990777167E+03  0.25500000920E-02 0.  1.
    10030    2    1    2    0    0  0.00000000000E+00  0.00000000000E+00  0.21253982771E+04  0.26252138204E+04  0.15409184815E+04 0.  0.
        3    1    3    3  502    0  0.13552979219E+03 -0.29306335123E+03  0.22544792570E+04  0.22774835198E+04  0.10100000352E+00 0. -1.
       -3    1    3    3    0  502 -0.13552979219E+03  0.29306335123E+03 -0.12908097992E+03  0.34773030064E+03  0.10100000352E+00 0.  1.
</event>
<event>
 5   0  0.2697964E-05  0.2643692E+04  0.7818609E-02  0.8353510E-01
       -2   -1    0    0    0  501  0.00000000000E+00  0.00000000000E+00  0.92451048174E+03  0.92451048174E+03  0.25500000920E-02 0.  1.
        2   -1    0    0  501    0  0.00000000000E+00  0.00000000000E+00 -0.18899480902E+04  0.18899480902E+04  0.25500000920E-02 0. -1.
    10030    2    1    2    0    0  0.00000000000E+00  0.00000000000E+00 -0.96543760851E+03  0.28144585720E+04  0.26436919786E+04 0.  0.
        1    1    3    3  502    0 -0.11473745945E+04 -0.34844948113E+03  0.10943983333E+03  0.12041023952E+04  0.50400001928E-02 0.  1.
       -1    1    3    3    0  502  0.11473745945E+04  0.34844948113E+03 -0.10748774418E+04  0.16103561768E+04  0.50400001928E-02 0. -1.
</event>
<event>
 5   0  0.2624815E-05  0.1619504E+04  0.7818609E-02  0.8808655E-01
       -2   -1    0    0    0  501  0.00000000000E+00  0.00000000000E+00  0.16071699538E+04  0.16071699538E+04  0.25500000920E-02 0. -1.
        2   -1    0    0  501    0  0.00000000000E+00  0.00000000000E+00 -0.40798320879E+03  0.40798320880E+03  0.25500000920E-02 0.  1.
    10030    2    1    2    0    0  0.00000000000E+00  0.00000000000E+00  0.11991867450E+04  0.20151531626E+04  0.16195040659E+04 0.  0.
        4    1    3    3  502    0 -0.75249899668E+03 -0.24626870267E+03  0.38845120925E+03  0.88192911778E+03  0.12699999809E+01 0.  1.
       -4    1    3    3    0  502  0.75249899668E+03  0.24626870267E+03  0.81073553575E+03  0.11332240448E+04  0.12699999809E+01 0. -1.
</event>
<event>
 5   0  0.1017456E-05  0.2632618E+04  0.7818609E-02  0.8357205E-01
        1   -1    0    0  501    0  0.00000000000E+00  0.00000000000E+00  0.11009166497E+04  0.11009166497E+04  0.50400001928E-02 0. -1.
       -1   -1    0    0    0  501  0.00000000000E+00  0.00000000000E+00 -0.15738422968E+04  0.15738422968E+04  0.50400001928E-02 0.  1.
    10030    2    1    2    0    0  0.00000000000E+00  0.00000000000E+00 -0.47292564713E+03  0.26747589465E+04  0.26326178519E+04 0.  0.
        5    1    3    3  502    0 -0.89417902755E+02 -0.98217385116E+03 -0.11221893287E+04  0.14939852792E+04  0.46999998093E+01 0.  1.
       -5    1    3    3    0  502  0.89417902755E+02  0.98217385116E+03  0.64926368153E+03  0.11807736673E+04  0.46999998093E+01 0. -1.
</event>
<event>
 5   0  0.1067434E-05  0.2766095E+04  0.7818609E-02  0.8313873E-01
        1   -1    0    0  501    0  0.00000000000E+00  0.00000000000E+00  0.12367974452E+04  0.12367974452E+04  0.50400001928E-02 0.  1.
       -1   -1    0    0    0  501  0.00000000000E+00  0.00000000000E+00 -0.15465912059E+04  0.15465912059E+04  0.50400001928E-02 0. -1.
    10030    2    1    2    0    0  0.00000000000E+00  0.00000000000E+00 -0.30979376070E+03  0.27833886511E+04  0.27660947578E+04 0.  0.
        4    1    3    3  502    0  0.22242071874E+03 -0.43866638846E+03  0.11458252561E+04  0.12469227350E+04  0.12699999809E+01 0.  1.
       -4    1    3    3    0  502 -0.22242071874E+03  0.43866638846E+03 -0.14556190168E+04  0.15364659162E+04  0.12699999809E+01 0. -1.
</event>
<event>
 5   0  0.1017456E-05  0.3036232E+04  0.7818609E-02  0.8233460E-01
        1   -1    0    0  501    0  0.00000000000E+00  0.00000000000E+00  0.23862495504E+04  0.23862495504E+04  0.50400001928E-02 0. -1.
       -1   -1    0    0    0  501  0.00000000000E+00  0.00000000000E+00 -0.96581521048E+03  0.96581521049E+03  0.50400001928E-02 0.  1.
    10030    2    1    2    0    0  0.00000000000E+00  0.00000000000E+00  0.14204343399E+04  0.33520647609E+04  0.30362319489E+04 0.  0.
        5    1    3    3  502    0  0.13495745044E+04 -0.19739220530E+03  0.14461440557E+04  0.19878807172E+04  0.46999998093E+01 0. -1.
       -5    1    3    3    0  502 -0.13495745044E+04  0.19739220530E+03 -0.25709715822E+02  0.13641840437E+04  0.46999998093E+01 0.  1.
</event>
<event>
 5   0  0.2651061E-05  0.1739995E+04  0.7818609E-02  0.8738877E-01
       -2   -1    0    0    0  501  0.00000000000E+00  0.00000000000E+00  0.65856696341E+03  0.65856696341E+03  0.25500000920E-02 0.  1.
        2   -1    0    0  501    0  0.00000000000E+00  0.00000000000E+00 -0.11493076480E+04  0.11493076480E+04  0.25500000920E-02 0. -1.
    10030    2    1    2    0    0  0.00000000000E+00  0.00000000000E+00 -0.49074068463E+03  0.18078746115E+04  0.17399954572E+04 0.  0.
        3    1    3    3  502    0  0.44369194181E+03  0.72709383811E+03 -0.42938988410E+03  0.95388871018E+03  0.10100000352E+00 0. -1.
       -3    1    3    3    0  502 -0.44369194181E+03 -0.72709383811E+03 -0.61350800534E+02  0.85398590127E+03  0.10100000352E+00 0.  1.
</event>
<event>
 5   0  0.2588048E-05  0.1970737E+04  0.7818609E-02  0.8620426E-01
        2   -1    0    0  501    0  0.00000000000E+00  0.00000000000E+00  0.13889955954E+04  0.13889955954E+04  0.25500000920E-02 0.  1.
       -2   -1    0    0    0  501  0.00000000000E+00  0.00000000000E+00 -0.69903079686E+03  0.69903079686E+03  0.25500000920E-02 0. -1.
    10030    2    1    2    0    0  0.00000000000E+00  0.00000000000E+00  0.68996479854E+03  0.20880263923E+04  0.19707366114E+04 0.  0.
        2    1    3    3  502    0  0.32199570787E+02  0.79096417589E+03 -0.27670107719E+03  0.83858489495E+03  0.25500000920E-02 0. -1.
       -2    1    3    3    0  502 -0.32199570787E+02 -0.79096417589E+03  0.96666587573E+03  0.12494414973E+04  0.25500000920E-02 0.  1.
</event>
<event>
 5   0  0.2518686E-05  0.2814914E+04  0.7818609E-02  0.8298653E-01
        2   -1    0    0  501    0  0.00000000000E+00  0.00000000000E+00  0.21401140862E+04  0.21401140862E+04  0.25500000920E-02 0.  1.
       -2   -1    0    0    0  501  0.00000000000E+00  0.00000000000E+00 -0.92562130050E+03  0.92562130051E+03  0.25500000920E-02 0. -1.
    10030    2    1    2    0    0  0.00000000000E+00  0.00000000000E+00  0.12144927857E+04  0.30657353867E+04  0.28149139836E+04 0.  0.
        5    1    3    3  502    0 -0.65884555780E+03  0.11403497356E+04  0.66587352917E+02  0.13186853127E+04  0.46999998093E+01 0. -1.
       -5    1    3    3    0  502  0.65884555780E+03 -0.11403497356E+04  0.11479054328E+04  0.17470500740E+04  0.46999998093E+01 0.  1.
</event>
<event>
 5   0  0.1067434E-05  0.2796987E+04  0.7818609E-02  0.8304204E-01
        1   -1    0    0  501    0  0.00000000000E+00  0.00000000000E+00  0.16153161813E+04  0.16153161813E+04  0.50400001928E-02 0. -1.
       -1   -1    0    0    0  501  0.00000000000E+00  0.00000000000E+00 -0.12107746441E+04  0.12107746442E+04  0.50400001928E-02 0.  1.
    10030    2    1    2    0    0  0.00000000000E+00  0.00000000000E+00  0.40454153713E+03  0.28260908254E+04  0.27969868606E+04 0.  0.
        4    1    3    3  502    0  0.31197408458E+03  0.92378031316E+03  0.12152416178E+04  0.15580473995E+04  0.12699999809E+01 0. -1.
       -4    1    3    3    0  502 -0.31197408458E+03 -0.92378031316E+03 -0.81070008069E+03  0.12680434260E+04  0.12699999809E+01 0.  1.
</event>
<event>
 5   0  0.1078103E-05  0.2882327E+04  0.7818609E-02  0.8278155E-01
        1   -1    0    0  501    0  0.00000000000E+00  0.00000000000E+00  0.13389274998E+04  0.13389274998E+04  0.50400001928E-02 0. -1.
       -1   -1    0    0    0  501  0.00000000000E+00  0.00000000000E+00 -0.15512061993E+04  0.15512061993E+04  0.50400001928E-02 0.  1.
    10030    2    1    2    0    0  0.00000000000E+00  0.00000000000E+00 -0.21227869950E+03  0.28901336991E+04  0.28823272806E+04 0.  0.
        1    1    3    3  502    0 -0.86230145288E+03  0.11542037516E+04 -0.14091095852E+03  0.14476208047E+04  0.50400001928E-02 0. -1.
       -1    1    3    3    0  502  0.86230145288E+03 -0.11542037516E+04 -0.71367740981E+02  0.14425128944E+04  0.50400001928E-02 0.  1.
</event>
<event>
 5   0  0.2588048E-05  0.2765623E+04  0.7818609E-02  0.8314021E-01
       -2   -1    0    0    0  501  0.00000000000E+00  0.00000000000E+00  0.98268259718E+03  0.98268259718E+03  0.25500000920E-02 0. -1.
        2   -1    0    0  501    0  0.00000000000E+00  0.00000000000E+00 -0.19458650525E+04  0.19458650525E+04  0.25500000920E-02 0.  1.
    10030    2    1    2    0    0  0.00000000000E+00  0.00000000000E+00 -0.96318245535E+03  0.29285476497E+04  0.27656230572E+04 0.  0.
        2    1    3    3  502    0 -0.46784595148E+03  0.72220687533E+03 -0.16278125181E+04  0.18412594058E+04  0.25500000920E-02 0.  1.
       -2    1    3    3    0  502  0.46784595148E+03 -0.72220687533E+03  0.66463006278E+03  0.10872882440E+04  0.25500000920E-02 0. -1.
</event>
<event>
 5   0  0.8958000E-06  0.2772018E+04  0.7818609E-02  0.8312009E-01
        3   -1    0    0  501    0  0.00000000000E+00  0.00000000000E+00  0.18598686810E+04  0.18598686837E+04  0.10100000352E+00 0.  1.
       -3   -1    0    0    0  501  0.00000000000E+00  0.00000000000E+00 -0.10328802212E+04  0.10328802262E+04  0.10100000352E+00 0. -1.
    10030    2    1    2    0    0  0.00000000000E+00  0.00000000000E+00  0.82698845975E+03  0.28927489099E+04  0.27720184601E+04 0.  0.
        3    1    3    3  502    0 -0.10977712916E+04 -0.62654052045E+03  0.10069143904E+04  0.16160233391E+04  0.10100000352E+00 0.  1.
       -3    1    3    3    0  502  0.10977712916E+04  0.62654052045E+03 -0.17992593070E+03  0.12767255709E+04  0.10100000352E+00 0. -1.
</event>
<event>
 5   0  0.1067434E-05  0.2375160E+04  0.7818609E-02  0.8448862E-01
       -1   -1    0    0    0  501  0.00000000000E+00  0.00000000000E+00  0.31484088698E+04  0.31484088698E+04  0.50400001928E-02 0. -1.
        1   -1    0    0  501    0  0.00000000000E+00  0.00000000000E+00 -0.44795529247E+03  0.44795529250E+03  0.50400001928E-02 0.  1.
    10030    2    1    2    0    0  0.00000000000E+00  0.00000000000E+00  0.27004535774E+04  0.35963641623E+04  0.23751601345E+04 0.  0.
        4    1    3    3  502    0 -0.10485680245E+04  0.51079049890E+03  0.10118442554E+04  0.15440959316E+04  0.12699999809E+01 0.  1.
       -4    1    3    3    0  502  0.10485680245E+04 -0.51079049890E+03  0.16886093219E+04  0.20522682307E+04  0.12699999809E+01 0. -1.
</event>
<event>
 5   0  0.2624815E-05  0.2756791E+04  0.7818609E-02  0.8316810E-01
       -2   -1    0    0    0  501  0.00000000000E+00  0.00000000000E+00  0.13063723224E+04  0.13063723224E+04  0.25500000920E-02 0. -1.
        2   -1    0    0  501    0  0.00000000000E+00  0.00000000000E+00 -0.14543899207E+04  0.14543899207E+04  0.25500000920E-02 0.  1.
    10030    2    1    2    0    0  0.00000000000E+00  0.00000000000E+00 -0.14801759831E+03  0.27607622430E+04  0.27567914236E+04 0.  0.
        4    1    3    3  502    0  0.66633546162E+03  0.11463036392E+04 -0.45132482834E+03  0.14006108289E+04  0.12699999809E+01 0.  1.
       -4    1    3    3    0  502 -0.66633546162E+03 -0.11463036392E+04  0.30330723003E+03  0.13601514141E+04  0.12699999809E+01 0. -1.
</event>
<event>
 5   0  0.1017456E-05  0.2983116E+04  0.7818609E-02  0.8248569E-01
        1   -1    0    0  501    0  0.00000000000E+00  0.00000000000E+00  0.13621182423E+04  0.13621182423E+04  0.50400001928E-02 0.  1.
       -1   -1    0    0    0  501  0.00000000000E+00  0.00000000000E+00 -0.16332983210E+04  0.16332983210E+04  0.50400001928E-02 0. -1.
    10030    2    1    2    0    0  0.00000000000E+00  0.00000000000E+00 -0.27118007864E+03  0.29954165633E+04  0.29831161145E+04 0.  0.
        5    1    3    3  502    0 -0.99864864356E+03 -0.10913174371E+04 -0.32729737535E+03  0.15150638679E+04  0.46999998093E+01 0.  1.
       -5    1    3    3    0  502  0.99864864356E+03  0.10913174371E+04  0.56117296707E+02  0.14803526954E+04  0.46999998093E+01 0. -1.
</event>
<event>
 5   0  0.2651061E-05  0.2776900E+04  0.7818609E-02  0.8310476E-01
        2   -1    0    0  501    0  0.00000000000E+00  0.00000000000E+00  0.25029191653E+04  0.25029191653E+04  0.25500000920E-02 0.  1.
       -2   -1    0    0    0  501  0.00000000000E+00  0.00000000000E+00 -0.77021823039E+03  0.77021823040E+03  0.25500000920E-02 0. -1.
    10030    2    1    2    0    0  0.00000000000E+00  0.00000000000E+00  0.17327009349E+04  0.32731373957E+04  0.27769004090E+04 0.  0.
        3    1    3    3  502    0 -0.11276316431E+04  0.62395823492E+03  0.25738591212E+03  0.13142010955E+04  0.10100000352E+00 0. -1.
       -3    1    3    3    0  502  0.11276316431E+04 -0.62395823492E+03  0.14753150228E+04  0.19589363002E+04  0.10100000352E+00 0.  1.
</event>
<event>
 5   0  0.2697964E-05  0.2637286E+04  0.7818609E-02  0.8355645E-01
       -2   -1    0    0    0  501  0.00000000000E+00  0.00000000000E+00  0.10629528554E+04  0.10629528554E+04  0.25500000920E-02 0. -1.
        2   -1    0    0  501    0  0.00000000000E+00  0.00000000000E+00 -0.16358385657E+04  0.16358385657E+04  0.25500000920E-02 0.  1.
    10030    2    1    2    0    0  0.00000000000E+00  0.00000000000E+00 -0.57288571029E+03  0.26987914211E+04  0.26372859340E+04 0.  0.
        1    1    3    3  502    0 -0.98323666385E+03  0.74781973909E+03 -0.75853754093E+03  0.14496095682E+04  0.50400001928E-02 0.  1.
       -1    1    3    3    0  502  0.98323666385E+03 -0.74781973909E+03  0.18565183064E+03  0.12491818529E+04  0.50400001928E-02 0. -1.
</event>
<event>
 5   0  0.1105862E-05  0.2777417E+04  0.7818609E-02  0.8310314E-01
        1   -1    0    0  501    0  0.00000000000E+00  0.00000000000E+00  0.15686337199E+04  0.15686337199E+04  0.50400001928E-02 0. -1.
       -1   -1    0    0    0  501  0.00000000000E+00  0.00000000000E+00 -0.12294208995E+04  0.12294208995E+04  0.50400001928E-02 0.  1.
    10030    2    1    2    0    0  0.00000000000E+00  0.00000000000E+00  0.33921282047E+03  0.27980546194E+04  0.27774168423E+04 0.  0.
        3    1    3    3  502    0 -0.13485643655E+04  0.21392127460E+03 -0.85500211282E+02  0.13681003092E+04  0.10100000352E+00 0. -1.
       -3    1    3    3    0  502  0.13485643655E+04 -0.21392127460E+03  0.42471303175E+03  0.14299543102E+04  0.10100000352E+00 0.  1.
</event>
<event>
 5   0  0.1067434E-05  0.2797685E+04  0.7818609E-02  0.8303987E-01
       -1   -1    0    0    0  501  0.00000000000E+00  0.00000000000E+00  0.95022725688E+03  0.95022725690E+03  0.50400001928E-02 0.  1.
        1   -1    0    0  501    0  0.00000000000E+00  0.00000000000E+00 -0.20592557508E+04  0.20592557508E+04  0.50400001928E-02 0. -1.
    10030    2    1    2    0    0  0.00000000000E+00  0.00000000000E+00 -0.11090284939E+04  0.30094830077E+04  0.27976854315E+04 0.  0.
        4    1    3    3  502    0  0.74504411403E+03 -0.19488164719E+03  0.70166264787E+03  0.10418261240E+04  0.12699999809E+01 0.  1.
       -4    1    3    3    0  502 -0.74504411403E+03  0.19488164719E+03 -0.18106911418E+04  0.19676568837E+04  0.12699999809E+01 0. -1.
</event>
<event>
 5   0  0.1067434E-05  0.1590775E+04  0.7818609E-02  0.8826236E-01
       -1   -1    0    0    0  501  0.00000000000E+00  0.00000000000E+00  0.37706959335E+03  0.37706959339E+03  0.50400001928E-02 0.  1.
        1   -1    0    0  501    0  0.00000000000E+00  0.00000000000E+00 -0.16777830304E+04  0.16777830304E+04  0.50400001928E-02 0. -1.
    10030    2    1    2    0    0  0.00000000000E+00  0.00000000000E+00 -0.13007134371E+04  0.20548526238E+04  0.15907746101E+04 0.  0.
        4    1    3    3  502    0  0.19788059221E+03 -0.87722170953E+02  0.33829211409E+03  0.40161558162E+03  0.12699999809E+01 0.  1.
       -4    1    3    3    0  502 -0.19788059221E+03  0.87722170953E+02 -0.16390055511E+04  0.16532370422E+04  0.12699999809E+01 0. -1.
</event>
<event>
 5   0  0.1067434E-05  0.2797730E+04  0.7818609E-02  0.8303973E-01
       -1   -1    0    0    0  501  0.00000000000E+00  0.00000000000E+00  0.94408114704E+03  0.94408114706E+03  0.50400001928E-02 0. -1.
        1   -1    0    0  501    0  0.00000000000E+00  0.00000000000E+00 -0.20727285428E+04  0.20727285428E+04  0.50400001928E-02 0.  1.
    10030    2    1    2    0    0  0.00000000000E+00  0.00000000000E+00 -0.11286473958E+04  0.30168096899E+04  0.27977304661E+04 0.  0.
        4    1    3    3  502    0  0.11854656971E+04 -0.38173827855E+03 -0.12512049019E+04  0.17653805119E+04  0.12699999809E+01 0.  1.
       -4    1    3    3    0  502 -0.11854656971E+04  0.38173827855E+03  0.12255750609E+03  0.12514291780E+04  0.12699999809E+01 0. -1.
</event>
<event>
 5   0  0.1105862E-05  0.2725424E+04  0.7818609E-02  0.8326803E-01
        1   -1    0    0  501    0  0.00000000000E+00  0.00000000000E+00  0.12641172622E+04  0.12641172622E+04  0.50400001928E-02 0.  1.
       -1   -1    0    0    0  501  0.00000000000E+00  0.00000000000E+00 -0.14689966418E+04  0.14689966418E+04  0.50400001928E-02 0. -1.
    10030    2    1    2    0    0  0.00000000000E+00  0.00000000000E+00 -0.20487937958E+03  0.27331139041E+04  0.27254240133E+04 0.  0.
        3    1    3    3  502    0  0.83222140994E+03  0.15247022417E+03  0.96881798712E+03  0.12862534536E+04  0.10100000352E+00 0.  1.
       -3    1    3    3    0  502 -0.83222140994E+03 -0.15247022417E+03 -0.11736973667E+04  0.14468604505E+04  0.10100000352E+00 0. -1.
</event>
<event>
 5   0  0.2518686E-05  0.2829139E+04  0.7818609E-02  0.8294279E-01
       -2   -1    0    0    0  501  0.00000000000E+00  0.00000000000E+00  0.22948657321E+04  0.22948657321E+04  0.25500000920E-02 0. -1.
        2   -1    0    0  501    0  0.00000000000E+00  0.00000000000E+00 -0.87194953990E+03  0.87194953991E+03  0.25500000920E-02 0.  1.
    10030    2    1    2    0    0  0.00000000000E+00  0.00000000000E+00  0.14229161922E+04  0.31668152720E+04  0.28291391759E+04 0.  0.
        5    1    3    3  502    0  0.42231575120E+03  0.11826355332E+04  0.14403367885E+04  0.19109080440E+04  0.46999998093E+01 0. -1.
       -5    1    3    3    0  502 -0.42231575120E+03 -0.11826355332E+04 -0.17420596351E+02  0.12559072280E+04  0.46999998093E+01 0.  1.
</event>
<event>
 5   0  0.2588048E-05  0.2797677E+04  0.7818609E-02  0.8303990E-01
       -2   -1    0    0    0  501  0.00000000000E+00  0.00000000000E+00  0.12821519176E+04  0.12821519176E+04  0.25500000920E-02 0.  1.
        2   -1    0    0  501    0  0.00000000000E+00  0.00000000000E+00 -0.15261448937E+04  0.15261448937E+04  0.25500000920E-02 0. -1.
    10030    2    1    2    0    0  0.00000000000E+00  0.00000000000E+00 -0.24399297609E+03  0.28082968113E+04  0.27976773238E+04 0.  0.
        2    1    3    3  502    0  0.59451130727E+03  0.85904740914E+03 -0.10557658951E+04  0.14852770014E+04  0.25500000920E-02 0. -1.
       -2    1    3    3    0  502 -0.59451130727E+03 -0.85904740914E+03  0.81177291896E+03  0.13230198100E+04  0.25500000920E-02 0.  1.
</event>
<event>
 5   0  0.1075146E-05  0.2822677E+04  0.7818609E-02  0.8296262E-01
        1   -1    0    0  501    0  0.00000000000E+00  0.00000000000E+00  0.16571457829E+04  0.16571457829E+04  0.50400001928E-02 0.  1.
       -1   -1    0    0    0  501  0.00000000000E+00  0.00000000000E+00 -0.12019926115E+04  0.12019926115E+04  0.50400001928E-02 0. -1.
    10030    2    1    2    0    0  0.00000000000E+00  0.00000000000E+00  0.45515317142E+03  0.28591383944E+04  0.28226774433E+04 0.  0.
        2    1    3    3  502    0  0.59447254031E+03 -0.11713428166E+04  0.75041788084E+03  0.15128015703E+04  0.25500000920E-02 0.  1.
       -2    1    3    3    0  502 -0.59447254031E+03  0.11713428166E+04 -0.29526470942E+03  0.13463368241E+04  0.25500000920E-02 0. -1.
</event>
<event>
 5   0  0.1078103E-05  0.2794732E+04  0.7818609E-02  0.8304906E-01
        1   -1    0    0  501    0  0.00000000000E+00  0.00000000000E+00  0.19646711109E+04  0.19646711109E+04  0.50400001928E-02 0.  1.
       -1   -1    0    0    0  501  0.00000000000E+00  0.00000000000E+00 -0.99387218601E+03  0.99387218602E+03  0.50400001928E-02 0. -1.
    10030    2    1    2    0    0  0.00000000000E+00  0.00000000000E+00  0.97079892488E+03  0.29585432969E+04  0.27947321673E+04 0.  0.
        1    1    3    3  502    0 -0.72416549618E+03  0.10388318033E+04  0.11108288960E+04  0.16844963691E+04  0.50400001928E-02 0.  1.
       -1    1    3    3    0  502  0.72416549618E+03 -0.10388318033E+04 -0.14002997109E+03  0.12740469278E+04  0.50400001928E-02 0. -1.
</event>
<event>
 5   0  0.1105862E-05  0.2728777E+04  0.7818609E-02  0.8325728E-01
        1   -1    0    0  501    0  0.00000000000E+00  0.00000000000E+00  0.16491568712E+04  0.16491568713E+04  0.50400001928E-02 0. -1.
       -1   -1    0    0    0  501  0.00000000000E+00  0.00000000000E+00 -0.11287921988E+04  0.11287921988E+04  0.50400001928E-02 0.  1.
    10030    2    1    2    0    0  0.00000000000E+00  0.00000000000E+00  0.52036467244E+03  0.27779490701E+04  0.27287765837E+04 0.  0.
        3    1    3    3  502    0 -0.29307713374E+03 -0.13269288473E+04  0.13582950413E+03  0.13656807960E+04  0.10100000352E+00 0. -1.
       -3    1    3    3    0  502  0.29307713374E+03  0.13269288473E+04  0.38453516831E+03  0.14122682741E+04  0.10100000352E+00 0.  1.
</event>
<event>
 5   0  0.1078103E-05  0.2174500E+04  0.7818609E-02  0.8529117E-01
        1   -1    0    0  501    0  0.00000000000E+00  0.00000000000E+00  0.30775053386E+04  0.30775053386E+04  0.50400001928E-02 0.  1.
       -1   -1    0    0    0  501  0.00000000000E+00  0.00000000000E+00 -0.38411387654E+03  0.38411387657E+03  0.50400001928E-02 0. -1.
    10030    2    1    2    0    0  0.00000000000E+00  0.00000000000E+00  0.26933914620E+04  0.34616192151E+04  0.21744999478E+04 0.  0.
        1    1    3    3  502    0 -0.58782877968E+03 -0.38545829115E+02 -0.10804294718E+03  0.59891713418E+03  0.50400001928E-02 0. -1.
       -1    1    3    3    0  502  0.58782877968E+03  0.38545829115E+02  0.28014344092E+04  0.28627020810E+04  0.50400001928E-02 0.  1.
</event>
<event>
 5   0  0.1067434E-05  0.2833722E+04  0.7818609E-02  0.8292875E-01
       -1   -1    0    0    0  501  0.00000000000E+00  0.00000000000E+00  0.12409400796E+04  0.12409400796E+04  0.50400001928E-02 0. -1.
        1   -1    0    0  501    0  0.00000000000E+00  0.00000000000E+00 -0.16177214207E+04  0.16177214207E+04  0.50400001928E-02 0.  1.
    10030    2    1    2    0    0  0.00000000000E+00  0.00000000000E+00 -0.37678134113E+03  0.28586615003E+04  0.28337221801E+04 0.  0.
        4    1    3    3  502    0 -0.49775587687E+03 -0.54660057614E+03 -0.14077303873E+04  0.15900438859E+04  0.12699999809E+01 0.  1.
       -4    1    3    3    0  502  0.49775587687E+03  0.54660057614E+03  0.10309490462E+04  0.12686176144E+04  0.12699999809E+01 0. -1.
</event>
<event>
 5   0  0.1067434E-05  0.2792278E+04  0.7818609E-02  0.8305670E-01
       -1   -1    0    0    0  501  0.00000000000E+00  0.00000000000E+00  0.14709528817E+04  0.14709528817E+04  0.50400001928E-02 0.  1.
        1   -1    0    0  501    0  0.00000000000E+00  0.00000000000E+00 -0.13251300938E+04  0.13251300938E+04  0.50400001928E-02 0. -1.
    10030    2    1    2    0    0  0.00000000000E+00  0.00000000000E+00  0.14582278789E+03  0.27960829755E+04  0.27922778731E+04 0.  0.
        4    1    3    3  502    0 -0.67916335156E+03 -0.49698771780E+03  0.11884054976E+04  0.14562173221E+04  0.12699999809E+01 0.  1.
       -4    1    3    3    0  502  0.67916335156E+03  0.49698771780E+03 -0.10425827097E+04  0.13398656534E+04  0.12699999809E+01 0. -1.
</event>
<event>
 5   0  0.1105862E-05  0.2631265E+04  0.7818609E-02  0.8357658E-01
       -1   -1    0    0    0  501  0.00000000000E+00  0.00000000000E+00  0.86377922928E+03  0.86377922929E+03  0.50400001928E-02 0.  1.
        1   -1    0    0  501    0  0.00000000000E+00  0.00000000000E+00 -0.20038561349E+04  0.20038561349E+04  0.50400001928E-02 0. -1.
    10030    2    1    2    0    0  0.00000000000E+00  0.00000000000E+00 -0.11400769056E+04  0.28676353642E+04  0.26312653289E+04 0.  0.
        3    1    3    3  502    0  0.11941520412E+04  0.32522654166E+03 -0.83727073049E+02  0.12404763738E+04  0.10100000352E+00 0.  1.
       -3    1    3    3    0  502 -0.11941520412E+04 -0.32522654166E+03 -0.10563498325E+04  0.16271589904E+04  0.10100000352E+00 0. -1.
</event>
<event>
 5   0  0.2588048E-05  0.2870335E+04  0.7818609E-02  0.8281759E-01
       -2   -1    0    0    0  501  0.00000000000E+00  0.00000000000E+00  0.20715371124E+04  0.20715371124E+04  0.25500000920E-02 0.  1.
        2   -1    0    0  501    0  0.00000000000E+00  0.00000000000E+00 -0.99428888492E+03  0.99428888492E+03  0.25500000920E-02 0. -1.
    10030    2    1    2    0    0  0.00000000000E+00  0.00000000000E+00  0.10772482275E+04  0.30658259973E+04  0.28703353989E+04 0.  0.
        2    1    3    3  502    0  0.13042985817E+04  0.59740521778E+03  0.49565298995E+03  0.15178141095E+04  0.25500000920E-02 0.  1.
       -2    1    3    3    0  502 -0.13042985817E+04 -0.59740521778E+03  0.58159523754E+03  0.15480118878E+04  0.25500000920E-02 0. -1.
</event>
<event>
 5   0  0.1017456E-05  0.2784205E+04  0.7818609E-02  0.8308189E-01
        1   -1    0    0  501    0  0.00000000000E+00  0.00000000000E+00  0.82171811889E+03  0.82171811891E+03  0.50400001928E-02 0. -1.
       -1   -1    0    0    0  501  0.00000000000E+00  0.00000000000E+00 -0.23584114095E+04  0.23584114095E+04  0.50400001928E-02 0.  1.
    10030    2    1    2    0    0  0.00000000000E+00  0.00000000000E+00 -0.15366932906E+04  0.31801295284E+04  0.27842050118E+04 0.  0.
        5    1    3    3  502    0 -0.76508261477E+03  0.11353559712E+04 -0.48042357889E+03  0.14509353858E+04  0.46999998093E+01 0. -1.
       -5    1    3    3    0  502  0.76508261477E+03 -0.11353559712E+04 -0.10562697117E+04  0.17291941425E+04  0.46999998093E+01 0.  1.
</event>
<event>
 5   0  0.2697964E-05  0.2745510E+04  0.7818609E-02  0.8320388E-01
       -2   -1    0    0    0  501  0.00000000000E+00  0.00000000000E+00  0.15391168571E+04  0.15391168571E+04  0.25500000920E-02 0. -1.
        2   -1    0    0  501    0  0.00000000000E+00  0.00000000000E+00 -0.12243752297E+04  0.12243752297E+04  0.25500000920E-02 0.  1.
    10030    2    1    2    0    0  0.00000000000E+00  0.00000000000E+00  0.31474162736E+03  0.27634920868E+04  0.27455101933E+04 0.  0.
        1    1    3    3  502    0 -0.65152926346E+02 -0.63948354203E+03 -0.10635337480E+04  0.12426939034E+04  0.50400001928E-02 0.  1.
       -1    1    3    3    0  502  0.65152926346E+02  0.63948354203E+03  0.13782753754E+04  0.15207981834E+04  0.50400001928E-02 0. -1.
</event>
<event>
 5   0  0.1105862E-05  0.2503497E+04  0.7818609E-02  0.8401741E-01
        1   -1    0    0  501    0  0.00000000000E+00  0.00000000000E+00  0.16472222975E+04  0.16472222975E+04  0.50400001928E-02 0.  1.
       -1   -1    0    0    0  501  0.00000000000E+00  0.00000000000E+00 -0.95122203252E+03  0.95122203254E+03  0.50400001928E-02 0. -1.
    10030    2    1    2    0    0  0.00000000000E+00  0.00000000000E+00  0.69600026501E+03  0.25984443301E+04  0.25034968679E+04 0.  0.
        3    1    3    3  502    0  0.29137554078E+03 -0.12015708753E+04  0.55086582346E+03  0.13535602831E+04  0.10100000352E+00 0. -1.
       -3    1    3    3    0  502 -0.29137554078E+03  0.12015708753E+04  0.14513444155E+03  0.12448840470E+04  0.10100000352E+00 0.  1.
</event>
<event>
 5   0  0.2697964E-05  0.2601354E+04  0.7818609E-02  0.8367741E-01
        2   -1    0    0  501    0  0.00000000000E+00  0.00000000000E+00  0.16477074164E+04  0.16477074164E+04  0.25500000920E-02 0. -1.
       -2   -1    0    0    0  501  0.00000000000E+00  0.00000000000E+00 -0.10267364350E+04  0.10267364350E+04  0.25500000920E-02 0.  1.
    10030    2    1    2    0    0  0.00000000000E+00  0.00000000000E+00  0.62097098137E+03  0.26744438514E+04  0.26013544462E+04 0.  0.
        1    1    3    3  502    0  0.45325013179E+03 -0.38498357636E+03 -0.87878428451E+03  0.10610889947E+04  0.50400001928E-02 0.  1.
       -1    1    3    3    0  502 -0.45325013179E+03  0.38498357636E+03  0.14997552659E+04  0.16133548567E+04  0.50400001928E-02 0. -1.
</event>
<event>
 5   0  0.1078103E-05  0.2823393E+04  0.7818609E-02  0.8296042E-01
        1   -1    0    0  501    0  0.00000000000E+00  0.00000000000E+00  0.16581259381E+04  0.16581259381E+04  0.50400001928E-02 0. -1.
       -1   -1    0    0    0  501  0.00000000000E+00  0.00000000000E+00 -0.12018914882E+04  0.12018914882E+04  0.50400001928E-02 0.  1.
    10030    2    1    2    0    0  0.00000000000E+00  0.00000000000E+00  0.45623444992E+03  0.28600174262E+04  0.28233933139E+04 0.  0.
        1    1    3    3  502    0 -0.97369174039E+03 -0.19691581928E+03  0.12441414422E+04  0.15920864843E+04  0.50400001928E-02 0. -1.
       -1    1    3    3    0  502  0.97369174039E+03  0.19691581928E+03 -0.78790699226E+03  0.12679309420E+04  0.50400001928E-02 0.  1.
</event>
<event>
 5   0  0.2518686E-05  0.2830136E+04  0.7818609E-02  0.8293973E-01
       -2   -1    0    0    0  501  0.00000000000E+00  0.00000000000E+00  0.10864440112E+04  0.10864440112E+04  0.25500000920E-02 0.  1.
        2   -1    0    0  501    0  0.00000000000E+00  0.00000000000E+00 -0.18430927372E+04  0.18430927372E+04  0.25500000920E-02 0. -1.
    10030    2    1    2    0    0  0.00000000000E+00  0.00000000000E+00 -0.75664872596E+03  0.29295367484E+04  0.28301357328E+04 0.  0.
        5    1    3    3  502    0  0.40255723133E+02  0.50769554619E+03  0.98828009009E+03  0.11117980560E+04  0.46999998093E+01 0.  1.
       -5    1    3    3    0  502 -0.40255723133E+02 -0.50769554619E+03 -0.17449288161E+04  0.18177386924E+04  0.46999998093E+01 0. -1.
</event>
<event>
 5   0  0.1075146E-05  0.1400005E+04  0.7818609E-02  0.8953815E-01
        1   -1    0    0  501    0  0.00000000000E+00  0.00000000000E+00  0.15891324377E+04  0.15891324377E+04  0.50400001928E-02 0.  1.
       -1   -1    0    0    0  501  0.00000000000E+00  0.00000000000E+00 -0.30834636708E+03  0.30834636713E+03  0.50400001928E-02 0. -1.
    10030    2    1    2    0    0  0.00000000000E+00  0.00000000000E+00  0.12807860706E+04  0.18974788048E+04  0.14000045915E+04 0.  0.
        2    1    3    3  502    0 -0.27815059692E+03  0.61810255632E+03  0.40336511278E+03  0.78874706904E+03  0.25500000920E-02 0. -1.
       -2    1    3    3    0  502  0.27815059692E+03 -0.61810255632E+03  0.87742095783E+03  0.11087317358E+04  0.25500000920E-02 0.  1.
</event>
<event>
 5   0  0.2651061E-05  0.2835948E+04  0.7818609E-02  0.8292194E-01
        2   -1    0    0  501    0  0.00000000000E+00  0.00000000000E+00  0.20771668239E+04  0.20771668239E+04  0.25500000920E-02 0. -1.
       -2   -1    0    0    0  501  0.00000000000E+00  0.00000000000E+00 -0.96797706107E+03  0.96797706108E+03  0.25500000920E-02 0.  1.
    10030    2    1    2    0    0  0.00000000000E+00  0.00000000000E+00  0.11091897628E+04  0.30451438849E+04  0.28359476988E+04 0.  0.
        3    1    3    3  502    0 -0.67926901609E+03 -0.61846822849E+03 -0.60524151795E+03  0.11001030184E+04  0.10100000352E+00 0.  1.
       -3    1    3    3    0  502  0.67926901609E+03  0.61846822849E+03  0.17144312807E+04  0.19450408665E+04  0.10100000352E+00 0. -1.
</event>
<event>
 5   0  0.2588048E-05  0.2761928E+04  0.7818609E-02  0.8315187E-01
        2   -1    0    0  501    0  0.00000000000E+00  0.00000000000E+00  0.14377350685E+04  0.14377350685E+04  0.25500000920E-02 0.  1.
       -2   -1    0    0    0  501  0.00000000000E+00  0.00000000000E+00 -0.13264346207E+04  0.13264346207E+04  0.25500000920E-02 0. -1.
    10030    2    1    2    0    0  0.00000000000E+00  0.00000000000E+00  0.11130044788E+03  0.27641696892E+04  0.27619280007E+04 0.  0.
        2    1    3    3  502    0  0.11898099671E+04  0.60048708593E+02 -0.64334915684E+03  0.13539393424E+04  0.25500000920E-02 0. -1.
       -2    1    3    3    0  502 -0.11898099671E+04 -0.60048708593E+02  0.75464960472E+03  0.14102303468E+04  0.25500000920E-02 0.  1.
</event>
<event>
 5   0  0.1075146E-05  0.2704114E+04  0.7818609E-02  0.8333671E-01
        1   -1    0    0  501    0  0.00000000000E+00  0.00000000000E+00  0.90482020385E+03  0.90482020386E+03  0.50400001928E-02 0. -1.
       -1   -1    0    0    0  501  0.00000000000E+00  0.00000000000E+00 -0.20203548557E+04  0.20203548557E+04  0.50400001928E-02 0.  1.
    10030    2    1    2    0    0  0.00000000000E+00  0.00000000000E+00 -0.11155346519E+04  0.29251750596E+04  0.27041138234E+04 0.  0.
        2    1    3    3  502    0 -0.99435738785E+03  0.86286364666E+03 -0.22474008566E+03  0.13355854123E+04  0.25500000920E-02 0. -1.
       -2    1    3    3    0  502  0.99435738785E+03 -0.86286364666E+03 -0.89079456619E+03  0.15895896472E+04  0.25500000920E-02 0.  1.
</event>
<event>
 5   0  0.2518686E-05  0.2892735E+04  0.7818609E-02  0.8275042E-01
        2   -1    0    0  501    0  0.00000000000E+00  0.00000000000E+00  0.17748687850E+04  0.17748687850E+04  0.25500000920E-02 0. -1.
       -2   -1    0    0    0  501  0.00000000000E+00  0.00000000000E+00 -0.11786668043E+04  0.11786668043E+04  0.25500000920E-02 0.  1.
    10030    2    1    2    0    0  0.00000000000E+00  0.00000000000E+00  0.59620198072E+03  0.29535355893E+04  0.28927349819E+04 0.  0.
        5    1    3    3  502    0 -0.23445480205E+03 -0.97101527512E+02  0.17519533926E+04  0.17702430739E+04  0.46999998093E+01 0. -1.
       -5    1    3    3    0  502  0.23445480205E+03  0.97101527512E+02 -0.11557514119E+04  0.11832925154E+04  0.46999998093E+01 0.  1.
</event>
<event>
 5   0  0.2518686E-05  0.2686275E+04  0.7818609E-02  0.8339472E-01
        2   -1    0    0  501    0  0.00000000000E+00  0.00000000000E+00  0.17485249316E+04  0.17485249316E+04  0.25500000920E-02 0.  1.
       -2   -1    0    0    0  501  0.00000000000E+00  0.00000000000E+00 -0.10317368983E+04  0.10317368983E+04  0.25500000920E-02 0. -1.
    10030    2    1    2    0    0  0.00000000000E+00  0.00000000000E+00  0.71678803335E+03  0.27802618299E+04  0.26862745128E+04 0.  0.
        5    1    3    3  502    0  0.64024520907E+03 -0.82032156838E+03  0.12373140697E+04  0.16167280539E+04  0.46999998093E+01 0.  1.
       -5    1    3    3    0  502 -0.64024520907E+03  0.82032156838E+03 -0.52052603635E+03  0.11635337760E+04  0.46999998093E+01 0. -1.
</event>
<event>
 5   0  0.2651061E-05  0.2886773E+04  0.7818609E-02  0.8276824E-01
        2   -1    0    0  501    0  0.00000000000E+00  0.00000000000E+00  0.18710337808E+04  0.18710337808E+04  0.25500000920E-02 0. -1.
       -2   -1    0    0    0  501  0.00000000000E+00  0.00000000000E+00 -0.11134831107E+04  0.11134831107E+04  0.25500000920E-02 0.  1.
    10030    2    1    2    0    0  0.00000000000E+00  0.00000000000E+00  0.75755067016E+03  0.29845168915E+04  0.28867729488E+04 0.  0.
        3    1    3    3  502    0  0.53789124795E+02 -0.50490584029E+03 -0.10180987126E+04  0.11376942367E+04  0.10100000352E+00 0.  1.
       -3    1    3    3    0  502 -0.53789124795E+02  0.50490584029E+03  0.17756493827E+04  0.18468226548E+04  0.10100000352E+00 0. -1.
</event>
<event>
 5   0  0.2697964E-05  0.2827187E+04  0.7818609E-02  0.8294877E-01
        2   -1    0    0  501    0  0.00000000000E+00  0.00000000000E+00  0.14543907125E+04  0.14543907125E+04  0.25500000920E-02 0. -1.
       -2   -1    0    0    0  501  0.00000000000E+00  0.00000000000E+00 -0.13739407607E+04  0.13739407607E+04  0.25500000920E-02 0.  1.
    10030    2    1    2    0    0  0.00000000000E+00  0.00000000000E+00  0.80449951747E+02  0.28283314732E+04  0.28271870698E+04 0.  0.
        1    1    3    3  502    0 -0.66295056872E+03 -0.10354957115E+04  0.73799699154E+03  0.14340133837E+04  0.50400001928E-02 0.  1.
       -1    1    3    3    0  502  0.66295056872E+03  0.10354957115E+04 -0.65754703979E+03  0.13943180895E+04  0.50400001928E-02 0. -1.
</event>
<event>
 5   0  0.1017456E-05  0.2811421E+04  0.7818609E-02  0.8299731E-01
        1   -1    0    0  501    0  0.00000000000E+00  0.00000000000E+00  0.18064178638E+04  0.18064178638E+04  0.50400001928E-02 0.  1.
       -1   -1    0    0    0  501  0.00000000000E+00  0.00000000000E+00 -0.10938899315E+04  0.10938899315E+04  0.50400001928E-02 0. -1.
    10030    2    1    2    0    0  0.00000000000E+00  0.00000000000E+00  0.71252793225E+03  0.29003077953E+04  0.28114212159E+04 0.  0.
        5    1    3    3  502    0 -0.32758477574E+03 -0.13256323168E+04  0.70056331623E+03  0.15347390249E+04  0.46999998093E+01 0.  1.
       -5    1    3    3    0  502  0.32758477574E+03  0.13256323168E+04  0.11964616016E+02  0.13655687704E+04  0.46999998093E+01 0. -1.
</event>
<event>
 5   0  0.1078103E-05  0.2778609E+04  0.7818609E-02  0.8309940E-01
       -1   -1    0    0    0  501  0.00000000000E+00  0.00000000000E+00  0.82777400279E+03  0.82777400281E+03  0.50400001928E-02 0.  1.
        1   -1    0    0  501    0  0.00000000000E+00  0.00000000000E+00 -0.23317555265E+04  0.23317555265E+04  0.50400001928E-02 0. -1.
    10030    2    1    2    0    0  0.00000000000E+00  0.00000000000E+00 -0.15039815237E+04  0.31595295293E+04  0.27786087207E+04 0.  0.
        1    1    3    3  502    0 -0.80981636340E+03  0.24461462876E+03 -0.20051283148E+04  0.21762762733E+04  0.50400001928E-02 0. -1.
       -1    1    3    3    0  502  0.80981636340E+03 -0.24461462876E+03  0.50114679113E+03  0.98325325594E+03  0.50400001928E-02 0.  1.
</event>
<event>
 5   0  0.2588048E-05  0.2872363E+04  0.7818609E-02  0.8281148E-01
       -2   -1    0    0    0  501  0.00000000000E+00  0.00000000000E+00  0.77927276005E+03  0.77927276005E+03  0.25500000920E-02 0. -1.
        2   -1    0    0  501    0  0.00000000000E+00  0.00000000000E+00 -0.26468480603E+04  0.26468480603E+04  0.25500000920E-02 0.  1.
    10030    2    1    2    0    0  0.00000000000E+00  0.00000000000E+00 -0.18675753003E+04  0.34261208204E+04  0.28723625073E+04 0.  0.
        2    1    3    3  502    0 -0.12704873818E+04  0.65364953023E+03 -0.11075450281E+04  0.18077753967E+04  0.25500000920E-02 0. -1.
       -2    1    3    3    0  502  0.12704873818E+04 -0.65364953023E+03 -0.76003027214E+03  0.16183454236E+04  0.25500000920E-02 0.  1.
</event>
<event>
 5   0  0.1075146E-05  0.3007336E+04  0.7818609E-02  0.8241639E-01
       -1   -1    0    0    0  501  0.00000000000E+00  0.00000000000E+00  0.14456186175E+04  0.14456186175E+04  0.50400001928E-02 0. -1.
        1   -1    0    0  501    0  0.00000000000E+00  0.00000000000E+00 -0.15640484967E+04  0.15640484968E+04  0.50400001928E-02 0.  1.
    10030    2    1    2    0    0  0.00000000000E+00  0.00000000000E+00 -0.11842987922E+03  0.30096671143E+04  0.30073361140E+04 0.  0.
        2    1    3    3  502    0  0.10705768146E+04  0.76740636000E+03  0.66658535552E+03  0.14762734413E+04  0.25500000920E-02 0.  1.
       -2    1    3    3    0  502 -0.10705768146E+04 -0.76740636000E+03 -0.78501523474E+03  0.15333936729E+04  0.25500000920E-02 0. -1.
</event>
<event>
 5   0  0.2697964E-05  0.2836180E+04  0.7818609E-02  0.8292123E-01
        2   -1    0    0  501    0  0.00000000000E+00  0.00000000000E+00  0.20267349944E+04  0.20267349944E+04  0.25500000920E-02 0.  1.
       -2   -1    0    0    0  501  0.00000000000E+00  0.00000000000E+00 -0.99222613830E+03  0.99222613830E+03  0.25500000920E-02 0. -1.
    10030    2    1    2    0    0  0.00000000000E+00  0.00000000000E+00  0.10345088561E+04  0.30189611327E+04  0.28361801331E+04 0.  0.
        1    1    3    3  502    0  0.48300789149E+03  0.12997820153E+04  0.20104129567E+03  0.14011236609E+04  0.50400001928E-02 0. -1.
       -1    1    3    3    0  502 -0.48300789149E+03 -0.12997820153E+04  0.83346756038E+03  0.16178374717E+04  0.50400001928E-02 0.  1.
</event>
<event>
 5   0  0.2518686E-05  0.2696027E+04  0.7818609E-02  0.8336295E-01
        2   -1    0    0  501    0  0.00000000000E+00  0.00000000000E+00  0.11306349821E+04  0.11306349821E+04  0.25500000920E-02 0.  1.
       -2   -1    0    0    0  501  0.00000000000E+00  0.00000000000E+00 -0.16071861822E+04  0.16071861822E+04  0.25500000920E-02 0. -1.
    10030    2    1    2    0    0  0.00000000000E+00  0.00000000000E+00 -0.47655120014E+03  0.27378211643E+04  0.26960273888E+04 0.  0.
        5    1    3    3  502    0 -0.38642689884E+03  0.11007795439E+04 -0.92407971989E+03  0.14882831623E+04  0.46999998093E+01 0. -1.
       -5    1    3    3    0  502  0.38642689884E+03 -0.11007795439E+04  0.44752851975E+03  0.12495380020E+04  0.46999998093E+01 0.  1.
</event>
<event>
 5   0  0.1105862E-05  0.2681013E+04  0.7818609E-02  0.8341192E-01
        1   -1    0    0  501    0  0.00000000000E+00  0.00000000000E+00  0.95631352941E+03  0.95631352942E+03  0.50400001928E-02 0. -1.
       -1   -1    0    0    0  501  0.00000000000E+00  0.00000000000E+00 -0.18790467454E+04  0.18790467454E+04  0.50400001928E-02 0.  1.
    10030    2    1    2    0    0  0.00000000000E+00  0.00000000000E+00 -0.92273321598E+03  0.28353602748E+04  0.26810131108E+04 0.  0.
        3    1    3    3  502    0 -0.46403026358E+03 -0.77853739510E+03  0.58317537389E+03  0.10777467643E+04  0.10100000352E+00 0. -1.
       -3    1    3    3    0  502  0.46403026358E+03  0.77853739510E+03 -0.15059085899E+04  0.17576135105E+04  0.10100000352E+00 0.  1.
</event>
<event>
 5   0  0.1017456E-05  0.2747705E+04  0.7818609E-02  0.8319690E-01
       -1   -1    0    0    0  501  0.00000000000E+00  0.00000000000E+00  0.10260418750E+04  0.10260418750E+04  0.50400001928E-02 0.  1.
        1   -1    0    0  501    0  0.00000000000E+00  0.00000000000E+00 -0.18395645243E+04  0.18395645243E+04  0.50400001928E-02 0. -1.
    10030    2    1    2    0    0  0.00000000000E+00  0.00000000000E+00 -0.81352264927E+03  0.28656063993E+04  0.27477046666E+04 0.  0.
        5    1    3    3  502    0  0.42634469272E+03  0.98260206220E+03 -0.13040096912E+04  0.16875248071E+04  0.46999998093E+01 0.  1.
       -5    1    3    3    0  502 -0.42634469272E+03 -0.98260206220E+03  0.49048704195E+03  0.11780815922E+04  0.46999998093E+01 0. -1.
</event>
<event>
 5   0  0.2697964E-05  0.2869318E+04  0.7818609E-02  0.8282065E-01
        2   -1    0    0  501    0  0.00000000000E+00  0.00000000000E+00  0.12658336906E+04  0.12658336906E+04  0.25500000920E-02 0. -1.
       -2   -1    0    0    0  501  0.00000000000E+00  0.00000000000E+00 -0.16260011885E+04  0.16260011885E+04  0.25500000920E-02 0.  1.
    10030    2    1    2    0    0  0.00000000000E+00  0.00000000000E+00 -0.36016749789E+03  0.28918348792E+04  0.28693184455E+04 0.  0.
        1    1    3    3  502    0 -0.18491215870E+03  0.25099328461E+03  0.12312828793E+04  0.12701368683E+04  0.50400001928E-02 0. -1.
       -1    1    3    3    0  502  0.18491215870E+03 -0.25099328461E+03 -0.15914503772E+04  0.16216980109E+04  0.50400001928E-02 0.  1.
</event>
<event>
 5   0  0.2624815E-05  0.2841246E+04  0.7818609E-02  0.8290576E-01
        2   -1    0    0  501    0  0.00000000000E+00  0.00000000000E+00  0.16173042782E+04  0.16173042782E+04  0.25500000920E-02 0. -1.
       -2   -1    0    0    0  501  0.00000000000E+00  0.00000000000E+00 -0.12478599478E+04  0.12478599478E+04  0.25500000920E-02 0.  1.
    10030    2    1    2    0    0  0.00000000000E+00  0.00000000000E+00  0.36944433046E+03  0.28651642260E+04  0.28412456650E+04 0.  0.
        4    1    3    3  502    0 -0.12675707817E+04 -0.31705995086E+03 -0.37756028844E+03  0.13600794401E+04  0.12699999809E+01 0.  1.
       -4    1    3    3    0  502  0.12675707817E+04  0.31705995086E+03  0.74700461890E+03  0.15050847859E+04  0.12699999809E+01 0. -1.
</event>
<event>
 5   0  0.8958000E-06  0.2829636E+04  0.7818609E-02  0.8294126E-01
        4   -1    0    0  501    0  0.00000000000E+00  0.00000000000E+00  0.15582312020E+04  0.15582317195E+04  0.12699999809E+01 0.  1.
       -4   -1    0    0    0  501  0.00000000000E+00  0.00000000000E+00 -0.12846027885E+04  0.12846034163E+04  0.12699999809E+01 0. -1.
    10030    2    1    2    0    0  0.00000000000E+00  0.00000000000E+00  0.27362841348E+03  0.28428351358E+04  0.28296358601E+04 0.  0.
        3    1    3    3  502    0 -0.13068141331E+04  0.35157606846E+03 -0.27783470940E+03  0.13815068029E+04  0.10100000352E+00 0. -1.
       -3    1    3    3    0  502  0.13068141331E+04 -0.35157606846E+03  0.55146312288E+03  0.14613283329E+04  0.10100000352E+00 0.  1.
</event>
<event>
 5   0  0.1067434E-05  0.1590116E+04  0.7818609E-02  0.8826643E-01
       -1   -1    0    0    0  501  0.00000000000E+00  0.00000000000E+00  0.54851316764E+03  0.54851316767E+03  0.50400001928E-02 0. -1.
        1   -1    0    0  501    0  0.00000000000E+00  0.00000000000E+00 -0.11524196594E+04  0.11524196594E+04  0.50400001928E-02 0.  1.
    10030    2    1    2    0    0  0.00000000000E+00  0.00000000000E+00 -0.60390649177E+03  0.17009328271E+04  0.15901161692E+04 0.  0.
        4    1    3    3  502    0  0.69974235626E+02  0.18001797908E+03  0.52303638617E+03  0.55755855352E+03  0.12699999809E+01 0. -1.
       -4    1    3    3    0  502 -0.69974235626E+02 -0.18001797908E+03 -0.11269428779E+04  0.11433742736E+04  0.12699999809E+01 0.  1.
</event>
<event>
 5   0  0.2651061E-05  0.2808185E+04  0.7818609E-02  0.8300732E-01
        2   -1    0    0  501    0  0.00000000000E+00  0.00000000000E+00  0.21729479578E+04  0.21729479578E+04  0.25500000920E-02 0.  1.
       -2   -1    0    0    0  501  0.00000000000E+00  0.00000000000E+00 -0.90728141910E+03  0.90728141910E+03  0.25500000920E-02 0. -1.
    10030    2    1    2    0    0  0.00000000000E+00  0.00000000000E+00  0.12656665387E+04  0.30802293769E+04  0.28081846854E+04 0.  0.
        3    1    3    3  502    0 -0.13760741622E+04 -0.27592488715E+03  0.58680821320E+03  0.15212029886E+04  0.10100000352E+00 0.  1.
       -3    1    3    3    0  502  0.13760741622E+04  0.27592488715E+03  0.67885832551E+03  0.15590263883E+04  0.10100000352E+00 0. -1.
</event>
<event>
 5   0  0.1078103E-05  0.2728337E+04  0.7818609E-02  0.8325869E-01
        1   -1    0    0  501    0  0.00000000000E+00  0.00000000000E+00  0.11578854067E+04  0.11578854067E+04  0.50400001928E-02 0. -1.
       -1   -1    0    0    0  501  0.00000000000E+00  0.00000000000E+00 -0.16072014048E+04  0.16072014048E+04  0.50400001928E-02 0.  1.
    10030    2    1    2    0    0  0.00000000000E+00  0.00000000000E+00 -0.44931599813E+03  0.27650868115E+04  0.27283365278E+04 0.  0.
        1    1    3    3  502    0 -0.73251091633E+03 -0.29725447732E+03  0.90208284205E+03  0.11994523420E+04  0.50400001928E-02 0. -1.
       -1    1    3    3    0  502  0.73251091633E+03  0.29725447732E+03 -0.13513988402E+04  0.15656344695E+04  0.50400001928E-02 0.  1.
</event>
<event>
 5   0  0.2518686E-05  0.2867404E+04  0.7818609E-02  0.8282642E-01
       -2   -1    0    0    0  501  0.00000000000E+00  0.00000000000E+00  0.11268398281E+04  0.11268398281E+04  0.25500000920E-02 0.  1.
        2   -1    0    0  501    0  0.00000000000E+00  0.00000000000E+00 -0.18241293052E+04  0.18241293052E+04  0.25500000920E-02 0. -1.
    10030    2    1    2    0    0  0.00000000000E+00  0.00000000000E+00 -0.69728947702E+03  0.29509691333E+04  0.28674040892E+04 0.  0.
        5    1    3    3  502    0  0.25789253314E+03 -0.22800547917E+03 -0.17809606904E+04  0.18139289203E+04  0.46999998093E+01 0. -1.
       -5    1    3    3    0  502 -0.25789253314E+03  0.22800547917E+03  0.10836712134E+04  0.11370402130E+04  0.46999998093E+01 0.  1.
</event>
<event>
 5   0  0.1075146E-05  0.3001871E+04  0.7818609E-02  0.8243197E-01
        1   -1    0    0  501    0  0.00000000000E+00  0.00000000000E+00  0.10582838168E+04  0.10582838168E+04  0.50400001928E-02 0. -1.
       -1   -1    0    0    0  501  0.00000000000E+00  0.00000000000E+00 -0.21287369727E+04  0.21287369727E+04  0.50400001928E-02 0.  1.
    10030    2    1    2    0    0  0.00000000000E+00  0.00000000000E+00 -0.10704531559E+04  0.31870207895E+04  0.30018713420E+04 0.  0.
        2    1    3    3  502    0 -0.92128934035E+03 -0.10489548378E+04  0.49879948452E+02  0.13969854365E+04  0.25500000920E-02 0. -1.
       -2    1    3    3    0  502  0.92128934035E+03  0.10489548378E+04 -0.11203331044E+04  0.17900353531E+04  0.25500000920E-02 0.  1.
</event>
<event>
 5   0  0.2697964E-05  0.2806942E+04  0.7818609E-02  0.8301116E-01
       -2   -1    0    0    0  501  0.00000000000E+00  0.00000000000E+00  0.10908742092E+04  0.10908742092E+04  0.25500000920E-02 0. -1.
        2   -1    0    0  501    0  0.00000000000E+00  0.00000000000E+00 -0.18056449353E+04  0.18056449353E+04  0.25500000920E-02 0.  1.
    10030    2    1    2    0    0  0.00000000000E+00  0.00000000000E+00 -0.71477072615E+03  0.28965191445E+04  0.28069424582E+04 0.  0.
        1    1    3    3  502    0 -0.87502947892E+03  0.35208384281E+03  0.71505522470E+03  0.11836146314E+04  0.50400001928E-02 0. -1.
       -1    1    3    3    0  502  0.87502947892E+03 -0.35208384281E+03 -0.14298259508E+04  0.17129045131E+04  0.50400001928E-02 0.  1.
</event>
<event>
 5   0  0.2588048E-05  0.2606250E+04  0.7818609E-02  0.8366081E-01
       -2   -1    0    0    0  501  0.00000000000E+00  0.00000000000E+00  0.14792822435E+04  0.14792822435E+04  0.25500000920E-02 0. -1.
        2   -1    0    0  501    0  0.00000000000E+00  0.00000000000E+00 -0.11479453714E+04  0.11479453714E+04  0.25500000920E-02 0.  1.
    10030    2    1    2    0    0  0.00000000000E+00  0.00000000000E+00  0.33133687216E+03  0.26272276149E+04  0.26062503367E+04 0.  0.
        2    1    3    3  502    0  0.28482907190E+03  0.12466186692E+04 -0.87248380628E+02  0.12817168121E+04  0.25500000920E-02 0.  1.
       -2    1    3    3    0  502 -0.28482907190E+03 -0.12466186692E+04  0.41858525279E+03  0.13455108028E+04  0.25500000920E-02 0. -1.
</event>
<event>
 5   0  0.8958000E-06  0.2815599E+04  0.7818609E-02  0.8298442E-01
       -3   -1    0    0    0  501  0.00000000000E+00  0.00000000000E+00  0.14050936772E+04  0.14050936808E+04  0.10100000352E+00 0. -1.
        3   -1    0    0  501    0  0.00000000000E+00  0.00000000000E+00 -0.14105103290E+04  0.14105103326E+04  0.10100000352E+00 0.  1.
    10030    2    1    2    0    0  0.00000000000E+00  0.00000000000E+00 -0.54166518114E+01  0.28156040135E+04  0.28155988032E+04 0.  0.
        4    1    3    3  502    0 -0.74813107759E+03 -0.28115489693E+03  0.11562370257E+04  0.14055724306E+04  0.12699999809E+01 0. -1.
       -4    1    3    3    0  502  0.74813107759E+03  0.28115489693E+03 -0.11616536775E+04  0.14100315828E+04  0.12699999809E+01 0.  1.
</event>
<event>
 5   0  0.1067434E-05  0.2480068E+04  0.7818609E-02  0.8410121E-01
        1   -1    0    0  501    0  0.00000000000E+00  0.00000000000E+00  0.11923308249E+04  0.11923308249E+04  0.50400001928E-02 0.  1.
       -1   -1    0    0    0  501  0.00000000000E+00  0.00000000000E+00 -0.12896451851E+04  0.12896451851E+04  0.50400001928E-02 0. -1.
    10030    2    1    2    0    0  0.00000000000E+00  0.00000000000E+00 -0.97314360238E+02  0.24819760100E+04  0.24800675050E+04 0.  0.
        4    1    3    3  502    0 -0.54303515223E+03  0.61516661741E+03  0.88177056295E+03  0.12045074024E+04  0.12699999809E+01 0.  1.
       -4    1    3    3    0  502  0.54303515223E+03 -0.61516661741E+03 -0.97908492319E+03  0.12774686076E+04  0.12699999809E+01 0. -1.
</event>
<event>
 5   0  0.2624815E-05  0.2539445E+04  0.7818609E-02  0.8389066E-01
       -2   -1    0    0    0  501  0.00000000000E+00  0.00000000000E+00  0.68006951161E+03  0.68006951162E+03  0.25500000920E-02 0.  1.
        2   -1    0    0  501    0  0.00000000000E+00  0.00000000000E+00 -0.23706326061E+04  0.23706326061E+04  0.25500000920E-02 0. -1.
    10030    2    1    2    0    0  0.00000000000E+00  0.00000000000E+00 -0.16905630945E+04  0.30507021177E+04  0.25394447886E+04 0.  0.
        4    1    3    3  502    0 -0.16013613982E+02  0.13221029505E+03  0.67165523320E+03  0.68473232955E+03  0.12699999809E+01 0.  1.
       -4    1    3    3    0  502  0.16013613982E+02 -0.13221029505E+03 -0.23622183277E+04  0.23659697881E+04  0.12699999809E+01 0. -1.
</event>
<event>
 5   0  0.2518686E-05  0.2805274E+04  0.7818609E-02  0.8301633E-01
       -2   -1    0    0    0  501  0.00000000000E+00  0.00000000000E+00  0.92358508736E+03  0.92358508736E+03  0.25500000920E-02 0. -1.
        2   -1    0    0  501    0  0.00000000000E+00  0.00000000000E+00 -0.21301668661E+04  0.21301668661E+04  0.25500000920E-02 0.  1.
    10030    2    1    2    0    0  0.00000000000E+00  0.00000000000E+00 -0.12065817788E+04  0.30537519535E+04  0.28052738555E+04 0.  0.
        5    1    3    3  502    0  0.78602254222E+03 -0.52898638471E+03 -0.17291694986E+04  0.19717269783E+04  0.46999998093E+01 0.  1.
       -5    1    3    3    0  502 -0.78602254222E+03  0.52898638471E+03  0.52258771980E+03  0.10820249752E+04  0.46999998093E+01 0. -1.
</event>
<event>
 5   0  0.1078103E-05  0.2767693E+04  0.7818609E-02  0.8313369E-01
       -1   -1    0    0    0  501  0.00000000000E+00  0.00000000000E+00  0.31510813159E+04  0.31510813159E+04  0.50400001928E-02 0.  1.
        1   -1    0    0  501    0  0.00000000000E+00  0.00000000000E+00 -0.60773780507E+03  0.60773780509E+03  0.50400001928E-02 0. -1.
    10030    2    1    2    0    0  0.00000000000E+00  0.00000000000E+00  0.25433435108E+04  0.37588191210E+04  0.27676930773E+04 0.  0.
        1    1    3    3  502    0 -0.12576112253E+04  0.21738845506E+03  0.54513291479E+03  0.13878089311E+04  0.50400001928E-02 0. -1.
       -1    1    3    3    0  502  0.12576112253E+04 -0.21738845506E+03  0.19982105960E+04  0.23710101899E+04  0.50400001928E-02 0.  1.
</event>
<event>
 5   0  0.2624815E-05  0.2783928E+04  0.7818609E-02  0.8308275E-01
       -2   -1    0    0    0  501  0.00000000000E+00  0.00000000000E+00  0.17693947029E+04  0.17693947029E+04  0.25500000920E-02 0. -1.
        2   -1    0    0  501    0  0.00000000000E+00  0.00000000000E+00 -0.10950435250E+04  0.10950435250E+04  0.25500000920E-02 0.  1.
    10030    2    1    2    0    0  0.00000000000E+00  0.00000000000E+00  0.67435117793E+03  0.28644382278E+04  0.27839283126E+04 0.  0.
        4    1    3    3  502    0 -0.73744559692E+03  0.11692252619E+04  0.50514139517E+03  0.14717619249E+04  0.12699999809E+01 0.  1.
       -4    1    3    3    0  502  0.73744559692E+03 -0.11692252619E+04  0.16920978276E+03  0.13926763030E+04  0.12699999809E+01 0. -1.
</event>
<event>
 5   0  0.1105862E-05  0.2753885E+04  0.7818609E-02  0.8317730E-01
       -1   -1    0    0    0  501  0.00000000000E+00  0.00000000000E+00  0.15073809343E+04  0.15073809343E+04  0.50400001928E-02 0. -1.
        1   -1    0    0  501    0  0.00000000000E+00  0.00000000000E+00 -0.12577911906E+04  0.12577911906E+04  0.50400001928E-02 0.  1.
    10030    2    1    2    0    0  0.00000000000E+00  0.00000000000E+00  0.24958974370E+03  0.27651721249E+04  0.27538848633E+04 0.  0.
        3    1    3    3  502    0 -0.80695015218E+03 -0.45682904703E+03  0.11468613400E+04  0.14748397437E+04  0.10100000352E+00 0. -1.
       -3    1    3    3    0  502  0.80695015218E+03  0.45682904703E+03 -0.89727159626E+03  0.12903323812E+04  0.10100000352E+00 0.  1.
</event>
<event>
 5   0  0.1075146E-05  0.2768532E+04  0.7818609E-02  0.8313105E-01
       -1   -1    0    0    0  501  0.00000000000E+00  0.00000000000E+00  0.11689364017E+04  0.11689364017E+04  0.50400001928E-02 0. -1.
        1   -1    0    0  501    0  0.00000000000E+00  0.00000000000E+00 -0.16392609246E+04  0.16392609246E+04  0.50400001928E-02 0.  1.
    10030    2    1    2    0    0  0.00000000000E+00  0.00000000000E+00 -0.47032452292E+03  0.28081973264E+04  0.27685315723E+04 0.  0.
        2    1    3    3  502    0  0.10971852248E+03  0.38974550542E+03  0.11075298265E+04  0.11792209419E+04  0.25500000920E-02 0. -1.
       -2    1    3    3    0  502 -0.10971852248E+03 -0.38974550542E+03 -0.15778543494E+04  0.16289763845E+04  0.25500000920E-02 0.  1.
</event>
<event>
 5   0  0.1075146E-05  0.2844496E+04  0.7818609E-02  0.8289586E-01
        1   -1    0    0  501    0  0.00000000000E+00  0.00000000000E+00  0.15434780165E+04  0.15434780165E+04  0.50400001928E-02 0. -1.
       -1   -1    0    0    0  501  0.00000000000E+00  0.00000000000E+00 -0.13105393792E+04  0.13105393792E+04  0.50400001928E-02 0.  1.
    10030    2    1    2    0    0  0.00000000000E+00  0.00000000000E+00  0.23293863723E+03  0.28540173957E+04  0.28444955416E+04 0.  0.
        2    1    3    3  502    0 -0.11794845356E+04  0.16451296401E+03  0.89659403219E+03  0.14906807651E+04  0.25500000920E-02 0. -1.
       -2    1    3    3    0  502  0.11794845356E+04 -0.16451296401E+03 -0.66365539495E+03  0.13633366306E+04  0.25500000920E-02 0.  1.
</event>
<event>
 5   0  0.1078103E-05  0.2311075E+04  0.7818609E-02  0.8473567E-01
        1   -1    0    0  501    0  0.00000000000E+00  0.00000000000E+00  0.13581480561E+04  0.13581480561E+04  0.50400001928E-02 0. -1.
       -1   -1    0    0    0  501  0.00000000000E+00  0.00000000000E+00 -0.98315266337E+03  0.98315266338E+03  0.50400001928E-02 0.  1.
    10030    2    1    2    0    0  0.00000000000E+00  0.00000000000E+00  0.37499539274E+03  0.23413007195E+04  0.23110749695E+04 0.  0.
        1    1    3    3  502    0  0.41250917327E+03 -0.19496416037E+03  0.12630285053E+04  0.13429131941E+04  0.50400001928E-02 0. -1.
       -1    1    3    3    0  502 -0.41250917327E+03  0.19496416037E+03 -0.88803311251E+03  0.99838752537E+03  0.50400001928E-02 0.  1.
</event>
<event>
 5   0  0.1017456E-05  0.2860231E+04  0.7818609E-02  0.8284809E-01
       -1   -1    0    0    0  501  0.00000000000E+00  0.00000000000E+00  0.13831941798E+04  0.13831941798E+04  0.50400001928E-02 0.  1.
        1   -1    0    0  501    0  0.00000000000E+00  0.00000000000E+00 -0.14786285223E+04  0.14786285223E+04  0.50400001928E-02 0. -1.
    10030    2    1    2    0    0  0.00000000000E+00  0.00000000000E+00 -0.95434342534E+02  0.28618227021E+04  0.28602310159E+04 0.  0.
        5    1    3    3  502    0 -0.91606648794E+03  0.73834787285E+03  0.76567610729E+03  0.14037868011E+04  0.46999998093E+01 0.  1.
       -5    1    3    3    0  502  0.91606648794E+03 -0.73834787285E+03 -0.86111044982E+03  0.14580359010E+04  0.46999998093E+01 0. -1.
</event>
<event>
 5   0  0.1075146E-05  0.2788223E+04  0.7818609E-02  0.8306934E-01
        1   -1    0    0  501    0  0.00000000000E+00  0.00000000000E+00  0.14492965133E+04  0.14492965133E+04  0.50400001928E-02 0. -1.
       -1   -1    0    0    0  501  0.00000000000E+00  0.00000000000E+00 -0.13410275467E+04  0.13410275467E+04  0.50400001928E-02 0.  1.
    10030    2    1    2    0    0  0.00000000000E+00  0.00000000000E+00  0.10826896661E+03  0.27903240600E+04  0.27882227656E+04 0.  0.
        2    1    3    3  502    0 -0.64888112228E+03  0.89783137375E+03 -0.79290676135E+03  0.13622954961E+04  0.25500000920E-02 0.  1.
       -2    1    3    3    0  502  0.64888112228E+03 -0.89783137375E+03  0.90117572796E+03  0.14280285639E+04  0.25500000920E-02 0. -1.
</event>
<event>
 5   0  0.2624815E-05  0.2758673E+04  0.7818609E-02  0.8316215E-01
        2   -1    0    0  501    0  0.00000000000E+00  0.00000000000E+00  0.14447465050E+04  0.14447465050E+04  0.25500000920E-02 0. -1.
       -2   -1    0    0    0  501  0.00000000000E+00  0.00000000000E+00 -0.13168874547E+04  0.13168874547E+04  0.25500000920E-02 0.  1.
    10030    2    1    2    0    0  0.00000000000E+00  0.00000000000E+00  0.12785905028E+03  0.27616339598E+04  0.27586725415E+04 0.  0.
        4    1    3    3  502    0  0.31934114342E+03 -0.52994192140E+03 -0.11701751562E+04  0.13236799897E+04  0.12699999809E+01 0.  1.
       -4    1    3    3    0  502 -0.31934114342E+03  0.52994192140E+03  0.12980342065E+04  0.14379539701E+04  0.12699999809E+01 0. -1.
</event>
<event>
 5   0  0.2624815E-05  0.2837610E+04  0.7818609E-02  0.8291686E-01
       -2   -1    0    0    0  501  0.00000000000E+00  0.00000000000E+00  0.19860015898E+04  0.19860015898E+04  0.25500000920E-02 0. -1.
        2   -1    0    0  501    0  0.00000000000E+00  0.00000000000E+00 -0.10135981886E+04  0.10135981886E+04  0.25500000920E-02 0.  1.
    10030    2    1    2    0    0  0.00000000000E+00  0.00000000000E+00  0.97240340124E+03  0.29995997784E+04  0.28376099901E+04 0.  0.
        4    1    3    3  502    0 -0.51562050034E+03 -0.11724385579E+04 -0.15899307682E+03  0.12906421207E+04  0.12699999809E+01 0.  1.
       -4    1    3    3    0  502  0.51562050034E+03  0.11724385579E+04  0.11313964781E+04  0.17089576577E+04  0.12699999809E+01 0. -1.
</event>
<event>
 5   0  0.2697964E-05  0.1664955E+04  0.7818609E-02  0.8781608E-01
       -2   -1    0    0    0  501  0.00000000000E+00  0.00000000000E+00  0.65365896447E+03  0.65365896447E+03  0.25500000920E-02 0. -1.
        2   -1    0    0  501    0  0.00000000000E+00  0.00000000000E+00 -0.10602151218E+04  0.10602151218E+04  0.25500000920E-02 0.  1.
    10030    2    1    2    0    0  0.00000000000E+00  0.00000000000E+00 -0.40655615728E+03  0.17138740862E+04  0.16649553971E+04 0.  0.
        1    1    3    3  502    0  0.18808697061E+03 -0.46565923754E+03  0.48015975266E+03  0.69481553100E+03  0.50400001928E-02 0. -1.
       -1    1    3    3    0  502 -0.18808697061E+03  0.46565923754E+03 -0.88671590994E+03  0.10190585552E+04  0.50400001928E-02 0.  1.
</event>
<event>
 5   0  0.1067434E-05  0.2817717E+04  0.7818609E-02  0.8297789E-01
        1   -1    0    0  501    0  0.00000000000E+00  0.00000000000E+00  0.14289824140E+04  0.14289824140E+04  0.50400001928E-02 0.  1.
       -1   -1    0    0    0  501  0.00000000000E+00  0.00000000000E+00 -0.13890181328E+04  0.13890181328E+04  0.50400001928E-02 0. -1.
    10030    2    1    2    0    0  0.00000000000E+00  0.00000000000E+00  0.39964281219E+02  0.28180005467E+04  0.28177171500E+04 0.  0.
        4    1    3    3  502    0 -0.11486909000E+04 -0.65115422039E+02 -0.79321099078E+03  0.13974677423E+04  0.12699999809E+01 0. -1.
       -4    1    3    3    0  502  0.11486909000E+04  0.65115422039E+02  0.83317527200E+03  0.14205328045E+04  0.12699999809E+01 0.  1.
</event>
<event>
 5   0  0.1067434E-05  0.2773182E+04  0.7818609E-02  0.8311643E-01
        1   -1    0    0  501    0  0.00000000000E+00  0.00000000000E+00  0.14056274050E+04  0.14056274051E+04  0.50400001928E-02 0.  1.
       -1   -1    0    0    0  501  0.00000000000E+00  0.00000000000E+00 -0.13678119277E+04  0.13678119277E+04  0.50400001928E-02 0. -1.
    10030    2    1    2    0    0  0.00000000000E+00  0.00000000000E+00  0.37815477346E+02  0.27734393328E+04  0.27731815163E+04 0.  0.
        4    1    3    3  502    0 -0.94147253951E+03 -0.50028118885E+01 -0.99914404245E+03  0.13728386654E+04  0.12699999809E+01 0. -1.
       -4    1    3    3    0  502  0.94147253951E+03  0.50028118885E+01  0.10369595198E+04  0.14006006674E+04  0.12699999809E+01 0.  1.
</event>
<event>
 5   0  0.2518686E-05  0.2841618E+04  0.7818609E-02  0.8290463E-01
       -2   -1    0    0    0  501  0.00000000000E+00  0.00000000000E+00  0.98491834083E+03  0.98491834083E+03  0.25500000920E-02 0.  1.
        2   -1    0    0  501    0  0.00000000000E+00  0.00000000000E+00 -0.20496101680E+04  0.20496101680E+04  0.25500000920E-02 0. -1.
    10030    2    1    2    0    0  0.00000000000E+00  0.00000000000E+00 -0.10646918272E+04  0.30345285088E+04  0.28416183037E+04 0.  0.
        5    1    3    3  502    0 -0.82723894417E+02 -0.12674641494E+04 -0.12122539605E+04  0.17558161542E+04  0.46999998093E+01 0. -1.
       -5    1    3    3    0  502  0.82723894417E+02  0.12674641494E+04  0.14756213331E+03  0.12787123546E+04  0.46999998093E+01 0.  1.
</event>
<event>
 5   0  0.1017456E-05  0.2782601E+04  0.7818609E-02  0.8308690E-01
        1   -1    0    0  501    0  0.00000000000E+00  0.00000000000E+00  0.78930926252E+03  0.78930926254E+03  0.50400001928E-02 0.  1.
       -1   -1    0    0    0  501  0.00000000000E+00  0.00000000000E+00 -0.24524190557E+04  0.24524190557E+04  0.50400001928E-02 0. -1.
    10030    2    1    2    0    0  0.00000000000E+00  0.00000000000E+00 -0.16631097931E+04  0.32417283182E+04  0.27826009964E+04 0.  0.
        5    1    3    3  502    0  0.38562015634E+03 -0.14461055449E+03 -0.23797683912E+04  0.24151469528E+04  0.46999998093E+01 0. -1.
       -5    1    3    3    0  502 -0.38562015634E+03  0.14461055449E+03  0.71665859811E+03  0.82658136544E+03  0.46999998093E+01 0.  1.
</event>
<event>
 5   0  0.1017456E-05  0.3034116E+04  0.7818609E-02  0.8234055E-01
        1   -1    0    0  501    0  0.00000000000E+00  0.00000000000E+00  0.26173856849E+04  0.26173856849E+04  0.50400001928E-02 0.  1.
       -1   -1    0    0    0  501  0.00000000000E+00  0.00000000000E+00 -0.87929924257E+03  0.87929924259E+03  0.50400001928E-02 0. -1.
    10030    2    1    2    0    0  0.00000000000E+00  0.00000000000E+00  0.17380864423E+04  0.34966849275E+04  0.30341161812E+04 0.  0.
        5    1    3    3  502    0 -0.61753698767E+03 -0.93362937178E+03 -0.31098795483E+03  0.11617879897E+04  0.46999998093E+01 0. -1.
       -5    1    3    3    0  502  0.61753698767E+03  0.93362937178E+03  0.20490743972E+04  0.23348969378E+04  0.46999998093E+01 0.  1.
</event>
<event>
 5   0  0.2588048E-05  0.3158237E+04  0.7818609E-02  0.8199935E-01
        2   -1    0    0  501    0  0.00000000000E+00  0.00000000000E+00  0.21786077342E+04  0.21786077342E+04  0.25500000920E-02 0. -1.
       -2   -1    0    0    0  501  0.00000000000E+00  0.00000000000E+00 -0.11445909950E+04  0.11445909951E+04  0.25500000920E-02 0.  1.
    10030    2    1    2    0    0  0.00000000000E+00  0.00000000000E+00  0.10340167392E+04  0.33231987293E+04  0.31582367197E+04 0.  0.
        2    1    3    3  502    0 -0.10482138063E+04  0.30244519294E+03 -0.68428407648E+03  0.12878159713E+04  0.25500000920E-02 0.  1.
       -2    1    3    3    0  502  0.10482138063E+04 -0.30244519294E+03  0.17183008157E+04  0.20353827580E+04  0.25500000920E-02 0. -1.
</event>
<event>
 5   0  0.1105862E-05  0.2819725E+04  0.7818609E-02  0.8297170E-01
       -1   -1    0    0    0  501  0.00000000000E+00  0.00000000000E+00  0.93539687293E+03  0.93539687295E+03  0.50400001928E-02 0.  1.
        1   -1    0    0  501    0  0.00000000000E+00  0.00000000000E+00 -0.21249941743E+04  0.21249941743E+04  0.50400001928E-02 0. -1.
    10030    2    1    2    0    0  0.00000000000E+00  0.00000000000E+00 -0.11895973013E+04  0.30603910472E+04  0.28197254516E+04 0.  0.
        3    1    3    3  502    0 -0.37978328320E+03 -0.12485705938E+04 -0.15838530570E+02  0.13051493168E+04  0.10100000352E+00 0. -1.
       -3    1    3    3    0  502  0.37978328320E+03  0.12485705938E+04 -0.11737587708E+04  0.17552417304E+04  0.10100000352E+00 0.  1.
</event>
<event>
 5   0  0.2651061E-05  0.2654113E+04  0.7818609E-02  0.8350049E-01
        2   -1    0    0  501    0  0.00000000000E+00  0.00000000000E+00  0.17955040868E+04  0.17955040868E+04  0.25500000920E-02 0. -1.
       -2   -1    0    0    0  501  0.00000000000E+00  0.00000000000E+00 -0.98082721672E+03  0.98082721672E+03  0.25500000920E-02 0.  1.
    10030    2    1    2    0    0  0.00000000000E+00  0.00000000000E+00  0.81467687009E+03  0.27763313035E+04  0.26541132426E+04 0.  0.
        3    1    3    3  502    0 -0.34508965908E+03 -0.92582362494E+03  0.13340471301E+04  0.16600957842E+04  0.10100000352E+00 0. -1.
       -3    1    3    3    0  502  0.34508965908E+03  0.92582362494E+03 -0.51937026003E+03  0.11162355193E+04  0.10100000352E+00 0.  1.
</event>
<event>
 5   0  0.2624815E-05  0.2847748E+04  0.7818609E-02  0.8288596E-01
       -2   -1    0    0    0  501  0.00000000000E+00  0.00000000000E+00  0.88041540309E+03  0.88041540309E+03  0.25500000920E-02 0. -1.
        2   -1    0    0  501    0  0.00000000000E+00  0.00000000000E+00 -0.23027955069E+04  0.23027955069E+04  0.25500000920E-02 0.  1.
    10030    2    1    2    0    0  0.00000000000E+00  0.00000000000E+00 -0.14223801038E+04  0.31832109100E+04  0.28477476253E+04 0.  0.
        4    1    3    3  502    0  0.28300140422E+03  0.21527604868E+03  0.82998814243E+03  0.90294822742E+03  0.12699999809E+01 0. -1.
       -4    1    3    3    0  502 -0.28300140422E+03 -0.21527604868E+03 -0.22523682462E+04  0.22802626825E+04  0.12699999809E+01 0.  1.
</event>
<event>
 5   0  0.2624815E-05  0.2842171E+04  0.7818609E-02  0.8290294E-01
       -2   -1    0    0    0  501  0.00000000000E+00  0.00000000000E+00  0.18211358268E+04  0.18211358268E+04  0.25500000920E-02 0.  1.
        2   -1    0    0  501    0  0.00000000000E+00  0.00000000000E+00 -0.11089144793E+04  0.11089144793E+04  0.25500000920E-02 0. -1.
    10030    2    1    2    0    0  0.00000000000E+00  0.00000000000E+00  0.71222134746E+03  0.29300503061E+04  0.28421709218E+04 0.  0.
        4    1    3    3  502    0 -0.99726636674E+03  0.56799940973E+03 -0.50784609792E+03  0.12550190468E+04  0.12699999809E+01 0. -1.
       -4    1    3    3    0  502  0.99726636674E+03 -0.56799940973E+03  0.12200674454E+04  0.16750312594E+04  0.12699999809E+01 0.  1.
</event>
<event>
 5   0  0.1075146E-05  0.2826995E+04  0.7818609E-02  0.8294936E-01
        1   -1    0    0  501    0  0.00000000000E+00  0.00000000000E+00  0.13798349014E+04  0.13798349014E+04  0.50400001928E-02 0. -1.
       -1   -1    0    0    0  501  0.00000000000E+00  0.00000000000E+00 -0.14479816704E+04  0.14479816704E+04  0.50400001928E-02 0.  1.
    10030    2    1    2    0    0  0.00000000000E+00  0.00000000000E+00 -0.68146768998E+02  0.28278165719E+04  0.28269953276E+04 0.  0.
        2    1    3    3  502    0  0.26640504712E+03  0.27500074554E+02 -0.14223698434E+04  0.14473644581E+04  0.25500000920E-02 0.  1.
       -2    1    3    3    0  502 -0.26640504712E+03 -0.27500074554E+02  0.13542230744E+04  0.13804521138E+04  0.25500000920E-02 0. -1.
</event>
<event>
 5   0  0.2697964E-05  0.2773505E+04  0.7818609E-02  0.8311542E-01
       -2   -1    0    0    0  501  0.00000000000E+00  0.00000000000E+00  0.13920248247E+04  0.13920248247E+04  0.25500000920E-02 0. -1.
        2   -1    0    0  501    0  0.00000000000E+00  0.00000000000E+00 -0.13814998048E+04  0.13814998048E+04  0.25500000920E-02 0.  1.
    10030    2    1    2    0    0  0.00000000000E+00  0.00000000000E+00  0.10525019944E+02  0.27735246295E+04  0.27735046591E+04 0.  0.
        1    1    3    3  502    0 -0.61331733015E+03 -0.71359415042E+03  0.10239490213E+04  0.13906280442E+04  0.50400001928E-02 0. -1.
       -1    1    3    3    0  502  0.61331733015E+03  0.71359415042E+03 -0.10134240014E+04  0.13828965853E+04  0.50400001928E-02 0.  1.
</event>
<event>
 5   0  0.1078103E-05  0.2792454E+04  0.7818609E-02  0.8305615E-01
        1   -1    0    0  501    0  0.00000000000E+00  0.00000000000E+00  0.17228099466E+04  0.17228099466E+04  0.50400001928E-02 0. -1.
       -1   -1    0    0    0  501  0.00000000000E+00  0.00000000000E+00 -0.11315523499E+04  0.11315523499E+04  0.50400001928E-02 0.  1.
    10030    2    1    2    0    0  0.00000000000E+00  0.00000000000E+00  0.59125759669E+03  0.28543622966E+04  0.27924538626E+04 0.  0.
        1    1    3    3  502    0 -0.10927204501E+04  0.56294116933E+03 -0.38125215942E+03  0.12869708432E+04  0.50400001928E-02 0.  1.
       -1    1    3    3    0  502  0.10927204501E+04 -0.56294116933E+03  0.97250975612E+03  0.15673914533E+04  0.50400001928E-02 0. -1.
</event>
<event>
 5   0  0.1017456E-05  0.2814186E+04  0.7818609E-02  0.8298878E-01
       -1   -1    0    0    0  501  0.00000000000E+00  0.00000000000E+00  0.10670251462E+04  0.10670251462E+04  0.50400001928E-02 0.  1.
        1   -1    0    0  501    0  0.00000000000E+00  0.00000000000E+00 -0.18555425412E+04  0.18555425412E+04  0.50400001928E-02 0. -1.
    10030    2    1    2    0    0  0.00000000000E+00  0.00000000000E+00 -0.78851739497E+03  0.29225676874E+04  0.28141858868E+04 0.  0.
        5    1    3    3  502    0  0.96206775267E+03 -0.37125048045E+03 -0.13884615277E+04  0.17295227041E+04  0.46999998093E+01 0. -1.
       -5    1    3    3    0  502 -0.96206775267E+03  0.37125048045E+03  0.59994413274E+03  0.11930449834E+04  0.46999998093E+01 0.  1.
</event>
<event>
 5   0  0.2697964E-05  0.2801684E+04  0.7818609E-02  0.8302746E-01
        2   -1    0    0  501    0  0.00000000000E+00  0.00000000000E+00  0.17915588540E+04  0.17915588540E+04  0.25500000920E-02 0.  1.
       -2   -1    0    0    0  501  0.00000000000E+00  0.00000000000E+00 -0.10953357835E+04  0.10953357835E+04  0.25500000920E-02 0. -1.
    10030    2    1    2    0    0  0.00000000000E+00  0.00000000000E+00  0.69622307058E+03  0.28868946375E+04  0.28016841514E+04 0.  0.
        1    1    3    3  502    0  0.55680171144E+03 -0.72419550079E+03  0.14424244482E+04  0.17073592352E+04  0.50400001928E-02 0.  1.
       -1    1    3    3    0  502 -0.55680171144E+03  0.72419550079E+03 -0.74620137765E+03  0.11795354023E+04  0.50400001928E-02 0. -1.
</event>
<event>
 5   0  0.1017456E-05  0.2787171E+04  0.7818609E-02  0.8307262E-01
       -1   -1    0    0    0  501  0.00000000000E+00  0.00000000000E+00  0.15427419853E+04  0.15427419853E+04  0.50400001928E-02 0. -1.
        1   -1    0    0  501    0  0.00000000000E+00  0.00000000000E+00 -0.12588496693E+04  0.12588496693E+04  0.50400001928E-02 0.  1.
    10030    2    1    2    0    0  0.00000000000E+00  0.00000000000E+00  0.28389231605E+03  0.28015916546E+04  0.27871707792E+04 0.  0.
        5    1    3    3  502    0 -0.90546617302E+03  0.93382999676E+03 -0.36079230323E+03  0.13498520769E+04  0.46999998093E+01 0.  1.
       -5    1    3    3    0  502  0.90546617302E+03 -0.93382999676E+03  0.64468461928E+03  0.14517395778E+04  0.46999998093E+01 0. -1.
</event>
<event>
 5   0  0.1105862E-05  0.2833096E+04  0.7818609E-02  0.8293067E-01
       -1   -1    0    0    0  501  0.00000000000E+00  0.00000000000E+00  0.11311508645E+04  0.11311508645E+04  0.50400001928E-02 0.  1.
        1   -1    0    0  501    0  0.00000000000E+00  0.00000000000E+00 -0.17739522829E+04  0.17739522829E+04  0.50400001928E-02 0. -1.
    10030    2    1    2    0    0  0.00000000000E+00  0.00000000000E+00 -0.64280141841E+03  0.29051031474E+04  0.28330955920E+04 0.  0.
        3    1    3    3  502    0  0.64935417507E+03 -0.24077765711E+03  0.94571418709E+03  0.11721817516E+04  0.10100000352E+00 0.  1.
       -3    1    3    3    0  502 -0.64935417507E+03  0.24077765711E+03 -0.15885156055E+04  0.17329213958E+04  0.10100000352E+00 0. -1.
</event>
<event>
 5   0  0.1067434E-05  0.2364633E+04  0.7818609E-02  0.8452865E-01
       -1   -1    0    0    0  501  0.00000000000E+00  0.00000000000E+00  0.14629272435E+04  0.14629272435E+04  0.50400001928E-02 0. -1.
        1   -1    0    0  501    0  0.00000000000E+00  0.00000000000E+00 -0.95553066160E+03  0.95553066161E+03  0.50400001928E-02 0.  1.
    10030    2    1    2    0    0  0.00000000000E+00  0.00000000000E+00  0.50739658190E+03  0.24184579051E+04  0.23646326031E+04 0.  0.
        4    1    3    3  502    0  0.75064722620E+03  0.74383098242E+03  0.79596935783E+03  0.13229983447E+04  0.12699999809E+01 0. -1.
       -4    1    3    3    0  502 -0.75064722620E+03 -0.74383098242E+03 -0.28857277593E+03  0.10954595604E+04  0.12699999809E+01 0.  1.
</event>
<event>
 5   0  0.2518686E-05  0.2804067E+04  0.7818609E-02  0.8302007E-01
        2   -1    0    0  501    0  0.00000000000E+00  0.00000000000E+00  0.24634182603E+04  0.24634182603E+04  0.25500000920E-02 0.  1.
       -2   -1    0    0    0  501  0.00000000000E+00  0.00000000000E+00 -0.79795527602E+03  0.79795527603E+03  0.25500000920E-02 0. -1.
    10030    2    1    2    0    0  0.00000000000E+00  0.00000000000E+00  0.16654629843E+04  0.32613735363E+04  0.28040667595E+04 0.  0.
        5    1    3    3  502    0  0.12164846527E+04 -0.34099486786E+03  0.12567112717E+03  0.12696171598E+04  0.46999998093E+01 0. -1.
       -5    1    3    3    0  502 -0.12164846527E+04  0.34099486786E+03  0.15397918571E+04  0.19917563765E+04  0.46999998093E+01 0.  1.
</event>
<event>
 5   0  0.2697964E-05  0.2780957E+04  0.7818609E-02  0.8309205E-01
        2   -1    0    0  501    0  0.00000000000E+00  0.00000000000E+00  0.20737969909E+04  0.20737969909E+04  0.25500000920E-02 0. -1.
       -2   -1    0    0    0  501  0.00000000000E+00  0.00000000000E+00 -0.93231422044E+03  0.93231422045E+03  0.25500000920E-02 0.  1.
    10030    2    1    2    0    0  0.00000000000E+00  0.00000000000E+00  0.11414827705E+04  0.30061112114E+04  0.27809569755E+04 0.  0.
        1    1    3    3  502    0  0.10387987674E+04  0.36536144844E+03  0.14885027644E+04  0.18515486348E+04  0.50400001928E-02 0. -1.
       -1    1    3    3    0  502 -0.10387987674E+04 -0.36536144844E+03 -0.34701999394E+03  0.11545625766E+04  0.50400001928E-02 0.  1.
</event>
<event>
 5   0  0.1075146E-05  0.2787363E+04  0.7818609E-02  0.8307202E-01
        1   -1    0    0  501    0  0.00000000000E+00  0.00000000000E+00  0.16376964556E+04  0.16376964557E+04  0.50400001928E-02 0.  1.
       -1   -1    0    0    0  501  0.00000000000E+00  0.00000000000E+00 -0.11860245134E+04  0.11860245134E+04  0.50400001928E-02 0. -1.
    10030    2    1    2    0    0  0.00000000000E+00  0.00000000000E+00  0.45167194224E+03  0.28237209691E+04  0.27873630133E+04 0.  0.
        2    1    3    3  502    0 -0.47854730044E+03  0.18130403517E+03 -0.10874023869E+04  0.12017997433E+04  0.25500000920E-02 0. -1.
       -2    1    3    3    0  502  0.47854730044E+03 -0.18130403517E+03  0.15390743292E+04  0.16219212258E+04  0.25500000920E-02 0.  1.
</event>
<event>
 5   0  0.1017456E-05  0.2784324E+04  0.7818609E-02  0.8308152E-01
       -1   -1    0    0    0  501  0.00000000000E+00  0.00000000000E+00  0.10909743598E+04  0.10909743598E+04  0.50400001928E-02 0. -1.
        1   -1    0    0  501    0  0.00000000000E+00  0.00000000000E+00 -0.17764994430E+04  0.17764994430E+04  0.50400001928E-02 0.  1.
    10030    2    1    2    0    0  0.00000000000E+00  0.00000000000E+00 -0.68552508327E+03  0.28674738028E+04  0.27843242214E+04 0.  0.
        5    1    3    3  502    0 -0.66927238226E+03  0.20480510274E+03  0.89659699753E+03  0.11374440284E+04  0.46999998093E+01 0. -1.
       -5    1    3    3    0  502  0.66927238226E+03 -0.20480510274E+03 -0.15821220808E+04  0.17300297744E+04  0.46999998093E+01 0.  1.
</event>
<event>
 5   0  0.2651061E-05  0.2762970E+04  0.7818609E-02  0.8314858E-01
        2   -1    0    0  501    0  0.00000000000E+00  0.00000000000E+00  0.13269981194E+04  0.13269981194E+04  0.25500000920E-02 0. -1.
       -2   -1    0    0    0  501  0.00000000000E+00  0.00000000000E+00 -0.14382086686E+04  0.14382086686E+04  0.25500000920E-02 0.  1.
    10030    2    1    2    0    0  0.00000000000E+00  0.00000000000E+00 -0.11121054913E+03  0.27652067880E+04  0.27629695608E+04 0.  0.
        3    1    3    3  502    0  0.97342053247E+02  0.54627394357E+03  0.12105711060E+04  0.13316805584E+04  0.10100000352E+00 0. -1.
       -3    1    3    3    0  502 -0.97342053247E+02 -0.54627394357E+03 -0.13217816551E+04  0.14335262296E+04  0.10100000352E+00 0.  1.
</event>
<event>
 5   0  0.2697964E-05  0.2839699E+04  0.7818609E-02  0.8291048E-01
       -2   -1    0    0    0  501  0.00000000000E+00  0.00000000000E+00  0.11216937703E+04  0.11216937703E+04  0.25500000920E-02 0.  1.
        2   -1    0    0  501    0  0.00000000000E+00  0.00000000000E+00 -0.17972570333E+04  0.17972570333E+04  0.25500000920E-02 0. -1.
    10030    2    1    2    0    0  0.00000000000E+00  0.00000000000E+00 -0.67556326298E+03  0.29189508036E+04  0.28396985881E+04 0.  0.
        1    1    3    3  502    0 -0.49212419531E+03 -0.12427091561E+04  0.15460673747E+03  0.13455168202E+04  0.50400001928E-02 0.  1.
       -1    1    3    3    0  502  0.49212419531E+03  0.12427091561E+04 -0.83017000045E+03  0.15734339833E+04  0.50400001928E-02 0. -1.
</event>
<event>
 5   0  0.8958000E-06  0.2436130E+04  0.7818609E-02  0.8426100E-01
        3   -1    0    0  501    0  0.00000000000E+00  0.00000000000E+00  0.85648828820E+03  0.85648829415E+03  0.10100000352E+00 0.  1.
       -3   -1    0    0    0  501  0.00000000000E+00  0.00000000000E+00 -0.17322853078E+04  0.17322853107E+04  0.10100000352E+00 0. -1.
    10030    2    1    2    0    0  0.00000000000E+00  0.00000000000E+00 -0.87579701959E+03  0.25887736049E+04  0.24361297908E+04 0.  0.
        2    1    3    3  502    0 -0.57186064965E+03 -0.17944027149E+02  0.70481030732E+03  0.90780182862E+03  0.25500000920E-02 0.  1.
       -2    1    3    3    0  502  0.57186064965E+03  0.17944027149E+02 -0.15806073269E+04  0.16809717763E+04  0.25500000920E-02 0. -1.
</event>
<event>
 5   0  0.1075146E-05  0.2683382E+04  0.7818609E-02  0.8340417E-01
        1   -1    0    0  501    0  0.00000000000E+00  0.00000000000E+00  0.16610921968E+04  0.16610921968E+04  0.50400001928E-02 0. -1.
       -1   -1    0    0    0  501  0.00000000000E+00  0.00000000000E+00 -0.10837052970E+04  0.10837052971E+04  0.50400001928E-02 0.  1.
    10030    2    1    2    0    0  0.00000000000E+00  0.00000000000E+00  0.57738689971E+03  0.27447974938E+04  0.26833817563E+04 0.  0.
        2    1    3    3  502    0 -0.68781304171E+03  0.10456757452E+04 -0.20570083051E+03  0.12683995333E+04  0.25500000920E-02 0.  1.
       -2    1    3    3    0  502  0.68781304171E+03 -0.10456757452E+04  0.78308773022E+03  0.14763979605E+04  0.25500000920E-02 0. -1.
</event>
<event>
 5   0  0.1017456E-05  0.2951455E+04  0.7818609E-02  0.8257731E-01
       -1   -1    0    0    0  501  0.00000000000E+00  0.00000000000E+00  0.13169985779E+04  0.13169985779E+04  0.50400001928E-02 0. -1.
        1   -1    0    0  501    0  0.00000000000E+00  0.00000000000E+00 -0.16535870213E+04  0.16535870213E+04  0.50400001928E-02 0.  1.
    10030    2    1    2    0    0  0.00000000000E+00  0.00000000000E+00 -0.33658844340E+03  0.29705855992E+04  0.29514550686E+04 0.  0.
        5    1    3    3  502    0 -0.10952834064E+04 -0.98550071147E+03 -0.84736396401E+02  0.14758251046E+04  0.46999998093E+01 0. -1.
       -5    1    3    3    0  502  0.10952834064E+04  0.98550071147E+03 -0.25185204700E+03  0.14947604946E+04  0.46999998093E+01 0.  1.
</event>
<event>
 5   0  0.1075146E-05  0.2790871E+04  0.7818609E-02  0.8306108E-01
       -1   -1    0    0    0  501  0.00000000000E+00  0.00000000000E+00  0.84940275702E+03  0.84940275703E+03  0.50400001928E-02 0.  1.
        1   -1    0    0  501    0  0.00000000000E+00  0.00000000000E+00 -0.22924810306E+04  0.22924810306E+04  0.50400001928E-02 0. -1.
    10030    2    1    2    0    0  0.00000000000E+00  0.00000000000E+00 -0.14430782735E+04  0.31418837876E+04  0.27908706224E+04 0.  0.
        2    1    3    3  502    0  0.78299929513E+03 -0.35764785430E+03  0.51488434474E+03  0.10030482403E+04  0.25500000920E-02 0.  1.
       -2    1    3    3    0  502 -0.78299929513E+03  0.35764785430E+03 -0.19579626183E+04  0.21388355473E+04  0.25500000920E-02 0. -1.
</event>
<event>
 5   0  0.1017456E-05  0.2765478E+04  0.7818609E-02  0.8314067E-01
       -1   -1    0    0    0  501  0.00000000000E+00  0.00000000000E+00  0.10390190204E+04  0.10390190204E+04  0.50400001928E-02 0. -1.
        1   -1    0    0  501    0  0.00000000000E+00  0.00000000000E+00 -0.18401657926E+04  0.18401657926E+04  0.50400001928E-02 0.  1.
    10030    2    1    2    0    0  0.00000000000E+00  0.00000000000E+00 -0.80114677223E+03  0.28791848130E+04  0.27654780846E+04 0.  0.
        5    1    3    3  502    0 -0.67900410879E+03  0.68141657430E+03  0.63352838843E+03  0.11518487038E+04  0.46999998093E+01 0. -1.
       -5    1    3    3    0  502  0.67900410879E+03 -0.68141657430E+03 -0.14346751607E+04  0.17273361092E+04  0.46999998093E+01 0.  1.
</event>
<event>
 5   0  0.1075146E-05  0.2653878E+04  0.7818609E-02  0.8350127E-01
       -1   -1    0    0    0  501  0.00000000000E+00  0.00000000000E+00  0.14089085555E+04  0.14089085555E+04  0.50400001928E-02 0. -1.
        1   -1    0    0  501    0  0.00000000000E+00  0.00000000000E+00 -0.12497381476E+04  0.12497381476E+04  0.50400001928E-02 0.  1.
    10030    2    1    2    0    0  0.00000000000E+00  0.00000000000E+00  0.15917040788E+03  0.26586467031E+04  0.26538777427E+04 0.  0.
        2    1    3    3  502    0 -0.34328571189E+03 -0.25535955300E+03  0.13379128695E+04  0.14046581178E+04  0.25500000920E-02 0. -1.
       -2    1    3    3    0  502  0.34328571189E+03  0.25535955300E+03 -0.11787424617E+04  0.12539885854E+04  0.25500000920E-02 0.  1.
</event>
<event>
 5   0  0.2651061E-05  0.2736227E+04  0.7818609E-02  0.8323346E-01
        2   -1    0    0  501    0  0.00000000000E+00  0.00000000000E+00  0.13652817302E+04  0.13652817302E+04  0.25500000920E-02 0. -1.
       -2   -1    0    0    0  501  0.00000000000E+00  0.00000000000E+00 -0.13709507054E+04  0.13709507054E+04  0.25500000920E-02 0.  1.
    10030    2    1    2    0    0  0.00000000000E+00  0.00000000000E+00 -0.56689751608E+01  0.27362324356E+04  0.27362265631E+04 0.  0.
        3    1    3    3  502    0 -0.98919733527E+03  0.28784429978E+03 -0.90304096963E+03  0.13699812816E+04  0.10100000352E+00 0.  1.
       -3    1    3    3    0  502  0.98919733527E+03 -0.28784429978E+03  0.89737199447E+03  0.13662511540E+04  0.10100000352E+00 0. -1.
</event>
<event>
 5   0  0.2588048E-05  0.2832764E+04  0.7818609E-02  0.8293168E-01
        2   -1    0    0  501    0  0.00000000000E+00  0.00000000000E+00  0.18534811780E+04  0.18534811780E+04  0.25500000920E-02 0. -1.
       -2   -1    0    0    0  501  0.00000000000E+00  0.00000000000E+00 -0.10823620018E+04  0.10823620018E+04  0.25500000920E-02 0.  1.
    10030    2    1    2    0    0  0.00000000000E+00  0.00000000000E+00  0.77111917624E+03  0.29358431798E+04  0.28327637375E+04 0.  0.
        2    1    3    3  502    0 -0.91732823584E+03 -0.77101165971E+03  0.11681442928E+04  0.16734727845E+04  0.25500000920E-02 0. -1.
       -2    1    3    3    0  502  0.91732823584E+03  0.77101165971E+03 -0.39702511656E+03  0.12623703953E+04  0.25500000920E-02 0.  1.
</event>
<event>
 5   0  0.2697964E-05  0.2670544E+04  0.7818609E-02  0.8344626E-01
        2   -1    0    0  501    0  0.00000000000E+00  0.00000000000E+00  0.17829590364E+04  0.17829590364E+04  0.25500000920E-02 0.  1.
       -2   -1    0    0    0  501  0.00000000000E+00  0.00000000000E+00 -0.99999539402E+03  0.99999539403E+03  0.25500000920E-02 0. -1.
    10030    2    1    2    0    0  0.00000000000E+00  0.00000000000E+00  0.78296364242E+03  0.27829544305E+04  0.26705436332E+04 0.  0.
        1    1    3    3  502    0 -0.22084971401E+03 -0.11508495187E+04  0.10585202486E+04  0.15791435424E+04  0.50400001928E-02 0.  1.
       -1    1    3    3    0  502  0.22084971401E+03  0.11508495187E+04 -0.27555660620E+03  0.12038108880E+04  0.50400001928E-02 0. -1.
</event>
<event>
 5   0  0.1075146E-05  0.2784013E+04  0.7818609E-02  0.8308249E-01
        1   -1    0    0  501    0  0.00000000000E+00  0.00000000000E+00  0.12210518184E+04  0.12210518184E+04  0.50400001928E-02 0.  1.
       -1   -1    0    0    0  501  0.00000000000E+00  0.00000000000E+00 -0.15868961721E+04  0.15868961721E+04  0.50400001928E-02 0. -1.
    10030    2    1    2    0    0  0.00000000000E+00  0.00000000000E+00 -0.36584435376E+03  0.28079479905E+04  0.27840132590E+04 0.  0.
        2    1    3    3  502    0 -0.44020832658E+03  0.77437955206E+03 -0.12618079073E+04  0.15445407914E+04  0.25500000920E-02 0. -1.
       -2    1    3    3    0  502  0.44020832658E+03 -0.77437955206E+03  0.89596355353E+03  0.12634071991E+04  0.25500000920E-02 0.  1.
</event>
<event>
 5   0  0.2624815E-05  0.2868630E+04  0.7818609E-02  0.8282273E-01
        2   -1    0    0  501    0  0.00000000000E+00  0.00000000000E+00  0.86614319113E+03  0.86614319113E+03  0.25500000920E-02 0. -1.
       -2   -1    0    0    0  501  0.00000000000E+00  0.00000000000E+00 -0.23751954857E+04  0.23751954857E+04  0.25500000920E-02 0.  1.
    10030    2    1    2    0    0  0.00000000000E+00  0.00000000000E+00 -0.15090522946E+04  0.32413386769E+04  0.28686299152E+04 0.  0.
        4    1    3    3  502    0  0.12919060002E+04  0.60077563382E+03 -0.56781362901E+03  0.15337426139E+04  0.12699999809E+01 0.  1.
       -4    1    3    3    0  502 -0.12919060002E+04 -0.60077563382E+03 -0.94123866558E+03  0.17075960629E+04  0.12699999809E+01 0. -1.
</event>
<event>
 5   0  0.1078103E-05  0.2015884E+04  0.7818609E-02  0.8599230E-01
       -1   -1    0    0    0  501  0.00000000000E+00  0.00000000000E+00  0.68919810667E+03  0.68919810669E+03  0.50400001928E-02 0.  1.
        1   -1    0    0  501    0  0.00000000000E+00  0.00000000000E+00 -0.14740995926E+04  0.14740995926E+04  0.50400001928E-02 0. -1.
    10030    2    1    2    0    0  0.00000000000E+00  0.00000000000E+00 -0.78490148594E+03  0.21632976993E+04  0.20158835763E+04 0.  0.
        1    1    3    3  502    0 -0.57629967417E+03  0.80100934161E+03 -0.61292367056E+03  0.11616422452E+04  0.50400001928E-02 0. -1.
       -1    1    3    3    0  502  0.57629967417E+03 -0.80100934161E+03 -0.17197781538E+03  0.10016554541E+04  0.50400001928E-02 0.  1.
</event>
<event>
 5   0  0.1067434E-05  0.2858230E+04  0.7818609E-02  0.8285415E-01
       -1   -1    0    0    0  501  0.00000000000E+00  0.00000000000E+00  0.12335864573E+04  0.12335864573E+04  0.50400001928E-02 0. -1.
        1   -1    0    0  501    0  0.00000000000E+00  0.00000000000E+00 -0.16556354624E+04  0.16556354624E+04  0.50400001928E-02 0.  1.
    10030    2    1    2    0    0  0.00000000000E+00  0.00000000000E+00 -0.42204900510E+03  0.28892219197E+04  0.28582298610E+04 0.  0.
        4    1    3    3  502    0  0.44998094109E+03  0.10501552498E+04 -0.10788549209E+04  0.15713810643E+04  0.12699999809E+01 0.  1.
       -4    1    3    3    0  502 -0.44998094109E+03 -0.10501552498E+04  0.65680591583E+03  0.13178408554E+04  0.12699999809E+01 0. -1.
</event>
<event>
 5   0  0.2651061E-05  0.1654616E+04  0.7818609E-02  0.8787680E-01
       -2   -1    0    0    0  501  0.00000000000E+00  0.00000000000E+00  0.76321670054E+03  0.76321670055E+03  0.25500000920E-02 0.  1.
        2   -1    0    0  501    0  0.00000000000E+00  0.00000000000E+00 -0.89678166957E+03  0.89678166957E+03  0.25500000920E-02 0. -1.
    10030    2    1    2    0    0  0.00000000000E+00  0.00000000000E+00 -0.13356496902E+03  0.16599983701E+04  0.16546162660E+04 0.  0.
        3    1    3    3  502    0  0.26401914932E+03  0.62744740133E+03 -0.53846323219E+03  0.86795104428E+03  0.10100000352E+00 0. -1.
       -3    1    3    3    0  502 -0.26401914932E+03 -0.62744740133E+03  0.40489826317E+03  0.79204732584E+03  0.10100000352E+00 0.  1.
</event>
<event>
 5   0  0.1017456E-05  0.1429596E+04  0.7818609E-02  0.8932670E-01
       -1   -1    0    0    0  501  0.00000000000E+00  0.00000000000E+00  0.39507149550E+03  0.39507149553E+03  0.50400001928E-02 0.  1.
        1   -1    0    0  501    0  0.00000000000E+00  0.00000000000E+00 -0.12932744427E+04  0.12932744427E+04  0.50400001928E-02 0. -1.
    10030    2    1    2    0    0  0.00000000000E+00  0.00000000000E+00 -0.89820294715E+03  0.16883459382E+04  0.14295955627E+04 0.  0.
        5    1    3    3  502    0  0.17730567193E+03  0.49649868357E+03  0.12092376244E+03  0.54091856172E+03  0.46999998093E+01 0.  1.
       -5    1    3    3    0  502 -0.17730567193E+03 -0.49649868357E+03 -0.10191267096E+04  0.11474273765E+04  0.46999998093E+01 0. -1.
</event>
<event>
 5   0  0.2651061E-05  0.2869088E+04  0.7818609E-02  0.8282135E-01
       -2   -1    0    0    0  501  0.00000000000E+00  0.00000000000E+00  0.86592121119E+03  0.86592121119E+03  0.25500000920E-02 0. -1.
        2   -1    0    0  501    0  0.00000000000E+00  0.00000000000E+00 -0.23765629716E+04  0.23765629716E+04  0.25500000920E-02 0.  1.
    10030    2    1    2    0    0  0.00000000000E+00  0.00000000000E+00 -0.15106417604E+04  0.32424841828E+04  0.28690878598E+04 0.  0.
        3    1    3    3  502    0 -0.41869919016E+03 -0.11397078318E+04 -0.16187345901E+04  0.20234981189E+04  0.10100000352E+00 0.  1.
       -3    1    3    3    0  502  0.41869919016E+03  0.11397078318E+04  0.10809282975E+03  0.12189860638E+04  0.10100000352E+00 0. -1.
</event>
<event>
 5   0  0.1067434E-05  0.2698313E+04  0.7818609E-02  0.8335552E-01
        1   -1    0    0  501    0  0.00000000000E+00  0.00000000000E+00  0.24114230073E+04  0.24114230074E+04  0.50400001928E-02 0.  1.
       -1   -1    0    0    0  501  0.00000000000E+00  0.00000000000E+00 -0.75483379507E+03  0.75483379509E+03  0.50400001928E-02 0. -1.
    10030    2    1    2    0    0  0.00000000000E+00  0.00000000000E+00  0.16565892123E+04  0.31662568024E+04  0.26983132362E+04 0.  0.
        4    1    3    3  502    0 -0.71912901591E+03  0.11303429858E+04  0.10153076935E+04  0.16809738643E+04  0.12699999809E+01 0. -1.
       -4    1    3    3    0  502  0.71912901591E+03 -0.11303429858E+04  0.64128151878E+03  0.14852829381E+04  0.12699999809E+01 0.  1.
</event>
<event>
 5   0  0.1017456E-05  0.1383175E+04  0.7818609E-02  0.8966088E-01
        1   -1    0    0  501    0  0.00000000000E+00  0.00000000000E+00  0.10568612038E+04  0.10568612038E+04  0.50400001928E-02 0. -1.
       -1   -1    0    0    0  501  0.00000000000E+00  0.00000000000E+00 -0.45255989735E+03  0.45255989738E+03  0.50400001928E-02 0.  1.
    10030    2    1    2    0    0  0.00000000000E+00  0.00000000000E+00  0.60430130644E+03  0.15094211012E+04  0.13831746064E+04 0.  0.
        5    1    3    3  502    0  0.16930658261E+03  0.17560889244E+03  0.10083381130E+04  0.10374348375E+04  0.46999998093E+01 0. -1.
       -5    1    3    3    0  502 -0.16930658261E+03 -0.17560889244E+03 -0.40403680656E+03  0.47198626365E+03  0.46999998093E+01 0.  1.
</event>
<event>
 5   0  0.2518686E-05  0.2837217E+04  0.7818609E-02  0.8291806E-01
        2   -1    0    0  501    0  0.00000000000E+00  0.00000000000E+00  0.19271448158E+04  0.19271448158E+04  0.25500000920E-02 0. -1.
       -2   -1    0    0    0  501  0.00000000000E+00  0.00000000000E+00 -0.10442648682E+04  0.10442648682E+04  0.25500000920E-02 0.  1.
    10030    2    1    2    0    0  0.00000000000E+00  0.00000000000E+00  0.88287994759E+03  0.29714096840E+04  0.28372166834E+04 0.  0.
        5    1    3    3  502    0 -0.25607509367E+03 -0.11035648400E+04  0.13356367849E+04  0.17513930229E+04  0.46999998093E+01 0. -1.
       -5    1    3    3    0  502  0.25607509367E+03  0.11035648400E+04 -0.45275683732E+03  0.12200166611E+04  0.46999998093E+01 0.  1.
</event>
<event>
 5   0  0.1078103E-05  0.2820267E+04  0.7818609E-02  0.8297004E-01
        1   -1    0    0  501    0  0.00000000000E+00  0.00000000000E+00  0.18732662696E+04  0.18732662696E+04  0.50400001928E-02 0. -1.
       -1   -1    0    0    0  501  0.00000000000E+00  0.00000000000E+00 -0.10615025971E+04  0.10615025971E+04  0.50400001928E-02 0.  1.
    10030    2    1    2    0    0  0.00000000000E+00  0.00000000000E+00  0.81176367251E+03  0.29347688667E+04  0.28202673704E+04 0.  0.
        1    1    3    3  502    0 -0.42409170641E+02  0.96695933464E+03  0.14730257074E+04  0.17625588294E+04  0.50400001928E-02 0. -1.
       -1    1    3    3    0  502  0.42409170641E+02 -0.96695933464E+03 -0.66126203486E+03  0.11722100372E+04  0.50400001928E-02 0.  1.
</event>
<event>
 5   0  0.2518686E-05  0.2116389E+04  0.7818609E-02  0.8554058E-01
        2   -1    0    0  501    0  0.00000000000E+00  0.00000000000E+00  0.11930429833E+04  0.11930429833E+04  0.25500000920E-02 0. -1.
       -2   -1    0    0    0  501  0.00000000000E+00  0.00000000000E+00 -0.93858790059E+03  0.93858790059E+03  0.25500000920E-02 0.  1.
    10030    2    1    2    0    0  0.00000000000E+00  0.00000000000E+00  0.25445508271E+03  0.21316308839E+04  0.21163891032E+04 0.  0.
        5    1    3    3  502    0 -0.10129663129E+04 -0.28502308136E+03  0.23945129613E+03  0.10792117129E+04  0.46999998093E+01 0. -1.
       -5    1    3    3    0  502  0.10129663129E+04  0.28502308136E+03  0.15003786582E+02  0.10524191710E+04  0.46999998093E+01 0.  1.
</event>
<event>
 5   0  0.1075146E-05  0.2947098E+04  0.7818609E-02  0.8259001E-01
       -1   -1    0    0    0  501  0.00000000000E+00  0.00000000000E+00  0.13657218127E+04  0.13657218127E+04  0.50400001928E-02 0. -1.
        1   -1    0    0  501    0  0.00000000000E+00  0.00000000000E+00 -0.15898893381E+04  0.15898893381E+04  0.50400001928E-02 0.  1.
    10030    2    1    2    0    0  0.00000000000E+00  0.00000000000E+00 -0.22416752544E+03  0.29556111508E+04  0.29470979276E+04 0.  0.
        2    1    3    3  502    0 -0.17785204288E+03  0.14582337446E+03  0.13476105455E+04  0.13670954568E+04  0.25500000920E-02 0. -1.
       -2    1    3    3    0  502  0.17785204288E+03 -0.14582337446E+03 -0.15717780709E+04  0.15885156940E+04  0.25500000920E-02 0.  1.
</event>
<event>
 5   0  0.1105862E-05  0.2826893E+04  0.7818609E-02  0.8294968E-01
       -1   -1    0    0    0  501  0.00000000000E+00  0.00000000000E+00  0.19822078214E+04  0.19822078214E+04  0.50400001928E-02 0.  1.
        1   -1    0    0  501    0  0.00000000000E+00  0.00000000000E+00 -0.10078814747E+04  0.10078814748E+04  0.50400001928E-02 0. -1.
    10030    2    1    2    0    0  0.00000000000E+00  0.00000000000E+00  0.97432634668E+03  0.29900892962E+04  0.28268926703E+04 0.  0.
        3    1    3    3  502    0  0.99219214251E+03  0.69307905368E+03  0.12593978946E+04  0.17466788169E+04  0.10100000352E+00 0.  1.
       -3    1    3    3    0  502 -0.99219214251E+03 -0.69307905368E+03 -0.28507154793E+03  0.12434104793E+04  0.10100000352E+00 0. -1.
</event>
<event>
 5   0  0.1017456E-05  0.2000720E+04  0.7818609E-02  0.8606284E-01
       -1   -1    0    0    0  501  0.00000000000E+00  0.00000000000E+00  0.95497078784E+03  0.95497078786E+03  0.50400001928E-02 0. -1.
        1   -1    0    0  501    0  0.00000000000E+00  0.00000000000E+00 -0.10479064206E+04  0.10479064206E+04  0.50400001928E-02 0.  1.
    10030    2    1    2    0    0  0.00000000000E+00  0.00000000000E+00 -0.92935632778E+02  0.20028772085E+04  0.20007198906E+04 0.  0.
        5    1    3    3  502    0 -0.89053413199E+03 -0.34761673846E+03  0.24848438694E+03  0.98775250829E+03  0.46999998093E+01 0. -1.
       -5    1    3    3    0  502  0.89053413199E+03  0.34761673846E+03 -0.34142001972E+03  0.10151247002E+04  0.46999998093E+01 0.  1.
</event>
<event>
 5   0  0.2588048E-05  0.1663459E+04  0.7818609E-02  0.8782484E-01
        2   -1    0    0  501    0  0.00000000000E+00  0.00000000000E+00  0.94416139814E+03  0.94416139814E+03  0.25500000920E-02 0. -1.
       -2   -1    0    0    0  501  0.00000000000E+00  0.00000000000E+00 -0.73268640964E+03  0.73268640964E+03  0.25500000920E-02 0.  1.
    10030    2    1    2    0    0  0.00000000000E+00  0.00000000000E+00  0.21147498850E+03  0.16768478078E+04  0.16634593171E+04 0.  0.
        2    1    3    3  502    0  0.79703495439E+03  0.13861036961E+03  0.30041532719E+03  0.86297562068E+03  0.25500000920E-02 0. -1.
       -2    1    3    3    0  502 -0.79703495439E+03 -0.13861036961E+03 -0.88940338696E+02  0.81387218710E+03  0.25500000920E-02 0.  1.
</event>
<event>
 5   0  0.2697964E-05  0.2694745E+04  0.7818609E-02  0.8336712E-01
        2   -1    0    0  501    0  0.00000000000E+00  0.00000000000E+00  0.15636407516E+04  0.15636407516E+04  0.25500000920E-02 0.  1.
       -2   -1    0    0    0  501  0.00000000000E+00  0.00000000000E+00 -0.11610161711E+04  0.11610161711E+04  0.25500000920E-02 0. -1.
    10030    2    1    2    0    0  0.00000000000E+00  0.00000000000E+00  0.40262458054E+03  0.27246569227E+04  0.26947446620E+04 0.  0.
        1    1    3    3  502    0  0.12690341698E+04 -0.44493664578E+03  0.28588195693E+03  0.13748253839E+04  0.50400001928E-02 0.  1.
       -1    1    3    3    0  502 -0.12690341698E+04  0.44493664578E+03  0.11674262361E+03  0.13498315388E+04  0.50400001928E-02 0. -1.
</event>
<event>
 5   0  0.1078103E-05  0.2746032E+04  0.7818609E-02  0.8320222E-01
       -1   -1    0    0    0  501  0.00000000000E+00  0.00000000000E+00  0.12115758230E+04  0.12115758230E+04  0.50400001928E-02 0. -1.
        1   -1    0    0  501    0  0.00000000000E+00  0.00000000000E+00 -0.15559674683E+04  0.15559674683E+04  0.50400001928E-02 0.  1.
    10030    2    1    2    0    0  0.00000000000E+00  0.00000000000E+00 -0.34439164525E+03  0.27675432913E+04  0.27460317303E+04 0.  0.
        1    1    3    3  502    0 -0.60225574096E+02  0.80444198388E+03 -0.12919432928E+04  0.15231124374E+04  0.50400001928E-02 0.  1.
       -1    1    3    3    0  502  0.60225574096E+02 -0.80444198388E+03  0.94755164755E+03  0.12444308538E+04  0.50400001928E-02 0. -1.
</event>
<event>
 5   0  0.1105862E-05  0.2759266E+04  0.7818609E-02  0.8316027E-01
       -1   -1    0    0    0  501  0.00000000000E+00  0.00000000000E+00  0.13311467834E+04  0.13311467834E+04  0.50400001928E-02 0. -1.
        1   -1    0    0  501    0  0.00000000000E+00  0.00000000000E+00 -0.14298853214E+04  0.14298853214E+04  0.50400001928E-02 0.  1.
    10030    2    1    2    0    0  0.00000000000E+00  0.00000000000E+00 -0.98738537986E+02  0.27610321048E+04  0.27592660229E+04 0.  0.
        3    1    3    3  502    0  0.93871309051E+03 -0.67887817156E+03  0.70032946467E+03  0.13537057315E+04  0.10100000352E+00 0. -1.
       -3    1    3    3    0  502 -0.93871309051E+03  0.67887817156E+03 -0.79906800265E+03  0.14073263734E+04  0.10100000352E+00 0.  1.
</event>
<event>
 5   0  0.1105862E-05  0.2771868E+04  0.7818609E-02  0.8312056E-01
       -1   -1    0    0    0  501  0.00000000000E+00  0.00000000000E+00  0.82811101864E+03  0.82811101866E+03  0.50400001928E-02 0.  1.
        1   -1    0    0  501    0  0.00000000000E+00  0.00000000000E+00 -0.23195122624E+04  0.23195122624E+04  0.50400001928E-02 0. -1.
    10030    2    1    2    0    0  0.00000000000E+00  0.00000000000E+00 -0.14914012437E+04  0.31476232810E+04  0.27718684402E+04 0.  0.
        3    1    3    3  502    0 -0.81717655187E+03 -0.11064268999E+04 -0.93859766429E+03  0.16652097728E+04  0.10100000352E+00 0. -1.
       -3    1    3    3    0  502  0.81717655187E+03  0.11064268999E+04 -0.55280357944E+03  0.14824135082E+04  0.10100000352E+00 0.  1.
</event>
<event>
 5   0  0.1075146E-05  0.2992432E+04  0.7818609E-02  0.8245895E-01
       -1   -1    0    0    0  501  0.00000000000E+00  0.00000000000E+00  0.21309599774E+04  0.21309599774E+04  0.50400001928E-02 0. -1.
        1   -1    0    0  501    0  0.00000000000E+00  0.00000000000E+00 -0.10505416863E+04  0.10505416863E+04  0.50400001928E-02 0.  1.
    10030    2    1    2    0    0  0.00000000000E+00  0.00000000000E+00  0.10804182911E+04  0.31815016638E+04  0.29924319797E+04 0.  0.
        2    1    3    3  502    0  0.12144216068E+04 -0.62629905815E+02 -0.38660315425E+03  0.12760111062E+04  0.25500000920E-02 0. -1.
       -2    1    3    3    0  502 -0.12144216068E+04  0.62629905815E+02  0.14670214453E+04  0.19054905576E+04  0.25500000920E-02 0.  1.
</event>
<event>
 5   0  0.2697964E-05  0.2163367E+04  0.7818609E-02  0.8533832E-01
        2   -1    0    0  501    0  0.00000000000E+00  0.00000000000E+00  0.17048232458E+04  0.17048232458E+04  0.25500000920E-02 0.  1.
       -2   -1    0    0    0  501  0.00000000000E+00  0.00000000000E+00 -0.68631118796E+03  0.68631118796E+03  0.25500000920E-02 0. -1.
    10030    2    1    2    0    0  0.00000000000E+00  0.00000000000E+00  0.10185120578E+04  0.23911344337E+04  0.21633670674E+04 0.  0.
        1    1    3    3  502    0  0.69032487892E+03  0.53042329956E+03  0.12188292076E+04  0.14978123889E+04  0.50400001928E-02 0.  1.
       -1    1    3    3    0  502 -0.69032487892E+03 -0.53042329956E+03 -0.20031714979E+03  0.89332204478E+03  0.50400001928E-02 0. -1.
</event>
<event>
 5   0  0.2651061E-05  0.2674168E+04  0.7818609E-02  0.8343435E-01
       -2   -1    0    0    0  501  0.00000000000E+00  0.00000000000E+00  0.65611185800E+03  0.65611185801E+03  0.25500000920E-02 0. -1.
        2   -1    0    0  501    0  0.00000000000E+00  0.00000000000E+00 -0.27248309280E+04  0.27248309280E+04  0.25500000920E-02 0.  1.
    10030    2    1    2    0    0  0.00000000000E+00  0.00000000000E+00 -0.20687190700E+04  0.33809427860E+04  0.26741681944E+04 0.  0.
        3    1    3    3  502    0 -0.10077679488E+04  0.79907710879E+03 -0.14966038867E+04  0.19733077987E+04  0.10100000352E+00 0.  1.
       -3    1    3    3    0  502  0.10077679488E+04 -0.79907710879E+03 -0.57211518329E+03  0.14076349873E+04  0.10100000352E+00 0. -1.
</event>
<event>
 5   0  0.1105862E-05  0.1409275E+04  0.7818609E-02  0.8947132E-01
        1   -1    0    0  501    0  0.00000000000E+00  0.00000000000E+00  0.49882596451E+03  0.49882596454E+03  0.50400001928E-02 0. -1.
       -1   -1    0    0    0  501  0.00000000000E+00  0.00000000000E+00 -0.99536583200E+03  0.99536583201E+03  0.50400001928E-02 0.  1.
    10030    2    1    2    0    0  0.00000000000E+00  0.00000000000E+00 -0.49653986749E+03  0.14941917965E+04  0.14092754468E+04 0.  0.
        3    1    3    3  502    0 -0.37542844855E+03 -0.39334413874E+03 -0.72343489928E+03  0.90499955533E+03  0.10100000352E+00 0.  1.
       -3    1    3    3    0  502  0.37542844855E+03  0.39334413874E+03  0.22689503179E+03  0.58919224122E+03  0.10100000352E+00 0. -1.
</event>
<event>
 5   0  0.2624815E-05  0.1484934E+04  0.7818609E-02  0.8894534E-01
        2   -1    0    0  501    0  0.00000000000E+00  0.00000000000E+00  0.10806870266E+04  0.10806870266E+04  0.25500000920E-02 0.  1.
       -2   -1    0    0    0  501  0.00000000000E+00  0.00000000000E+00 -0.51009898717E+03  0.51009898718E+03  0.25500000920E-02 0. -1.
    10030    2    1    2    0    0  0.00000000000E+00  0.00000000000E+00  0.57058803939E+03  0.15907860137E+04  0.14849341503E+04 0.  0.
        4    1    3    3  502    0  0.34312797453E+03 -0.41298285423E+03  0.83464866344E+03  0.99243722677E+03  0.12699999809E+01 0.  1.
       -4    1    3    3    0  502 -0.34312797453E+03  0.41298285423E+03 -0.26406062406E+03  0.59834878697E+03  0.12699999809E+01 0. -1.
</event>
<event>
 5   0  0.1105862E-05  0.2753283E+04  0.7818609E-02  0.8317921E-01
        1   -1    0    0  501    0  0.00000000000E+00  0.00000000000E+00  0.14165191005E+04  0.14165191005E+04  0.50400001928E-02 0.  1.
       -1   -1    0    0    0  501  0.00000000000E+00  0.00000000000E+00 -0.13378868798E+04  0.13378868798E+04  0.50400001928E-02 0. -1.
    10030    2    1    2    0    0  0.00000000000E+00  0.00000000000E+00  0.78632220708E+02  0.27544059804E+04  0.27532833633E+04 0.  0.
        3    1    3    3  502    0 -0.56650642152E+03  0.94353234989E+03 -0.78803952912E+03  0.13535838100E+04  0.10100000352E+00 0. -1.
       -3    1    3    3    0  502  0.56650642152E+03 -0.94353234989E+03  0.86667174983E+03  0.14008221704E+04  0.10100000352E+00 0.  1.
</event>
<event>
 5   0  0.1105862E-05  0.1757832E+04  0.7818609E-02  0.8729051E-01
        1   -1    0    0  501    0  0.00000000000E+00  0.00000000000E+00  0.12662398062E+04  0.12662398063E+04  0.50400001928E-02 0. -1.
       -1   -1    0    0    0  501  0.00000000000E+00  0.00000000000E+00 -0.61006868778E+03  0.61006868780E+03  0.50400001928E-02 0.  1.
    10030    2    1    2    0    0  0.00000000000E+00  0.00000000000E+00  0.65617111847E+03  0.18763084941E+04  0.17578319112E+04 0.  0.
        3    1    3    3  502    0  0.28054271253E+03  0.68624167069E+03 -0.17581440806E+03  0.76193343569E+03  0.10100000352E+00 0.  1.
       -3    1    3    3    0  502 -0.28054271253E+03 -0.68624167069E+03  0.83198552652E+03  0.11143750584E+04  0.10100000352E+00 0. -1.
</event>
<event>
 5   0  0.2651061E-05  0.2202118E+04  0.7818609E-02  0.8517547E-01
       -2   -1    0    0    0  501  0.00000000000E+00  0.00000000000E+00  0.60410143659E+03  0.60410143660E+03  0.25500000920E-02 0. -1.
        2   -1    0    0  501    0  0.00000000000E+00  0.00000000000E+00 -0.20068330989E+04  0.20068330989E+04  0.25500000920E-02 0.  1.
    10030    2    1    2    0    0  0.00000000000E+00  0.00000000000E+00 -0.14027316623E+04  0.26109345355E+04  0.22021178516E+04 0.  0.
        3    1    3    3  502    0 -0.10907657886E+04 -0.12290967212E+03 -0.59900146508E+03  0.12504717344E+04  0.10100000352E+00 0. -1.
       -3    1    3    3    0  502  0.10907657886E+04  0.12290967212E+03 -0.80373019720E+03  0.13604628011E+04  0.10100000352E+00 0.  1.
</event>
<event>
 5   0  0.1067434E-05  0.2795524E+04  0.7818609E-02  0.8304659E-01
        1   -1    0    0  501    0  0.00000000000E+00  0.00000000000E+00  0.13508651958E+04  0.13508651958E+04  0.50400001928E-02 0.  1.
       -1   -1    0    0    0  501  0.00000000000E+00  0.00000000000E+00 -0.14462872825E+04  0.14462872825E+04  0.50400001928E-02 0. -1.
    10030    2    1    2    0    0  0.00000000000E+00  0.00000000000E+00 -0.95422086702E+02  0.27971524784E+04  0.27955243895E+04 0.  0.
        4    1    3    3  502    0  0.68347387324E+02 -0.13959081649E+04 -0.70231262311E+02  0.13993444941E+04  0.12699999809E+01 0. -1.
       -4    1    3    3    0  502 -0.68347387324E+02  0.13959081649E+04 -0.25190824391E+02  0.13978079842E+04  0.12699999809E+01 0.  1.
</event>
<event>
 5   0  0.1105862E-05  0.2725270E+04  0.7818609E-02  0.8326852E-01
        1   -1    0    0  501    0  0.00000000000E+00  0.00000000000E+00  0.17754403852E+04  0.17754403852E+04  0.50400001928E-02 0.  1.
       -1   -1    0    0    0  501  0.00000000000E+00  0.00000000000E+00 -0.10458107983E+04  0.10458107983E+04  0.50400001928E-02 0. -1.
    10030    2    1    2    0    0  0.00000000000E+00  0.00000000000E+00  0.72962958689E+03  0.28212511836E+04  0.27252704282E+04 0.  0.
        3    1    3    3  502    0  0.30045850659E+03 -0.13106739555E+04  0.59311090006E+03  0.14696673371E+04  0.10100000352E+00 0.  1.
       -3    1    3    3    0  502 -0.30045850659E+03  0.13106739555E+04  0.13651868683E+03  0.13515838464E+04  0.10100000352E+00 0. -1.
</event>
<event>
 5   0  0.2588048E-05  0.2853390E+04  0.7818609E-02  0.8286882E-01
        2   -1    0    0  501    0  0.00000000000E+00  0.00000000000E+00  0.13267205913E+04  0.13267205913E+04  0.25500000920E-02 0. -1.
       -2   -1    0    0    0  501  0.00000000000E+00  0.00000000000E+00 -0.15342025239E+04  0.15342025239E+04  0.25500000920E-02 0.  1.
    10030    2    1    2    0    0  0.00000000000E+00  0.00000000000E+00 -0.20748193254E+03  0.28609231152E+04  0.28533896192E+04 0.  0.
        2    1    3    3  502    0  0.33644564621E+03  0.25836333532E+02 -0.14936168757E+04  0.15312591422E+04  0.25500000920E-02 0.  1.
       -2    1    3    3    0  502 -0.33644564621E+03 -0.25836333532E+02  0.12861349432E+04  0.13296639730E+04  0.25500000920E-02 0. -1.
</event>
<event>
 5   0  0.1067434E-05  0.2757406E+04  0.7818609E-02  0.8316615E-01
       -1   -1    0    0    0  501  0.00000000000E+00  0.00000000000E+00  0.62213451387E+03  0.62213451389E+03  0.50400001928E-02 0. -1.
        1   -1    0    0  501    0  0.00000000000E+00  0.00000000000E+00 -0.30553238852E+04  0.30553238852E+04  0.50400001928E-02 0.  1.
    10030    2    1    2    0    0  0.00000000000E+00  0.00000000000E+00 -0.24331893714E+04  0.36774583991E+04  0.27574063466E+04 0.  0.
        4    1    3    3  502    0 -0.12772001574E+04  0.64597361715E+02 -0.19036691547E+04  0.22933318392E+04  0.12699999809E+01 0. -1.
       -4    1    3    3    0  502  0.12772001574E+04 -0.64597361715E+02 -0.52952021666E+03  0.13841265599E+04  0.12699999809E+01 0.  1.
</event>
<event>
 5   0  0.2697964E-05  0.2790098E+04  0.7818609E-02  0.8306349E-01
        2   -1    0    0  501    0  0.00000000000E+00  0.00000000000E+00  0.80783215501E+03  0.80783215502E+03  0.25500000920E-02 0. -1.
       -2   -1    0    0    0  501  0.00000000000E+00  0.00000000000E+00 -0.24091156196E+04  0.24091156196E+04  0.25500000920E-02 0.  1.
    10030    2    1    2    0    0  0.00000000000E+00  0.00000000000E+00 -0.16012834645E+04  0.32169477746E+04  0.27900975342E+04 0.  0.
        1    1    3    3  502    0 -0.10377426875E+04 -0.53503617427E+03  0.79705970365E+02  0.11702677621E+04  0.50400001928E-02 0. -1.
       -1    1    3    3    0  502  0.10377426875E+04  0.53503617427E+03 -0.16809894349E+04  0.20466800125E+04  0.50400001928E-02 0.  1.
</event>
<event>
 5   0  0.1075146E-05  0.3021439E+04  0.7818609E-02  0.8237635E-01
       -1   -1    0    0    0  501  0.00000000000E+00  0.00000000000E+00  0.29558179558E+04  0.29558179558E+04  0.50400001928E-02 0.  1.
        1   -1    0    0  501    0  0.00000000000E+00  0.00000000000E+00 -0.77212931800E+03  0.77212931802E+03  0.50400001928E-02 0. -1.
    10030    2    1    2    0    0  0.00000000000E+00  0.00000000000E+00  0.21836886378E+04  0.37279472738E+04  0.30214391951E+04 0.  0.
        2    1    3    3  502    0 -0.61789143241E+03  0.57117098377E+03  0.26399208286E+04  0.27707775256E+04  0.25500000920E-02 0.  1.
       -2    1    3    3    0  502  0.61789143241E+03 -0.57117098377E+03 -0.45623219084E+03  0.95716974822E+03  0.25500000920E-02 0. -1.
</event>
<event>
 5   0  0.1067434E-05  0.2679704E+04  0.7818609E-02  0.8341621E-01
       -1   -1    0    0    0  501  0.00000000000E+00  0.00000000000E+00  0.70866428251E+03  0.70866428253E+03  0.50400001928E-02 0.  1.
        1   -1    0    0  501    0  0.00000000000E+00  0.00000000000E+00 -0.25332202981E+04  0.25332202981E+04  0.50400001928E-02 0. -1.
    10030    2    1    2    0    0  0.00000000000E+00  0.00000000000E+00 -0.18245560156E+04  0.32418845807E+04  0.26797035247E+04 0.  0.
        4    1    3    3  502    0  0.66562642123E+03 -0.34170485360E+03  0.43237786615E+03  0.86416026965E+03  0.12699999809E+01 0.  1.
       -4    1    3    3    0  502 -0.66562642123E+03  0.34170485360E+03 -0.22569338818E+04  0.23777243110E+04  0.12699999809E+01 0. -1.
</event>
<event>
 5   0  0.2651061E-05  0.1670438E+04  0.7818609E-02  0.8778407E-01
        2   -1    0    0  501    0  0.00000000000E+00  0.00000000000E+00  0.95084794431E+03  0.95084794431E+03  0.25500000920E-02 0.  1.
       -2   -1    0    0    0  501  0.00000000000E+00  0.00000000000E+00 -0.73365130661E+03  0.73365130662E+03  0.25500000920E-02 0. -1.
    10030    2    1    2    0    0  0.00000000000E+00  0.00000000000E+00  0.21719663770E+03  0.16844992509E+04  0.16704380704E+04 0.  0.
        3    1    3    3  502    0  0.42619342701E+01 -0.46908018942E+03 -0.58825873563E+03  0.75239799205E+03  0.10100000352E+00 0. -1.
       -3    1    3    3    0  502 -0.42619342701E+01  0.46908018942E+03  0.80545537332E+03  0.93210125888E+03  0.10100000352E+00 0.  1.
</event>
<event>
 5   0  0.1105862E-05  0.2725160E+04  0.7818609E-02  0.8326887E-01
       -1   -1    0    0    0  501  0.00000000000E+00  0.00000000000E+00  0.11378438092E+04  0.11378438092E+04  0.50400001928E-02 0.  1.
        1   -1    0    0  501    0  0.00000000000E+00  0.00000000000E+00 -0.16317041304E+04  0.16317041304E+04  0.50400001928E-02 0. -1.
    10030    2    1    2    0    0  0.00000000000E+00  0.00000000000E+00 -0.49386032124E+03  0.27695479396E+04  0.27251601371E+04 0.  0.
        3    1    3    3  502    0 -0.97012420689E+02  0.29284237398E+03  0.11018861354E+04  0.11442557106E+04  0.10100000352E+00 0.  1.
       -3    1    3    3    0  502  0.97012420689E+02 -0.29284237398E+03 -0.15957464566E+04  0.16252922290E+04  0.10100000352E+00 0. -1.
</event>
<event>
 5   0  0.2588048E-05  0.2814264E+04  0.7818609E-02  0.8298854E-01
       -2   -1    0    0    0  501  0.00000000000E+00  0.00000000000E+00  0.11533272769E+04  0.11533272769E+04  0.25500000920E-02 0. -1.
        2   -1    0    0  501    0  0.00000000000E+00  0.00000000000E+00 -0.17167893847E+04  0.17167893847E+04  0.25500000920E-02 0.  1.
    10030    2    1    2    0    0  0.00000000000E+00  0.00000000000E+00 -0.56346210785E+03  0.28701166616E+04  0.28142636878E+04 0.  0.
        2    1    3    3  502    0 -0.74613790092E+02 -0.87089205366E+03 -0.14063399680E+04  0.16558418682E+04  0.25500000920E-02 0.  1.
       -2    1    3    3    0  502  0.74613790092E+02  0.87089205366E+03  0.84287786016E+03  0.12142747934E+04  0.25500000920E-02 0. -1.
</event>
<event>
 5   0  0.2651061E-05  0.2630695E+04  0.7818609E-02  0.8357849E-01
       -2   -1    0    0    0  501  0.00000000000E+00  0.00000000000E+00  0.12224405069E+04  0.12224405069E+04  0.25500000920E-02 0.  1.
        2   -1    0    0  501    0  0.00000000000E+00  0.00000000000E+00 -0.14153151932E+04  0.14153151932E+04  0.25500000920E-02 0. -1.
    10030    2    1    2    0    0  0.00000000000E+00  0.00000000000E+00 -0.19287468631E+03  0.26377557002E+04  0.26306946780E+04 0.  0.
        3    1    3    3  502    0 -0.21395976174E+03  0.12880468906E+04  0.63033690285E+02  0.13072172078E+04  0.10100000352E+00 0.  1.
       -3    1    3    3    0  502  0.21395976174E+03 -0.12880468906E+04 -0.25590837659E+03  0.13305384923E+04  0.10100000352E+00 0. -1.
</event>
<event>
 5   0  0.2588048E-05  0.2793323E+04  0.7818609E-02  0.8305344E-01
        2   -1    0    0  501    0  0.00000000000E+00  0.00000000000E+00  0.22125591616E+04  0.22125591616E+04  0.25500000920E-02 0. -1.
       -2   -1    0    0    0  501  0.00000000000E+00  0.00000000000E+00 -0.88163188858E+03  0.88163188858E+03  0.25500000920E-02 0.  1.
    10030    2    1    2    0    0  0.00000000000E+00  0.00000000000E+00  0.13309272730E+04  0.30941910502E+04  0.27933225465E+04 0.  0.
        2    1    3    3  502    0  0.12408466609E+04 -0.21342806867E+03  0.13350655564E+04  0.18351163495E+04  0.25500000920E-02 0. -1.
       -2    1    3    3    0  502 -0.12408466609E+04  0.21342806867E+03 -0.41382834482E+01  0.12590747006E+04  0.25500000920E-02 0.  1.
</event>
<event>
 5   0  0.2588048E-05  0.2873286E+04  0.7818609E-02  0.8280870E-01
       -2   -1    0    0    0  501  0.00000000000E+00  0.00000000000E+00  0.19735359351E+04  0.19735359351E+04  0.25500000920E-02 0.  1.
        2   -1    0    0  501    0  0.00000000000E+00  0.00000000000E+00 -0.10458094258E+04  0.10458094258E+04  0.25500000920E-02 0. -1.
    10030    2    1    2    0    0  0.00000000000E+00  0.00000000000E+00  0.92772650924E+03  0.30193453609E+04  0.28732855640E+04 0.  0.
        2    1    3    3  502    0 -0.71771298147E+02  0.13731534008E+04  0.26482701799E+02  0.13752827763E+04  0.25500000920E-02 0.  1.
       -2    1    3    3    0  502  0.71771298147E+02 -0.13731534008E+04  0.90124380744E+03  0.16440625845E+04  0.25500000920E-02 0. -1.
</event>
<event>
 5   0  0.1017456E-05  0.2826660E+04  0.7818609E-02  0.8295039E-01
        1   -1    0    0  501    0  0.00000000000E+00  0.00000000000E+00  0.11399457855E+04  0.11399457855E+04  0.50400001928E-02 0. -1.
       -1   -1    0    0    0  501  0.00000000000E+00  0.00000000000E+00 -0.17522774959E+04  0.17522774959E+04  0.50400001928E-02 0.  1.
    10030    2    1    2    0    0  0.00000000000E+00  0.00000000000E+00 -0.61233171046E+03  0.28922232814E+04  0.28266597577E+04 0.  0.
        5    1    3    3  502    0 -0.12122826920E+04 -0.22413471851E+03 -0.10132915289E+04  0.15958218916E+04  0.46999998093E+01 0.  1.
       -5    1    3    3    0  502  0.12122826920E+04  0.22413471851E+03  0.40095981846E+03  0.12964013897E+04  0.46999998093E+01 0. -1.
</event>
<event>
 5   0  0.1067434E-05  0.2771088E+04  0.7818609E-02  0.8312301E-01
       -1   -1    0    0    0  501  0.00000000000E+00  0.00000000000E+00  0.72588621676E+03  0.72588621678E+03  0.50400001928E-02 0.  1.
        1   -1    0    0  501    0  0.00000000000E+00  0.00000000000E+00 -0.26446738458E+04  0.26446738458E+04  0.50400001928E-02 0. -1.
    10030    2    1    2    0    0  0.00000000000E+00  0.00000000000E+00 -0.19187876290E+04  0.33705600626E+04  0.27710880841E+04 0.  0.
        4    1    3    3  502    0  0.68866891404E+03  0.11990121316E+04 -0.85172472346E+03  0.16239863246E+04  0.12699999809E+01 0. -1.
       -4    1    3    3    0  502 -0.68866891404E+03 -0.11990121316E+04 -0.10670629056E+04  0.17465737380E+04  0.12699999809E+01 0.  1.
</event>
<event>
 5   0  0.2588048E-05  0.1743859E+04  0.7818609E-02  0.8736738E-01
       -2   -1    0    0    0  501  0.00000000000E+00  0.00000000000E+00  0.44664725356E+03  0.44664725357E+03  0.25500000920E-02 0. -1.
        2   -1    0    0  501    0  0.00000000000E+00  0.00000000000E+00 -0.17021500374E+04  0.17021500374E+04  0.25500000920E-02 0.  1.
    10030    2    1    2    0    0  0.00000000000E+00  0.00000000000E+00 -0.12555027839E+04  0.21487972910E+04  0.17438585257E+04 0.  0.
        2    1    3    3  502    0  0.52968343114E+03  0.15490124035E+03 -0.14595621386E+04  0.15604103845E+04  0.25500000920E-02 0.  1.
       -2    1    3    3    0  502 -0.52968343114E+03 -0.15490124035E+03  0.20405935476E+03  0.58838690652E+03  0.25500000920E-02 0. -1.
</event>
<event>
 5   0  0.2588048E-05  0.2836725E+04  0.7818609E-02  0.8291957E-01
       -2   -1    0    0    0  501  0.00000000000E+00  0.00000000000E+00  0.14417475087E+04  0.14417475087E+04  0.25500000920E-02 0.  1.
        2   -1    0    0  501    0  0.00000000000E+00  0.00000000000E+00 -0.13953568306E+04  0.13953568306E+04  0.25500000920E-02 0. -1.
    10030    2    1    2    0    0  0.00000000000E+00  0.00000000000E+00  0.46390678107E+02  0.28371043393E+04  0.28367250372E+04 0.  0.
        2    1    3    3  502    0 -0.59939676779E+03 -0.79557303114E+03  0.10330527384E+04  0.14350647698E+04  0.25500000920E-02 0.  1.
       -2    1    3    3    0  502  0.59939676779E+03  0.79557303114E+03 -0.98666206032E+03  0.14020395695E+04  0.25500000920E-02 0. -1.
</event>
<event>
 5   0  0.8958000E-06  0.2827836E+04  0.7818609E-02  0.8294678E-01
        3   -1    0    0  501    0  0.00000000000E+00  0.00000000000E+00  0.11738400602E+04  0.11738400646E+04  0.10100000352E+00 0.  1.
       -3   -1    0    0    0  501  0.00000000000E+00  0.00000000000E+00 -0.17030977613E+04  0.17030977643E+04  0.10100000352E+00 0. -1.
    10030    2    1    2    0    0  0.00000000000E+00  0.00000000000E+00 -0.52925770103E+03  0.28769378288E+04  0.28278361970E+04 0.  0.
        3    1    3    3  502    0 -0.21782108906E+03 -0.10744622943E+04  0.64376305280E+03  0.12713560190E+04  0.10100000352E+00 0.  1.
       -3    1    3    3    0  502  0.21782108906E+03  0.10744622943E+04 -0.11730207538E+04  0.16055818098E+04  0.10100000352E+00 0. -1.
</event>
<event>
 5   0  0.2651061E-05  0.2851705E+04  0.7818609E-02  0.8287393E-01
       -2   -1    0    0    0  501  0.00000000000E+00  0.00000000000E+00  0.10232733300E+04  0.10232733300E+04  0.25500000920E-02 0.  1.
        2   -1    0    0  501    0  0.00000000000E+00  0.00000000000E+00 -0.19868159676E+04  0.19868159676E+04  0.25500000920E-02 0. -1.
    10030    2    1    2    0    0  0.00000000000E+00  0.00000000000E+00 -0.96354263756E+03  0.30100892976E+04  0.28517053083E+04 0.  0.
        3    1    3    3  502    0  0.84487290854E+03  0.12961560715E+03  0.72286094108E+03  0.11194366385E+04  0.10100000352E+00 0.  1.
       -3    1    3    3    0  502 -0.84487290854E+03 -0.12961560715E+03 -0.16864035786E+04  0.18906526591E+04  0.10100000352E+00 0. -1.
</event>
<event>
 5   0  0.8958000E-06  0.2762155E+04  0.7818609E-02  0.8315115E-01
       -4   -1    0    0    0  501  0.00000000000E+00  0.00000000000E+00  0.18314893877E+04  0.18314898280E+04  0.12699999809E+01 0.  1.
        4   -1    0    0  501    0  0.00000000000E+00  0.00000000000E+00 -0.10414328670E+04  0.10414336414E+04  0.12699999809E+01 0. -1.
    10030    2    1    2    0    0  0.00000000000E+00  0.00000000000E+00  0.79005652071E+03  0.28729234694E+04  0.27621549477E+04 0.  0.
        5    1    3    3  502    0 -0.67978114123E+03  0.91617385917E+03 -0.41456685587E+03  0.12138223545E+04  0.46999998093E+01 0. -1.
       -5    1    3    3    0  502  0.67978114123E+03 -0.91617385917E+03  0.12046233766E+04  0.16591011149E+04  0.46999998093E+01 0.  1.
</event>
<event>
 5   0  0.1078103E-05  0.2835079E+04  0.7818609E-02  0.8292460E-01
       -1   -1    0    0    0  501  0.00000000000E+00  0.00000000000E+00  0.10773057040E+04  0.10773057040E+04  0.50400001928E-02 0.  1.
        1   -1    0    0  501    0  0.00000000000E+00  0.00000000000E+00 -0.18652253991E+04  0.18652253991E+04  0.50400001928E-02 0. -1.
    10030    2    1    2    0    0  0.00000000000E+00  0.00000000000E+00 -0.78791969509E+03  0.29425311031E+04  0.28350788078E+04 0.  0.
        1    1    3    3  502    0 -0.76033479647E+03  0.99672595655E+03  0.29281879597E+03  0.12873672679E+04  0.50400001928E-02 0.  1.
       -1    1    3    3    0  502  0.76033479647E+03 -0.99672595655E+03 -0.10807384911E+04  0.16551638352E+04  0.50400001928E-02 0. -1.
</event>
<event>
 5   0  0.2588048E-05  0.2217642E+04  0.7818609E-02  0.8511121E-01
       -2   -1    0    0    0  501  0.00000000000E+00  0.00000000000E+00  0.52947260608E+03  0.52947260609E+03  0.25500000920E-02 0.  1.
        2   -1    0    0  501    0  0.00000000000E+00  0.00000000000E+00 -0.23220921019E+04  0.23220921019E+04  0.25500000920E-02 0. -1.
    10030    2    1    2    0    0  0.00000000000E+00  0.00000000000E+00 -0.17926194958E+04  0.28515647080E+04  0.22176421323E+04 0.  0.
        2    1    3    3  502    0 -0.51740905786E+03 -0.90618059012E+03 -0.41414222021E+03  0.11226705544E+04  0.25500000920E-02 0.  1.
       -2    1    3    3    0  502  0.51740905786E+03  0.90618059012E+03 -0.13784772756E+04  0.17288941536E+04  0.25500000920E-02 0. -1.
</event>
<event>
 5   0  0.2518686E-05  0.2787291E+04  0.7818609E-02  0.8307225E-01
       -2   -1    0    0    0  501  0.00000000000E+00  0.00000000000E+00  0.20236305987E+04  0.20236305988E+04  0.25500000920E-02 0. -1.
        2   -1    0    0  501    0  0.00000000000E+00  0.00000000000E+00 -0.95978408240E+03  0.95978408240E+03  0.25500000920E-02 0.  1.
    10030    2    1    2    0    0  0.00000000000E+00  0.00000000000E+00  0.10638465164E+04  0.29834146812E+04  0.27872914719E+04 0.  0.
        5    1    3    3  502    0 -0.84072510730E+03  0.63102453245E+03 -0.44745377064E+03  0.11424743470E+04  0.46999998093E+01 0.  1.
       -5    1    3    3    0  502  0.84072510730E+03 -0.63102453245E+03  0.15113002870E+04  0.18409403342E+04  0.46999998093E+01 0. -1.
</event>
<event>
 5   0  0.8958000E-06  0.1558123E+04  0.7818609E-02  0.8846696E-01
        4   -1    0    0  501    0  0.00000000000E+00  0.00000000000E+00  0.45947551023E+03  0.45947726538E+03  0.12699999809E+01 0.  1.
       -4   -1    0    0    0  501  0.00000000000E+00  0.00000000000E+00 -0.13209294125E+04  0.13209300230E+04  0.12699999809E+01 0. -1.
    10030    2    1    2    0    0  0.00000000000E+00  0.00000000000E+00 -0.86145390227E+03  0.17804072884E+04  0.15581230012E+04 0.  0.
        3    1    3    3  502    0  0.69022924208E+03 -0.48760453976E+02 -0.83976599865E+03  0.10881180686E+04  0.10100000352E+00 0. -1.
       -3    1    3    3    0  502 -0.69022924208E+03  0.48760453976E+02 -0.21687903619E+02  0.69228921981E+03  0.10100000352E+00 0.  1.
</event>
<event>
 5   0  0.1017456E-05  0.2884005E+04  0.7818609E-02  0.8277652E-01
       -1   -1    0    0    0  501  0.00000000000E+00  0.00000000000E+00  0.14299893722E+04  0.14299893722E+04  0.50400001928E-02 0.  1.
        1   -1    0    0  501    0  0.00000000000E+00  0.00000000000E+00 -0.14541163791E+04  0.14541163791E+04  0.50400001928E-02 0. -1.
    10030    2    1    2    0    0  0.00000000000E+00  0.00000000000E+00 -0.24127006899E+02  0.28841057514E+04  0.28840048323E+04 0.  0.
        5    1    3    3  502    0 -0.35735521009E+03 -0.15187378804E+03  0.13767185022E+04  0.14304350101E+04  0.46999998093E+01 0.  1.
       -5    1    3    3    0  502  0.35735521009E+03  0.15187378804E+03 -0.14008455091E+04  0.14536707413E+04  0.46999998093E+01 0. -1.
</event>
<event>
 5   0  0.2624815E-05  0.2757085E+04  0.7818609E-02  0.8316717E-01
       -2   -1    0    0    0  501  0.00000000000E+00  0.00000000000E+00  0.10199979335E+04  0.10199979335E+04  0.25500000920E-02 0.  1.
        2   -1    0    0  501    0  0.00000000000E+00  0.00000000000E+00 -0.18631207393E+04  0.18631207393E+04  0.25500000920E-02 0. -1.
    10030    2    1    2    0    0  0.00000000000E+00  0.00000000000E+00 -0.84312280578E+03  0.28831186728E+04  0.27570849127E+04 0.  0.
        4    1    3    3  502    0 -0.77956679732E+03  0.11026245208E+04 -0.71149449220E+03  0.15263457179E+04  0.12699999809E+01 0. -1.
       -4    1    3    3    0  502  0.77956679732E+03 -0.11026245208E+04 -0.13162831357E+03  0.13567729549E+04  0.12699999809E+01 0.  1.
</event>
<event>
 5   0  0.1105862E-05  0.2901824E+04  0.7818609E-02  0.8272335E-01
       -1   -1    0    0    0  501  0.00000000000E+00  0.00000000000E+00  0.13337739734E+04  0.13337739735E+04  0.50400001928E-02 0. -1.
        1   -1    0    0  501    0  0.00000000000E+00  0.00000000000E+00 -0.15783380841E+04  0.15783380841E+04  0.50400001928E-02 0.  1.
    10030    2    1    2    0    0  0.00000000000E+00  0.00000000000E+00 -0.24456411065E+03  0.29121120576E+04  0.29018244316E+04 0.  0.
        3    1    3    3  502    0 -0.13987545472E+04 -0.16115244207E+03  0.22919073846E+03  0.14265387473E+04  0.10100000352E+00 0. -1.
       -3    1    3    3    0  502  0.13987545472E+04  0.16115244207E+03 -0.47375484911E+03  0.14855733102E+04  0.10100000352E+00 0.  1.
</event>
<event>
 5   0  0.1075146E-05  0.2555714E+04  0.7818609E-02  0.8383402E-01
        1   -1    0    0  501    0  0.00000000000E+00  0.00000000000E+00  0.13720988845E+04  0.13720988845E+04  0.50400001928E-02 0.  1.
       -1   -1    0    0    0  501  0.00000000000E+00  0.00000000000E+00 -0.11900880489E+04  0.11900880489E+04  0.50400001928E-02 0. -1.
    10030    2    1    2    0    0  0.00000000000E+00  0.00000000000E+00  0.18201083561E+03  0.25621869334E+04  0.25557139780E+04 0.  0.
        2    1    3    3  502    0 -0.89560333304E+02  0.10589933992E+04  0.80233076954E+03  0.13316240974E+04  0.25500000920E-02 0.  1.
       -2    1    3    3    0  502  0.89560333304E+02 -0.10589933992E+04 -0.62031993393E+03  0.12305628360E+04  0.25500000920E-02 0. -1.
</event>
<event>
 5   0  0.2588048E-05  0.2856860E+04  0.7818609E-02  0.8285830E-01
       -2   -1    0    0    0  501  0.00000000000E+00  0.00000000000E+00  0.89028241400E+03  0.89028241400E+03  0.25500000920E-02 0.  1.
        2   -1    0    0  501    0  0.00000000000E+00  0.00000000000E+00 -0.22918708107E+04  0.22918708107E+04  0.25500000920E-02 0. -1.
    10030    2    1    2    0    0  0.00000000000E+00  0.00000000000E+00 -0.14015883967E+04  0.31821532247E+04  0.28568600091E+04 0.  0.
        2    1    3    3  502    0  0.70161157612E+03 -0.79248795524E+03 -0.17692424521E+04  0.20616776705E+04  0.25500000920E-02 0. -1.
       -2    1    3    3    0  502 -0.70161157612E+03  0.79248795524E+03  0.36765405542E+03  0.11204755541E+04  0.25500000920E-02 0.  1.
</event>
<event>
 5   0  0.2651061E-05  0.1545071E+04  0.7818609E-02  0.8855022E-01
       -2   -1    0    0    0  501  0.00000000000E+00  0.00000000000E+00  0.51186610636E+03  0.51186610637E+03  0.25500000920E-02 0. -1.
        2   -1    0    0  501    0  0.00000000000E+00  0.00000000000E+00 -0.11659513641E+04  0.11659513641E+04  0.25500000920E-02 0.  1.
    10030    2    1    2    0    0  0.00000000000E+00  0.00000000000E+00 -0.65408525772E+03  0.16778174704E+04  0.15450708527E+04 0.  0.
        3    1    3    3  502    0  0.35190137084E+03  0.35151820597E+03 -0.96893884712E+03  0.10891474297E+04  0.10100000352E+00 0.  1.
       -3    1    3    3    0  502 -0.35190137084E+03 -0.35151820597E+03  0.31485358941E+03  0.58867004076E+03  0.10100000352E+00 0. -1.
</event>
<event>
 5   0  0.1067434E-05  0.2620747E+04  0.7818609E-02  0.8361188E-01
        1   -1    0    0  501    0  0.00000000000E+00  0.00000000000E+00  0.92950904285E+03  0.92950904286E+03  0.50400001928E-02 0.  1.
       -1   -1    0    0    0  501  0.00000000000E+00  0.00000000000E+00 -0.18472959628E+04  0.18472959628E+04  0.50400001928E-02 0. -1.
    10030    2    1    2    0    0  0.00000000000E+00  0.00000000000E+00 -0.91778691993E+03  0.27768050057E+04  0.26207466892E+04 0.  0.
        4    1    3    3  502    0  0.69127446458E+03  0.88775004617E+03 -0.11705403076E+04  0.16236153345E+04  0.12699999809E+01 0. -1.
       -4    1    3    3    0  502 -0.69127446458E+03 -0.88775004617E+03  0.25275338762E+03  0.11531896712E+04  0.12699999809E+01 0.  1.
</event>
<event>
 5   0  0.2518686E-05  0.2734341E+04  0.7818609E-02  0.8323948E-01
        2   -1    0    0  501    0  0.00000000000E+00  0.00000000000E+00  0.90456630392E+03  0.90456630393E+03  0.25500000920E-02 0. -1.
       -2   -1    0    0    0  501  0.00000000000E+00  0.00000000000E+00 -0.20663557934E+04  0.20663557934E+04  0.25500000920E-02 0.  1.
    10030    2    1    2    0    0  0.00000000000E+00  0.00000000000E+00 -0.11617894894E+04  0.29709220973E+04  0.27343414729E+04 0.  0.
        5    1    3    3  502    0  0.37903505376E+03  0.13075607673E+04 -0.71725650148E+03  0.15387857911E+04  0.46999998093E+01 0. -1.
       -5    1    3    3    0  502 -0.37903505376E+03 -0.13075607673E+04 -0.44453298795E+03  0.14321363062E+04  0.46999998093E+01 0.  1.
</event>
<event>
 5   0  0.1105862E-05  0.2813101E+04  0.7818609E-02  0.8299213E-01
       -1   -1    0    0    0  501  0.00000000000E+00  0.00000000000E+00  0.81856925030E+03  0.81856925031E+03  0.50400001928E-02 0.  1.
        1   -1    0    0  501    0  0.00000000000E+00  0.00000000000E+00 -0.24168806022E+04  0.24168806022E+04  0.50400001928E-02 0. -1.
    10030    2    1    2    0    0  0.00000000000E+00  0.00000000000E+00 -0.15983113519E+04  0.32354498526E+04  0.28131008817E+04 0.  0.
        3    1    3    3  502    0  0.56602059462E+03 -0.59809026064E+03  0.51234933665E+03  0.96984180482E+03  0.10100000352E+00 0.  1.
       -3    1    3    3    0  502 -0.56602059462E+03  0.59809026064E+03 -0.21106606886E+04  0.22656080477E+04  0.10100000352E+00 0. -1.
</event>
<event>
 5   0  0.2588048E-05  0.2893395E+04  0.7818609E-02  0.8274845E-01
       -2   -1    0    0    0  501  0.00000000000E+00  0.00000000000E+00  0.11968027123E+04  0.11968027123E+04  0.25500000920E-02 0. -1.
        2   -1    0    0  501    0  0.00000000000E+00  0.00000000000E+00 -0.17487702764E+04  0.17487702764E+04  0.25500000920E-02 0.  1.
    10030    2    1    2    0    0  0.00000000000E+00  0.00000000000E+00 -0.55196756418E+03  0.29455729887E+04  0.28933945531E+04 0.  0.
        2    1    3    3  502    0  0.49384124610E+03  0.12273314089E+04 -0.87195657496E+03  0.15844651566E+04  0.25500000920E-02 0.  1.
       -2    1    3    3    0  502 -0.49384124610E+03 -0.12273314089E+04  0.31998901077E+03  0.13611078322E+04  0.25500000920E-02 0. -1.
</event>
<event>
 5   0  0.2651061E-05  0.2808181E+04  0.7818609E-02  0.8300733E-01
       -2   -1    0    0    0  501  0.00000000000E+00  0.00000000000E+00  0.12188052569E+04  0.12188052569E+04  0.25500000920E-02 0. -1.
        2   -1    0    0  501    0  0.00000000000E+00  0.00000000000E+00 -0.16175431782E+04  0.16175431782E+04  0.25500000920E-02 0.  1.
    10030    2    1    2    0    0  0.00000000000E+00  0.00000000000E+00 -0.39873792133E+03  0.28363484352E+04  0.28081809977E+04 0.  0.
        3    1    3    3  502    0 -0.49055969447E+03 -0.93246719507E+03 -0.11367546581E+04  0.15499532402E+04  0.10100000352E+00 0.  1.
       -3    1    3    3    0  502  0.49055969447E+03  0.93246719507E+03  0.73801673680E+03  0.12863951950E+04  0.10100000352E+00 0. -1.
</event>
<event>
 5   0  0.2697964E-05  0.1523396E+04  0.7818609E-02  0.8869042E-01
       -2   -1    0    0    0  501  0.00000000000E+00  0.00000000000E+00  0.79050607270E+03  0.79050607271E+03  0.25500000920E-02 0.  1.
        2   -1    0    0  501    0  0.00000000000E+00  0.00000000000E+00 -0.73393939725E+03  0.73393939725E+03  0.25500000920E-02 0. -1.
    10030    2    1    2    0    0  0.00000000000E+00  0.00000000000E+00  0.56566675455E+02  0.15244454700E+04  0.15233956158E+04 0.  0.
        1    1    3    3  502    0 -0.50801312741E+03  0.41869554250E+03  0.41169259853E+03  0.77644967038E+03  0.50400001928E-02 0.  1.
       -1    1    3    3    0  502  0.50801312741E+03 -0.41869554250E+03 -0.35512592307E+03  0.74799579958E+03  0.50400001928E-02 0. -1.
</event>
<event>
 5   0  0.1078103E-05  0.2885605E+04  0.7818609E-02  0.8277173E-01
        1   -1    0    0  501    0  0.00000000000E+00  0.00000000000E+00  0.25686840875E+04  0.25686840875E+04  0.50400001928E-02 0.  1.
       -1   -1    0    0    0  501  0.00000000000E+00  0.00000000000E+00 -0.81040679865E+03  0.81040679866E+03  0.50400001928E-02 0. -1.
    10030    2    1    2    0    0  0.00000000000E+00  0.00000000000E+00  0.17582772888E+04  0.33790908862E+04  0.28856049959E+04 0.  0.
        1    1    3    3  502    0 -0.74936763004E+03 -0.80498558368E+03 -0.21444614906E+03  0.11205091636E+04  0.50400001928E-02 0. -1.
       -1    1    3    3    0  502  0.74936763004E+03  0.80498558368E+03  0.19727234379E+04  0.22585817225E+04  0.50400001928E-02 0.  1.
</event>
<event>
 5   0  0.2651061E-05  0.1776991E+04  0.7818609E-02  0.8718632E-01
        2   -1    0    0  501    0  0.00000000000E+00  0.00000000000E+00  0.12676004534E+04  0.12676004534E+04  0.25500000920E-02 0.  1.
       -2   -1    0    0    0  501  0.00000000000E+00  0.00000000000E+00 -0.62277024703E+03  0.62277024703E+03  0.25500000920E-02 0. -1.
    10030    2    1    2    0    0  0.00000000000E+00  0.00000000000E+00  0.64483020637E+03  0.18903707004E+04  0.17769905430E+04 0.  0.
        3    1    3    3  502    0 -0.51156386992E+03 -0.21066961691E+03 -0.41717361360E+03  0.69290195164E+03  0.10100000352E+00 0. -1.
       -3    1    3    3    0  502  0.51156386992E+03  0.21066961691E+03  0.10620038200E+04  0.11974687488E+04  0.10100000352E+00 0.  1.
</event>
<event>
 5   0  0.1067434E-05  0.2806515E+04  0.7818609E-02  0.8301248E-01
        1   -1    0    0  501    0  0.00000000000E+00  0.00000000000E+00  0.18234200822E+04  0.18234200822E+04  0.50400001928E-02 0. -1.
       -1   -1    0    0    0  501  0.00000000000E+00  0.00000000000E+00 -0.10799114427E+04  0.10799114427E+04  0.50400001928E-02 0.  1.
    10030    2    1    2    0    0  0.00000000000E+00  0.00000000000E+00  0.74350863954E+03  0.29033315250E+04  0.28065154278E+04 0.  0.
        4    1    3    3  502    0 -0.53092474749E+03  0.12564391553E+04  0.71268369533E+03  0.15389737168E+04  0.12699999809E+01 0.  1.
       -4    1    3    3    0  502  0.53092474749E+03 -0.12564391553E+04  0.30824944210E+02  0.13643578081E+04  0.12699999809E+01 0. -1.
</event>
<event>
 5   0  0.2518686E-05  0.2819035E+04  0.7818609E-02  0.8297383E-01
        2   -1    0    0  501    0  0.00000000000E+00  0.00000000000E+00  0.17407548106E+04  0.17407548106E+04  0.25500000920E-02 0.  1.
       -2   -1    0    0    0  501  0.00000000000E+00  0.00000000000E+00 -0.11413089873E+04  0.11413089873E+04  0.25500000920E-02 0. -1.
    10030    2    1    2    0    0  0.00000000000E+00  0.00000000000E+00  0.59944582331E+03  0.28820637979E+04  0.28190346646E+04 0.  0.
        5    1    3    3  502    0  0.68224179114E+03  0.22003596111E+03 -0.94102067917E+03  0.11829673260E+04  0.46999998093E+01 0. -1.
       -5    1    3    3    0  502 -0.68224179114E+03 -0.22003596111E+03  0.15404665025E+04  0.16990964720E+04  0.46999998093E+01 0.  1.
</event>
<event>
 5   0  0.1067434E-05  0.2815065E+04  0.7818609E-02  0.8298607E-01
        1   -1    0    0  501    0  0.00000000000E+00  0.00000000000E+00  0.15138023463E+04  0.15138023463E+04  0.50400001928E-02 0. -1.
       -1   -1    0    0    0  501  0.00000000000E+00  0.00000000000E+00 -0.13087227520E+04  0.13087227520E+04  0.50400001928E-02 0.  1.
    10030    2    1    2    0    0  0.00000000000E+00  0.00000000000E+00  0.20507959432E+03  0.28225250983E+04  0.28150648821E+04 0.  0.
        4    1    3    3  502    0 -0.76581225106E+03  0.93039296494E+03  0.83182318460E+03  0.14642509677E+04  0.12699999809E+01 0. -1.
       -4    1    3    3    0  502  0.76581225106E+03 -0.93039296494E+03 -0.62674359028E+03  0.13582741306E+04  0.12699999809E+01 0.  1.
</event>
<event>
 5   0  0.1105862E-05  0.2828393E+04  0.7818609E-02  0.8294507E-01
       -1   -1    0    0    0  501  0.00000000000E+00  0.00000000000E+00  0.17843494964E+04  0.17843494964E+04  0.50400001928E-02 0.  1.
        1   -1    0    0  501    0  0.00000000000E+00  0.00000000000E+00 -0.11208293258E+04  0.11208293258E+04  0.50400001928E-02 0. -1.
    10030    2    1    2    0    0  0.00000000000E+00  0.00000000000E+00  0.66352017066E+03  0.29051788222E+04  0.28283926481E+04 0.  0.
        3    1    3    3  502    0 -0.20955455745E+03 -0.94412220255E+03  0.13916016832E+04  0.16946489609E+04  0.10100000352E+00 0.  1.
       -3    1    3    3    0  502  0.20955455745E+03  0.94412220255E+03 -0.72808151254E+03  0.12105298613E+04  0.10100000352E+00 0. -1.
</event>
<event>
 5   0  0.2697964E-05  0.2793693E+04  0.7818609E-02  0.8305229E-01
       -2   -1    0    0    0  501  0.00000000000E+00  0.00000000000E+00  0.11176844372E+04  0.11176844372E+04  0.25500000920E-02 0.  1.
        2   -1    0    0  501    0  0.00000000000E+00  0.00000000000E+00 -0.17457346468E+04  0.17457346468E+04  0.25500000920E-02 0. -1.
    10030    2    1    2    0    0  0.00000000000E+00  0.00000000000E+00 -0.62805020964E+03  0.28634190840E+04  0.27936932160E+04 0.  0.
        1    1    3    3  502    0  0.29032304204E+02 -0.13959331713E+04 -0.27166377895E+03  0.14224181883E+04  0.50400001928E-02 0. -1.
       -1    1    3    3    0  502 -0.29032304204E+02  0.13959331713E+04 -0.35638643068E+03  0.14410008957E+04  0.50400001928E-02 0.  1.
</event>
<event>
 5   0  0.2624815E-05  0.2804575E+04  0.7818609E-02  0.8301850E-01
        2   -1    0    0  501    0  0.00000000000E+00  0.00000000000E+00  0.16056451757E+04  0.16056451757E+04  0.25500000920E-02 0. -1.
       -2   -1    0    0    0  501  0.00000000000E+00  0.00000000000E+00 -0.12246851173E+04  0.12246851173E+04  0.25500000920E-02 0.  1.
    10030    2    1    2    0    0  0.00000000000E+00  0.00000000000E+00  0.38096005833E+03  0.28303302930E+04  0.28045746560E+04 0.  0.
        4    1    3    3  502    0  0.45284926730E+03  0.97975585841E+03 -0.71295851213E+03  0.12935630846E+04  0.12699999809E+01 0.  1.
       -4    1    3    3    0  502 -0.45284926730E+03 -0.97975585841E+03  0.10939185705E+04  0.15367672084E+04  0.12699999809E+01 0. -1.
</event>
<event>
 5   0  0.2651061E-05  0.2755877E+04  0.7818609E-02  0.8317099E-01
       -2   -1    0    0    0  501  0.00000000000E+00  0.00000000000E+00  0.12302306134E+04  0.12302306134E+04  0.25500000920E-02 0. -1.
        2   -1    0    0  501    0  0.00000000000E+00  0.00000000000E+00 -0.15433805414E+04  0.15433805414E+04  0.25500000920E-02 0.  1.
    10030    2    1    2    0    0  0.00000000000E+00  0.00000000000E+00 -0.31314992804E+03  0.27736111548E+04  0.27558766229E+04 0.  0.
        3    1    3    3  502    0 -0.57455173088E+03  0.12387518009E+04  0.29270489706E+02  0.13658230073E+04  0.10100000352E+00 0. -1.
       -3    1    3    3    0  502  0.57455173088E+03 -0.12387518009E+04 -0.34242041775E+03  0.14077881475E+04  0.10100000352E+00 0.  1.
</event>
<event>
 5   0  0.1067434E-05  0.2985890E+04  0.7818609E-02  0.8247772E-01
       -1   -1    0    0    0  501  0.00000000000E+00  0.00000000000E+00  0.15341336722E+04  0.15341336722E+04  0.50400001928E-02 0.  1.
        1   -1    0    0  501    0  0.00000000000E+00  0.00000000000E+00 -0.14528622580E+04  0.14528622581E+04  0.50400001928E-02 0. -1.
    10030    2    1    2    0    0  0.00000000000E+00  0.00000000000E+00  0.81271414133E+02  0.29869959302E+04  0.29858900925E+04 0.  0.
        4    1    3    3  502    0  0.18035696797E+03 -0.14763784392E+04 -0.88491013553E+02  0.14899846322E+04  0.12699999809E+01 0.  1.
       -4    1    3    3    0  502 -0.18035696797E+03  0.14763784392E+04  0.16976242769E+03  0.14970112981E+04  0.12699999809E+01 0. -1.
</event>
<event>
 5   0  0.1075146E-05  0.2847259E+04  0.7818609E-02  0.8288745E-01
       -1   -1    0    0    0  501  0.00000000000E+00  0.00000000000E+00  0.13523230766E+04  0.13523230766E+04  0.50400001928E-02 0. -1.
        1   -1    0    0  501    0  0.00000000000E+00  0.00000000000E+00 -0.14986959097E+04  0.14986959097E+04  0.50400001928E-02 0.  1.
    10030    2    1    2    0    0  0.00000000000E+00  0.00000000000E+00 -0.14637283305E+03  0.28510189863E+04  0.28472590774E+04 0.  0.
        2    1    3    3  502    0 -0.96560648808E+03 -0.96914448431E+03  0.32114086011E+03  0.14052645208E+04  0.25500000920E-02 0. -1.
       -2    1    3    3    0  502  0.96560648808E+03  0.96914448431E+03 -0.46751369316E+03  0.14457544655E+04  0.25500000920E-02 0.  1.
</event>
<event>
 5   0  0.2518686E-05  0.2798806E+04  0.7818609E-02  0.8303639E-01
       -2   -1    0    0    0  501  0.00000000000E+00  0.00000000000E+00  0.70893183904E+03  0.70893183904E+03  0.25500000920E-02 0.  1.
        2   -1    0    0  501    0  0.00000000000E+00  0.00000000000E+00 -0.27623660416E+04  0.27623660417E+04  0.25500000920E-02 0. -1.
    10030    2    1    2    0    0  0.00000000000E+00  0.00000000000E+00 -0.20534342026E+04  0.34712978807E+04  0.27988063442E+04 0.  0.
        5    1    3    3  502    0  0.80326789310E+02  0.90903179956E+03  0.28909797747E+03  0.95728310142E+03  0.46999998093E+01 0.  1.
       -5    1    3    3    0  502 -0.80326789310E+02 -0.90903179956E+03 -0.23425321801E+04  0.25140147793E+04  0.46999998093E+01 0. -1.
</event>
<event>
 5   0  0.1078103E-05  0.1552947E+04  0.7818609E-02  0.8849987E-01
        1   -1    0    0  501    0  0.00000000000E+00  0.00000000000E+00  0.62141122773E+03  0.62141122775E+03  0.50400001928E-02 0. -1.
       -1   -1    0    0    0  501  0.00000000000E+00  0.00000000000E+00 -0.97022933383E+03  0.97022933384E+03  0.50400001928E-02 0.  1.
    10030    2    1    2    0    0  0.00000000000E+00  0.00000000000E+00 -0.34881810610E+03  0.15916405616E+04  0.15529473932E+04 0.  0.
        1    1    3    3  502    0 -0.31468705749E+02 -0.37111370640E+02 -0.96866526961E+03  0.96988655926E+03  0.50400001928E-02 0.  1.
       -1    1    3    3    0  502  0.31468705749E+02  0.37111370640E+02  0.61984716351E+03  0.62175400233E+03  0.50400001928E-02 0. -1.
</event>
<event>
 5   0  0.2651061E-05  0.2577839E+04  0.7818609E-02  0.8375768E-01
       -2   -1    0    0    0  501  0.00000000000E+00  0.00000000000E+00  0.11505322993E+04  0.11505322993E+04  0.25500000920E-02 0.  1.
        2   -1    0    0  501    0  0.00000000000E+00  0.00000000000E+00 -0.14439517393E+04  0.14439517393E+04  0.25500000920E-02 0. -1.
    10030    2    1    2    0    0  0.00000000000E+00  0.00000000000E+00 -0.29341944003E+03  0.25944840387E+04  0.25778387186E+04 0.  0.
        3    1    3    3  502    0 -0.11004371303E+04 -0.58255126797E+03  0.18858590537E+03  0.12593222429E+04  0.10100000352E+00 0. -1.
       -3    1    3    3    0  502  0.11004371303E+04  0.58255126797E+03 -0.48200534540E+03  0.13351617957E+04  0.10100000352E+00 0.  1.
</event>
<event>
 5   0  0.1075146E-05  0.2814730E+04  0.7818609E-02  0.8298710E-01
       -1   -1    0    0    0  501  0.00000000000E+00  0.00000000000E+00  0.15657127228E+04  0.15657127228E+04  0.50400001928E-02 0.  1.
        1   -1    0    0  501    0  0.00000000000E+00  0.00000000000E+00 -0.12650312619E+04  0.12650312619E+04  0.50400001928E-02 0. -1.
    10030    2    1    2    0    0  0.00000000000E+00  0.00000000000E+00  0.30068146085E+03  0.28307439847E+04  0.28147295014E+04 0.  0.
        2    1    3    3  502    0  0.10219502203E+04 -0.86756473203E+02  0.11195492507E+04  0.15183212648E+04  0.25500000920E-02 0.  1.
       -2    1    3    3    0  502 -0.10219502203E+04  0.86756473203E+02 -0.81886778988E+03  0.13124227199E+04  0.25500000920E-02 0. -1.
</event>
<event>
 5   0  0.1067434E-05  0.2716364E+04  0.7818609E-02  0.8329715E-01
        1   -1    0    0  501    0  0.00000000000E+00  0.00000000000E+00  0.10061102606E+04  0.10061102606E+04  0.50400001928E-02 0. -1.
       -1   -1    0    0    0  501  0.00000000000E+00  0.00000000000E+00 -0.18334557639E+04  0.18334557639E+04  0.50400001928E-02 0.  1.
    10030    2    1    2    0    0  0.00000000000E+00  0.00000000000E+00 -0.82734550338E+03  0.28395660245E+04  0.27163642292E+04 0.  0.
        4    1    3    3  502    0  0.23758591208E+01  0.93714805937E+03  0.61397324121E+03  0.11203646209E+04  0.12699999809E+01 0. -1.
       -4    1    3    3    0  502 -0.23758591208E+01 -0.93714805937E+03 -0.14413187446E+04  0.17192014036E+04  0.12699999809E+01 0.  1.
</event>
<event>
 5   0  0.8958000E-06  0.2883731E+04  0.7818609E-02  0.8277734E-01
       -3   -1    0    0    0  501  0.00000000000E+00  0.00000000000E+00  0.91764690018E+03  0.91764690574E+03  0.10100000352E+00 0.  1.
        3   -1    0    0  501    0  0.00000000000E+00  0.00000000000E+00 -0.22655520262E+04  0.22655520284E+04  0.10100000352E+00 0. -1.
    10030    2    1    2    0    0  0.00000000000E+00  0.00000000000E+00 -0.13479051260E+04  0.31831989342E+04  0.28837314760E+04 0.  0.
        2    1    3    3  502    0 -0.97234455609E+03  0.10401489769E+04 -0.42317515141E+03  0.14854093842E+04  0.25500000920E-02 0.  1.
       -2    1    3    3    0  502  0.97234455609E+03 -0.10401489769E+04 -0.92472997460E+03  0.16977895499E+04  0.25500000920E-02 0. -1.
</event>
<event>
 5   0  0.2624815E-05  0.2734444E+04  0.7818609E-02  0.8323915E-01
       -2   -1    0    0    0  501  0.00000000000E+00  0.00000000000E+00  0.93022117180E+03  0.93022117181E+03  0.25500000920E-02 0. -1.
        2   -1    0    0  501    0  0.00000000000E+00  0.00000000000E+00 -0.20095178230E+04  0.20095178230E+04  0.25500000920E-02 0.  1.
    10030    2    1    2    0    0  0.00000000000E+00  0.00000000000E+00 -0.10792966512E+04  0.29397389948E+04  0.27344440196E+04 0.  0.
        4    1    3    3  502    0 -0.11676216478E+04  0.41448556887E+03  0.81813198768E+02  0.12417059280E+04  0.12699999809E+01 0. -1.
       -4    1    3    3    0  502  0.11676216478E+04 -0.41448556887E+03 -0.11611098499E+04  0.16980330668E+04  0.12699999809E+01 0.  1.
</event>
<event>
 5   0  0.1017456E-05  0.2695897E+04  0.7818609E-02  0.8336337E-01
       -1   -1    0    0    0  501  0.00000000000E+00  0.00000000000E+00  0.14969747564E+04  0.14969747565E+04  0.50400001928E-02 0.  1.
        1   -1    0    0  501    0  0.00000000000E+00  0.00000000000E+00 -0.12137580087E+04  0.12137580087E+04  0.50400001928E-02 0. -1.
    10030    2    1    2    0    0  0.00000000000E+00  0.00000000000E+00  0.28321674772E+03  0.27107327652E+04  0.26958969561E+04 0.  0.
        5    1    3    3  502    0 -0.42010314578E+03 -0.93985214276E+03 -0.73331471840E+03  0.12639546153E+04  0.46999998093E+01 0. -1.
       -5    1    3    3    0  502  0.42010314578E+03  0.93985214276E+03  0.10165314661E+04  0.14467781499E+04  0.46999998093E+01 0.  1.
</event>
<event>
 5   0  0.2588048E-05  0.2849938E+04  0.7818609E-02  0.8287930E-01
       -2   -1    0    0    0  501  0.00000000000E+00  0.00000000000E+00  0.11696167802E+04  0.11696167802E+04  0.25500000920E-02 0.  1.
        2   -1    0    0  501    0  0.00000000000E+00  0.00000000000E+00 -0.17360696708E+04  0.17360696708E+04  0.25500000920E-02 0. -1.
    10030    2    1    2    0    0  0.00000000000E+00  0.00000000000E+00 -0.56645289059E+03  0.29056864510E+04  0.28499376966E+04 0.  0.
        2    1    3    3  502    0  0.84613156914E+03  0.69883627993E+03  0.64352370260E+03  0.12721766914E+04  0.25500000920E-02 0.  1.
       -2    1    3    3    0  502 -0.84613156914E+03 -0.69883627993E+03 -0.12099765932E+04  0.16335097595E+04  0.25500000920E-02 0. -1.
</event>
<event>
 5   0  0.1075146E-05  0.2115541E+04  0.7818609E-02  0.8554428E-01
       -1   -1    0    0    0  501  0.00000000000E+00  0.00000000000E+00  0.16779369558E+04  0.16779369558E+04  0.50400001928E-02 0.  1.
        1   -1    0    0  501    0  0.00000000000E+00  0.00000000000E+00 -0.66681822338E+03  0.66681822339E+03  0.50400001928E-02 0. -1.
    10030    2    1    2    0    0  0.00000000000E+00  0.00000000000E+00  0.10111187325E+04  0.23447551792E+04  0.21155414814E+04 0.  0.
        2    1    3    3  502    0 -0.10756430091E+03  0.66611364885E+02  0.16695204815E+04  0.16743075557E+04  0.25500000920E-02 0.  1.
       -2    1    3    3    0  502  0.10756430091E+03 -0.66611364885E+02 -0.65840174906E+03  0.67044762356E+03  0.25500000920E-02 0. -1.
</event>
<event>
 5   0  0.1078103E-05  0.2828009E+04  0.7818609E-02  0.8294625E-01
       -1   -1    0    0    0  501  0.00000000000E+00  0.00000000000E+00  0.80463836809E+03  0.80463836811E+03  0.50400001928E-02 0.  1.
        1   -1    0    0  501    0  0.00000000000E+00  0.00000000000E+00 -0.24848539223E+04  0.24848539223E+04  0.50400001928E-02 0. -1.
    10030    2    1    2    0    0  0.00000000000E+00  0.00000000000E+00 -0.16802155542E+04  0.32894922904E+04  0.28280090559E+04 0.  0.
        1    1    3    3  502    0 -0.64643007221E+03 -0.41714124096E+03 -0.22201009267E+04  0.23496226884E+04  0.50400001928E-02 0. -1.
       -1    1    3    3    0  502  0.64643007221E+03  0.41714124096E+03  0.53988537254E+03  0.93986960195E+03  0.50400001928E-02 0.  1.
</event>
<event>
 5   0  0.2588048E-05  0.2697207E+04  0.7818609E-02  0.8335912E-01
       -2   -1    0    0    0  501  0.00000000000E+00  0.00000000000E+00  0.16308481168E+04  0.16308481168E+04  0.25500000920E-02 0. -1.
        2   -1    0    0  501    0  0.00000000000E+00  0.00000000000E+00 -0.11152059805E+04  0.11152059805E+04  0.25500000920E-02 0.  1.
    10030    2    1    2    0    0  0.00000000000E+00  0.00000000000E+00  0.51564213628E+03  0.27460540974E+04  0.26972071283E+04 0.  0.
        2    1    3    3  502    0 -0.94257476665E+03 -0.74065121335E+03 -0.37120311142E+03  0.12549116146E+04  0.25500000920E-02 0.  1.
       -2    1    3    3    0  502  0.94257476665E+03  0.74065121335E+03  0.88684524770E+03  0.14911424828E+04  0.25500000920E-02 0. -1.
</event>
<event>
 5   0  0.2624815E-05  0.2401524E+04  0.7818609E-02  0.8438933E-01
        2   -1    0    0  501    0  0.00000000000E+00  0.00000000000E+00  0.91991794501E+03  0.91991794501E+03  0.25500000920E-02 0.  1.
       -2   -1    0    0    0  501  0.00000000000E+00  0.00000000000E+00 -0.15673454961E+04  0.15673454961E+04  0.25500000920E-02 0. -1.
    10030    2    1    2    0    0  0.00000000000E+00  0.00000000000E+00 -0.64742755104E+03  0.24872634411E+04  0.24015238894E+04 0.  0.
        4    1    3    3  502    0  0.67067037127E+02  0.95182561950E+03  0.43125386793E+03  0.10471158049E+04  0.12699999809E+01 0.  1.
       -4    1    3    3    0  502 -0.67067037127E+02 -0.95182561950E+03 -0.10786814190E+04  0.14401476362E+04  0.12699999809E+01 0. -1.
</event>
<event>
 5   0  0.1075146E-05  0.1889292E+04  0.7818609E-02  0.8660205E-01
        1   -1    0    0  501    0  0.00000000000E+00  0.00000000000E+00  0.10905394477E+04  0.10905394477E+04  0.50400001928E-02 0. -1.
       -1   -1    0    0    0  501  0.00000000000E+00  0.00000000000E+00 -0.81827060410E+03  0.81827060412E+03  0.50400001928E-02 0.  1.
    10030    2    1    2    0    0  0.00000000000E+00  0.00000000000E+00  0.27226884359E+03  0.19088100518E+04  0.18892923254E+04 0.  0.
        2    1    3    3  502    0  0.15933272937E+03  0.38502332333E+03  0.99266994701E+03  0.10765795381E+04  0.25500000920E-02 0. -1.
       -2    1    3    3    0  502 -0.15933272937E+03 -0.38502332333E+03 -0.72040110342E+03  0.83223051372E+03  0.25500000920E-02 0.  1.
</event>
<event>
 5   0  0.1078103E-05  0.2941003E+04  0.7818609E-02  0.8260781E-01
       -1   -1    0    0    0  501  0.00000000000E+00  0.00000000000E+00  0.91702454627E+03  0.91702454628E+03  0.50400001928E-02 0.  1.
        1   -1    0    0  501    0  0.00000000000E+00  0.00000000000E+00 -0.23580330455E+04  0.23580330455E+04  0.50400001928E-02 0. -1.
    10030    2    1    2    0    0  0.00000000000E+00  0.00000000000E+00 -0.14410084992E+04  0.32750575918E+04  0.29410026751E+04 0.  0.
        1    1    3    3  502    0 -0.14298639742E+04 -0.51205846173E+02 -0.10985351781E+04  0.18038604605E+04  0.50400001928E-02 0. -1.
       -1    1    3    3    0  502  0.14298639742E+04  0.51205846173E+02 -0.34247332115E+03  0.14711971313E+04  0.50400001928E-02 0.  1.
</event>
<event>
 5   0  0.1067434E-05  0.2871927E+04  0.7818609E-02  0.8281279E-01
        1   -1    0    0  501    0  0.00000000000E+00  0.00000000000E+00  0.95525883187E+03  0.95525883188E+03  0.50400001928E-02 0. -1.
       -1   -1    0    0    0  501  0.00000000000E+00  0.00000000000E+00 -0.21585677204E+04  0.21585677204E+04  0.50400001928E-02 0.  1.
    10030    2    1    2    0    0  0.00000000000E+00  0.00000000000E+00 -0.12033088885E+04  0.31138265523E+04  0.28719267951E+04 0.  0.
        4    1    3    3  502    0 -0.54533563183E+03 -0.65307696227E+03 -0.18558449800E+04  0.20415833739E+04  0.12699999809E+01 0.  1.
       -4    1    3    3    0  502  0.54533563183E+03  0.65307696227E+03  0.65253609146E+03  0.10722431784E+04  0.12699999809E+01 0. -1.
</event>
<event>
 5   0  0.2624815E-05  0.2788486E+04  0.7818609E-02  0.8306852E-01
       -2   -1    0    0    0  501  0.00000000000E+00  0.00000000000E+00  0.16356012023E+04  0.16356012023E+04  0.25500000920E-02 0.  1.
        2   -1    0    0  501    0  0.00000000000E+00  0.00000000000E+00 -0.11885007846E+04  0.11885007846E+04  0.25500000920E-02 0. -1.
    10030    2    1    2    0    0  0.00000000000E+00  0.00000000000E+00  0.44710041779E+03  0.28241019869E+04  0.27884858344E+04 0.  0.
        4    1    3    3  502    0 -0.48836993182E+03  0.11832748556E+04 -0.33601660761E+03  0.13234626356E+04  0.12699999809E+01 0. -1.
       -4    1    3    3    0  502  0.48836993182E+03 -0.11832748556E+04  0.78311702540E+03  0.15006393513E+04  0.12699999809E+01 0.  1.
</event>
<event>
 5   0  0.1105862E-05  0.2842517E+04  0.7818609E-02  0.8290189E-01
       -1   -1    0    0    0  501  0.00000000000E+00  0.00000000000E+00  0.11752013419E+04  0.11752013419E+04  0.50400001928E-02 0. -1.
        1   -1    0    0  501    0  0.00000000000E+00  0.00000000000E+00 -0.17188335330E+04  0.17188335330E+04  0.50400001928E-02 0.  1.
    10030    2    1    2    0    0  0.00000000000E+00  0.00000000000E+00 -0.54363219114E+03  0.28940348749E+04  0.28425168245E+04 0.  0.
        3    1    3    3  502    0 -0.11827861286E+04 -0.77273958526E+03 -0.42910217099E+03  0.14765629604E+04  0.10100000352E+00 0.  1.
       -3    1    3    3    0  502  0.11827861286E+04  0.77273958526E+03 -0.11453002014E+03  0.14174719145E+04  0.10100000352E+00 0. -1.
</event>
<event>
 5   0  0.1078103E-05  0.1897180E+04  0.7818609E-02  0.8656261E-01
        1   -1    0    0  501    0  0.00000000000E+00  0.00000000000E+00  0.15404462659E+04  0.15404462659E+04  0.50400001928E-02 0. -1.
       -1   -1    0    0    0  501  0.00000000000E+00  0.00000000000E+00 -0.58413150092E+03  0.58413150094E+03  0.50400001928E-02 0.  1.
    10030    2    1    2    0    0  0.00000000000E+00  0.00000000000E+00  0.95631476501E+03  0.21245777669E+04  0.18971802123E+04 0.  0.
        1    1    3    3  502    0 -0.11890997268E+03 -0.22311400953E+03 -0.54570640279E+03  0.60142740287E+03  0.50400001928E-02 0.  1.
       -1    1    3    3    0  502  0.11890997268E+03  0.22311400953E+03  0.15020211678E+04  0.15231503640E+04  0.50400001928E-02 0. -1.
</event>
<event>
 5   0  0.1078103E-05  0.2970944E+04  0.7818609E-02  0.8252077E-01
       -1   -1    0    0    0  501  0.00000000000E+00  0.00000000000E+00  0.17512617167E+04  0.17512617167E+04  0.50400001928E-02 0. -1.
        1   -1    0    0  501    0  0.00000000000E+00  0.00000000000E+00 -0.12600210983E+04  0.12600210983E+04  0.50400001928E-02 0.  1.
    10030    2    1    2    0    0  0.00000000000E+00  0.00000000000E+00  0.49124061839E+03  0.30112828151E+04  0.29709437637E+04 0.  0.
        1    1    3    3  502    0 -0.70323574042E+03  0.11190894859E+04 -0.44161607012E+03  0.13935302427E+04  0.50400001928E-02 0.  1.
       -1    1    3    3    0  502  0.70323574042E+03 -0.11190894859E+04  0.93285668852E+03  0.16177525723E+04  0.50400001928E-02 0. -1.
</event>
<event>
 5   0  0.2624815E-05  0.2792304E+04  0.7818609E-02  0.8305662E-01
        2   -1    0    0  501    0  0.00000000000E+00  0.00000000000E+00  0.10854789233E+04  0.10854789233E+04  0.25500000920E-02 0. -1.
       -2   -1    0    0    0  501  0.00000000000E+00  0.00000000000E+00 -0.17957418641E+04  0.17957418641E+04  0.25500000920E-02 0.  1.
    10030    2    1    2    0    0  0.00000000000E+00  0.00000000000E+00 -0.71026294075E+03  0.28812207874E+04  0.27923036692E+04 0.  0.
        4    1    3    3  502    0 -0.17052521950E+02 -0.13888929392E+04 -0.20948445726E+03  0.14047062810E+04  0.12699999809E+01 0. -1.
       -4    1    3    3    0  502  0.17052521950E+02  0.13888929392E+04 -0.50077848349E+03  0.14765145064E+04  0.12699999809E+01 0.  1.
</event>
<event>
 5   0  0.2651061E-05  0.2657173E+04  0.7818609E-02  0.8349036E-01
        2   -1    0    0  501    0  0.00000000000E+00  0.00000000000E+00  0.16572820537E+04  0.16572820537E+04  0.25500000920E-02 0.  1.
       -2   -1    0    0    0  501  0.00000000000E+00  0.00000000000E+00 -0.10650821324E+04  0.10650821324E+04  0.25500000920E-02 0. -1.
    10030    2    1    2    0    0  0.00000000000E+00  0.00000000000E+00  0.59219992125E+03  0.27223641861E+04  0.26571725603E+04 0.  0.
        3    1    3    3  502    0 -0.50045048625E+02  0.13064928720E+04  0.54272203796E+02  0.13085769422E+04  0.10100000352E+00 0. -1.
       -3    1    3    3    0  502  0.50045048625E+02 -0.13064928720E+04  0.53792771746E+03  0.14137872439E+04  0.10100000352E+00 0.  1.
</event>
<event>
 5   0  0.2518686E-05  0.2729967E+04  0.7818609E-02  0.8325347E-01
        2   -1    0    0  501    0  0.00000000000E+00  0.00000000000E+00  0.58187561865E+03  0.58187561866E+03  0.25500000920E-02 0.  1.
       -2   -1    0    0    0  501  0.00000000000E+00  0.00000000000E+00 -0.32020249593E+04  0.32020249593E+04  0.25500000920E-02 0. -1.
    10030    2    1    2    0    0  0.00000000000E+00  0.00000000000E+00 -0.26201493407E+04  0.37839005780E+04  0.27299672190E+04 0.  0.
        5    1    3    3  502    0 -0.11554752784E+04  0.67488187427E+03 -0.16834618076E+04  0.21505009674E+04  0.46999998093E+01 0.  1.
       -5    1    3    3    0  502  0.11554752784E+04 -0.67488187427E+03 -0.93668753313E+03  0.16333996106E+04  0.46999998093E+01 0. -1.
</event>
<event>
 5   0  0.2651061E-05  0.2706575E+04  0.7818609E-02  0.8332875E-01
        2   -1    0    0  501    0  0.00000000000E+00  0.00000000000E+00  0.15456655873E+04  0.15456655873E+04  0.25500000920E-02 0. -1.
       -2   -1    0    0    0  501  0.00000000000E+00  0.00000000000E+00 -0.11848534280E+04  0.11848534280E+04  0.25500000920E-02 0.  1.
    10030    2    1    2    0    0  0.00000000000E+00  0.00000000000E+00  0.36081215932E+03  0.27305190153E+04  0.27065750828E+04 0.  0.
        3    1    3    3  502    0 -0.83314250540E+03  0.10367834044E+04  0.43229650028E+03  0.13985444348E+04  0.10100000352E+00 0. -1.
       -3    1    3    3    0  502  0.83314250540E+03 -0.10367834044E+04 -0.71484340955E+02  0.13319745805E+04  0.10100000352E+00 0.  1.
</event>
<event>
 5   0  0.1017456E-05  0.2813744E+04  0.7818609E-02  0.8299014E-01
       -1   -1    0    0    0  501  0.00000000000E+00  0.00000000000E+00  0.15004938178E+04  0.15004938178E+04  0.50400001928E-02 0.  1.
        1   -1    0    0  501    0  0.00000000000E+00  0.00000000000E+00 -0.13190914190E+04  0.13190914191E+04  0.50400001928E-02 0. -1.
    10030    2    1    2    0    0  0.00000000000E+00  0.00000000000E+00  0.18140239872E+03  0.28195852368E+04  0.28137437832E+04 0.  0.
        5    1    3    3  502    0 -0.79171650225E+03 -0.65909910956E+03  0.10508342685E+04  0.14715642718E+04  0.46999998093E+01 0.  1.
       -5    1    3    3    0  502  0.79171650225E+03  0.65909910956E+03 -0.86943186975E+03  0.13480209651E+04  0.46999998093E+01 0. -1.
</event>
<event>
 5   0  0.2518686E-05  0.2801143E+04  0.7818609E-02  0.8302914E-01
        2   -1    0    0  501    0  0.00000000000E+00  0.00000000000E+00  0.23165482365E+04  0.23165482365E+04  0.25500000920E-02 0.  1.
       -2   -1    0    0    0  501  0.00000000000E+00  0.00000000000E+00 -0.84677716122E+03  0.84677716122E+03  0.25500000920E-02 0. -1.
    10030    2    1    2    0    0  0.00000000000E+00  0.00000000000E+00  0.14697710753E+04  0.31633253977E+04  0.28011427236E+04 0.  0.
        5    1    3    3  502    0  0.39621122951E+03  0.72864733304E+03  0.20093763563E+04  0.21738274323E+04  0.46999998093E+01 0.  1.
       -5    1    3    3    0  502 -0.39621122951E+03 -0.72864733304E+03 -0.53960528097E+03  0.98949796543E+03  0.46999998093E+01 0. -1.
</event>
<event>
 5   0  0.2588048E-05  0.2754623E+04  0.7818609E-02  0.8317496E-01
       -2   -1    0    0    0  501  0.00000000000E+00  0.00000000000E+00  0.10999919621E+04  0.10999919621E+04  0.25500000920E-02 0. -1.
        2   -1    0    0  501    0  0.00000000000E+00  0.00000000000E+00 -0.17245460106E+04  0.17245460106E+04  0.25500000920E-02 0.  1.
    10030    2    1    2    0    0  0.00000000000E+00  0.00000000000E+00 -0.62455404849E+03  0.28245379727E+04  0.27546228417E+04 0.  0.
        2    1    3    3  502    0 -0.25723901603E+03 -0.21358831142E+03  0.10577467027E+04  0.11093331174E+04  0.25500000920E-02 0. -1.
       -2    1    3    3    0  502  0.25723901603E+03  0.21358831142E+03 -0.16823007512E+04  0.17152048553E+04  0.25500000920E-02 0.  1.
</event>
<event>
 5   0  0.2518686E-05  0.2863494E+04  0.7818609E-02  0.8283823E-01
       -2   -1    0    0    0  501  0.00000000000E+00  0.00000000000E+00  0.89867680651E+03  0.89867680652E+03  0.25500000920E-02 0.  1.
        2   -1    0    0  501    0  0.00000000000E+00  0.00000000000E+00 -0.22810204472E+04  0.22810204472E+04  0.25500000920E-02 0. -1.
    10030    2    1    2    0    0  0.00000000000E+00  0.00000000000E+00 -0.13823436407E+04  0.31796972537E+04  0.28634944883E+04 0.  0.
        5    1    3    3  502    0 -0.21301933686E+03  0.47987858132E+03 -0.21702558103E+04  0.22328665573E+04  0.46999998093E+01 0. -1.
       -5    1    3    3    0  502  0.21301933686E+03 -0.47987858132E+03  0.78791216959E+03  0.94683069642E+03  0.46999998093E+01 0.  1.
</event>
<event>
 5   0  0.1078103E-05  0.2811086E+04  0.7818609E-02  0.8299835E-01
        1   -1    0    0  501    0  0.00000000000E+00  0.00000000000E+00  0.20482911867E+04  0.20482911867E+04  0.50400001928E-02 0.  1.
       -1   -1    0    0    0  501  0.00000000000E+00  0.00000000000E+00 -0.96448715059E+03  0.96448715060E+03  0.50400001928E-02 0. -1.
    10030    2    1    2    0    0  0.00000000000E+00  0.00000000000E+00  0.10838040361E+04  0.30127783373E+04  0.28110855770E+04 0.  0.
        1    1    3    3  502    0  0.13145099417E+04  0.28640167607E+03  0.10578017757E+03  0.13495005569E+04  0.50400001928E-02 0. -1.
       -1    1    3    3    0  502 -0.13145099417E+04 -0.28640167607E+03  0.97802385852E+03  0.16632777804E+04  0.50400001928E-02 0.  1.
</event>
<event>
 5   0  0.2588048E-05  0.3173251E+04  0.7818609E-02  0.8195917E-01
       -2   -1    0    0    0  501  0.00000000000E+00  0.00000000000E+00  0.14529651224E+04  0.14529651224E+04  0.25500000920E-02 0.  1.
        2   -1    0    0  501    0  0.00000000000E+00  0.00000000000E+00 -0.17325812672E+04  0.17325812672E+04  0.25500000920E-02 0. -1.
    10030    2    1    2    0    0  0.00000000000E+00  0.00000000000E+00 -0.27961614480E+03  0.31855463897E+04  0.31732507957E+04 0.  0.
        2    1    3    3  502    0  0.12095548483E+04 -0.10114243317E+04  0.38016783678E+02  0.15771643496E+04  0.25500000920E-02 0.  1.
       -2    1    3    3    0  502 -0.12095548483E+04  0.10114243317E+04 -0.31763292848E+03  0.16083820401E+04  0.25500000920E-02 0. -1.
</event>
<event>
 5   0  0.1017456E-05  0.2718081E+04  0.7818609E-02  0.8329162E-01
       -1   -1    0    0    0  501  0.00000000000E+00  0.00000000000E+00  0.11306600104E+04  0.11306600104E+04  0.50400001928E-02 0.  1.
        1   -1    0    0  501    0  0.00000000000E+00  0.00000000000E+00 -0.16335510167E+04  0.16335510167E+04  0.50400001928E-02 0. -1.
    10030    2    1    2    0    0  0.00000000000E+00  0.00000000000E+00 -0.50289100630E+03  0.27642110271E+04  0.27180808005E+04 0.  0.
        5    1    3    3  502    0 -0.42836171160E+03  0.11834837133E+04  0.26993598299E+03  0.12872509392E+04  0.46999998093E+01 0.  1.
       -5    1    3    3    0  502  0.42836171160E+03 -0.11834837133E+04 -0.77282698930E+03  0.14769600878E+04  0.46999998093E+01 0. -1.
</event>
<event>
 5   0  0.1105862E-05  0.2572648E+04  0.7818609E-02  0.8377552E-01
        1   -1    0    0  501    0  0.00000000000E+00  0.00000000000E+00  0.17809460313E+04  0.17809460313E+04  0.50400001928E-02 0. -1.
       -1   -1    0    0    0  501  0.00000000000E+00  0.00000000000E+00 -0.92907307132E+03  0.92907307133E+03  0.50400001928E-02 0.  1.
    10030    2    1    2    0    0  0.00000000000E+00  0.00000000000E+00  0.85187295998E+03  0.27100191026E+04  0.25726476628E+04 0.  0.
        3    1    3    3  502    0 -0.60477570747E+03  0.11265437789E+04  0.27780607381E+03  0.13084459358E+04  0.10100000352E+00 0.  1.
       -3    1    3    3    0  502  0.60477570747E+03 -0.11265437789E+04  0.57406688616E+03  0.14015731668E+04  0.10100000352E+00 0. -1.
</event>
<event>
 5   0  0.2624815E-05  0.2730561E+04  0.7818609E-02  0.8325157E-01
        2   -1    0    0  501    0  0.00000000000E+00  0.00000000000E+00  0.21503606742E+04  0.21503606742E+04  0.25500000920E-02 0. -1.
       -2   -1    0    0    0  501  0.00000000000E+00  0.00000000000E+00 -0.86682689591E+03  0.86682689591E+03  0.25500000920E-02 0.  1.
    10030    2    1    2    0    0  0.00000000000E+00  0.00000000000E+00  0.12835337783E+04  0.30171875701E+04  0.27305607251E+04 0.  0.
        4    1    3    3  502    0  0.79288379961E+03  0.26065995543E+03 -0.55210215699E+03  0.10007131141E+04  0.12699999809E+01 0.  1.
       -4    1    3    3    0  502 -0.79288379961E+03 -0.26065995543E+03  0.18356359353E+04  0.20164744560E+04  0.12699999809E+01 0. -1.
</event>
<event>
 5   0  0.1017456E-05  0.2749213E+04  0.7818609E-02  0.8319211E-01
        1   -1    0    0  501    0  0.00000000000E+00  0.00000000000E+00  0.12258032620E+04  0.12258032620E+04  0.50400001928E-02 0.  1.
       -1   -1    0    0    0  501  0.00000000000E+00  0.00000000000E+00 -0.15414733481E+04  0.15414733481E+04  0.50400001928E-02 0. -1.
    10030    2    1    2    0    0  0.00000000000E+00  0.00000000000E+00 -0.31567008611E+03  0.27672766102E+04  0.27492130208E+04 0.  0.
        5    1    3    3  502    0 -0.33580899074E+03 -0.12529597455E+04  0.29995555434E+03  0.13314169996E+04  0.46999998093E+01 0. -1.
       -5    1    3    3    0  502  0.33580899074E+03  0.12529597455E+04 -0.61562564044E+03  0.14358596106E+04  0.46999998093E+01 0.  1.
</event>
<event>
 5   0  0.1067434E-05  0.2888318E+04  0.7818609E-02  0.8276362E-01
        1   -1    0    0  501    0  0.00000000000E+00  0.00000000000E+00  0.15509618601E+04  0.15509618602E+04  0.50400001928E-02 0. -1.
       -1   -1    0    0    0  501  0.00000000000E+00  0.00000000000E+00 -0.13447112561E+04  0.13447112561E+04  0.50400001928E-02 0.  1.
    10030    2    1    2    0    0  0.00000000000E+00  0.00000000000E+00  0.20625060407E+03  0.28956731162E+04  0.28883184527E+04 0.  0.
        4    1    3    3  502    0  0.84409796646E+03 -0.22971515264E+02 -0.10714231845E+04  0.13641767923E+04  0.12699999809E+01 0.  1.
       -4    1    3    3    0  502 -0.84409796646E+03  0.22971515264E+02  0.12776737885E+04  0.15314963240E+04  0.12699999809E+01 0. -1.
</event>
<event>
 5   0  0.1105862E-05  0.2934366E+04  0.7818609E-02  0.8262726E-01
        1   -1    0    0  501    0  0.00000000000E+00  0.00000000000E+00  0.96881993943E+03  0.96881993945E+03  0.50400001928E-02 0.  1.
       -1   -1    0    0    0  501  0.00000000000E+00  0.00000000000E+00 -0.22219043640E+04  0.22219043640E+04  0.50400001928E-02 0. -1.
    10030    2    1    2    0    0  0.00000000000E+00  0.00000000000E+00 -0.12530844246E+04  0.31907243035E+04  0.29343655201E+04 0.  0.
        3    1    3    3  502    0  0.12003389787E+04  0.59845332304E+03 -0.12731951160E+04  0.18493203771E+04  0.10100000352E+00 0. -1.
       -3    1    3    3    0  502 -0.12003389787E+04 -0.59845332304E+03  0.20110691371E+02  0.13414039264E+04  0.10100000352E+00 0.  1.
</event>
<event>
 5   0  0.2518686E-05  0.2874970E+04  0.7818609E-02  0.8280364E-01
        2   -1    0    0  501    0  0.00000000000E+00  0.00000000000E+00  0.78389839857E+03  0.78389839857E+03  0.25500000920E-02 0.  1.
       -2   -1    0    0    0  501  0.00000000000E+00  0.00000000000E+00 -0.26360092409E+04  0.26360092409E+04  0.25500000920E-02 0. -1.
    10030    2    1    2    0    0  0.00000000000E+00  0.00000000000E+00 -0.18521108423E+04  0.34199076395E+04  0.28749702068E+04 0.  0.
        5    1    3    3  502    0  0.26853331814E+03 -0.94062021023E+03 -0.21790171178E+04  0.23885171577E+04  0.46999998093E+01 0. -1.
       -5    1    3    3    0  502 -0.26853331814E+03  0.94062021023E+03  0.32690627553E+03  0.10313904817E+04  0.46999998093E+01 0.  1.
</event>
<event>
 5   0  0.1067434E-05  0.2801403E+04  0.7818609E-02  0.8302833E-01
        1   -1    0    0  501    0  0.00000000000E+00  0.00000000000E+00  0.10644063392E+04  0.10644063392E+04  0.50400001928E-02 0.  1.
       -1   -1    0    0    0  501  0.00000000000E+00  0.00000000000E+00 -0.18432482413E+04  0.18432482414E+04  0.50400001928E-02 0. -1.
    10030    2    1    2    0    0  0.00000000000E+00  0.00000000000E+00 -0.77884190211E+03  0.29076545806E+04  0.28014033004E+04 0.  0.
        4    1    3    3  502    0 -0.75020917863E+03 -0.31351287900E+03  0.79438999180E+03  0.11367326902E+04  0.12699999809E+01 0.  1.
       -4    1    3    3    0  502  0.75020917863E+03  0.31351287900E+03 -0.15732318939E+04  0.17709218904E+04  0.12699999809E+01 0. -1.
</event>
<event>
 5   0  0.1017456E-05  0.2786978E+04  0.7818609E-02  0.8307323E-01
        1   -1    0    0  501    0  0.00000000000E+00  0.00000000000E+00  0.15062515906E+04  0.15062515906E+04  0.50400001928E-02 0. -1.
       -1   -1    0    0    0  501  0.00000000000E+00  0.00000000000E+00 -0.12891680800E+04  0.12891680800E+04  0.50400001928E-02 0.  1.
    10030    2    1    2    0    0  0.00000000000E+00  0.00000000000E+00  0.21708351061E+03  0.27954196706E+04  0.27869779124E+04 0.  0.
        5    1    3    3  502    0  0.79175164993E+03  0.22665866396E+03 -0.10189380466E+04  0.13101532956E+04  0.46999998093E+01 0.  1.
       -5    1    3    3    0  502 -0.79175164993E+03 -0.22665866396E+03  0.12360215572E+04  0.14852663751E+04  0.46999998093E+01 0. -1.
</event>
<event>
 5   0  0.2518686E-05  0.2807707E+04  0.7818609E-02  0.8300880E-01
        2   -1    0    0  501    0  0.00000000000E+00  0.00000000000E+00  0.15544459520E+04  0.15544459520E+04  0.25500000920E-02 0. -1.
       -2   -1    0    0    0  501  0.00000000000E+00  0.00000000000E+00 -0.12678501464E+04  0.12678501464E+04  0.25500000920E-02 0.  1.
    10030    2    1    2    0    0  0.00000000000E+00  0.00000000000E+00  0.28659580563E+03  0.28222960984E+04  0.28077069133E+04 0.  0.
        5    1    3    3  502    0  0.31786090567E+03 -0.81595798559E+03  0.12462502104E+04  0.15231495877E+04  0.46999998093E+01 0. -1.
       -5    1    3    3    0  502 -0.31786090567E+03  0.81595798559E+03 -0.95965440477E+03  0.12991465107E+04  0.46999998093E+01 0.  1.
</event>
<event>
 5   0  0.1017456E-05  0.2644537E+04  0.7818609E-02  0.8353229E-01
       -1   -1    0    0    0  501  0.00000000000E+00  0.00000000000E+00  0.16321043957E+04  0.16321043957E+04  0.50400001928E-02 0.  1.
        1   -1    0    0  501    0  0.00000000000E+00  0.00000000000E+00 -0.10712511845E+04  0.10712511845E+04  0.50400001928E-02 0. -1.
    10030    2    1    2    0    0  0.00000000000E+00  0.00000000000E+00  0.56085321118E+03  0.27033555802E+04  0.26445368344E+04 0.  0.
        5    1    3    3  502    0  0.11339846136E+04 -0.72598319695E+02 -0.41076298954E+03  0.12082797456E+04  0.46999998093E+01 0. -1.
       -5    1    3    3    0  502 -0.11339846136E+04  0.72598319695E+02  0.97161620072E+03  0.14950758347E+04  0.46999998093E+01 0.  1.
</event>
<event>
 5   0  0.2624815E-05  0.2829942E+04  0.7818609E-02  0.8294032E-01
        2   -1    0    0  501    0  0.00000000000E+00  0.00000000000E+00  0.23335211722E+04  0.23335211722E+04  0.25500000920E-02 0. -1.
       -2   -1    0    0    0  501  0.00000000000E+00  0.00000000000E+00 -0.85799243565E+03  0.85799243566E+03  0.25500000920E-02 0.  1.
    10030    2    1    2    0    0  0.00000000000E+00  0.00000000000E+00  0.14755287366E+04  0.31915136079E+04  0.28299424123E+04 0.  0.
        4    1    3    3  502    0  0.11015643211E+04 -0.77459715684E+03  0.24787070512E+03  0.13692648422E+04  0.12699999809E+01 0.  1.
       -4    1    3    3    0  502 -0.11015643211E+04  0.77459715684E+03  0.12276580315E+04  0.18222487656E+04  0.12699999809E+01 0. -1.
</event>
<event>
 5   0  0.1067434E-05  0.2827983E+04  0.7818609E-02  0.8294633E-01
        1   -1    0    0  501    0  0.00000000000E+00  0.00000000000E+00  0.20997133872E+04  0.20997133872E+04  0.50400001928E-02 0.  1.
       -1   -1    0    0    0  501  0.00000000000E+00  0.00000000000E+00 -0.95221197444E+03  0.95221197445E+03  0.50400001928E-02 0. -1.
    10030    2    1    2    0    0  0.00000000000E+00  0.00000000000E+00  0.11475014128E+04  0.30519253617E+04  0.28279831896E+04 0.  0.
        4    1    3    3  502    0 -0.48197815824E+03  0.13599762200E+03 -0.85329828905E+03  0.98940279017E+03  0.12699999809E+01 0. -1.
       -4    1    3    3    0  502  0.48197815824E+03 -0.13599762200E+03  0.20007997018E+04  0.20625225715E+04  0.12699999809E+01 0.  1.
</event>
<event>
 5   0  0.1075146E-05  0.2717347E+04  0.7818609E-02  0.8329398E-01
        1   -1    0    0  501    0  0.00000000000E+00  0.00000000000E+00  0.22453238096E+04  0.22453238096E+04  0.50400001928E-02 0.  1.
       -1   -1    0    0    0  501  0.00000000000E+00  0.00000000000E+00 -0.82215012759E+03  0.82215012761E+03  0.50400001928E-02 0. -1.
    10030    2    1    2    0    0  0.00000000000E+00  0.00000000000E+00  0.14231736820E+04  0.30674739372E+04  0.27173466886E+04 0.  0.
        2    1    3    3  502    0 -0.66897726104E+03  0.68225057539E+03 -0.37878823431E+03  0.10278506457E+04  0.25500000920E-02 0. -1.
       -2    1    3    3    0  502  0.66897726104E+03 -0.68225057539E+03  0.18019619163E+04  0.20396232915E+04  0.25500000920E-02 0.  1.
</event>
<event>
 5   0  0.1105862E-05  0.2620740E+04  0.7818609E-02  0.8361190E-01
        1   -1    0    0  501    0  0.00000000000E+00  0.00000000000E+00  0.11531141925E+04  0.11531141925E+04  0.50400001928E-02 0. -1.
       -1   -1    0    0    0  501  0.00000000000E+00  0.00000000000E+00 -0.14890711394E+04  0.14890711394E+04  0.50400001928E-02 0.  1.
    10030    2    1    2    0    0  0.00000000000E+00  0.00000000000E+00 -0.33595694690E+03  0.26421853319E+04  0.26207396395E+04 0.  0.
        3    1    3    3  502    0 -0.57107026615E+03  0.11641386455E+04 -0.35854646143E+03  0.13453236079E+04  0.10100000352E+00 0.  1.
       -3    1    3    3    0  502  0.57107026615E+03 -0.11641386455E+04  0.22589514535E+02  0.12968617240E+04  0.10100000352E+00 0. -1.
</event>
<event>
 5   0  0.2651061E-05  0.2703966E+04  0.7818609E-02  0.8333719E-01
       -2   -1    0    0    0  501  0.00000000000E+00  0.00000000000E+00  0.13495646737E+04  0.13495646737E+04  0.25500000920E-02 0.  1.
        2   -1    0    0  501    0  0.00000000000E+00  0.00000000000E+00 -0.13544051719E+04  0.13544051719E+04  0.25500000920E-02 0. -1.
    10030    2    1    2    0    0  0.00000000000E+00  0.00000000000E+00 -0.48404981354E+01  0.27039698456E+04  0.27039655130E+04 0.  0.
        3    1    3    3  502    0 -0.42723783374E+03  0.46574625737E+03 -0.11975814090E+04  0.13541244346E+04  0.10100000352E+00 0. -1.
       -3    1    3    3    0  502  0.42723783374E+03 -0.46574625737E+03  0.11927409109E+04  0.13498454110E+04  0.10100000352E+00 0.  1.
</event>
<event>
 5   0  0.1075146E-05  0.2794249E+04  0.7818609E-02  0.8305056E-01
       -1   -1    0    0    0  501  0.00000000000E+00  0.00000000000E+00  0.13053632525E+04  0.13053632525E+04  0.50400001928E-02 0.  1.
        1   -1    0    0  501    0  0.00000000000E+00  0.00000000000E+00 -0.14953365915E+04  0.14953365915E+04  0.50400001928E-02 0. -1.
    10030    2    1    2    0    0  0.00000000000E+00  0.00000000000E+00 -0.18997333895E+03  0.28006998440E+04  0.27942494067E+04 0.  0.
        2    1    3    3  502    0  0.32097456246E+02 -0.13953430199E+04 -0.15794127119E+03  0.14046201746E+04  0.25500000920E-02 0.  1.
       -2    1    3    3    0  502 -0.32097456246E+02  0.13953430199E+04 -0.32032067764E+02  0.13960796694E+04  0.25500000920E-02 0. -1.
</event>
<event>
 5   0  0.1075146E-05  0.2760481E+04  0.7818609E-02  0.8315644E-01
       -1   -1    0    0    0  501  0.00000000000E+00  0.00000000000E+00  0.13366590959E+04  0.13366590959E+04  0.50400001928E-02 0.  1.
        1   -1    0    0  501    0  0.00000000000E+00  0.00000000000E+00 -0.14252426724E+04  0.14252426724E+04  0.50400001928E-02 0. -1.
    10030    2    1    2    0    0  0.00000000000E+00  0.00000000000E+00 -0.88583576480E+02  0.27619017684E+04  0.27604808147E+04 0.  0.
        2    1    3    3  502    0 -0.11198271724E+04 -0.45735620198E+03 -0.70937149594E+03  0.14022822508E+04  0.25500000920E-02 0. -1.
       -2    1    3    3    0  502  0.11198271724E+04  0.45735620198E+03  0.62078791946E+03  0.13596195176E+04  0.25500000920E-02 0.  1.
</event>
<event>
 5   0  0.2518686E-05  0.1808571E+04  0.7818609E-02  0.8701755E-01
       -2   -1    0    0    0  501  0.00000000000E+00  0.00000000000E+00  0.11548149039E+04  0.11548149039E+04  0.25500000920E-02 0. -1.
        2   -1    0    0  501    0  0.00000000000E+00  0.00000000000E+00 -0.70810651232E+03  0.70810651232E+03  0.25500000920E-02 0.  1.
    10030    2    1    2    0    0  0.00000000000E+00  0.00000000000E+00  0.44670839153E+03  0.18629214162E+04  0.18085706555E+04 0.  0.
        5    1    3    3  502    0 -0.94154502044E+02  0.54587442066E+02 -0.70132312021E+03  0.70973309633E+03  0.46999998093E+01 0.  1.
       -5    1    3    3    0  502  0.94154502044E+02 -0.54587442066E+02  0.11480315117E+04  0.11531883198E+04  0.46999998093E+01 0. -1.
</event>
<event>
 5   0  0.2624815E-05  0.2817294E+04  0.7818609E-02  0.8297919E-01
        2   -1    0    0  501    0  0.00000000000E+00  0.00000000000E+00  0.16779078652E+04  0.16779078652E+04  0.25500000920E-02 0.  1.
       -2   -1    0    0    0  501  0.00000000000E+00  0.00000000000E+00 -0.11825952500E+04  0.11825952500E+04  0.25500000920E-02 0. -1.
    10030    2    1    2    0    0  0.00000000000E+00  0.00000000000E+00  0.49531261521E+03  0.28605031151E+04  0.28172936455E+04 0.  0.
        4    1    3    3  502    0  0.10008866338E+03 -0.73056439195E+03 -0.97097771823E+03  0.12192380463E+04  0.12699999809E+01 0. -1.
       -4    1    3    3    0  502 -0.10008866338E+03  0.73056439195E+03  0.14662903334E+04  0.16412650688E+04  0.12699999809E+01 0.  1.
</event>
<event>
 5   0  0.1075146E-05  0.2817849E+04  0.7818609E-02  0.8297748E-01
       -1   -1    0    0    0  501  0.00000000000E+00  0.00000000000E+00  0.13042396797E+04  0.13042396797E+04  0.50400001928E-02 0.  1.
        1   -1    0    0  501    0  0.00000000000E+00  0.00000000000E+00 -0.15220119567E+04  0.15220119567E+04  0.50400001928E-02 0. -1.
    10030    2    1    2    0    0  0.00000000000E+00  0.00000000000E+00 -0.21777227702E+03  0.28262516365E+04  0.28178490996E+04 0.  0.
        2    1    3    3  502    0 -0.76153020404E+03 -0.10645335143E+04  0.41411726183E+03  0.13728266319E+04  0.25500000920E-02 0.  1.
       -2    1    3    3    0  502  0.76153020404E+03  0.10645335143E+04 -0.63188953885E+03  0.14534250046E+04  0.25500000920E-02 0. -1.
</event>
<event>
 5   0  0.1105862E-05  0.2820722E+04  0.7818609E-02  0.8296864E-01
       -1   -1    0    0    0  501  0.00000000000E+00  0.00000000000E+00  0.76712901623E+03  0.76712901625E+03  0.50400001928E-02 0.  1.
        1   -1    0    0  501    0  0.00000000000E+00  0.00000000000E+00 -0.25929381582E+04  0.25929381582E+04  0.50400001928E-02 0. -1.
    10030    2    1    2    0    0  0.00000000000E+00  0.00000000000E+00 -0.18258091420E+04  0.33600671745E+04  0.28207219633E+04 0.  0.
        3    1    3    3  502    0  0.13780531071E+04 -0.24692565484E+02 -0.55657996589E+03  0.14864122435E+04  0.10100000352E+00 0. -1.
       -3    1    3    3    0  502 -0.13780531071E+04  0.24692565484E+02 -0.12692291761E+04  0.18736549310E+04  0.10100000352E+00 0.  1.
</event>
<event>
 5   0  0.1105862E-05  0.3312442E+04  0.7818609E-02  0.8159737E-01
        1   -1    0    0  501    0  0.00000000000E+00  0.00000000000E+00  0.11222845752E+04  0.11222845752E+04  0.50400001928E-02 0.  1.
       -1   -1    0    0    0  501  0.00000000000E+00  0.00000000000E+00 -0.24441816188E+04  0.24441816188E+04  0.50400001928E-02 0. -1.
    10030    2    1    2    0    0  0.00000000000E+00  0.00000000000E+00 -0.13218970435E+04  0.35664661940E+04  0.33124415949E+04 0.  0.
        3    1    3    3  502    0 -0.12230810604E+04  0.36303236341E+03 -0.17980389129E+04  0.22046912981E+04  0.10100000352E+00 0. -1.
       -3    1    3    3    0  502  0.12230810604E+04 -0.36303236341E+03  0.47614186935E+03  0.13617748960E+04  0.10100000352E+00 0.  1.
</event>
<event>
 5   0  0.2588048E-05  0.2699646E+04  0.7818609E-02  0.8335120E-01
        2   -1    0    0  501    0  0.00000000000E+00  0.00000000000E+00  0.16338256968E+04  0.16338256968E+04  0.25500000920E-02 0. -1.
       -2   -1    0    0    0  501  0.00000000000E+00  0.00000000000E+00 -0.11151876378E+04  0.11151876378E+04  0.25500000920E-02 0.  1.
    10030    2    1    2    0    0  0.00000000000E+00  0.00000000000E+00  0.51863805894E+03  0.27490133346E+04  0.26996460653E+04 0.  0.
        2    1    3    3  502    0 -0.39839611667E+03 -0.67666815868E+03 -0.85867567240E+03  0.11635820440E+04  0.25500000920E-02 0.  1.
       -2    1    3    3    0  502  0.39839611667E+03  0.67666815868E+03  0.13773137313E+04  0.15854312906E+04  0.25500000920E-02 0. -1.
</event>
<event>
 5   0  0.1078103E-05  0.1516640E+04  0.7818609E-02  0.8873462E-01
       -1   -1    0    0    0  501  0.00000000000E+00  0.00000000000E+00  0.43097454345E+03  0.43097454348E+03  0.50400001928E-02 0.  1.
        1   -1    0    0  501    0  0.00000000000E+00  0.00000000000E+00 -0.13342998090E+04  0.13342998090E+04  0.50400001928E-02 0. -1.
    10030    2    1    2    0    0  0.00000000000E+00  0.00000000000E+00 -0.90332526558E+03  0.17652743525E+04  0.15166400378E+04 0.  0.
        1    1    3    3  502    0 -0.34755208433E+03 -0.13045524805E+03 -0.12213046292E+04  0.12764779749E+04  0.50400001928E-02 0. -1.
       -1    1    3    3    0  502  0.34755208433E+03  0.13045524805E+03  0.31797936362E+03  0.48879637763E+03  0.50400001928E-02 0.  1.
</event>
<event>
 5   0  0.2518686E-05  0.2743364E+04  0.7818609E-02  0.8321071E-01
       -2   -1    0    0    0  501  0.00000000000E+00  0.00000000000E+00  0.14411402550E+04  0.14411402550E+04  0.25500000920E-02 0.  1.
        2   -1    0    0  501    0  0.00000000000E+00  0.00000000000E+00 -0.13055712226E+04  0.13055712226E+04  0.25500000920E-02 0. -1.
    10030    2    1    2    0    0  0.00000000000E+00  0.00000000000E+00  0.13556903236E+03  0.27467114776E+04  0.27433638072E+04 0.  0.
        5    1    3    3  502    0  0.65734721100E+03  0.87317628352E+03 -0.76204952397E+03  0.13323977428E+04  0.46999998093E+01 0. -1.
       -5    1    3    3    0  502 -0.65734721100E+03 -0.87317628352E+03  0.89761855633E+03  0.14143137349E+04  0.46999998093E+01 0.  1.
</event>
<event>
 5   0  0.1105862E-05  0.2830928E+04  0.7818609E-02  0.8293730E-01
        1   -1    0    0  501    0  0.00000000000E+00  0.00000000000E+00  0.13470394906E+04  0.13470394906E+04  0.50400001928E-02 0.  1.
       -1   -1    0    0    0  501  0.00000000000E+00  0.00000000000E+00 -0.14873638277E+04  0.14873638277E+04  0.50400001928E-02 0. -1.
    10030    2    1    2    0    0  0.00000000000E+00  0.00000000000E+00 -0.14032433712E+03  0.28344033183E+04  0.28309276309E+04 0.  0.
        3    1    3    3  502    0  0.41150075895E+02  0.13202024298E+04 -0.57961890378E+03  0.14424236091E+04  0.10100000352E+00 0. -1.
       -3    1    3    3    0  502 -0.41150075895E+02 -0.13202024298E+04  0.43929456666E+03  0.13919797092E+04  0.10100000352E+00 0.  1.
</event>
<event>
 5   0  0.2588048E-05  0.2645231E+04  0.7818609E-02  0.8352998E-01
        2   -1    0    0  501    0  0.00000000000E+00  0.00000000000E+00  0.13362111338E+04  0.13362111338E+04  0.25500000920E-02 0.  1.
       -2   -1    0    0    0  501  0.00000000000E+00  0.00000000000E+00 -0.13091581965E+04  0.13091581965E+04  0.25500000920E-02 0. -1.
    10030    2    1    2    0    0  0.00000000000E+00  0.00000000000E+00  0.27052937288E+02  0.26453693303E+04  0.26452309979E+04 0.  0.
        2    1    3    3  502    0 -0.75857612669E+03  0.93981390381E+03  0.55265005503E+03  0.13281980263E+04  0.25500000920E-02 0.  1.
       -2    1    3    3    0  502  0.75857612669E+03 -0.93981390381E+03 -0.52559711774E+03  0.13171713040E+04  0.25500000920E-02 0. -1.
</event>
<event>
 5   0  0.8958000E-06  0.2144701E+04  0.7818609E-02  0.8541804E-01
        3   -1    0    0  501    0  0.00000000000E+00  0.00000000000E+00  0.14359310996E+04  0.14359311032E+04  0.10100000352E+00 0.  1.
       -3   -1    0    0    0  501  0.00000000000E+00  0.00000000000E+00 -0.80082904303E+03  0.80082904940E+03  0.10100000352E+00 0. -1.
    10030    2    1    2    0    0  0.00000000000E+00  0.00000000000E+00  0.63510205662E+03  0.22367601526E+04  0.21447007619E+04 0.  0.
        3    1    3    3  502    0  0.69788361242E+03  0.68268028752E+03 -0.14516117499E+03  0.98699832238E+03  0.10100000352E+00 0. -1.
       -3    1    3    3    0  502 -0.69788361242E+03 -0.68268028752E+03  0.78026323162E+03  0.12497618302E+04  0.10100000352E+00 0.  1.
</event>
<event>
 5   0  0.2518686E-05  0.2871645E+04  0.7818609E-02  0.8281364E-01
       -2   -1    0    0    0  501  0.00000000000E+00  0.00000000000E+00  0.23013126527E+04  0.23013126527E+04  0.25500000920E-02 0.  1.
        2   -1    0    0  501    0  0.00000000000E+00  0.00000000000E+00 -0.89583074124E+03  0.89583074124E+03  0.25500000920E-02 0. -1.
    10030    2    1    2    0    0  0.00000000000E+00  0.00000000000E+00  0.14054819114E+04  0.31971433939E+04  0.28716452563E+04 0.  0.
        5    1    3    3  502    0 -0.55866056389E+03  0.10074729105E+04  0.16568890041E+04  0.20180204540E+04  0.46999998093E+01 0.  1.
       -5    1    3    3    0  502  0.55866056389E+03 -0.10074729105E+04 -0.25140709263E+03  0.11791229399E+04  0.46999998093E+01 0. -1.
</event>
<event>
 5   0  0.1078103E-05  0.2526481E+04  0.7818609E-02  0.8393612E-01
       -1   -1    0    0    0  501  0.00000000000E+00  0.00000000000E+00  0.11217133437E+04  0.11217133437E+04  0.50400001928E-02 0. -1.
        1   -1    0    0  501    0  0.00000000000E+00  0.00000000000E+00 -0.14226244540E+04  0.14226244540E+04  0.50400001928E-02 0.  1.
    10030    2    1    2    0    0  0.00000000000E+00  0.00000000000E+00 -0.30091111033E+03  0.25443377978E+04  0.25264812156E+04 0.  0.
        1    1    3    3  502    0 -0.94332829748E+03 -0.83990182478E+03 -0.17236896717E+03  0.12747605316E+04  0.50400001928E-02 0. -1.
       -1    1    3    3    0  502  0.94332829748E+03  0.83990182478E+03 -0.12854214316E+03  0.12695772661E+04  0.50400001928E-02 0.  1.
</event>
<event>
 5   0  0.1067434E-05  0.3036641E+04  0.7818609E-02  0.8233345E-01
       -1   -1    0    0    0  501  0.00000000000E+00  0.00000000000E+00  0.12905273538E+04  0.12905273538E+04  0.50400001928E-02 0.  1.
        1   -1    0    0  501    0  0.00000000000E+00  0.00000000000E+00 -0.17863213077E+04  0.17863213077E+04  0.50400001928E-02 0. -1.
    10030    2    1    2    0    0  0.00000000000E+00  0.00000000000E+00 -0.49579395387E+03  0.30768486616E+04  0.30366405848E+04 0.  0.
        4    1    3    3  502    0  0.62542504196E+03 -0.12867446821E+04  0.26719086362E+03  0.14554246564E+04  0.12699999809E+01 0.  1.
       -4    1    3    3    0  502 -0.62542504196E+03  0.12867446821E+04 -0.76298481749E+03  0.16214240052E+04  0.12699999809E+01 0. -1.
</event>
<event>
 5   0  0.2651061E-05  0.1562805E+04  0.7818609E-02  0.8843730E-01
       -2   -1    0    0    0  501  0.00000000000E+00  0.00000000000E+00  0.25273462783E+03  0.25273462784E+03  0.25500000920E-02 0. -1.
        2   -1    0    0  501    0  0.00000000000E+00  0.00000000000E+00 -0.24159321388E+04  0.24159321388E+04  0.25500000920E-02 0.  1.
    10030    2    1    2    0    0  0.00000000000E+00  0.00000000000E+00 -0.21631975110E+04  0.26686667666E+04  0.15628047990E+04 0.  0.
        3    1    3    3  502    0  0.69039786510E+03  0.36248392393E+03 -0.11677595401E+04  0.14041745479E+04  0.10100000352E+00 0. -1.
       -3    1    3    3    0  502 -0.69039786510E+03 -0.36248392393E+03 -0.99543797089E+03  0.12644922188E+04  0.10100000352E+00 0.  1.
</event>
<event>
 5   0  0.1017456E-05  0.2826420E+04  0.7818609E-02  0.8295112E-01
       -1   -1    0    0    0  501  0.00000000000E+00  0.00000000000E+00  0.12969929545E+04  0.12969929545E+04  0.50400001928E-02 0.  1.
        1   -1    0    0  501    0  0.00000000000E+00  0.00000000000E+00 -0.15398412154E+04  0.15398412154E+04  0.50400001928E-02 0. -1.
    10030    2    1    2    0    0  0.00000000000E+00  0.00000000000E+00 -0.24284826088E+03  0.28368341700E+04  0.28264204977E+04 0.  0.
        5    1    3    3  502    0 -0.71979877137E+03 -0.12145206038E+04 -0.58179674770E+02  0.14130030195E+04  0.46999998093E+01 0.  1.
       -5    1    3    3    0  502  0.71979877137E+03  0.12145206038E+04 -0.18466858611E+03  0.14238311505E+04  0.46999998093E+01 0. -1.
</event>
<event>
 5   0  0.2697964E-05  0.2054466E+04  0.7818609E-02  0.8581571E-01
        2   -1    0    0  501    0  0.00000000000E+00  0.00000000000E+00  0.70389588756E+03  0.70389588756E+03  0.25500000920E-02 0.  1.
       -2   -1    0    0    0  501  0.00000000000E+00  0.00000000000E+00 -0.14990967017E+04  0.14990967017E+04  0.25500000920E-02 0. -1.
    10030    2    1    2    0    0  0.00000000000E+00  0.00000000000E+00 -0.79520081411E+03  0.22029925892E+04  0.20544663573E+04 0.  0.
        1    1    3    3  502    0  0.21061111041E+03 -0.46171835787E+03 -0.13552901765E+04  0.14471877363E+04  0.50400001928E-02 0. -1.
       -1    1    3    3    0  502 -0.21061111041E+03  0.46171835787E+03  0.56008936234E+03  0.75580485289E+03  0.50400001928E-02 0.  1.
</event>
<event>
 5   0  0.1078103E-05  0.2686012E+04  0.7818609E-02  0.8339558E-01
       -1   -1    0    0    0  501  0.00000000000E+00  0.00000000000E+00  0.96504346190E+03  0.96504346191E+03  0.50400001928E-02 0.  1.
        1   -1    0    0  501    0  0.00000000000E+00  0.00000000000E+00 -0.18689989572E+04  0.18689989572E+04  0.50400001928E-02 0. -1.
    10030    2    1    2    0    0  0.00000000000E+00  0.00000000000E+00 -0.90395549532E+03  0.28340424191E+04  0.26860120804E+04 0.  0.
        1    1    3    3  502    0  0.11445894912E+04 -0.20361351737E+01  0.28929048853E+03  0.11805838538E+04  0.50400001928E-02 0.  1.
       -1    1    3    3    0  502 -0.11445894912E+04  0.20361351737E+01 -0.11932459839E+04  0.16534585653E+04  0.50400001928E-02 0. -1.
</event>
<event>
 5   0  0.2588048E-05  0.2804106E+04  0.7818609E-02  0.8301995E-01
       -2   -1    0    0    0  501  0.00000000000E+00  0.00000000000E+00  0.13848148688E+04  0.13848148688E+04  0.25500000920E-02 0. -1.
        2   -1    0    0  501    0  0.00000000000E+00  0.00000000000E+00 -0.14195053018E+04  0.14195053018E+04  0.25500000920E-02 0.  1.
    10030    2    1    2    0    0  0.00000000000E+00  0.00000000000E+00 -0.34690432996E+02  0.28043201707E+04  0.28041055960E+04 0.  0.
        2    1    3    3  502    0 -0.84963579137E+02 -0.13865982600E+04  0.17208549645E+03  0.13998167604E+04  0.25500000920E-02 0. -1.
       -2    1    3    3    0  502  0.84963579137E+02  0.13865982600E+04 -0.20677592945E+03  0.14045034103E+04  0.25500000920E-02 0.  1.
</event>
<event>
 5   0  0.1105862E-05  0.2820754E+04  0.7818609E-02  0.8296854E-01
       -1   -1    0    0    0  501  0.00000000000E+00  0.00000000000E+00  0.13249951545E+04  0.13249951545E+04  0.50400001928E-02 0.  1.
        1   -1    0    0  501    0  0.00000000000E+00  0.00000000000E+00 -0.15012608638E+04  0.15012608638E+04  0.50400001928E-02 0. -1.
    10030    2    1    2    0    0  0.00000000000E+00  0.00000000000E+00 -0.17626570936E+03  0.28262560183E+04  0.28207540625E+04 0.  0.
        3    1    3    3  502    0  0.37476915991E+03 -0.13522825548E+04 -0.22998346280E+03  0.14219748362E+04  0.10100000352E+00 0. -1.
       -3    1    3    3    0  502 -0.37476915991E+03  0.13522825548E+04  0.53717753443E+02  0.14042811822E+04  0.10100000352E+00 0.  1.
</event>
<event>
 5   0  0.2624815E-05  0.2739055E+04  0.7818609E-02  0.8322443E-01
        2   -1    0    0  501    0  0.00000000000E+00  0.00000000000E+00  0.14606492574E+04  0.14606492574E+04  0.25500000920E-02 0.  1.
       -2   -1    0    0    0  501  0.00000000000E+00  0.00000000000E+00 -0.12840903385E+04  0.12840903385E+04  0.25500000920E-02 0. -1.
    10030    2    1    2    0    0  0.00000000000E+00  0.00000000000E+00  0.17655891893E+03  0.27447395959E+04  0.27390550191E+04 0.  0.
        4    1    3    3  502    0 -0.71990549199E+03 -0.81018971999E+03  0.92723423030E+03  0.14263366470E+04  0.12699999809E+01 0.  1.
       -4    1    3    3    0  502  0.71990549199E+03  0.81018971999E+03 -0.75067531137E+03  0.13184029489E+04  0.12699999809E+01 0. -1.
</event>
<event>
 5   0  0.2697964E-05  0.2000076E+04  0.7818609E-02  0.8606585E-01
       -2   -1    0    0    0  501  0.00000000000E+00  0.00000000000E+00  0.16271039658E+04  0.16271039658E+04  0.25500000920E-02 0.  1.
        2   -1    0    0  501    0  0.00000000000E+00  0.00000000000E+00 -0.61463549103E+03  0.61463549104E+03  0.25500000920E-02 0. -1.
    10030    2    1    2    0    0  0.00000000000E+00  0.00000000000E+00  0.10124684748E+04  0.22417394569E+04  0.20000758436E+04 0.  0.
        1    1    3    3  502    0  0.22793623539E+03 -0.36594434373E+03 -0.50512565902E+03  0.66409496424E+03  0.50400001928E-02 0. -1.
       -1    1    3    3    0  502 -0.22793623539E+03  0.36594434373E+03  0.15175941338E+04  0.15776444926E+04  0.50400001928E-02 0.  1.
</event>
<event>
 5   0  0.1105862E-05  0.2812051E+04  0.7818609E-02  0.8299537E-01
       -1   -1    0    0    0  501  0.00000000000E+00  0.00000000000E+00  0.14212571016E+04  0.14212571016E+04  0.50400001928E-02 0.  1.
        1   -1    0    0  501    0  0.00000000000E+00  0.00000000000E+00 -0.13909568143E+04  0.13909568143E+04  0.50400001928E-02 0. -1.
    10030    2    1    2    0    0  0.00000000000E+00  0.00000000000E+00  0.30300287340E+02  0.28122139159E+04  0.28120506755E+04 0.  0.
        3    1    3    3  502    0 -0.74303831835E+03 -0.88515569162E+03 -0.78570886814E+03  0.13974780773E+04  0.10100000352E+00 0. -1.
       -3    1    3    3    0  502  0.74303831835E+03  0.88515569162E+03  0.81600915548E+03  0.14147358386E+04  0.10100000352E+00 0.  1.
</event>
<event>
 5   0  0.1017456E-05  0.1409522E+04  0.7818609E-02  0.8946955E-01
       -1   -1    0    0    0  501  0.00000000000E+00  0.00000000000E+00  0.31952610659E+03  0.31952610663E+03  0.50400001928E-02 0.  1.
        1   -1    0    0  501    0  0.00000000000E+00  0.00000000000E+00 -0.15544515589E+04  0.15544515589E+04  0.50400001928E-02 0. -1.
    10030    2    1    2    0    0  0.00000000000E+00  0.00000000000E+00 -0.12349254523E+04  0.18739776655E+04  0.14095216984E+04 0.  0.
        5    1    3    3  502    0  0.20008837815E+03 -0.71284921511E+02 -0.15108608218E+04  0.15257258640E+04  0.46999998093E+01 0. -1.
       -5    1    3    3    0  502 -0.20008837815E+03  0.71284921511E+02  0.27593536955E+03  0.34825180153E+03  0.46999998093E+01 0.  1.
</event>
<event>
 5   0  0.1105862E-05  0.2789389E+04  0.7818609E-02  0.8306570E-01
        1   -1    0    0  501    0  0.00000000000E+00  0.00000000000E+00  0.18355881170E+04  0.18355881170E+04  0.50400001928E-02 0. -1.
       -1   -1    0    0    0  501  0.00000000000E+00  0.00000000000E+00 -0.10596999976E+04  0.10596999976E+04  0.50400001928E-02 0.  1.
    10030    2    1    2    0    0  0.00000000000E+00  0.00000000000E+00  0.77588811934E+03  0.28952881146E+04  0.27893889820E+04 0.  0.
        3    1    3    3  502    0  0.17855591437E+03  0.75987794515E+02  0.18215072511E+04  0.18318146837E+04  0.10100000352E+00 0. -1.
       -3    1    3    3    0  502 -0.17855591437E+03 -0.75987794515E+02 -0.10456191317E+04  0.10634734309E+04  0.10100000352E+00 0.  1.
</event>
<event>
 5   0  0.1017456E-05  0.2779832E+04  0.7818609E-02  0.8309557E-01
        1   -1    0    0  501    0  0.00000000000E+00  0.00000000000E+00  0.10696499662E+04  0.10696499662E+04  0.50400001928E-02 0. -1.
       -1   -1    0    0    0  501  0.00000000000E+00  0.00000000000E+00 -0.18060738689E+04  0.18060738689E+04  0.50400001928E-02 0.  1.
    10030    2    1    2    0    0  0.00000000000E+00  0.00000000000E+00 -0.73642390267E+03  0.28757238351E+04  0.27798322632E+04 0.  0.
        5    1    3    3  502    0  0.85888698712E+03  0.85879206021E+03  0.33084532037E+03  0.12588452547E+04  0.46999998093E+01 0. -1.
       -5    1    3    3    0  502 -0.85888698712E+03 -0.85879206021E+03 -0.10672692230E+04  0.16168785804E+04  0.46999998093E+01 0.  1.
</event>
<event>
 5   0  0.2588048E-05  0.2798135E+04  0.7818609E-02  0.8303848E-01
       -2   -1    0    0    0  501  0.00000000000E+00  0.00000000000E+00  0.10774812841E+04  0.10774812841E+04  0.25500000920E-02 0. -1.
        2   -1    0    0  501    0  0.00000000000E+00  0.00000000000E+00 -0.18166349155E+04  0.18166349155E+04  0.25500000920E-02 0.  1.
    10030    2    1    2    0    0  0.00000000000E+00  0.00000000000E+00 -0.73915363138E+03  0.28941161996E+04  0.27981351801E+04 0.  0.
        2    1    3    3  502    0  0.12584854015E+04 -0.57948887644E+03 -0.57066077065E+03  0.14984146886E+04  0.25500000920E-02 0. -1.
       -2    1    3    3    0  502 -0.12584854015E+04  0.57948887644E+03 -0.16849286073E+03  0.13957015110E+04  0.25500000920E-02 0.  1.
</event>
<event>
 5   0  0.1105862E-05  0.2883858E+04  0.7818609E-02  0.8277696E-01
       -1   -1    0    0    0  501  0.00000000000E+00  0.00000000000E+00  0.18371798606E+04  0.18371798606E+04  0.50400001928E-02 0.  1.
        1   -1    0    0  501    0  0.00000000000E+00  0.00000000000E+00 -0.11317124854E+04  0.11317124854E+04  0.50400001928E-02 0. -1.
    10030    2    1    2    0    0  0.00000000000E+00  0.00000000000E+00  0.70546737520E+03  0.29688923460E+04  0.28838581007E+04 0.  0.
        3    1    3    3  502    0 -0.50796293867E+03 -0.13231429658E+04  0.62593715928E+03  0.15493647061E+04  0.10100000352E+00 0.  1.
       -3    1    3    3    0  502  0.50796293867E+03  0.13231429658E+04  0.79530215928E+02  0.14195276399E+04  0.10100000352E+00 0. -1.
</event>
<event>
 5   0  0.2697964E-05  0.2789877E+04  0.7818609E-02  0.8306418E-01
       -2   -1    0    0    0  501  0.00000000000E+00  0.00000000000E+00  0.79186569019E+03  0.79186569019E+03  0.25500000920E-02 0. -1.
        2   -1    0    0  501    0  0.00000000000E+00  0.00000000000E+00 -0.24573018937E+04  0.24573018937E+04  0.25500000920E-02 0.  1.
    10030    2    1    2    0    0  0.00000000000E+00  0.00000000000E+00 -0.16654362035E+04  0.32491675839E+04  0.27898767429E+04 0.  0.
        1    1    3    3  502    0 -0.61633344970E+03 -0.77787737461E+03 -0.19743460546E+04  0.22097516771E+04  0.50400001928E-02 0.  1.
       -1    1    3    3    0  502  0.61633344970E+03  0.77787737461E+03  0.30890985110E+03  0.10394159068E+04  0.50400001928E-02 0. -1.
</event>
<event>
 5   0  0.2624815E-05  0.2872605E+04  0.7818609E-02  0.8281075E-01
       -2   -1    0    0    0  501  0.00000000000E+00  0.00000000000E+00  0.86026847797E+03  0.86026847797E+03  0.25500000920E-02 0.  1.
        2   -1    0    0  501    0  0.00000000000E+00  0.00000000000E+00 -0.23980485142E+04  0.23980485142E+04  0.25500000920E-02 0. -1.
    10030    2    1    2    0    0  0.00000000000E+00  0.00000000000E+00 -0.15377800363E+04  0.32583169922E+04  0.28726054692E+04 0.  0.
        4    1    3    3  502    0 -0.26633332234E+03  0.38664065173E+03 -0.23085533036E+04  0.23558107735E+04  0.12699999809E+01 0. -1.
       -4    1    3    3    0  502  0.26633332234E+03 -0.38664065173E+03  0.77077326736E+03  0.90250621867E+03  0.12699999809E+01 0.  1.
</event>
<event>
 5   0  0.1105862E-05  0.2765532E+04  0.7818609E-02  0.8314050E-01
       -1   -1    0    0    0  501  0.00000000000E+00  0.00000000000E+00  0.10261021729E+04  0.10261021729E+04  0.50400001928E-02 0.  1.
        1   -1    0    0  501    0  0.00000000000E+00  0.00000000000E+00 -0.18634025002E+04  0.18634025002E+04  0.50400001928E-02 0. -1.
    10030    2    1    2    0    0  0.00000000000E+00  0.00000000000E+00 -0.83730032732E+03  0.28895046731E+04  0.27655316700E+04 0.  0.
        3    1    3    3  502    0  0.10476801624E+04 -0.53871329519E+03 -0.11751197178E+04  0.16639567598E+04  0.10100000352E+00 0. -1.
       -3    1    3    3    0  502 -0.10476801624E+04  0.53871329519E+03  0.33781939050E+03  0.12255479133E+04  0.10100000352E+00 0.  1.
</event>
<event>
 5   0  0.2651061E-05  0.2823790E+04  0.7818609E-02  0.8295920E-01
       -2   -1    0    0    0  501  0.00000000000E+00  0.00000000000E+00  0.93524559495E+03  0.93524559496E+03  0.25500000920E-02 0. -1.
        2   -1    0    0  501    0  0.00000000000E+00  0.00000000000E+00 -0.21314696430E+04  0.21314696430E+04  0.25500000920E-02 0.  1.
    10030    2    1    2    0    0  0.00000000000E+00  0.00000000000E+00 -0.11962240481E+04  0.30667152380E+04  0.28237900732E+04 0.  0.
        3    1    3    3  502    0 -0.12203280539E+04 -0.59358461871E+03 -0.10213904314E+04  0.16984645072E+04  0.10100000352E+00 0.  1.
       -3    1    3    3    0  502  0.12203280539E+04  0.59358461871E+03 -0.17483361669E+03  0.13682507308E+04  0.10100000352E+00 0. -1.
</event>
<event>
 5   0  0.2651061E-05  0.2803709E+04  0.7818609E-02  0.8302118E-01
       -2   -1    0    0    0  501  0.00000000000E+00  0.00000000000E+00  0.14925548381E+04  0.14925548381E+04  0.25500000920E-02 0. -1.
        2   -1    0    0  501    0  0.00000000000E+00  0.00000000000E+00 -0.13166655969E+04  0.13166655969E+04  0.25500000920E-02 0.  1.
    10030    2    1    2    0    0  0.00000000000E+00  0.00000000000E+00  0.17588924114E+03  0.28092204350E+04  0.28037086916E+04 0.  0.
        3    1    3    3  502    0  0.82365909220E+03  0.10063598022E+04  0.61244408438E+03  0.14374498664E+04  0.10100000352E+00 0. -1.
       -3    1    3    3    0  502 -0.82365909220E+03 -0.10063598022E+04 -0.43655484324E+03  0.13717705686E+04  0.10100000352E+00 0.  1.
</event>
<event>
 5   0  0.1075146E-05  0.2824773E+04  0.7818609E-02  0.8295618E-01
        1   -1    0    0  501    0  0.00000000000E+00  0.00000000000E+00  0.17284800736E+04  0.17284800736E+04  0.50400001928E-02 0.  1.
       -1   -1    0    0    0  501  0.00000000000E+00  0.00000000000E+00 -0.11540981844E+04  0.11540981844E+04  0.50400001928E-02 0. -1.
    10030    2    1    2    0    0  0.00000000000E+00  0.00000000000E+00  0.57438188914E+03  0.28825782580E+04  0.28247730633E+04 0.  0.
        2    1    3    3  502    0  0.18356271497E+03  0.75214091788E+03  0.14926451401E+04  0.16814876583E+04  0.25500000920E-02 0.  1.
       -2    1    3    3    0  502 -0.18356271497E+03 -0.75214091788E+03 -0.91826325097E+03  0.12010905997E+04  0.25500000920E-02 0. -1.
</event>
<event>
 5   0  0.1017456E-05  0.2866783E+04  0.7818609E-02  0.8282830E-01
       -1   -1    0    0    0  501  0.00000000000E+00  0.00000000000E+00  0.13560906480E+04  0.13560906480E+04  0.50400001928E-02 0.  1.
        1   -1    0    0  501    0  0.00000000000E+00  0.00000000000E+00 -0.15150985314E+04  0.15150985314E+04  0.50400001928E-02 0. -1.
    10030    2    1    2    0    0  0.00000000000E+00  0.00000000000E+00 -0.15900788332E+03  0.28711891794E+04  0.28667828305E+04 0.  0.
        5    1    3    3  502    0  0.91703897831E+03  0.46740103955E+02 -0.11818517370E+04  0.14966431583E+04  0.46999998093E+01 0. -1.
       -5    1    3    3    0  502 -0.91703897831E+03 -0.46740103955E+02  0.10228438537E+04  0.13745460211E+04  0.46999998093E+01 0.  1.
</event>
<event>
 5   0  0.1078103E-05  0.2850932E+04  0.7818609E-02  0.8287628E-01
        1   -1    0    0  501    0  0.00000000000E+00  0.00000000000E+00  0.21681945573E+04  0.21681945573E+04  0.50400001928E-02 0. -1.
       -1   -1    0    0    0  501  0.00000000000E+00  0.00000000000E+00 -0.93716397330E+03  0.93716397331E+03  0.50400001928E-02 0.  1.
    10030    2    1    2    0    0  0.00000000000E+00  0.00000000000E+00  0.12310305840E+04  0.31053585306E+04  0.28509323571E+04 0.  0.
        1    1    3    3  502    0 -0.50107761322E+03 -0.51439440591E+03 -0.72574664702E+03  0.10209743263E+04  0.50400001928E-02 0.  1.
       -1    1    3    3    0  502  0.50107761322E+03  0.51439440591E+03  0.19567772310E+04  0.20843842043E+04  0.50400001928E-02 0. -1.
</event>
<event>
 5   0  0.2518686E-05  0.2806916E+04  0.7818609E-02  0.8301125E-01
       -2   -1    0    0    0  501  0.00000000000E+00  0.00000000000E+00  0.66270058789E+03  0.66270058790E+03  0.25500000920E-02 0. -1.
        2   -1    0    0  501    0  0.00000000000E+00  0.00000000000E+00 -0.29722226404E+04  0.29722226404E+04  0.25500000920E-02 0.  1.
    10030    2    1    2    0    0  0.00000000000E+00  0.00000000000E+00 -0.23095220526E+04  0.36349232283E+04  0.28069155250E+04 0.  0.
        5    1    3    3  502    0 -0.10452049286E+04  0.60597653311E+03 -0.22994458095E+03  0.12298607652E+04  0.46999998093E+01 0. -1.
       -5    1    3    3    0  502  0.10452049286E+04 -0.60597653311E+03 -0.20795774716E+04  0.24050624632E+04  0.46999998093E+01 0.  1.
</event>
<event>
 5   0  0.2651061E-05  0.2879458E+04  0.7818609E-02  0.8279016E-01
       -2   -1    0    0    0  501  0.00000000000E+00  0.00000000000E+00  0.11864830363E+04  0.11864830363E+04  0.25500000920E-02 0.  1.
        2   -1    0    0  501    0  0.00000000000E+00  0.00000000000E+00 -0.17470281003E+04  0.17470281003E+04  0.25500000920E-02 0. -1.
    10030    2    1    2    0    0  0.00000000000E+00  0.00000000000E+00 -0.56054506406E+03  0.29335111366E+04  0.28794577301E+04 0.  0.
        3    1    3    3  502    0 -0.13058997828E+04  0.28590507113E+03  0.26427352569E+03  0.13627018966E+04  0.10100000352E+00 0.  1.
       -3    1    3    3    0  502  0.13058997828E+04 -0.28590507113E+03 -0.82481858975E+03  0.15708092400E+04  0.10100000352E+00 0. -1.
</event>
<event>
 5   0  0.2624815E-05  0.2777392E+04  0.7818609E-02  0.8310322E-01
       -2   -1    0    0    0  501  0.00000000000E+00  0.00000000000E+00  0.12187847618E+04  0.12187847618E+04  0.25500000920E-02 0. -1.
        2   -1    0    0  501    0  0.00000000000E+00  0.00000000000E+00 -0.15822948929E+04  0.15822948929E+04  0.25500000920E-02 0.  1.
    10030    2    1    2    0    0  0.00000000000E+00  0.00000000000E+00 -0.36351013109E+03  0.28010796546E+04  0.27773922331E+04 0.  0.
        4    1    3    3  502    0 -0.38216357593E+03  0.11889859690E+04  0.43066241400E+03  0.13210633448E+04  0.12699999809E+01 0. -1.
       -4    1    3    3    0  502  0.38216357593E+03 -0.11889859690E+04 -0.79417254509E+03  0.14800163099E+04  0.12699999809E+01 0.  1.
</event>
<event>
 5   0  0.2651061E-05  0.2810518E+04  0.7818609E-02  0.8300010E-01
        2   -1    0    0  501    0  0.00000000000E+00  0.00000000000E+00  0.15254374390E+04  0.15254374390E+04  0.25500000920E-02 0.  1.
       -2   -1    0    0    0  501  0.00000000000E+00  0.00000000000E+00 -0.12945489015E+04  0.12945489015E+04  0.25500000920E-02 0. -1.
    10030    2    1    2    0    0  0.00000000000E+00  0.00000000000E+00  0.23088853747E+03  0.28199863406E+04  0.28105183586E+04 0.  0.
        3    1    3    3  502    0  0.17949756682E+03  0.52035009886E+03  0.14127693349E+04  0.15162126518E+04  0.10100000352E+00 0.  1.
       -3    1    3    3    0  502 -0.17949756682E+03 -0.52035009886E+03 -0.11818807974E+04  0.13037736887E+04  0.10100000352E+00 0. -1.
</event>
<event>
 5   0  0.1017456E-05  0.1748605E+04  0.7818609E-02  0.8734119E-01
       -1   -1    0    0    0  501  0.00000000000E+00  0.00000000000E+00  0.70366699224E+03  0.70366699225E+03  0.50400001928E-02 0. -1.
        1   -1    0    0  501    0  0.00000000000E+00  0.00000000000E+00 -0.10863156833E+04  0.10863156833E+04  0.50400001928E-02 0.  1.
    10030    2    1    2    0    0  0.00000000000E+00  0.00000000000E+00 -0.38264869108E+03  0.17899826756E+04  0.17486045745E+04 0.  0.
        5    1    3    3  502    0  0.28486304334E+03 -0.22114288940E+03  0.62397159026E+03  0.72070366063E+03  0.46999998093E+01 0. -1.
       -5    1    3    3    0  502 -0.28486304334E+03  0.22114288940E+03 -0.10066202813E+04  0.10692790149E+04  0.46999998093E+01 0.  1.
</event>
<event>
 5   0  0.1067434E-05  0.1490978E+04  0.7818609E-02  0.8890475E-01
       -1   -1    0    0    0  501  0.00000000000E+00  0.00000000000E+00  0.70544631329E+03  0.70544631331E+03  0.50400001928E-02 0. -1.
        1   -1    0    0  501    0  0.00000000000E+00  0.00000000000E+00 -0.78780433680E+03  0.78780433681E+03  0.50400001928E-02 0.  1.
    10030    2    1    2    0    0  0.00000000000E+00  0.00000000000E+00 -0.82358023509E+02  0.14932506501E+04  0.14909777530E+04 0.  0.
        4    1    3    3  502    0  0.28789503337E+03  0.45464292977E+03 -0.55788051052E+03  0.77512322940E+03  0.12699999809E+01 0.  1.
       -4    1    3    3    0  502 -0.28789503337E+03 -0.45464292977E+03  0.47552248702E+03  0.71812742072E+03  0.12699999809E+01 0. -1.
</event>
<event>
 5   0  0.1017456E-05  0.2692852E+04  0.7818609E-02  0.8337328E-01
       -1   -1    0    0    0  501  0.00000000000E+00  0.00000000000E+00  0.74257397241E+03  0.74257397243E+03  0.50400001928E-02 0. -1.
        1   -1    0    0  501    0  0.00000000000E+00  0.00000000000E+00 -0.24413231358E+04  0.24413231358E+04  0.50400001928E-02 0.  1.
    10030    2    1    2    0    0  0.00000000000E+00  0.00000000000E+00 -0.16987491634E+04  0.31838971083E+04  0.26928520338E+04 0.  0.
        5    1    3    3  502    0  0.75839203431E+03 -0.85490628490E+03 -0.16911038310E+04  0.20410481354E+04  0.46999998093E+01 0.  1.
       -5    1    3    3    0  502 -0.75839203431E+03  0.85490628490E+03 -0.76453323775E+01  0.11428489729E+04  0.46999998093E+01 0. -1.
</event>
<event>
 5   0  0.1067434E-05  0.2517590E+04  0.7818609E-02  0.8396746E-01
        1   -1    0    0  501    0  0.00000000000E+00  0.00000000000E+00  0.22680349884E+04  0.22680349884E+04  0.50400001928E-02 0. -1.
       -1   -1    0    0    0  501  0.00000000000E+00  0.00000000000E+00 -0.69865071005E+03  0.69865071007E+03  0.50400001928E-02 0.  1.
    10030    2    1    2    0    0  0.00000000000E+00  0.00000000000E+00  0.15693842783E+04  0.29666856985E+04  0.25175895258E+04 0.  0.
        4    1    3    3  502    0 -0.19755233119E+03  0.53263581650E+03 -0.53900267127E+03  0.78310492855E+03  0.12699999809E+01 0.  1.
       -4    1    3    3    0  502  0.19755233119E+03 -0.53263581650E+03  0.21083869496E+04  0.21835807699E+04  0.12699999809E+01 0. -1.
</event>
<event>
 5   0  0.2651061E-05  0.2741768E+04  0.7818609E-02  0.8321578E-01
        2   -1    0    0  501    0  0.00000000000E+00  0.00000000000E+00  0.25907635945E+04  0.25907635945E+04  0.25500000920E-02 0. -1.
       -2   -1    0    0    0  501  0.00000000000E+00  0.00000000000E+00 -0.72539364284E+03  0.72539364285E+03  0.25500000920E-02 0.  1.
    10030    2    1    2    0    0  0.00000000000E+00  0.00000000000E+00  0.18653699517E+04  0.33161572374E+04  0.27417683648E+04 0.  0.
        3    1    3    3  502    0  0.53599582982E+03 -0.76917190440E+03  0.21424265400E+04  0.23385697418E+04  0.10100000352E+00 0. -1.
       -3    1    3    3    0  502 -0.53599582982E+03  0.76917190440E+03 -0.27705658829E+03  0.97758749553E+03  0.10100000352E+00 0.  1.
</event>
<event>
 5   0  0.1105862E-05  0.2773219E+04  0.7818609E-02  0.8311631E-01
       -1   -1    0    0    0  501  0.00000000000E+00  0.00000000000E+00  0.19301043835E+04  0.19301043835E+04  0.50400001928E-02 0.  1.
        1   -1    0    0  501    0  0.00000000000E+00  0.00000000000E+00 -0.99615636913E+03  0.99615636914E+03  0.50400001928E-02 0. -1.
    10030    2    1    2    0    0  0.00000000000E+00  0.00000000000E+00  0.93394801436E+03  0.29262607526E+04  0.27732189057E+04 0.  0.
        3    1    3    3  502    0  0.20618280655E+03  0.13263265124E+04  0.83407003749E+03  0.15802930756E+04  0.10100000352E+00 0.  1.
       -3    1    3    3    0  502 -0.20618280655E+03 -0.13263265124E+04  0.99877976871E+02  0.13459676770E+04  0.10100000352E+00 0. -1.
</event>
<event>
 5   0  0.2518686E-05  0.2798617E+04  0.7818609E-02  0.8303698E-01
        2   -1    0    0  501    0  0.00000000000E+00  0.00000000000E+00  0.17916037766E+04  0.17916037766E+04  0.25500000920E-02 0. -1.
       -2   -1    0    0    0  501  0.00000000000E+00  0.00000000000E+00 -0.10929113424E+04  0.10929113424E+04  0.25500000920E-02 0.  1.
    10030    2    1    2    0    0  0.00000000000E+00  0.00000000000E+00  0.69869243424E+03  0.28845151190E+04  0.27986168645E+04 0.  0.
        5    1    3    3  502    0 -0.11745077528E+04 -0.22259561351E+03  0.10990114322E+04  0.16238428147E+04  0.46999998093E+01 0. -1.
       -5    1    3    3    0  502  0.11745077528E+04  0.22259561351E+03 -0.40031899800E+03  0.12606723043E+04  0.46999998093E+01 0.  1.
</event>
<event>
 5   0  0.2651061E-05  0.2879800E+04  0.7818609E-02  0.8278913E-01
        2   -1    0    0  501    0  0.00000000000E+00  0.00000000000E+00  0.12553657586E+04  0.12553657586E+04  0.25500000920E-02 0. -1.
       -2   -1    0    0    0  501  0.00000000000E+00  0.00000000000E+00 -0.16515606567E+04  0.16515606567E+04  0.25500000920E-02 0.  1.
    10030    2    1    2    0    0  0.00000000000E+00  0.00000000000E+00 -0.39619489817E+03  0.29069264153E+04  0.28798004769E+04 0.  0.
        3    1    3    3  502    0 -0.14089533779E+04  0.81380896569E+02 -0.48633965003E+03  0.14927487186E+04  0.10100000352E+00 0.  1.
       -3    1    3    3    0  502  0.14089533779E+04 -0.81380896569E+02  0.90144751862E+02  0.14141776967E+04  0.10100000352E+00 0. -1.
</event>
<event>
 5   0  0.1105862E-05  0.2841453E+04  0.7818609E-02  0.8290513E-01
       -1   -1    0    0    0  501  0.00000000000E+00  0.00000000000E+00  0.10216905136E+04  0.10216905136E+04  0.50400001928E-02 0.  1.
        1   -1    0    0  501    0  0.00000000000E+00  0.00000000000E+00 -0.19756119960E+04  0.19756119960E+04  0.50400001928E-02 0. -1.
    10030    2    1    2    0    0  0.00000000000E+00  0.00000000000E+00 -0.95392148239E+03  0.29973025096E+04  0.28414531739E+04 0.  0.
        3    1    3    3  502    0 -0.35560955712E+03  0.13754217037E+04 -0.49264234898E+03  0.15036420832E+04  0.10100000352E+00 0.  1.
       -3    1    3    3    0  502  0.35560955712E+03 -0.13754217037E+04 -0.46127913341E+03  0.14936604264E+04  0.10100000352E+00 0. -1.
</event>
<event>
 5   0  0.2624815E-05  0.2764986E+04  0.7818609E-02  0.8314222E-01
       -2   -1    0    0    0  501  0.00000000000E+00  0.00000000000E+00  0.11935008813E+04  0.11935008813E+04  0.25500000920E-02 0. -1.
        2   -1    0    0  501    0  0.00000000000E+00  0.00000000000E+00 -0.16014117633E+04  0.16014117634E+04  0.25500000920E-02 0.  1.
    10030    2    1    2    0    0  0.00000000000E+00  0.00000000000E+00 -0.40791088209E+03  0.27949126446E+04  0.27649856063E+04 0.  0.
        4    1    3    3  502    0  0.22622621807E+03 -0.13322707679E+04  0.91026775346E+02  0.13544043663E+04  0.12699999809E+01 0. -1.
       -4    1    3    3    0  502 -0.22622621807E+03  0.13322707679E+04 -0.49893765744E+03  0.14405082783E+04  0.12699999809E+01 0.  1.
</event>
<event>
 5   0  0.2518686E-05  0.2798104E+04  0.7818609E-02  0.8303857E-01
        2   -1    0    0  501    0  0.00000000000E+00  0.00000000000E+00  0.13679790588E+04  0.13679790588E+04  0.25500000920E-02 0. -1.
       -2   -1    0    0    0  501  0.00000000000E+00  0.00000000000E+00 -0.14308308566E+04  0.14308308566E+04  0.25500000920E-02 0.  1.
    10030    2    1    2    0    0  0.00000000000E+00  0.00000000000E+00 -0.62851797890E+02  0.27988099154E+04  0.27981041071E+04 0.  0.
        5    1    3    3  502    0  0.12983781469E+04 -0.51716178169E+03  0.32484175636E+02  0.13979697537E+04  0.46999998093E+01 0. -1.
       -5    1    3    3    0  502 -0.12983781469E+04  0.51716178169E+03 -0.95335973526E+02  0.14008401617E+04  0.46999998093E+01 0.  1.
</event>
<event>
 5   0  0.1075146E-05  0.2778471E+04  0.7818609E-02  0.8309983E-01
        1   -1    0    0  501    0  0.00000000000E+00  0.00000000000E+00  0.81432994146E+03  0.81432994148E+03  0.50400001928E-02 0. -1.
       -1   -1    0    0    0  501  0.00000000000E+00  0.00000000000E+00 -0.23700169299E+04  0.23700169299E+04  0.50400001928E-02 0.  1.
    10030    2    1    2    0    0  0.00000000000E+00  0.00000000000E+00 -0.15556869884E+04  0.31843468713E+04  0.27784713407E+04 0.  0.
        2    1    3    3  502    0 -0.10811204039E+04  0.22996914038E+03  0.18668141206E+03  0.11209625697E+04  0.25500000920E-02 0. -1.
       -2    1    3    3    0  502  0.10811204039E+04 -0.22996914038E+03 -0.17423684005E+04  0.20633843016E+04  0.25500000920E-02 0.  1.
</event>
<event>
 5   0  0.1067434E-05  0.2728609E+04  0.7818609E-02  0.8325782E-01
       -1   -1    0    0    0  501  0.00000000000E+00  0.00000000000E+00  0.18108716123E+04  0.18108716124E+04  0.50400001928E-02 0. -1.
        1   -1    0    0  501    0  0.00000000000E+00  0.00000000000E+00 -0.10278620198E+04  0.10278620198E+04  0.50400001928E-02 0.  1.
    10030    2    1    2    0    0  0.00000000000E+00  0.00000000000E+00  0.78300959254E+03  0.28387336322E+04  0.27286085488E+04 0.  0.
        4    1    3    3  502    0 -0.13615569572E+04 -0.84326783427E+02  0.37132648741E+03  0.14138010211E+04  0.12699999809E+01 0. -1.
       -4    1    3    3    0  502  0.13615569572E+04  0.84326783427E+02  0.41168310513E+03  0.14249326111E+04  0.12699999809E+01 0.  1.
</event>
<event>
 5   0  0.1105862E-05  0.2783955E+04  0.7818609E-02  0.8308267E-01
        1   -1    0    0  501    0  0.00000000000E+00  0.00000000000E+00  0.10840713714E+04  0.10840713714E+04  0.50400001928E-02 0.  1.
       -1   -1    0    0    0  501  0.00000000000E+00  0.00000000000E+00 -0.17873376757E+04  0.17873376757E+04  0.50400001928E-02 0. -1.
    10030    2    1    2    0    0  0.00000000000E+00  0.00000000000E+00 -0.70326630425E+03  0.28714090471E+04  0.27839551759E+04 0.  0.
        3    1    3    3  502    0  0.38804806743E+03  0.58500244072E+03 -0.15913872592E+04  0.17393454451E+04  0.10100000352E+00 0. -1.
       -3    1    3    3    0  502 -0.38804806743E+03 -0.58500244072E+03  0.88812095496E+03  0.11320636021E+04  0.10100000352E+00 0.  1.
</event>
<event>
 5   0  0.1017456E-05  0.1702097E+04  0.7818609E-02  0.8760169E-01
       -1   -1    0    0    0  501  0.00000000000E+00  0.00000000000E+00  0.11130319175E+04  0.11130319175E+04  0.50400001928E-02 0. -1.
        1   -1    0    0  501    0  0.00000000000E+00  0.00000000000E+00 -0.65073029250E+03  0.65073029252E+03  0.50400001928E-02 0.  1.
    10030    2    1    2    0    0  0.00000000000E+00  0.00000000000E+00  0.46230162498E+03  0.17637622100E+04  0.17020970422E+04 0.  0.
        5    1    3    3  502    0 -0.70503296680E+03  0.38469574902E+03 -0.60468371770E+02  0.80544448447E+03  0.46999998093E+01 0. -1.
       -5    1    3    3    0  502  0.70503296680E+03 -0.38469574902E+03  0.52276999675E+03  0.95831772554E+03  0.46999998093E+01 0.  1.
</event>
<event>
 5   0  0.2651061E-05  0.2863861E+04  0.7818609E-02  0.8283712E-01
        2   -1    0    0  501    0  0.00000000000E+00  0.00000000000E+00  0.12594123696E+04  0.12594123696E+04  0.25500000920E-02 0.  1.
       -2   -1    0    0    0  501  0.00000000000E+00  0.00000000000E+00 -0.16280804974E+04  0.16280804974E+04  0.25500000920E-02 0. -1.
    10030    2    1    2    0    0  0.00000000000E+00  0.00000000000E+00 -0.36866812776E+03  0.28874928670E+04  0.28638608326E+04 0.  0.
        3    1    3    3  502    0  0.57945457711E+03  0.13037764369E+04 -0.30709302807E+03  0.14594200021E+04  0.10100000352E+00 0. -1.
       -3    1    3    3    0  502 -0.57945457711E+03 -0.13037764369E+04 -0.61575099695E+02  0.14280728649E+04  0.10100000352E+00 0.  1.
</event>
<event>
 5   0  0.1078103E-05  0.2623607E+04  0.7818609E-02  0.8360227E-01
        1   -1    0    0  501    0  0.00000000000E+00  0.00000000000E+00  0.20106528894E+04  0.20106528894E+04  0.50400001928E-02 0.  1.
       -1   -1    0    0    0  501  0.00000000000E+00  0.00000000000E+00 -0.85585526237E+03  0.85585526239E+03  0.50400001928E-02 0. -1.
    10030    2    1    2    0    0  0.00000000000E+00  0.00000000000E+00  0.11547976270E+04  0.28665081518E+04  0.26236065682E+04 0.  0.
        1    1    3    3  502    0 -0.18988813236E+02 -0.69340127884E+03 -0.63908436214E+03  0.94318329633E+03  0.50400001928E-02 0. -1.
       -1    1    3    3    0  502  0.18988813236E+02  0.69340127884E+03  0.17938819891E+04  0.19233248554E+04  0.50400001928E-02 0.  1.
</event>
<event>
 5   0  0.2697964E-05  0.2792310E+04  0.7818609E-02  0.8305660E-01
        2   -1    0    0  501    0  0.00000000000E+00  0.00000000000E+00  0.15867803154E+04  0.15867803154E+04  0.25500000920E-02 0.  1.
       -2   -1    0    0    0  501  0.00000000000E+00  0.00000000000E+00 -0.12284302149E+04  0.12284302149E+04  0.25500000920E-02 0. -1.
    10030    2    1    2    0    0  0.00000000000E+00  0.00000000000E+00  0.35835010056E+03  0.28152105303E+04  0.27923100715E+04 0.  0.
        1    1    3    3  502    0 -0.23073258792E+03  0.12214638018E+04  0.82002756586E+03  0.14891798263E+04  0.50400001928E-02 0.  1.
       -1    1    3    3    0  502  0.23073258792E+03 -0.12214638018E+04 -0.46167746529E+03  0.13260307041E+04  0.50400001928E-02 0. -1.
</event>
<event>
 5   0  0.1105862E-05  0.2155295E+04  0.7818609E-02  0.8537269E-01
        1   -1    0    0  501    0  0.00000000000E+00  0.00000000000E+00  0.84903696206E+03  0.84903696208E+03  0.50400001928E-02 0. -1.
       -1   -1    0    0    0  501  0.00000000000E+00  0.00000000000E+00 -0.13678130436E+04  0.13678130436E+04  0.50400001928E-02 0.  1.
    10030    2    1    2    0    0  0.00000000000E+00  0.00000000000E+00 -0.51877608154E+03  0.22168500057E+04  0.21552947188E+04 0.  0.
        3    1    3    3  502    0 -0.40841896295E+03 -0.87874795979E+03 -0.74436232542E+03  0.12219162442E+04  0.10100000352E+00 0.  1.
       -3    1    3    3    0  502  0.40841896295E+03  0.87874795979E+03  0.22558624387E+03  0.99493376149E+03  0.10100000352E+00 0. -1.
</event>
<event>
 5   0  0.1075146E-05  0.2104880E+04  0.7818609E-02  0.8559097E-01
       -1   -1    0    0    0  501  0.00000000000E+00  0.00000000000E+00  0.98825391964E+03  0.98825391965E+03  0.50400001928E-02 0. -1.
        1   -1    0    0  501    0  0.00000000000E+00  0.00000000000E+00 -0.11207944765E+04  0.11207944765E+04  0.50400001928E-02 0.  1.
    10030    2    1    2    0    0  0.00000000000E+00  0.00000000000E+00 -0.13254055685E+03  0.21090483961E+04  0.21048796018E+04 0.  0.
        2    1    3    3  502    0  0.96677368830E+03  0.19307331890E+02 -0.48255116587E+03  0.10806848593E+04  0.25500000920E-02 0.  1.
       -2    1    3    3    0  502 -0.96677368830E+03 -0.19307331890E+02  0.35001060902E+03  0.10283635368E+04  0.25500000920E-02 0. -1.
</event>
<event>
 5   0  0.1017456E-05  0.2903422E+04  0.7818609E-02  0.8271860E-01
        1   -1    0    0  501    0  0.00000000000E+00  0.00000000000E+00  0.13698551083E+04  0.13698551083E+04  0.50400001928E-02 0. -1.
       -1   -1    0    0    0  501  0.00000000000E+00  0.00000000000E+00 -0.15384577002E+04  0.15384577002E+04  0.50400001928E-02 0.  1.
    10030    2    1    2    0    0  0.00000000000E+00  0.00000000000E+00 -0.16860259191E+03  0.29083128084E+04  0.29034215260E+04 0.  0.
        5    1    3    3  502    0 -0.13495573792E+04  0.33310310056E+03 -0.50355060928E+03  0.14784613967E+04  0.46999998093E+01 0. -1.
       -5    1    3    3    0  502  0.13495573792E+04 -0.33310310056E+03  0.33494801737E+03  0.14298514118E+04  0.46999998093E+01 0.  1.
</event>
<event>
 5   0  0.2518686E-05  0.2674702E+04  0.7818609E-02  0.8343260E-01
        2   -1    0    0  501    0  0.00000000000E+00  0.00000000000E+00  0.13094534355E+04  0.13094534355E+04  0.25500000920E-02 0. -1.
       -2   -1    0    0    0  501  0.00000000000E+00  0.00000000000E+00 -0.13658427473E+04  0.13658427473E+04  0.25500000920E-02 0.  1.
    10030    2    1    2    0    0  0.00000000000E+00  0.00000000000E+00 -0.56389311767E+02  0.26752961828E+04  0.26747018360E+04 0.  0.
        5    1    3    3  502    0  0.47497138343E+03 -0.12395331484E+04  0.13446111830E+03  0.13342196683E+04  0.46999998093E+01 0.  1.
       -5    1    3    3    0  502 -0.47497138343E+03  0.12395331484E+04 -0.19085043007E+03  0.13410765145E+04  0.46999998093E+01 0. -1.
</event>
<event>
 5   0  0.2518686E-05  0.2911351E+04  0.7818609E-02  0.8269508E-01
       -2   -1    0    0    0  501  0.00000000000E+00  0.00000000000E+00  0.15092120747E+04  0.15092120747E+04  0.25500000920E-02 0. -1.
        2   -1    0    0  501    0  0.00000000000E+00  0.00000000000E+00 -0.14040377852E+04  0.14040377852E+04  0.25500000920E-02 0.  1.
    10030    2    1    2    0    0  0.00000000000E+00  0.00000000000E+00  0.10517428947E+03  0.29132498599E+04  0.29113507373E+04 0.  0.
        5    1    3    3  502    0 -0.57933723394E+03  0.82833347161E+03  0.11007439219E+04  0.14944655374E+04  0.46999998093E+01 0. -1.
       -5    1    3    3    0  502  0.57933723394E+03 -0.82833347161E+03 -0.99556963246E+03  0.14187843225E+04  0.46999998093E+01 0.  1.
</event>
<event>
 5   0  0.2518686E-05  0.2706968E+04  0.7818609E-02  0.8332748E-01
       -2   -1    0    0    0  501  0.00000000000E+00  0.00000000000E+00  0.11771641956E+04  0.11771641956E+04  0.25500000920E-02 0.  1.
        2   -1    0    0  501    0  0.00000000000E+00  0.00000000000E+00 -0.15562135431E+04  0.15562135431E+04  0.25500000920E-02 0. -1.
    10030    2    1    2    0    0  0.00000000000E+00  0.00000000000E+00 -0.37904934755E+03  0.27333777387E+04  0.27069679449E+04 0.  0.
        5    1    3    3  502    0  0.48811132082E+03  0.11907855318E+04 -0.61274858629E+03  0.14253791651E+04  0.46999998093E+01 0. -1.
       -5    1    3    3    0  502 -0.48811132082E+03 -0.11907855318E+04  0.23369923874E+03  0.13079985736E+04  0.46999998093E+01 0.  1.
</event>
<event>
 5   0  0.1067434E-05  0.2963983E+04  0.7818609E-02  0.8254091E-01
       -1   -1    0    0    0  501  0.00000000000E+00  0.00000000000E+00  0.19749499334E+04  0.19749499334E+04  0.50400001928E-02 0.  1.
        1   -1    0    0  501    0  0.00000000000E+00  0.00000000000E+00 -0.11120781630E+04  0.11120781630E+04  0.50400001928E-02 0. -1.
    10030    2    1    2    0    0  0.00000000000E+00  0.00000000000E+00  0.86287177038E+03  0.30870280963E+04  0.29639829243E+04 0.  0.
        4    1    3    3  502    0  0.23122529805E+03  0.14509242817E+04  0.63352887362E+03  0.16000021426E+04  0.12699999809E+01 0.  1.
       -4    1    3    3    0  502 -0.23122529805E+03 -0.14509242817E+04  0.22934289677E+03  0.14870259537E+04  0.12699999809E+01 0. -1.
</event>
<event>
 5   0  0.2588048E-05  0.2860050E+04  0.7818609E-02  0.8284864E-01
       -2   -1    0    0    0  501  0.00000000000E+00  0.00000000000E+00  0.14267764786E+04  0.14267764786E+04  0.25500000920E-02 0.  1.
        2   -1    0    0  501    0  0.00000000000E+00  0.00000000000E+00 -0.14332811072E+04  0.14332811072E+04  0.25500000920E-02 0. -1.
    10030    2    1    2    0    0  0.00000000000E+00  0.00000000000E+00 -0.65046286111E+01  0.28600575857E+04  0.28600501890E+04 0.  0.
        2    1    3    3  502    0  0.90542793998E+03 -0.58442074657E+03  0.93676309933E+03  0.14278909159E+04  0.25500000920E-02 0.  1.
       -2    1    3    3    0  502 -0.90542793998E+03  0.58442074657E+03 -0.94326772794E+03  0.14321666698E+04  0.25500000920E-02 0. -1.
</event>
<event>
 5   0  0.2651061E-05  0.2795470E+04  0.7818609E-02  0.8304676E-01
       -2   -1    0    0    0  501  0.00000000000E+00  0.00000000000E+00  0.12647320856E+04  0.12647320856E+04  0.25500000920E-02 0.  1.
        2   -1    0    0  501    0  0.00000000000E+00  0.00000000000E+00 -0.15447246920E+04  0.15447246920E+04  0.25500000920E-02 0. -1.
    10030    2    1    2    0    0  0.00000000000E+00  0.00000000000E+00 -0.27999260642E+03  0.28094567776E+04  0.27954698220E+04 0.  0.
        3    1    3    3  502    0 -0.12788717096E+04  0.34859813567E+01  0.42686293778E+03  0.13482347643E+04  0.10100000352E+00 0.  1.
       -3    1    3    3    0  502  0.12788717096E+04 -0.34859813567E+01 -0.70685554421E+03  0.14612220133E+04  0.10100000352E+00 0. -1.
</event>
<event>
 5   0  0.1078103E-05  0.2822170E+04  0.7818609E-02  0.8296418E-01
        1   -1    0    0  501    0  0.00000000000E+00  0.00000000000E+00  0.17581929394E+04  0.17581929395E+04  0.50400001928E-02 0.  1.
       -1   -1    0    0    0  501  0.00000000000E+00  0.00000000000E+00 -0.11325042402E+04  0.11325042403E+04  0.50400001928E-02 0. -1.
    10030    2    1    2    0    0  0.00000000000E+00  0.00000000000E+00  0.62568869920E+03  0.28906971797E+04  0.28221700580E+04 0.  0.
        1    1    3    3  502    0  0.12824528809E+04  0.17140835607E+03 -0.26394062681E+03  0.13205040215E+04  0.50400001928E-02 0. -1.
       -1    1    3    3    0  502 -0.12824528809E+04 -0.17140835607E+03  0.88962932601E+03  0.15701931582E+04  0.50400001928E-02 0.  1.
</event>
<event>
 5   0  0.2651061E-05  0.2813522E+04  0.7818609E-02  0.8299082E-01
       -2   -1    0    0    0  501  0.00000000000E+00  0.00000000000E+00  0.17117365689E+04  0.17117365689E+04  0.25500000920E-02 0. -1.
        2   -1    0    0  501    0  0.00000000000E+00  0.00000000000E+00 -0.11561224670E+04  0.11561224670E+04  0.25500000920E-02 0.  1.
    10030    2    1    2    0    0  0.00000000000E+00  0.00000000000E+00  0.55561410188E+03  0.28678590359E+04  0.28135224221E+04 0.  0.
        3    1    3    3  502    0  0.77350437921E+03  0.97890683632E+03  0.94028930013E+03  0.15622776952E+04  0.10100000352E+00 0. -1.
       -3    1    3    3    0  502 -0.77350437921E+03 -0.97890683632E+03 -0.38467519825E+03  0.13055813407E+04  0.10100000352E+00 0.  1.
</event>
<event>
 5   0  0.1067434E-05  0.2785939E+04  0.7818609E-02  0.8307647E-01
        1   -1    0    0  501    0  0.00000000000E+00  0.00000000000E+00  0.15180123941E+04  0.15180123941E+04  0.50400001928E-02 0. -1.
       -1   -1    0    0    0  501  0.00000000000E+00  0.00000000000E+00 -0.12782263271E+04  0.12782263271E+04  0.50400001928E-02 0.  1.
    10030    2    1    2    0    0  0.00000000000E+00  0.00000000000E+00  0.23978606697E+03  0.27962387212E+04  0.27859385543E+04 0.  0.
        4    1    3    3  502    0 -0.43681508763E+03  0.11025948376E+04 -0.61345116395E+03  0.13352328411E+04  0.12699999809E+01 0.  1.
       -4    1    3    3    0  502  0.43681508763E+03 -0.11025948376E+04  0.85323723092E+03  0.14610058801E+04  0.12699999809E+01 0. -1.
</event>
<event>
 5   0  0.2518686E-05  0.2829227E+04  0.7818609E-02  0.8294252E-01
        2   -1    0    0  501    0  0.00000000000E+00  0.00000000000E+00  0.14981540653E+04  0.14981540653E+04  0.25500000920E-02 0.  1.
       -2   -1    0    0    0  501  0.00000000000E+00  0.00000000000E+00 -0.13357311032E+04  0.13357311032E+04  0.25500000920E-02 0. -1.
    10030    2    1    2    0    0  0.00000000000E+00  0.00000000000E+00  0.16242296209E+03  0.28338851684E+04  0.28292267370E+04 0.  0.
        5    1    3    3  502    0 -0.40522253757E+03 -0.13017032917E+04 -0.29686481518E+03  0.13952732969E+04  0.46999998093E+01 0. -1.
       -5    1    3    3    0  502  0.40522253757E+03  0.13017032917E+04  0.45928777727E+03  0.14386118715E+04  0.46999998093E+01 0.  1.
</event>
<event>
 5   0  0.1105862E-05  0.2228774E+04  0.7818609E-02  0.8506546E-01
       -1   -1    0    0    0  501  0.00000000000E+00  0.00000000000E+00  0.97168297254E+03  0.97168297255E+03  0.50400001928E-02 0.  1.
        1   -1    0    0  501    0  0.00000000000E+00  0.00000000000E+00 -0.12780492939E+04  0.12780492939E+04  0.50400001928E-02 0. -1.
    10030    2    1    2    0    0  0.00000000000E+00  0.00000000000E+00 -0.30636632138E+03  0.22497322665E+04  0.22287743152E+04 0.  0.
        3    1    3    3  502    0  0.17853656382E+03 -0.10422089801E+03  0.95215795423E+03  0.97434187029E+03  0.10100000352E+00 0.  1.
       -3    1    3    3    0  502 -0.17853656382E+03  0.10422089801E+03 -0.12585242756E+04  0.12753903962E+04  0.10100000352E+00 0. -1.
</event>
<event>
 5   0  0.2588048E-05  0.2778470E+04  0.7818609E-02  0.8309984E-01
       -2   -1    0    0    0  501  0.00000000000E+00  0.00000000000E+00  0.55198555546E+03  0.55198555547E+03  0.25500000920E-02 0.  1.
        2   -1    0    0  501    0  0.00000000000E+00  0.00000000000E+00 -0.34964212380E+04  0.34964212380E+04  0.25500000920E-02 0. -1.
    10030    2    1    2    0    0  0.00000000000E+00  0.00000000000E+00 -0.29444356825E+04  0.40484067935E+04  0.27784700964E+04 0.  0.
        2    1    3    3  502    0  0.96573000924E+03  0.11499436812E+02 -0.29272451663E+04  0.30824553446E+04  0.25500000920E-02 0. -1.
       -2    1    3    3    0  502 -0.96573000924E+03 -0.11499436812E+02 -0.17190516271E+02  0.96595144891E+03  0.25500000920E-02 0.  1.
</event>
<event>
 5   0  0.1017456E-05  0.2762491E+04  0.7818609E-02  0.8315009E-01
       -1   -1    0    0    0  501  0.00000000000E+00  0.00000000000E+00  0.12581207966E+04  0.12581207966E+04  0.50400001928E-02 0. -1.
        1   -1    0    0  501    0  0.00000000000E+00  0.00000000000E+00 -0.15164194697E+04  0.15164194697E+04  0.50400001928E-02 0.  1.
    10030    2    1    2    0    0  0.00000000000E+00  0.00000000000E+00 -0.25829867313E+03  0.27745402663E+04  0.27624908117E+04 0.  0.
        5    1    3    3  502    0 -0.11749852953E+04  0.66892250946E+03 -0.41281534660E+03  0.14136783114E+04  0.46999998093E+01 0. -1.
       -5    1    3    3    0  502  0.11749852953E+04 -0.66892250946E+03  0.15451667348E+03  0.13608619549E+04  0.46999998093E+01 0.  1.
</event>
<event>
 5   0  0.1075146E-05  0.1557463E+04  0.7818609E-02  0.8847115E-01
       -1   -1    0    0    0  501  0.00000000000E+00  0.00000000000E+00  0.54270757563E+03  0.54270757565E+03  0.50400001928E-02 0. -1.
        1   -1    0    0  501    0  0.00000000000E+00  0.00000000000E+00 -0.11174017848E+04  0.11174017848E+04  0.50400001928E-02 0.  1.
    10030    2    1    2    0    0  0.00000000000E+00  0.00000000000E+00 -0.57469420921E+03  0.16601093605E+04  0.15574625693E+04 0.  0.
        2    1    3    3  502    0 -0.69776004045E+03 -0.25860938826E+03 -0.53198255419E+03  0.91474221927E+03  0.25500000920E-02 0.  1.
       -2    1    3    3    0  502  0.69776004045E+03  0.25860938826E+03 -0.42711655015E+02  0.74536714123E+03  0.25500000920E-02 0. -1.
</event>
<event>
 5   0  0.1017456E-05  0.2370708E+04  0.7818609E-02  0.8450552E-01
        1   -1    0    0  501    0  0.00000000000E+00  0.00000000000E+00  0.86957265954E+03  0.86957265955E+03  0.50400001928E-02 0. -1.
       -1   -1    0    0    0  501  0.00000000000E+00  0.00000000000E+00 -0.16158092206E+04  0.16158092206E+04  0.50400001928E-02 0.  1.
    10030    2    1    2    0    0  0.00000000000E+00  0.00000000000E+00 -0.74623656106E+03  0.24853818802E+04  0.23707075073E+04 0.  0.
        5    1    3    3  502    0  0.32241657622E+03  0.41756722877E+03 -0.14859370060E+04  0.15768150541E+04  0.46999998093E+01 0.  1.
       -5    1    3    3    0  502 -0.32241657622E+03 -0.41756722877E+03  0.73970044492E+03  0.90856682604E+03  0.46999998093E+01 0. -1.
</event>
<event>
 5   0  0.2518686E-05  0.2822929E+04  0.7818609E-02  0.8296185E-01
        2   -1    0    0  501    0  0.00000000000E+00  0.00000000000E+00  0.25987079292E+04  0.25987079292E+04  0.25500000920E-02 0. -1.
       -2   -1    0    0    0  501  0.00000000000E+00  0.00000000000E+00 -0.76662382313E+03  0.76662382314E+03  0.25500000920E-02 0.  1.
    10030    2    1    2    0    0  0.00000000000E+00  0.00000000000E+00  0.18320841061E+04  0.33653317524E+04  0.28229285559E+04 0.  0.
        5    1    3    3  502    0 -0.56444035539E+03  0.47561097886E+02  0.24572536335E+04  0.25217003157E+04  0.46999998093E+01 0. -1.
       -5    1    3    3    0  502  0.56444035539E+03 -0.47561097886E+02 -0.62516952745E+03  0.84363143663E+03  0.46999998093E+01 0.  1.
</event>
<event>
 5   0  0.1017456E-05  0.1669454E+04  0.7818609E-02  0.8778980E-01
       -1   -1    0    0    0  501  0.00000000000E+00  0.00000000000E+00  0.97053795628E+03  0.97053795629E+03  0.50400001928E-02 0.  1.
        1   -1    0    0  501    0  0.00000000000E+00  0.00000000000E+00 -0.71792083120E+03  0.71792083122E+03  0.50400001928E-02 0. -1.
    10030    2    1    2    0    0  0.00000000000E+00  0.00000000000E+00  0.25261712508E+03  0.16884587875E+04  0.16694543016E+04 0.  0.
        5    1    3    3  502    0 -0.22661096965E+03  0.20265336518E+03 -0.65992524739E+03  0.72659778428E+03  0.46999998093E+01 0. -1.
       -5    1    3    3    0  502  0.22661096965E+03 -0.20265336518E+03  0.91254237247E+03  0.96186100323E+03  0.46999998093E+01 0.  1.
</event>
<event>
 5   0  0.2697964E-05  0.2714676E+04  0.7818609E-02  0.8330259E-01
       -2   -1    0    0    0  501  0.00000000000E+00  0.00000000000E+00  0.12679704308E+04  0.12679704308E+04  0.25500000920E-02 0.  1.
        2   -1    0    0  501    0  0.00000000000E+00  0.00000000000E+00 -0.14530047764E+04  0.14530047764E+04  0.25500000920E-02 0. -1.
    10030    2    1    2    0    0  0.00000000000E+00  0.00000000000E+00 -0.18503434565E+03  0.27209752072E+04  0.27146764759E+04 0.  0.
        1    1    3    3  502    0  0.63097367089E+03 -0.11586329017E+04  0.22729857330E+03  0.13387391888E+04  0.50400001928E-02 0. -1.
       -1    1    3    3    0  502 -0.63097367089E+03  0.11586329017E+04 -0.41233291894E+03  0.13822360183E+04  0.50400001928E-02 0.  1.
</event>
<event>
 5   0  0.2518686E-05  0.2810081E+04  0.7818609E-02  0.8300146E-01
       -2   -1    0    0    0  501  0.00000000000E+00  0.00000000000E+00  0.10521899759E+04  0.10521899759E+04  0.25500000920E-02 0.  1.
        2   -1    0    0  501    0  0.00000000000E+00  0.00000000000E+00 -0.18762184581E+04  0.18762184581E+04  0.25500000920E-02 0. -1.
    10030    2    1    2    0    0  0.00000000000E+00  0.00000000000E+00 -0.82402848222E+03  0.29284084340E+04  0.28100806068E+04 0.  0.
        5    1    3    3  502    0 -0.22218253929E+03 -0.12583821242E+04  0.19672825221E+03  0.12929094116E+04  0.46999998093E+01 0.  1.
       -5    1    3    3    0  502  0.22218253929E+03  0.12583821242E+04 -0.10207567344E+04  0.16354990224E+04  0.46999998093E+01 0. -1.
</event>
<event>
 5   0  0.2518686E-05  0.2759469E+04  0.7818609E-02  0.8315963E-01
       -2   -1    0    0    0  501  0.00000000000E+00  0.00000000000E+00  0.83117131375E+03  0.83117131375E+03  0.25500000920E-02 0.  1.
        2   -1    0    0  501    0  0.00000000000E+00  0.00000000000E+00 -0.22903434378E+04  0.22903434378E+04  0.25500000920E-02 0. -1.
    10030    2    1    2    0    0  0.00000000000E+00  0.00000000000E+00 -0.14591721241E+04  0.31215147516E+04  0.27594693433E+04 0.  0.
        5    1    3    3  502    0 -0.78582086775E+03  0.11292987294E+04 -0.84722889752E+03  0.16157502750E+04  0.46999998093E+01 0. -1.
       -5    1    3    3    0  502  0.78582086775E+03 -0.11292987294E+04 -0.61194322654E+03  0.15057644766E+04  0.46999998093E+01 0.  1.
</event>
<event>
 5   0  0.1017456E-05  0.2740193E+04  0.7818609E-02  0.8322080E-01
        1   -1    0    0  501    0  0.00000000000E+00  0.00000000000E+00  0.75827080508E+03  0.75827080510E+03  0.50400001928E-02 0. -1.
       -1   -1    0    0    0  501  0.00000000000E+00  0.00000000000E+00 -0.24755859644E+04  0.24755859644E+04  0.50400001928E-02 0.  1.
    10030    2    1    2    0    0  0.00000000000E+00  0.00000000000E+00 -0.17173151593E+04  0.32338567695E+04  0.27401931044E+04 0.  0.
        5    1    3    3  502    0  0.47237246467E+03 -0.72179817267E+02  0.65672810276E+03  0.81219428855E+03  0.46999998093E+01 0. -1.
       -5    1    3    3    0  502 -0.47237246467E+03  0.72179817267E+02 -0.23740432621E+04  0.24216624810E+04  0.46999998093E+01 0.  1.
</event>
<event>
 5   0  0.1017456E-05  0.2235347E+04  0.7818609E-02  0.8503858E-01
       -1   -1    0    0    0  501  0.00000000000E+00  0.00000000000E+00  0.70650632659E+03  0.70650632661E+03  0.50400001928E-02 0. -1.
        1   -1    0    0  501    0  0.00000000000E+00  0.00000000000E+00 -0.17681279682E+04  0.17681279682E+04  0.50400001928E-02 0.  1.
    10030    2    1    2    0    0  0.00000000000E+00  0.00000000000E+00 -0.10616216416E+04  0.24746342948E+04  0.22353465913E+04 0.  0.
        5    1    3    3  502    0 -0.10685162465E+04  0.11310147893E+03 -0.19022041242E+03  0.10912033765E+04  0.46999998093E+01 0. -1.
       -5    1    3    3    0  502  0.10685162465E+04 -0.11310147893E+03 -0.87140122918E+03  0.13834309183E+04  0.46999998093E+01 0.  1.
</event>
<event>
 5   0  0.2518686E-05  0.2808381E+04  0.7818609E-02  0.8300671E-01
        2   -1    0    0  501    0  0.00000000000E+00  0.00000000000E+00  0.12538604852E+04  0.12538604852E+04  0.25500000920E-02 0.  1.
       -2   -1    0    0    0  501  0.00000000000E+00  0.00000000000E+00 -0.15725443104E+04  0.15725443104E+04  0.25500000920E-02 0. -1.
    10030    2    1    2    0    0  0.00000000000E+00  0.00000000000E+00 -0.31868382519E+03  0.28264047956E+04  0.28083811508E+04 0.  0.
        5    1    3    3  502    0  0.97886733075E+03  0.95127281742E+03 -0.49104454586E+03  0.14506026542E+04  0.46999998093E+01 0. -1.
       -5    1    3    3    0  502 -0.97886733075E+03 -0.95127281742E+03  0.17236072067E+03  0.13758021414E+04  0.46999998093E+01 0.  1.
</event>
<event>
 5   0  0.1067434E-05  0.2772878E+04  0.7818609E-02  0.8311738E-01
        1   -1    0    0  501    0  0.00000000000E+00  0.00000000000E+00  0.10471827908E+04  0.10471827908E+04  0.50400001928E-02 0. -1.
       -1   -1    0    0    0  501  0.00000000000E+00  0.00000000000E+00 -0.18356039502E+04  0.18356039502E+04  0.50400001928E-02 0.  1.
    10030    2    1    2    0    0  0.00000000000E+00  0.00000000000E+00 -0.78842115948E+03  0.28827867410E+04  0.27728778317E+04 0.  0.
        4    1    3    3  502    0  0.79182590994E+03  0.82878583627E+03 -0.12050855656E+04  0.16631617682E+04  0.12699999809E+01 0.  1.
       -4    1    3    3    0  502 -0.79182590994E+03 -0.82878583627E+03  0.41666440608E+03  0.12196249728E+04  0.12699999809E+01 0. -1.
</event>
<event>
 5   0  0.2697964E-05  0.1831614E+04  0.7818609E-02  0.8689666E-01
        2   -1    0    0  501    0  0.00000000000E+00  0.00000000000E+00  0.93031892737E+03  0.93031892737E+03  0.25500000920E-02 0.  1.
       -2   -1    0    0    0  501  0.00000000000E+00  0.00000000000E+00 -0.90152110705E+03  0.90152110705E+03  0.25500000920E-02 0. -1.
    10030    2    1    2    0    0  0.00000000000E+00  0.00000000000E+00  0.28797820320E+02  0.18318400344E+04  0.18316136594E+04 0.  0.
        1    1    3    3  502    0 -0.11726195636E+02 -0.54043196287E+03 -0.72494744599E+03  0.90429696983E+03  0.50400001928E-02 0. -1.
       -1    1    3    3    0  502  0.11726195636E+02  0.54043196287E+03  0.75374526631E+03  0.92754306459E+03  0.50400001928E-02 0.  1.
</event>
<event>
 5   0  0.1017456E-05  0.1665048E+04  0.7818609E-02  0.8781554E-01
        1   -1    0    0  501    0  0.00000000000E+00  0.00000000000E+00  0.14675159402E+04  0.14675159402E+04  0.50400001928E-02 0.  1.
       -1   -1    0    0    0  501  0.00000000000E+00  0.00000000000E+00 -0.47229222387E+03  0.47229222389E+03  0.50400001928E-02 0. -1.
    10030    2    1    2    0    0  0.00000000000E+00  0.00000000000E+00  0.99522371633E+03  0.19398081641E+04  0.16650481879E+04 0.  0.
        5    1    3    3  502    0  0.51702126677E+02  0.66306904640E+03  0.10809821545E+04  0.12692037577E+04  0.46999998093E+01 0.  1.
       -5    1    3    3    0  502 -0.51702126677E+02 -0.66306904640E+03 -0.85758438149E+02  0.67060440642E+03  0.46999998093E+01 0. -1.
</event>
<event>
 5   0  0.1078103E-05  0.2779723E+04  0.7818609E-02  0.8309591E-01
        1   -1    0    0  501    0  0.00000000000E+00  0.00000000000E+00  0.14821119401E+04  0.14821119401E+04  0.50400001928E-02 0. -1.
       -1   -1    0    0    0  501  0.00000000000E+00  0.00000000000E+00 -0.13033528000E+04  0.13033528000E+04  0.50400001928E-02 0.  1.
    10030    2    1    2    0    0  0.00000000000E+00  0.00000000000E+00  0.17875914009E+03  0.27854647402E+04  0.27797228258E+04 0.  0.
        1    1    3    3  502    0  0.70809198274E+03 -0.62055912202E+03  0.11138547809E+04  0.14584787804E+04  0.50400001928E-02 0. -1.
       -1    1    3    3    0  502 -0.70809198274E+03  0.62055912202E+03 -0.93509564080E+03  0.13269859598E+04  0.50400001928E-02 0.  1.
</event>
<event>
 5   0  0.1078103E-05  0.1407563E+04  0.7818609E-02  0.8948362E-01
       -1   -1    0    0    0  501  0.00000000000E+00  0.00000000000E+00  0.40079881137E+03  0.40079881140E+03  0.50400001928E-02 0. -1.
        1   -1    0    0  501    0  0.00000000000E+00  0.00000000000E+00 -0.12358024251E+04  0.12358024251E+04  0.50400001928E-02 0.  1.
    10030    2    1    2    0    0  0.00000000000E+00  0.00000000000E+00 -0.83500361375E+03  0.16366012365E+04  0.14075626353E+04 0.  0.
        1    1    3    3  502    0  0.43083372191E+03  0.13620861705E+03  0.20986904713E+03  0.49821230441E+03  0.50400001928E-02 0. -1.
       -1    1    3    3    0  502 -0.43083372191E+03 -0.13620861705E+03 -0.10448726609E+04  0.11383889321E+04  0.50400001928E-02 0.  1.
</event>
<event>
 5   0  0.1067434E-05  0.3018503E+04  0.7818609E-02  0.8238467E-01
        1   -1    0    0  501    0  0.00000000000E+00  0.00000000000E+00  0.15817376699E+04  0.15817376699E+04  0.50400001928E-02 0.  1.
       -1   -1    0    0    0  501  0.00000000000E+00  0.00000000000E+00 -0.14400866756E+04  0.14400866756E+04  0.50400001928E-02 0. -1.
    10030    2    1    2    0    0  0.00000000000E+00  0.00000000000E+00  0.14165099434E+03  0.30218243456E+04  0.30185025047E+04 0.  0.
        4    1    3    3  502    0  0.24234674686E+02 -0.14613162800E+04 -0.30615914869E+03  0.14932406460E+04  0.12699999809E+01 0. -1.
       -4    1    3    3    0  502 -0.24234674686E+02  0.14613162800E+04  0.44781014303E+03  0.15285836996E+04  0.12699999809E+01 0.  1.
</event>
<event>
 5   0  0.2624815E-05  0.2802377E+04  0.7818609E-02  0.8302531E-01
        2   -1    0    0  501    0  0.00000000000E+00  0.00000000000E+00  0.26971058625E+04  0.26971058625E+04  0.25500000920E-02 0.  1.
       -2   -1    0    0    0  501  0.00000000000E+00  0.00000000000E+00 -0.72793908012E+03  0.72793908012E+03  0.25500000920E-02 0. -1.
    10030    2    1    2    0    0  0.00000000000E+00  0.00000000000E+00  0.19691667824E+04  0.34250449427E+04  0.28023766774E+04 0.  0.
        4    1    3    3  502    0  0.25259208991E+03 -0.90672116284E+03  0.22531826237E+04  0.24418803369E+04  0.12699999809E+01 0.  1.
       -4    1    3    3    0  502 -0.25259208991E+03  0.90672116284E+03 -0.28401584129E+03  0.98316460576E+03  0.12699999809E+01 0. -1.
</event>
<event>
 5   0  0.2697964E-05  0.2851665E+04  0.7818609E-02  0.8287405E-01
       -2   -1    0    0    0  501  0.00000000000E+00  0.00000000000E+00  0.16377298279E+04  0.16377298279E+04  0.25500000920E-02 0. -1.
        2   -1    0    0  501    0  0.00000000000E+00  0.00000000000E+00 -0.12413517527E+04  0.12413517527E+04  0.25500000920E-02 0.  1.
    10030    2    1    2    0    0  0.00000000000E+00  0.00000000000E+00  0.39637807520E+03  0.28790815806E+04  0.28516653326E+04 0.  0.
        1    1    3    3  502    0  0.37678721597E+03  0.12056066801E+04  0.86601860918E+03  0.15314843469E+04  0.50400001928E-02 0. -1.
       -1    1    3    3    0  502 -0.37678721597E+03 -0.12056066801E+04 -0.46964053398E+03  0.13475972337E+04  0.50400001928E-02 0.  1.
</event>
<event>
 5   0  0.1067434E-05  0.2110110E+04  0.7818609E-02  0.8556803E-01
        1   -1    0    0  501    0  0.00000000000E+00  0.00000000000E+00  0.11662537851E+04  0.11662537851E+04  0.50400001928E-02 0. -1.
       -1   -1    0    0    0  501  0.00000000000E+00  0.00000000000E+00 -0.95445846420E+03  0.95445846422E+03  0.50400001928E-02 0.  1.
    10030    2    1    2    0    0  0.00000000000E+00  0.00000000000E+00  0.21179532085E+03  0.21207122493E+04  0.21101097569E+04 0.  0.
        4    1    3    3  502    0  0.70987094365E+02  0.10459830056E+04  0.22489685368E+03  0.10722405622E+04  0.12699999809E+01 0. -1.
       -4    1    3    3    0  502 -0.70987094365E+02 -0.10459830056E+04 -0.13101532826E+02  0.10484716871E+04  0.12699999809E+01 0.  1.
</event>
<event>
 5   0  0.2518686E-05  0.2654552E+04  0.7818609E-02  0.8349904E-01
       -2   -1    0    0    0  501  0.00000000000E+00  0.00000000000E+00  0.11604784861E+04  0.11604784861E+04  0.25500000920E-02 0. -1.
        2   -1    0    0  501    0  0.00000000000E+00  0.00000000000E+00 -0.15180480200E+04  0.15180480200E+04  0.25500000920E-02 0.  1.
    10030    2    1    2    0    0  0.00000000000E+00  0.00000000000E+00 -0.35756953386E+03  0.26785265062E+04  0.26545523677E+04 0.  0.
        5    1    3    3  502    0 -0.36012408182E+02  0.12720444365E+04  0.20177663447E+03  0.12884602602E+04  0.46999998093E+01 0. -1.
       -5    1    3    3    0  502  0.36012408182E+02 -0.12720444365E+04 -0.55934616833E+03  0.13900662459E+04  0.46999998093E+01 0.  1.
</event>
<event>
 5   0  0.2651061E-05  0.2775906E+04  0.7818609E-02  0.8310788E-01
        2   -1    0    0  501    0  0.00000000000E+00  0.00000000000E+00  0.18313012274E+04  0.18313012274E+04  0.25500000920E-02 0.  1.
       -2   -1    0    0    0  501  0.00000000000E+00  0.00000000000E+00 -0.10519367316E+04  0.10519367316E+04  0.25500000920E-02 0. -1.
    10030    2    1    2    0    0  0.00000000000E+00  0.00000000000E+00  0.77936449582E+03  0.28832379591E+04  0.27759056380E+04 0.  0.
        3    1    3    3  502    0  0.10261244952E+03  0.13764381358E+04  0.54127678247E+03  0.14825963112E+04  0.10100000352E+00 0.  1.
       -3    1    3    3    0  502 -0.10261244952E+03 -0.13764381358E+04  0.23808771335E+03  0.14006416479E+04  0.10100000352E+00 0. -1.
</event>
<event>
 5   0  0.2624815E-05  0.1420600E+04  0.7818609E-02  0.8939041E-01
       -2   -1    0    0    0  501  0.00000000000E+00  0.00000000000E+00  0.31148074478E+03  0.31148074479E+03  0.25500000920E-02 0. -1.
        2   -1    0    0  501    0  0.00000000000E+00  0.00000000000E+00 -0.16197663100E+04  0.16197663100E+04  0.25500000920E-02 0.  1.
    10030    2    1    2    0    0  0.00000000000E+00  0.00000000000E+00 -0.13082855652E+04  0.19312470548E+04  0.14205998967E+04 0.  0.
        4    1    3    3  502    0  0.48622932949E+03  0.19787333631E+03 -0.36568880771E+01  0.52496457386E+03  0.12699999809E+01 0. -1.
       -4    1    3    3    0  502 -0.48622932949E+03 -0.19787333631E+03 -0.13046286772E+04  0.14062824810E+04  0.12699999809E+01 0.  1.
</event>
<event>
 5   0  0.2588048E-05  0.2810803E+04  0.7818609E-02  0.8299922E-01
       -2   -1    0    0    0  501  0.00000000000E+00  0.00000000000E+00  0.20463310046E+04  0.20463310047E+04  0.25500000920E-02 0. -1.
        2   -1    0    0  501    0  0.00000000000E+00  0.00000000000E+00 -0.96521684612E+03  0.96521684612E+03  0.25500000920E-02 0.  1.
    10030    2    1    2    0    0  0.00000000000E+00  0.00000000000E+00  0.10811141585E+04  0.30115478508E+04  0.28108028450E+04 0.  0.
        2    1    3    3  502    0  0.56834700597E+02 -0.98119511196E+03 -0.53576813292E+03  0.11193844394E+04  0.25500000920E-02 0.  1.
       -2    1    3    3    0  502 -0.56834700597E+02  0.98119511196E+03  0.16168822914E+04  0.18921634114E+04  0.25500000920E-02 0. -1.
</event>
<event>
 5   0  0.2588048E-05  0.2684878E+04  0.7818609E-02  0.8339928E-01
       -2   -1    0    0    0  501  0.00000000000E+00  0.00000000000E+00  0.95697242245E+03  0.95697242246E+03  0.25500000920E-02 0.  1.
        2   -1    0    0  501    0  0.00000000000E+00  0.00000000000E+00 -0.18831709794E+04  0.18831709794E+04  0.25500000920E-02 0. -1.
    10030    2    1    2    0    0  0.00000000000E+00  0.00000000000E+00 -0.92619855696E+03  0.28401434019E+04  0.26848781679E+04 0.  0.
        2    1    3    3  502    0  0.56203791679E+03  0.11778480280E+04 -0.13037851572E+03  0.13115682042E+04  0.25500000920E-02 0.  1.
       -2    1    3    3    0  502 -0.56203791679E+03 -0.11778480280E+04 -0.79582004124E+03  0.15285751977E+04  0.25500000920E-02 0. -1.
</event>
<event>
 5   0  0.2588048E-05  0.2780138E+04  0.7818609E-02  0.8309461E-01
        2   -1    0    0  501    0  0.00000000000E+00  0.00000000000E+00  0.14806835367E+04  0.14806835367E+04  0.25500000920E-02 0. -1.
       -2   -1    0    0    0  501  0.00000000000E+00  0.00000000000E+00 -0.13049998752E+04  0.13049998752E+04  0.25500000920E-02 0.  1.
    10030    2    1    2    0    0  0.00000000000E+00  0.00000000000E+00  0.17568366152E+03  0.27856834119E+04  0.27801380042E+04 0.  0.
        2    1    3    3  502    0 -0.26302981306E+03 -0.11364974692E+04 -0.66962944546E+03  0.13450705462E+04  0.25500000920E-02 0.  1.
       -2    1    3    3    0  502  0.26302981306E+03  0.11364974692E+04  0.84531310698E+03  0.14406128657E+04  0.25500000920E-02 0. -1.
</event>
<event>
 5   0  0.2651061E-05  0.2827503E+04  0.7818609E-02  0.8294780E-01
       -2   -1    0    0    0  501  0.00000000000E+00  0.00000000000E+00  0.33892619227E+04  0.33892619227E+04  0.25500000920E-02 0. -1.
        2   -1    0    0  501    0  0.00000000000E+00  0.00000000000E+00 -0.58971359770E+03  0.58971359770E+03  0.25500000920E-02 0.  1.
    10030    2    1    2    0    0  0.00000000000E+00  0.00000000000E+00  0.27995483250E+04  0.39789755204E+04  0.28275033807E+04 0.  0.
        3    1    3    3  502    0 -0.24404443719E+03  0.40802357953E+03 -0.47383925360E+03  0.67124107236E+03  0.10100000352E+00 0.  1.
       -3    1    3    3    0  502  0.24404443719E+03 -0.40802357953E+03  0.32733875786E+04  0.33077344481E+04  0.10100000352E+00 0. -1.
</event>
<event>
 5   0  0.2624815E-05  0.2336363E+04  0.7818609E-02  0.8463720E-01
       -2   -1    0    0    0  501  0.00000000000E+00  0.00000000000E+00  0.80423635195E+03  0.80423635195E+03  0.25500000920E-02 0.  1.
        2   -1    0    0  501    0  0.00000000000E+00  0.00000000000E+00 -0.16968249368E+04  0.16968249368E+04  0.25500000920E-02 0. -1.
    10030    2    1    2    0    0  0.00000000000E+00  0.00000000000E+00 -0.89258858490E+03  0.25010612888E+04  0.23363632398E+04 0.  0.
        4    1    3    3  502    0  0.11445752805E+04  0.11812714311E+03 -0.66209919060E+03  0.13275479448E+04  0.12699999809E+01 0. -1.
       -4    1    3    3    0  502 -0.11445752805E+04 -0.11812714311E+03 -0.23048939429E+03  0.11735133440E+04  0.12699999809E+01 0.  1.
</event>
<event>
 5   0  0.2697964E-05  0.2826970E+04  0.7818609E-02  0.8294944E-01
        2   -1    0    0  501    0  0.00000000000E+00  0.00000000000E+00  0.88598695392E+03  0.88598695393E+03  0.25500000920E-02 0.  1.
       -2   -1    0    0    0  501  0.00000000000E+00  0.00000000000E+00 -0.22550449756E+04  0.22550449756E+04  0.25500000920E-02 0. -1.
    10030    2    1    2    0    0  0.00000000000E+00  0.00000000000E+00 -0.13690580217E+04  0.31410319295E+04  0.28269704129E+04 0.  0.
        1    1    3    3  502    0 -0.84481301091E+03 -0.54947166828E+03  0.41669551978E+03  0.10905334905E+04  0.50400001928E-02 0.  1.
       -1    1    3    3    0  502  0.84481301091E+03  0.54947166828E+03 -0.17857535415E+04  0.20504984391E+04  0.50400001928E-02 0. -1.
</event>
<event>
 5   0  0.1078103E-05  0.2003762E+04  0.7818609E-02  0.8604864E-01
        1   -1    0    0  501    0  0.00000000000E+00  0.00000000000E+00  0.84222053182E+03  0.84222053184E+03  0.50400001928E-02 0. -1.
       -1   -1    0    0    0  501  0.00000000000E+00  0.00000000000E+00 -0.11918082095E+04  0.11918082095E+04  0.50400001928E-02 0.  1.
    10030    2    1    2    0    0  0.00000000000E+00  0.00000000000E+00 -0.34958767769E+03  0.20340287414E+04  0.20037618063E+04 0.  0.
        1    1    3    3  502    0 -0.67535602443E+03  0.71080282576E+03  0.34275733784E+02  0.98108166979E+03  0.50400001928E-02 0.  1.
       -1    1    3    3    0  502  0.67535602443E+03 -0.71080282576E+03 -0.38386341148E+03  0.10529470716E+04  0.50400001928E-02 0. -1.
</event>
<event>
 5   0  0.1105862E-05  0.2614253E+04  0.7818609E-02  0.8363376E-01
        1   -1    0    0  501    0  0.00000000000E+00  0.00000000000E+00  0.19378386438E+04  0.19378386438E+04  0.50400001928E-02 0. -1.
       -1   -1    0    0    0  501  0.00000000000E+00  0.00000000000E+00 -0.88169370768E+03  0.88169370769E+03  0.50400001928E-02 0.  1.
    10030    2    1    2    0    0  0.00000000000E+00  0.00000000000E+00  0.10561449361E+04  0.28195323515E+04  0.26142533456E+04 0.  0.
        3    1    3    3  502    0  0.41911093551E+03 -0.90389402261E+03  0.14406213158E+04  0.17515901821E+04  0.10100000352E+00 0. -1.
       -3    1    3    3    0  502 -0.41911093551E+03  0.90389402261E+03 -0.38447637969E+03  0.10679421694E+04  0.10100000352E+00 0.  1.
</event>
<event>
 5   0  0.1078103E-05  0.1871354E+04  0.7818609E-02  0.8669248E-01
        1   -1    0    0  501    0  0.00000000000E+00  0.00000000000E+00  0.11284815663E+04  0.11284815663E+04  0.50400001928E-02 0.  1.
       -1   -1    0    0    0  501  0.00000000000E+00  0.00000000000E+00 -0.77581383759E+03  0.77581383760E+03  0.50400001928E-02 0. -1.
    10030    2    1    2    0    0  0.00000000000E+00  0.00000000000E+00  0.35266772872E+03  0.19042954039E+04  0.18713541777E+04 0.  0.
        1    1    3    3  502    0  0.61123158065E+03  0.65980033318E+03  0.43884994634E+03  0.10007646078E+04  0.50400001928E-02 0.  1.
       -1    1    3    3    0  502 -0.61123158065E+03 -0.65980033318E+03 -0.86182217618E+02  0.90353079610E+03  0.50400001928E-02 0. -1.
</event>
<event>
 5   0  0.2624815E-05  0.2697605E+04  0.7818609E-02  0.8335782E-01
        2   -1    0    0  501    0  0.00000000000E+00  0.00000000000E+00  0.13493816928E+04  0.13493816928E+04  0.25500000920E-02 0.  1.
       -2   -1    0    0    0  501  0.00000000000E+00  0.00000000000E+00 -0.13482237067E+04  0.13482237067E+04  0.25500000920E-02 0. -1.
    10030    2    1    2    0    0  0.00000000000E+00  0.00000000000E+00  0.11579860609E+01  0.26976053995E+04  0.26976051510E+04 0.  0.
        4    1    3    3  502    0  0.30907375819E+03 -0.81639028612E+03 -0.10276463141E+04  0.13483613192E+04  0.12699999809E+01 0. -1.
       -4    1    3    3    0  502 -0.30907375819E+03  0.81639028612E+03  0.10288043002E+04  0.13492440803E+04  0.12699999809E+01 0.  1.
</event>
<event>
 5   0  0.2588048E-05  0.2751039E+04  0.7818609E-02  0.8318632E-01
        2   -1    0    0  501    0  0.00000000000E+00  0.00000000000E+00  0.23708055661E+04  0.23708055661E+04  0.25500000920E-02 0.  1.
       -2   -1    0    0    0  501  0.00000000000E+00  0.00000000000E+00 -0.79806383971E+03  0.79806383971E+03  0.25500000920E-02 0. -1.
    10030    2    1    2    0    0  0.00000000000E+00  0.00000000000E+00  0.15727417264E+04  0.31688694058E+04  0.27510392170E+04 0.  0.
        2    1    3    3  502    0 -0.83552656960E+03 -0.22524165327E+02 -0.47199884871E+03  0.95989317099E+03  0.25500000920E-02 0. -1.
       -2    1    3    3    0  502  0.83552656960E+03  0.22524165327E+02  0.20447405751E+04  0.22089762348E+04  0.25500000920E-02 0.  1.
</event>
<event>
 5   0  0.2588048E-05  0.2845019E+04  0.7818609E-02  0.8289426E-01
       -2   -1    0    0    0  501  0.00000000000E+00  0.00000000000E+00  0.10770494742E+04  0.10770494742E+04  0.25500000920E-02 0.  1.
        2   -1    0    0  501    0  0.00000000000E+00  0.00000000000E+00 -0.18787746021E+04  0.18787746021E+04  0.25500000920E-02 0. -1.
    10030    2    1    2    0    0  0.00000000000E+00  0.00000000000E+00 -0.80172512798E+03  0.29558240763E+04  0.28450189436E+04 0.  0.
        2    1    3    3  502    0 -0.11106364526E+04  0.24097458095E+03 -0.12897248083E+04  0.17190032459E+04  0.25500000920E-02 0. -1.
       -2    1    3    3    0  502  0.11106364526E+04 -0.24097458095E+03  0.48799968033E+03  0.12368208304E+04  0.25500000920E-02 0.  1.
</event>
<event>
 5   0  0.2697964E-05  0.2790337E+04  0.7818609E-02  0.8306275E-01
        2   -1    0    0  501    0  0.00000000000E+00  0.00000000000E+00  0.18867929660E+04  0.18867929660E+04  0.25500000920E-02 0. -1.
       -2   -1    0    0    0  501  0.00000000000E+00  0.00000000000E+00 -0.10316420891E+04  0.10316420891E+04  0.25500000920E-02 0.  1.
    10030    2    1    2    0    0  0.00000000000E+00  0.00000000000E+00  0.85515087688E+03  0.29184350551E+04  0.27903369238E+04 0.  0.
        1    1    3    3  502    0 -0.47721987772E+03 -0.37084913320E+03  0.17427715554E+04  0.18445922546E+04  0.50400001928E-02 0. -1.
       -1    1    3    3    0  502  0.47721987772E+03  0.37084913320E+03 -0.88762067850E+03  0.10738428005E+04  0.50400001928E-02 0.  1.
</event>
<event>
 5   0  0.2518686E-05  0.1958026E+04  0.7818609E-02  0.8626500E-01
        2   -1    0    0  501    0  0.00000000000E+00  0.00000000000E+00  0.11923029136E+04  0.11923029136E+04  0.25500000920E-02 0. -1.
       -2   -1    0    0    0  501  0.00000000000E+00  0.00000000000E+00 -0.80387843420E+03  0.80387843420E+03  0.25500000920E-02 0.  1.
    10030    2    1    2    0    0  0.00000000000E+00  0.00000000000E+00  0.38842447940E+03  0.19961813478E+04  0.19580261482E+04 0.  0.
        5    1    3    3  502    0  0.85381065986E+03  0.27299398482E+03 -0.20706439367E+03  0.92000875636E+03  0.46999998093E+01 0.  1.
       -5    1    3    3    0  502 -0.85381065986E+03 -0.27299398482E+03  0.59548887307E+03  0.10761725915E+04  0.46999998093E+01 0. -1.
</event>
<event>
 5   0  0.1075146E-05  0.2766136E+04  0.7818609E-02  0.8313859E-01
        1   -1    0    0  501    0  0.00000000000E+00  0.00000000000E+00  0.17499783099E+04  0.17499783099E+04  0.50400001928E-02 0.  1.
       -1   -1    0    0    0  501  0.00000000000E+00  0.00000000000E+00 -0.10930862714E+04  0.10930862714E+04  0.50400001928E-02 0. -1.
    10030    2    1    2    0    0  0.00000000000E+00  0.00000000000E+00  0.65689203851E+03  0.28430645813E+04  0.27661361252E+04 0.  0.
        2    1    3    3  502    0  0.96670088607E+03 -0.60721057322E+03  0.11309694728E+04  0.16069558898E+04  0.25500000920E-02 0.  1.
       -2    1    3    3    0  502 -0.96670088607E+03  0.60721057322E+03 -0.47407743433E+03  0.12361086915E+04  0.25500000920E-02 0. -1.
</event>
<event>
 5   0  0.1105862E-05  0.2226601E+04  0.7818609E-02  0.8507437E-01
       -1   -1    0    0    0  501  0.00000000000E+00  0.00000000000E+00  0.72301275008E+03  0.72301275010E+03  0.50400001928E-02 0.  1.
        1   -1    0    0  501    0  0.00000000000E+00  0.00000000000E+00 -0.17142688085E+04  0.17142688085E+04  0.50400001928E-02 0. -1.
    10030    2    1    2    0    0  0.00000000000E+00  0.00000000000E+00 -0.99125605837E+03  0.24372815586E+04  0.22266011817E+04 0.  0.
        3    1    3    3  502    0  0.10491479500E+04  0.13774761444E+03 -0.87442397689E+03  0.13726992124E+04  0.10100000352E+00 0. -1.
       -3    1    3    3    0  502 -0.10491479500E+04 -0.13774761444E+03 -0.11683208148E+03  0.10645823461E+04  0.10100000352E+00 0.  1.
</event>
<event>
 5   0  0.1078103E-05  0.1502758E+04  0.7818609E-02  0.8882621E-01
       -1   -1    0    0    0  501  0.00000000000E+00  0.00000000000E+00  0.32873454824E+03  0.32873454828E+03  0.50400001928E-02 0.  1.
        1   -1    0    0  501    0  0.00000000000E+00  0.00000000000E+00 -0.17174055264E+04  0.17174055264E+04  0.50400001928E-02 0. -1.
    10030    2    1    2    0    0  0.00000000000E+00  0.00000000000E+00 -0.13886709782E+04  0.20461400747E+04  0.15027581707E+04 0.  0.
        1    1    3    3  502    0  0.11356287809E+02 -0.66342860670E+03 -0.21428280749E+03  0.69726867352E+03  0.50400001928E-02 0.  1.
       -1    1    3    3    0  502 -0.11356287809E+02  0.66342860670E+03 -0.11743881707E+04  0.13488714012E+04  0.50400001928E-02 0. -1.
</event>
<event>
 5   0  0.1075146E-05  0.2732331E+04  0.7818609E-02  0.8324590E-01
       -1   -1    0    0    0  501  0.00000000000E+00  0.00000000000E+00  0.15579488106E+04  0.15579488107E+04  0.50400001928E-02 0.  1.
        1   -1    0    0  501    0  0.00000000000E+00  0.00000000000E+00 -0.11979910341E+04  0.11979910341E+04  0.50400001928E-02 0. -1.
    10030    2    1    2    0    0  0.00000000000E+00  0.00000000000E+00  0.35995777656E+03  0.27559398447E+04  0.27323313904E+04 0.  0.
        2    1    3    3  502    0  0.89117249086E+03 -0.59109845742E+03  0.10375148020E+04  0.14899740800E+04  0.25500000920E-02 0.  1.
       -2    1    3    3    0  502 -0.89117249086E+03  0.59109845742E+03 -0.67755702539E+03  0.12659657647E+04  0.25500000920E-02 0. -1.
</event>
<event>
 5   0  0.2651061E-05  0.2808217E+04  0.7818609E-02  0.8300722E-01
        2   -1    0    0  501    0  0.00000000000E+00  0.00000000000E+00  0.11369294854E+04  0.11369294854E+04  0.25500000920E-02 0. -1.
       -2   -1    0    0    0  501  0.00000000000E+00  0.00000000000E+00 -0.17340745042E+04  0.17340745042E+04  0.25500000920E-02 0.  1.
    10030    2    1    2    0    0  0.00000000000E+00  0.00000000000E+00 -0.59714501875E+03  0.28710039896E+04  0.28082168248E+04 0.  0.
        3    1    3    3  502    0  0.53850282152E+03  0.88278165405E+01 -0.16242749878E+04  0.17112371154E+04  0.10100000352E+00 0.  1.
       -3    1    3    3    0  502 -0.53850282152E+03 -0.88278165405E+01  0.10271299690E+04  0.11597668742E+04  0.10100000352E+00 0. -1.
</event>
<event>
 5   0  0.1075146E-05  0.2733389E+04  0.7818609E-02  0.8324252E-01
       -1   -1    0    0    0  501  0.00000000000E+00  0.00000000000E+00  0.13503740616E+04  0.13503740616E+04  0.50400001928E-02 0.  1.
        1   -1    0    0  501    0  0.00000000000E+00  0.00000000000E+00 -0.13832124364E+04  0.13832124364E+04  0.50400001928E-02 0. -1.
    10030    2    1    2    0    0  0.00000000000E+00  0.00000000000E+00 -0.32838374831E+02  0.27335864981E+04  0.27333892484E+04 0.  0.
        2    1    3    3  502    0 -0.20339028264E+03 -0.69416755321E+03 -0.11760795115E+04  0.13807241638E+04  0.25500000920E-02 0. -1.
       -2    1    3    3    0  502  0.20339028264E+03  0.69416755321E+03  0.11432411367E+04  0.13528623343E+04  0.25500000920E-02 0.  1.
</event>
<event>
 5   0  0.2518686E-05  0.2835828E+04  0.7818609E-02  0.8292231E-01
        2   -1    0    0  501    0  0.00000000000E+00  0.00000000000E+00  0.16080437213E+04  0.16080437213E+04  0.25500000920E-02 0.  1.
       -2   -1    0    0    0  501  0.00000000000E+00  0.00000000000E+00 -0.12502643185E+04  0.12502643185E+04  0.25500000920E-02 0. -1.
    10030    2    1    2    0    0  0.00000000000E+00  0.00000000000E+00  0.35777940277E+03  0.28583080398E+04  0.28358277009E+04 0.  0.
        5    1    3    3  502    0  0.85807547765E+02 -0.61230547760E+03  0.14650051454E+04  0.15901393332E+04  0.46999998093E+01 0.  1.
       -5    1    3    3    0  502 -0.85807547765E+02  0.61230547760E+03 -0.11072257426E+04  0.12681687065E+04  0.46999998093E+01 0. -1.
</event>
<event>
 5   0  0.2624815E-05  0.2798646E+04  0.7818609E-02  0.8303689E-01
       -2   -1    0    0    0  501  0.00000000000E+00  0.00000000000E+00  0.13527033106E+04  0.13527033106E+04  0.25500000920E-02 0. -1.
        2   -1    0    0  501    0  0.00000000000E+00  0.00000000000E+00 -0.14475490651E+04  0.14475490651E+04  0.25500000920E-02 0.  1.
    10030    2    1    2    0    0  0.00000000000E+00  0.00000000000E+00 -0.94845754494E+02  0.28002523757E+04  0.27986456815E+04 0.  0.
        4    1    3    3  502    0 -0.33465336760E+03  0.12258001381E+04  0.53902276390E+03  0.13802630213E+04  0.12699999809E+01 0. -1.
       -4    1    3    3    0  502  0.33465336760E+03 -0.12258001381E+04 -0.63386851839E+03  0.14199893544E+04  0.12699999809E+01 0.  1.
</event>
<event>
 5   0  0.1017456E-05  0.2771202E+04  0.7818609E-02  0.8312265E-01
       -1   -1    0    0    0  501  0.00000000000E+00  0.00000000000E+00  0.11189382564E+04  0.11189382564E+04  0.50400001928E-02 0.  1.
        1   -1    0    0  501    0  0.00000000000E+00  0.00000000000E+00 -0.17158140951E+04  0.17158140951E+04  0.50400001928E-02 0. -1.
    10030    2    1    2    0    0  0.00000000000E+00  0.00000000000E+00 -0.59687583874E+03  0.28347523515E+04  0.27712019283E+04 0.  0.
        5    1    3    3  502    0 -0.22936260156E+03  0.49761657731E+03 -0.16002730739E+04  0.16914861696E+04  0.46999998093E+01 0. -1.
       -5    1    3    3    0  502  0.22936260156E+03 -0.49761657731E+03  0.10033972352E+04  0.11432661818E+04  0.46999998093E+01 0.  1.
</event>
<event>
 5   0  0.1105862E-05  0.2325807E+04  0.7818609E-02  0.8467815E-01
       -1   -1    0    0    0  501  0.00000000000E+00  0.00000000000E+00  0.15643843431E+04  0.15643843431E+04  0.50400001928E-02 0. -1.
        1   -1    0    0  501    0  0.00000000000E+00  0.00000000000E+00 -0.86445763835E+03  0.86445763836E+03  0.50400001928E-02 0.  1.
    10030    2    1    2    0    0  0.00000000000E+00  0.00000000000E+00  0.69992670477E+03  0.24288419815E+04  0.23258065223E+04 0.  0.
        3    1    3    3  502    0 -0.81936310456E+03  0.50074151773E+03 -0.33502645224E+03  0.10170254169E+04  0.10100000352E+00 0. -1.
       -3    1    3    3    0  502  0.81936310456E+03 -0.50074151773E+03  0.10349531570E+04  0.14118165646E+04  0.10100000352E+00 0.  1.
</event>
<event>
 5   0  0.1067434E-05  0.2604753E+04  0.7818609E-02  0.8366589E-01
       -1   -1    0    0    0  501  0.00000000000E+00  0.00000000000E+00  0.10002513246E+04  0.10002513246E+04  0.50400001928E-02 0.  1.
        1   -1    0    0  501    0  0.00000000000E+00  0.00000000000E+00 -0.16957578085E+04  0.16957578085E+04  0.50400001928E-02 0. -1.
    10030    2    1    2    0    0  0.00000000000E+00  0.00000000000E+00 -0.69550648392E+03  0.26960091330E+04  0.26047525749E+04 0.  0.
        4    1    3    3  502    0 -0.10592520142E+04  0.75739952552E+03 -0.32429856514E+03  0.13419538156E+04  0.12699999809E+01 0.  1.
       -4    1    3    3    0  502  0.10592520142E+04 -0.75739952552E+03 -0.37120791878E+03  0.13540553175E+04  0.12699999809E+01 0. -1.
</event>
<event>
 5   0  0.1017456E-05  0.1958149E+04  0.7818609E-02  0.8626441E-01
        1   -1    0    0  501    0  0.00000000000E+00  0.00000000000E+00  0.84470178899E+03  0.84470178901E+03  0.50400001928E-02 0. -1.
       -1   -1    0    0    0  501  0.00000000000E+00  0.00000000000E+00 -0.11348233202E+04  0.11348233203E+04  0.50400001928E-02 0.  1.
    10030    2    1    2    0    0  0.00000000000E+00  0.00000000000E+00 -0.29012153126E+03  0.19795251093E+04  0.19581494211E+04 0.  0.
        5    1    3    3  502    0 -0.32483371833E+03  0.83347993833E+03  0.25722732342E+03  0.93080273854E+03  0.46999998093E+01 0. -1.
       -5    1    3    3    0  502  0.32483371833E+03 -0.83347993833E+03 -0.54734885468E+03  0.10487223707E+04  0.46999998093E+01 0.  1.
</event>
<event>
 5   0  0.2588048E-05  0.2988463E+04  0.7818609E-02  0.8247033E-01
       -2   -1    0    0    0  501  0.00000000000E+00  0.00000000000E+00  0.12517857768E+04  0.12517857768E+04  0.25500000920E-02 0.  1.
        2   -1    0    0  501    0  0.00000000000E+00  0.00000000000E+00 -0.17836344709E+04  0.17836344709E+04  0.25500000920E-02 0. -1.
    10030    2    1    2    0    0  0.00000000000E+00  0.00000000000E+00 -0.53184869413E+03  0.30354202477E+04  0.29884633253E+04 0.  0.
        2    1    3    3  502    0  0.44729846520E+03 -0.45650726766E+03  0.11059473158E+04  0.12773387443E+04  0.25500000920E-02 0.  1.
       -2    1    3    3    0  502 -0.44729846520E+03  0.45650726766E+03 -0.16377960099E+04  0.17580815034E+04  0.25500000920E-02 0. -1.
</event>
<event>
 5   0  0.1075146E-05  0.2186852E+04  0.7818609E-02  0.8523921E-01
        1   -1    0    0  501    0  0.00000000000E+00  0.00000000000E+00  0.15854306726E+04  0.15854306726E+04  0.50400001928E-02 0. -1.
       -1   -1    0    0    0  501  0.00000000000E+00  0.00000000000E+00 -0.75410458891E+03  0.75410458893E+03  0.50400001928E-02 0.  1.
    10030    2    1    2    0    0  0.00000000000E+00  0.00000000000E+00  0.83132608368E+03  0.23395352615E+04  0.21868521172E+04 0.  0.
        2    1    3    3  502    0  0.51798618054E+03 -0.21047646165E+03 -0.58960825416E+03  0.81255640882E+03  0.25500000920E-02 0.  1.
       -2    1    3    3    0  502 -0.51798618054E+03  0.21047646165E+03  0.14209343378E+04  0.15269788527E+04  0.25500000920E-02 0. -1.
</event>
<event>
 5   0  0.2518686E-05  0.1515569E+04  0.7818609E-02  0.8874165E-01
       -2   -1    0    0    0  501  0.00000000000E+00  0.00000000000E+00  0.30116966493E+03  0.30116966494E+03  0.25500000920E-02 0.  1.
        2   -1    0    0  501    0  0.00000000000E+00  0.00000000000E+00 -0.19066915854E+04  0.19066915854E+04  0.25500000920E-02 0. -1.
    10030    2    1    2    0    0  0.00000000000E+00  0.00000000000E+00 -0.16055219204E+04  0.22078612503E+04  0.15155694189E+04 0.  0.
        5    1    3    3  502    0 -0.18294635765E+03  0.48673063186E+03 -0.16057656077E+04  0.16878629550E+04  0.46999998093E+01 0. -1.
       -5    1    3    3    0  502  0.18294635765E+03 -0.48673063186E+03  0.24368730458E+00  0.51999829534E+03  0.46999998093E+01 0.  1.
</event>
<event>
 5   0  0.1078103E-05  0.2764431E+04  0.7818609E-02  0.8314397E-01
        1   -1    0    0  501    0  0.00000000000E+00  0.00000000000E+00  0.15464356142E+04  0.15464356142E+04  0.50400001928E-02 0. -1.
       -1   -1    0    0    0  501  0.00000000000E+00  0.00000000000E+00 -0.12354341619E+04  0.12354341619E+04  0.50400001928E-02 0.  1.
    10030    2    1    2    0    0  0.00000000000E+00  0.00000000000E+00  0.31100145227E+03  0.27818697761E+04  0.27644307818E+04 0.  0.
        1    1    3    3  502    0  0.92764635141E+03 -0.86380541705E+03 -0.39918592474E+03  0.13289232312E+04  0.50400001928E-02 0.  1.
       -1    1    3    3    0  502 -0.92764635141E+03  0.86380541705E+03  0.71018737701E+03  0.14529465449E+04  0.50400001928E-02 0. -1.
</event>
<event>
 5   0  0.2651061E-05  0.2826980E+04  0.7818609E-02  0.8294941E-01
       -2   -1    0    0    0  501  0.00000000000E+00  0.00000000000E+00  0.26264729854E+04  0.26264729854E+04  0.25500000920E-02 0. -1.
        2   -1    0    0  501    0  0.00000000000E+00  0.00000000000E+00 -0.76069824325E+03  0.76069824325E+03  0.25500000920E-02 0.  1.
    10030    2    1    2    0    0  0.00000000000E+00  0.00000000000E+00  0.18657747421E+04  0.33871712286E+04  0.28269795796E+04 0.  0.
        3    1    3    3  502    0  0.54333881775E+03  0.12147334780E+04  0.36183052573E+03  0.13790271328E+04  0.10100000352E+00 0.  1.
       -3    1    3    3    0  502 -0.54333881775E+03 -0.12147334780E+04  0.15039442164E+04  0.20081440958E+04  0.10100000352E+00 0. -1.
</event>
<event>
 5   0  0.2518686E-05  0.1731830E+04  0.7818609E-02  0.8743416E-01
        2   -1    0    0  501    0  0.00000000000E+00  0.00000000000E+00  0.11724203846E+04  0.11724203846E+04  0.25500000920E-02 0.  1.
       -2   -1    0    0    0  501  0.00000000000E+00  0.00000000000E+00 -0.63953947009E+03  0.63953947010E+03  0.25500000920E-02 0. -1.
    10030    2    1    2    0    0  0.00000000000E+00  0.00000000000E+00  0.53288091452E+03  0.18119598547E+04  0.17318303745E+04 0.  0.
        5    1    3    3  502    0 -0.14721414921E+03 -0.42426120163E+03 -0.50816407300E+03  0.67817577959E+03  0.46999998093E+01 0. -1.
       -5    1    3    3    0  502  0.14721414921E+03  0.42426120163E+03  0.10410449875E+04  0.11337840751E+04  0.46999998093E+01 0.  1.
</event>
<event>
 5   0  0.2518686E-05  0.2729658E+04  0.7818609E-02  0.8325446E-01
       -2   -1    0    0    0  501  0.00000000000E+00  0.00000000000E+00  0.14687666302E+04  0.14687666302E+04  0.25500000920E-02 0. -1.
        2   -1    0    0  501    0  0.00000000000E+00  0.00000000000E+00 -0.12682468324E+04  0.12682468324E+04  0.25500000920E-02 0.  1.
    10030    2    1    2    0    0  0.00000000000E+00  0.00000000000E+00  0.20051979780E+03  0.27370134627E+04  0.27296583130E+04 0.  0.
        5    1    3    3  502    0 -0.13258980459E+04 -0.45395945641E+02  0.42154506435E+03  0.13920448094E+04  0.46999998093E+01 0. -1.
       -5    1    3    3    0  502  0.13258980459E+04  0.45395945641E+02 -0.22102526655E+03  0.13449686533E+04  0.46999998093E+01 0.  1.
</event>
<event>
 5   0  0.2651061E-05  0.2874273E+04  0.7818609E-02  0.8280573E-01
       -2   -1    0    0    0  501  0.00000000000E+00  0.00000000000E+00  0.16949796529E+04  0.16949796529E+04  0.25500000920E-02 0. -1.
        2   -1    0    0  501    0  0.00000000000E+00  0.00000000000E+00 -0.12185166302E+04  0.12185166302E+04  0.25500000920E-02 0.  1.
    10030    2    1    2    0    0  0.00000000000E+00  0.00000000000E+00  0.47646302272E+03  0.29134962831E+04  0.28742727045E+04 0.  0.
        3    1    3    3  502    0 -0.55134272439E+03  0.97097125705E+03  0.11553417593E+04  0.16067291535E+04  0.10100000352E+00 0. -1.
       -3    1    3    3    0  502  0.55134272439E+03 -0.97097125705E+03 -0.67887873662E+03  0.13067671296E+04  0.10100000352E+00 0.  1.
</event>
<event>
 5   0  0.1078103E-05  0.2908181E+04  0.7818609E-02  0.8270448E-01
       -1   -1    0    0    0  501  0.00000000000E+00  0.00000000000E+00  0.10803120485E+04  0.10803120485E+04  0.50400001928E-02 0.  1.
        1   -1    0    0  501    0  0.00000000000E+00  0.00000000000E+00 -0.19571924208E+04  0.19571924208E+04  0.50400001928E-02 0. -1.
    10030    2    1    2    0    0  0.00000000000E+00  0.00000000000E+00 -0.87688037231E+03  0.30375044693E+04  0.29081805676E+04 0.  0.
        1    1    3    3  502    0  0.11205152764E+04 -0.91027652721E+03 -0.25686859119E+03  0.14663353347E+04  0.50400001928E-02 0.  1.
       -1    1    3    3    0  502 -0.11205152764E+04  0.91027652721E+03 -0.62001178113E+03  0.15711691346E+04  0.50400001928E-02 0. -1.
</event>
<event>
 5   0  0.1067434E-05  0.2788604E+04  0.7818609E-02  0.8306815E-01
       -1   -1    0    0    0  501  0.00000000000E+00  0.00000000000E+00  0.23667851840E+04  0.23667851840E+04  0.50400001928E-02 0.  1.
        1   -1    0    0  501    0  0.00000000000E+00  0.00000000000E+00 -0.82140017342E+03  0.82140017344E+03  0.50400001928E-02 0. -1.
    10030    2    1    2    0    0  0.00000000000E+00  0.00000000000E+00  0.15453850106E+04  0.31881853575E+04  0.27886037801E+04 0.  0.
        4    1    3    3  502    0  0.57015268423E+03 -0.39556207742E+03  0.21553338671E+04  0.22642899841E+04  0.12699999809E+01 0.  1.
       -4    1    3    3    0  502 -0.57015268423E+03  0.39556207742E+03 -0.60994885653E+03  0.92389537336E+03  0.12699999809E+01 0. -1.
</event>
<event>
 5   0  0.1017456E-05  0.2689035E+04  0.7818609E-02  0.8338571E-01
       -1   -1    0    0    0  501  0.00000000000E+00  0.00000000000E+00  0.11205440550E+04  0.11205440550E+04  0.50400001928E-02 0. -1.
        1   -1    0    0  501    0  0.00000000000E+00  0.00000000000E+00 -0.16132591770E+04  0.16132591770E+04  0.50400001928E-02 0.  1.
    10030    2    1    2    0    0  0.00000000000E+00  0.00000000000E+00 -0.49271512198E+03  0.27338032320E+04  0.26890355000E+04 0.  0.
        5    1    3    3  502    0  0.11629338823E+04 -0.66849629318E+03 -0.33955366406E+03  0.13836984099E+04  0.46999998093E+01 0.  1.
       -5    1    3    3    0  502 -0.11629338823E+04  0.66849629318E+03 -0.15316145792E+03  0.13501048222E+04  0.46999998093E+01 0. -1.
</event>
<event>
 5   0  0.2588048E-05  0.2797157E+04  0.7818609E-02  0.8304152E-01
       -2   -1    0    0    0  501  0.00000000000E+00  0.00000000000E+00  0.90629894956E+03  0.90629894956E+03  0.25500000920E-02 0. -1.
        2   -1    0    0  501    0  0.00000000000E+00  0.00000000000E+00 -0.21582523391E+04  0.21582523391E+04  0.25500000920E-02 0.  1.
    10030    2    1    2    0    0  0.00000000000E+00  0.00000000000E+00 -0.12519533895E+04  0.30645512886E+04  0.27971570051E+04 0.  0.
        2    1    3    3  502    0  0.75667272894E+03  0.92007944212E+03 -0.14287735480E+04  0.18602402130E+04  0.25500000920E-02 0. -1.
       -2    1    3    3    0  502 -0.75667272894E+03 -0.92007944212E+03  0.17682015847E+03  0.12043110757E+04  0.25500000920E-02 0.  1.
</event>
<event>
 5   0  0.1105862E-05  0.2810565E+04  0.7818609E-02  0.8299996E-01
        1   -1    0    0  501    0  0.00000000000E+00  0.00000000000E+00  0.22716858337E+04  0.22716858337E+04  0.50400001928E-02 0. -1.
       -1   -1    0    0    0  501  0.00000000000E+00  0.00000000000E+00 -0.86931876848E+03  0.86931876849E+03  0.50400001928E-02 0.  1.
    10030    2    1    2    0    0  0.00000000000E+00  0.00000000000E+00  0.14023670652E+04  0.31410046022E+04  0.28105651612E+04 0.  0.
        3    1    3    3  502    0 -0.51809575232E+03 -0.32347686303E+03  0.21155874504E+04  0.22019924523E+04  0.10100000352E+00 0. -1.
       -3    1    3    3    0  502  0.51809575232E+03  0.32347686303E+03 -0.71322038522E+03  0.93901214986E+03  0.10100000352E+00 0.  1.
</event>
<event>
 5   0  0.1067434E-05  0.2827614E+04  0.7818609E-02  0.8294746E-01
       -1   -1    0    0    0  501  0.00000000000E+00  0.00000000000E+00  0.11493012471E+04  0.11493012471E+04  0.50400001928E-02 0.  1.
        1   -1    0    0  501    0  0.00000000000E+00  0.00000000000E+00 -0.17391878864E+04  0.17391878864E+04  0.50400001928E-02 0. -1.
    10030    2    1    2    0    0  0.00000000000E+00  0.00000000000E+00 -0.58988663928E+03  0.28884891335E+04  0.28276144057E+04 0.  0.
        4    1    3    3  502    0 -0.78269792869E+03  0.43940277713E+03 -0.14107773292E+04  0.16721199520E+04  0.12699999809E+01 0. -1.
       -4    1    3    3    0  502  0.78269792869E+03 -0.43940277713E+03  0.82089068996E+03  0.12163691816E+04  0.12699999809E+01 0.  1.
</event>
<event>
 5   0  0.2624815E-05  0.2790864E+04  0.7818609E-02  0.8306110E-01
       -2   -1    0    0    0  501  0.00000000000E+00  0.00000000000E+00  0.10030334203E+04  0.10030334203E+04  0.25500000920E-02 0.  1.
        2   -1    0    0  501    0  0.00000000000E+00  0.00000000000E+00 -0.19413411120E+04  0.19413411120E+04  0.25500000920E-02 0. -1.
    10030    2    1    2    0    0  0.00000000000E+00  0.00000000000E+00 -0.93830769165E+03  0.29443745323E+04  0.27908636767E+04 0.  0.
        4    1    3    3  502    0  0.16705754197E+03  0.88417087284E+03  0.65607790043E+03  0.11136005473E+04  0.12699999809E+01 0.  1.
       -4    1    3    3    0  502 -0.16705754197E+03 -0.88417087284E+03 -0.15943855921E+04  0.18307739849E+04  0.12699999809E+01 0. -1.
</event>
<event>
 5   0  0.1067434E-05  0.1952981E+04  0.7818609E-02  0.8628925E-01
        1   -1    0    0  501    0  0.00000000000E+00  0.00000000000E+00  0.12167329457E+04  0.12167329457E+04  0.50400001928E-02 0. -1.
       -1   -1    0    0    0  501  0.00000000000E+00  0.00000000000E+00 -0.78368342159E+03  0.78368342161E+03  0.50400001928E-02 0.  1.
    10030    2    1    2    0    0  0.00000000000E+00  0.00000000000E+00  0.43304952407E+03  0.20004163673E+04  0.19529807352E+04 0.  0.
        4    1    3    3  502    0 -0.63671980720E+03 -0.37448468900E+02 -0.54083784315E+03  0.83625455824E+03  0.12699999809E+01 0.  1.
       -4    1    3    3    0  502  0.63671980720E+03  0.37448468900E+02  0.97388736723E+03  0.11641618090E+04  0.12699999809E+01 0. -1.
</event>
<event>
 5   0  0.1067434E-05  0.2728239E+04  0.7818609E-02  0.8325900E-01
       -1   -1    0    0    0  501  0.00000000000E+00  0.00000000000E+00  0.20708239428E+04  0.20708239428E+04  0.50400001928E-02 0. -1.
        1   -1    0    0  501    0  0.00000000000E+00  0.00000000000E+00 -0.89859031377E+03  0.89859031379E+03  0.50400001928E-02 0.  1.
    10030    2    1    2    0    0  0.00000000000E+00  0.00000000000E+00  0.11722336290E+04  0.29694142566E+04  0.27282392392E+04 0.  0.
        4    1    3    3  502    0 -0.11460153977E+03 -0.10215569449E+04  0.15621075542E+04  0.18699983231E+04  0.12699999809E+01 0. -1.
       -4    1    3    3    0  502  0.11460153977E+03  0.10215569449E+04 -0.38987392514E+03  0.10994159335E+04  0.12699999809E+01 0.  1.
</event>
<event>
 5   0  0.1078103E-05  0.2799899E+04  0.7818609E-02  0.8303300E-01
       -1   -1    0    0    0  501  0.00000000000E+00  0.00000000000E+00  0.11442650760E+04  0.11442650760E+04  0.50400001928E-02 0. -1.
        1   -1    0    0  501    0  0.00000000000E+00  0.00000000000E+00 -0.17127659890E+04  0.17127659890E+04  0.50400001928E-02 0.  1.
    10030    2    1    2    0    0  0.00000000000E+00  0.00000000000E+00 -0.56850091304E+03  0.28570310650E+04  0.27998987871E+04 0.  0.
        1    1    3    3  502    0  0.84274994970E+03  0.10514892479E+04  0.10296766014E+03  0.13514656692E+04  0.50400001928E-02 0. -1.
       -1    1    3    3    0  502 -0.84274994970E+03 -0.10514892479E+04 -0.67146857318E+03  0.15055653957E+04  0.50400001928E-02 0.  1.
</event>
<event>
 5   0  0.2697964E-05  0.2600555E+04  0.7818609E-02  0.8368013E-01
        2   -1    0    0  501    0  0.00000000000E+00  0.00000000000E+00  0.17463091566E+04  0.17463091566E+04  0.25500000920E-02 0. -1.
       -2   -1    0    0    0  501  0.00000000000E+00  0.00000000000E+00 -0.96816864931E+03  0.96816864931E+03  0.25500000920E-02 0.  1.
    10030    2    1    2    0    0  0.00000000000E+00  0.00000000000E+00  0.77814050729E+03  0.27144778059E+04  0.26005551541E+04 0.  0.
        1    1    3    3  502    0  0.11293781229E+04 -0.44859168363E+03 -0.93787638575E+02  0.12188213832E+04  0.50400001928E-02 0.  1.
       -1    1    3    3    0  502 -0.11293781229E+04  0.44859168363E+03  0.87192814587E+03  0.14956564227E+04  0.50400001928E-02 0. -1.
</event>
<event>
 5   0  0.1105862E-05  0.2749470E+04  0.7818609E-02  0.8319130E-01
       -1   -1    0    0    0  501  0.00000000000E+00  0.00000000000E+00  0.11315035705E+04  0.11315035706E+04  0.50400001928E-02 0.  1.
        1   -1    0    0  501    0  0.00000000000E+00  0.00000000000E+00 -0.16702526546E+04  0.16702526546E+04  0.50400001928E-02 0. -1.
    10030    2    1    2    0    0  0.00000000000E+00  0.00000000000E+00 -0.53874908409E+03  0.28017562252E+04  0.27494703799E+04 0.  0.
        3    1    3    3  502    0 -0.12093151524E+03  0.94919746982E+03 -0.12752098710E+04  0.15942899653E+04  0.10100000352E+00 0. -1.
       -3    1    3    3    0  502  0.12093151524E+03 -0.94919746982E+03  0.73646078688E+03  0.12074662599E+04  0.10100000352E+00 0.  1.
</event>
<event>
 5   0  0.2588048E-05  0.2534225E+04  0.7818609E-02  0.8390893E-01
       -2   -1    0    0    0  501  0.00000000000E+00  0.00000000000E+00  0.12895653903E+04  0.12895653903E+04  0.25500000920E-02 0. -1.
        2   -1    0    0  501    0  0.00000000000E+00  0.00000000000E+00 -0.12450505206E+04  0.12450505206E+04  0.25500000920E-02 0.  1.
    10030    2    1    2    0    0  0.00000000000E+00  0.00000000000E+00  0.44514869721E+02  0.25346159109E+04  0.25342249786E+04 0.  0.
        2    1    3    3  502    0  0.11814050639E+04  0.43696071623E+03  0.15983398123E+03  0.12697241804E+04  0.25500000920E-02 0.  1.
       -2    1    3    3    0  502 -0.11814050639E+04 -0.43696071623E+03 -0.11531911151E+03  0.12648917306E+04  0.25500000920E-02 0. -1.
</event>
<event>
 5   0  0.2651061E-05  0.2824323E+04  0.7818609E-02  0.8295757E-01
       -2   -1    0    0    0  501  0.00000000000E+00  0.00000000000E+00  0.23915842644E+04  0.23915842644E+04  0.25500000920E-02 0. -1.
        2   -1    0    0  501    0  0.00000000000E+00  0.00000000000E+00 -0.83384057631E+03  0.83384057631E+03  0.25500000920E-02 0.  1.
    10030    2    1    2    0    0  0.00000000000E+00  0.00000000000E+00  0.15577436881E+04  0.32254248407E+04  0.28243229286E+04 0.  0.
        3    1    3    3  502    0 -0.41458802822E+03  0.85272349725E+03 -0.41625831729E+03  0.10355151340E+04  0.10100000352E+00 0.  1.
       -3    1    3    3    0  502  0.41458802822E+03 -0.85272349725E+03  0.19740020053E+04  0.21899097066E+04  0.10100000352E+00 0. -1.
</event>
<event>
 5   0  0.8958000E-06  0.1512078E+04  0.7818609E-02  0.8876460E-01
        3   -1    0    0  501    0  0.00000000000E+00  0.00000000000E+00  0.14595540432E+04  0.14595540466E+04  0.10100000352E+00 0.  1.
       -3   -1    0    0    0  501  0.00000000000E+00  0.00000000000E+00 -0.39162322808E+03  0.39162324111E+03  0.10100000352E+00 0. -1.
    10030    2    1    2    0    0  0.00000000000E+00  0.00000000000E+00  0.10679308151E+04  0.18511772878E+04  0.15120784123E+04 0.  0.
        5    1    3    3  502    0 -0.56296835837E+03 -0.13393181875E+03  0.11295929110E+04  0.12692018513E+04  0.46999998093E+01 0.  1.
       -5    1    3    3    0  502  0.56296835837E+03  0.13393181875E+03 -0.61662095962E+02  0.58197543649E+03  0.46999998093E+01 0. -1.
</event>
<event>
 5   0  0.1017456E-05  0.2215401E+04  0.7818609E-02  0.8512045E-01
       -1   -1    0    0    0  501  0.00000000000E+00  0.00000000000E+00  0.64865134104E+03  0.64865134106E+03  0.50400001928E-02 0. -1.
        1   -1    0    0  501    0  0.00000000000E+00  0.00000000000E+00 -0.18916178206E+04  0.18916178206E+04  0.50400001928E-02 0.  1.
    10030    2    1    2    0    0  0.00000000000E+00  0.00000000000E+00 -0.12429664796E+04  0.25402691617E+04  0.22154010347E+04 0.  0.
        5    1    3    3  502    0 -0.53589446955E+03  0.75840162273E+03 -0.13138705180E+04  0.16089231591E+04  0.46999998093E+01 0.  1.
       -5    1    3    3    0  502  0.53589446955E+03 -0.75840162273E+03  0.70904038415E+02  0.93134600257E+03  0.46999998093E+01 0. -1.
</event>
<event>
 5   0  0.2624815E-05  0.2797843E+04  0.7818609E-02  0.8303938E-01
        2   -1    0    0  501    0  0.00000000000E+00  0.00000000000E+00  0.25092902721E+04  0.25092902721E+04  0.25500000920E-02 0.  1.
       -2   -1    0    0    0  501  0.00000000000E+00  0.00000000000E+00 -0.77989430900E+03  0.77989430901E+03  0.25500000920E-02 0. -1.
    10030    2    1    2    0    0  0.00000000000E+00  0.00000000000E+00  0.17293959631E+04  0.32891845811E+04  0.27978428854E+04 0.  0.
        4    1    3    3  502    0 -0.65994958174E+03  0.10408379928E+04  0.16428290311E+04  0.20537200432E+04  0.12699999809E+01 0.  1.
       -4    1    3    3    0  502  0.65994958174E+03 -0.10408379928E+04  0.86566932060E+02  0.12354645379E+04  0.12699999809E+01 0. -1.
</event>
<event>
 5   0  0.2624815E-05  0.2840503E+04  0.7818609E-02  0.8290803E-01
        2   -1    0    0  501    0  0.00000000000E+00  0.00000000000E+00  0.13937267974E+04  0.13937267974E+04  0.25500000920E-02 0. -1.
       -2   -1    0    0    0  501  0.00000000000E+00  0.00000000000E+00 -0.14472813753E+04  0.14472813753E+04  0.25500000920E-02 0.  1.
    10030    2    1    2    0    0  0.00000000000E+00  0.00000000000E+00 -0.53554577972E+02  0.28410081727E+04  0.28405033611E+04 0.  0.
        4    1    3    3  502    0 -0.20978055513E+03 -0.55677735813E+03 -0.13166204960E+04  0.14448183454E+04  0.12699999809E+01 0.  1.
       -4    1    3    3    0  502  0.20978055513E+03  0.55677735813E+03  0.12630659180E+04  0.13961898273E+04  0.12699999809E+01 0. -1.
</event>
<event>
 5   0  0.2588048E-05  0.1409018E+04  0.7818609E-02  0.8947317E-01
        2   -1    0    0  501    0  0.00000000000E+00  0.00000000000E+00  0.70384827173E+03  0.70384827173E+03  0.25500000920E-02 0. -1.
       -2   -1    0    0    0  501  0.00000000000E+00  0.00000000000E+00 -0.70517005519E+03  0.70517005519E+03  0.25500000920E-02 0.  1.
    10030    2    1    2    0    0  0.00000000000E+00  0.00000000000E+00 -0.13217834579E+01  0.14090183269E+04  0.14090177070E+04 0.  0.
        2    1    3    3  502    0 -0.70325969022E+03  0.18469688393E+02  0.36987542403E+02  0.70447384591E+03  0.25500000920E-02 0. -1.
       -2    1    3    3    0  502  0.70325969022E+03 -0.18469688393E+02 -0.38309325861E+02  0.70454448101E+03  0.25500000920E-02 0.  1.
</event>
<event>
 5   0  0.1017456E-05  0.2831627E+04  0.7818609E-02  0.8293516E-01
       -1   -1    0    0    0  501  0.00000000000E+00  0.00000000000E+00  0.13281080469E+04  0.13281080469E+04  0.50400001928E-02 0.  1.
        1   -1    0    0  501    0  0.00000000000E+00  0.00000000000E+00 -0.15093112366E+04  0.15093112366E+04  0.50400001928E-02 0. -1.
    10030    2    1    2    0    0  0.00000000000E+00  0.00000000000E+00 -0.18120318965E+03  0.28374192835E+04  0.28316273756E+04 0.  0.
        5    1    3    3  502    0 -0.39330059129E+03 -0.13554008654E+04  0.22365185767E+02  0.14114953604E+04  0.46999998093E+01 0. -1.
       -5    1    3    3    0  502  0.39330059129E+03  0.13554008654E+04 -0.20356837542E+03  0.14259239231E+04  0.46999998093E+01 0.  1.
</event>
<event>
 5   0  0.2651061E-05  0.1606744E+04  0.7818609E-02  0.8816416E-01
       -2   -1    0    0    0  501  0.00000000000E+00  0.00000000000E+00  0.37656880038E+03  0.37656880039E+03  0.25500000920E-02 0.  1.
        2   -1    0    0  501    0  0.00000000000E+00  0.00000000000E+00 -0.17139138593E+04  0.17139138593E+04  0.25500000920E-02 0. -1.
    10030    2    1    2    0    0  0.00000000000E+00  0.00000000000E+00 -0.13373450589E+04  0.20904826597E+04  0.16067438949E+04 0.  0.
        3    1    3    3  502    0  0.86807531428E+02  0.78698290162E+03 -0.84577476204E+03  0.11585389908E+04  0.10100000352E+00 0. -1.
       -3    1    3    3    0  502 -0.86807531428E+02 -0.78698290162E+03 -0.49157029689E+03  0.93194366887E+03  0.10100000352E+00 0.  1.
</event>
<event>
 5   0  0.8958000E-06  0.2811532E+04  0.7818609E-02  0.8299697E-01
        3   -1    0    0  501    0  0.00000000000E+00  0.00000000000E+00  0.17258644659E+04  0.17258644689E+04  0.10100000352E+00 0.  1.
       -3   -1    0    0    0  501  0.00000000000E+00  0.00000000000E+00 -0.11450364893E+04  0.11450364938E+04  0.10100000352E+00 0. -1.
    10030    2    1    2    0    0  0.00000000000E+00  0.00000000000E+00  0.58082797658E+03  0.28709009626E+04  0.28115318243E+04 0.  0.
        4    1    3    3  502    0 -0.14791734371E+03  0.61152730102E+03 -0.99324373382E+03  0.11757465323E+04  0.12699999809E+01 0. -1.
       -4    1    3    3    0  502  0.14791734371E+03 -0.61152730102E+03  0.15740717104E+04  0.16951544304E+04  0.12699999809E+01 0.  1.
</event>
<event>
 5   0  0.1105862E-05  0.2844331E+04  0.7818609E-02  0.8289636E-01
        1   -1    0    0  501    0  0.00000000000E+00  0.00000000000E+00  0.13552463808E+04  0.13552463808E+04  0.50400001928E-02 0. -1.
       -1   -1    0    0    0  501  0.00000000000E+00  0.00000000000E+00 -0.14923888789E+04  0.14923888789E+04  0.50400001928E-02 0.  1.
    10030    2    1    2    0    0  0.00000000000E+00  0.00000000000E+00 -0.13714249812E+03  0.28476352597E+04  0.28443309419E+04 0.  0.
        3    1    3    3  502    0  0.13869935805E+04 -0.23031773220E+03  0.14558650213E+03  0.14135037637E+04  0.10100000352E+00 0.  1.
       -3    1    3    3    0  502 -0.13869935805E+04  0.23031773220E+03 -0.28272900024E+03  0.14341314960E+04  0.10100000352E+00 0. -1.
</event>
<event>
 5   0  0.8958000E-06  0.2740399E+04  0.7818609E-02  0.8322015E-01
       -3   -1    0    0    0  501  0.00000000000E+00  0.00000000000E+00  0.11225117171E+04  0.11225117216E+04  0.10100000352E+00 0.  1.
        3   -1    0    0  501    0  0.00000000000E+00  0.00000000000E+00 -0.16725403613E+04  0.16725403643E+04  0.10100000352E+00 0. -1.
    10030    2    1    2    0    0  0.00000000000E+00  0.00000000000E+00 -0.55002864417E+03  0.27950520859E+04  0.27403986304E+04 0.  0.
        1    1    3    3  502    0  0.57884421034E+03  0.91644951613E+03  0.57985775006E+03  0.12292987211E+04  0.50400001928E-02 0.  1.
       -1    1    3    3    0  502 -0.57884421034E+03 -0.91644951613E+03 -0.11298863942E+04  0.15657533648E+04  0.50400001928E-02 0. -1.
</event>
<event>
 5   0  0.2624815E-05  0.2778184E+04  0.7818609E-02  0.8310074E-01
       -2   -1    0    0    0  501  0.00000000000E+00  0.00000000000E+00  0.90272530302E+03  0.90272530302E+03  0.25500000920E-02 0. -1.
        2   -1    0    0  501    0  0.00000000000E+00  0.00000000000E+00 -0.21375010591E+04  0.21375010591E+04  0.25500000920E-02 0.  1.
    10030    2    1    2    0    0  0.00000000000E+00  0.00000000000E+00 -0.12347757561E+04  0.30402263621E+04  0.27781837890E+04 0.  0.
        4    1    3    3  502    0  0.13863853444E+03 -0.78790204333E+03 -0.18600883586E+04  0.20248310023E+04  0.12699999809E+01 0.  1.
       -4    1    3    3    0  502 -0.13863853444E+03  0.78790204333E+03  0.62531260249E+03  0.10153953599E+04  0.12699999809E+01 0. -1.
</event>
<event>
 5   0  0.1067434E-05  0.2799047E+04  0.7818609E-02  0.8303564E-01
        1   -1    0    0  501    0  0.00000000000E+00  0.00000000000E+00  0.14656104777E+04  0.14656104777E+04  0.50400001928E-02 0.  1.
       -1   -1    0    0    0  501  0.00000000000E+00  0.00000000000E+00 -0.13364165590E+04  0.13364165591E+04  0.50400001928E-02 0. -1.
    10030    2    1    2    0    0  0.00000000000E+00  0.00000000000E+00  0.12919391868E+03  0.28020270368E+04  0.27990470604E+04 0.  0.
        4    1    3    3  502    0 -0.67189547735E+03 -0.12275885560E+04  0.80339583866E+02  0.14017393684E+04  0.12699999809E+01 0.  1.
       -4    1    3    3    0  502  0.67189547735E+03  0.12275885560E+04  0.48854334813E+02  0.14002876684E+04  0.12699999809E+01 0. -1.
</event>
<event>
 5   0  0.1105862E-05  0.2792161E+04  0.7818609E-02  0.8305706E-01
        1   -1    0    0  501    0  0.00000000000E+00  0.00000000000E+00  0.17731037628E+04  0.17731037628E+04  0.50400001928E-02 0. -1.
       -1   -1    0    0    0  501  0.00000000000E+00  0.00000000000E+00 -0.10992257939E+04  0.10992257940E+04  0.50400001928E-02 0.  1.
    10030    2    1    2    0    0  0.00000000000E+00  0.00000000000E+00  0.67387796881E+03  0.28723295567E+04  0.27921614505E+04 0.  0.
        3    1    3    3  502    0 -0.39584635998E+03  0.12433051278E+04  0.84772254067E+03  0.15559998386E+04  0.10100000352E+00 0. -1.
       -3    1    3    3    0  502  0.39584635998E+03 -0.12433051278E+04 -0.17384457186E+03  0.13163297181E+04  0.10100000352E+00 0.  1.
</event>
<event>
 5   0  0.2588048E-05  0.2809867E+04  0.7818609E-02  0.8300212E-01
       -2   -1    0    0    0  501  0.00000000000E+00  0.00000000000E+00  0.15331343173E+04  0.15331343173E+04  0.25500000920E-02 0. -1.
        2   -1    0    0  501    0  0.00000000000E+00  0.00000000000E+00 -0.12874528918E+04  0.12874528918E+04  0.25500000920E-02 0.  1.
    10030    2    1    2    0    0  0.00000000000E+00  0.00000000000E+00  0.24568142547E+03  0.28205872091E+04  0.28098670504E+04 0.  0.
        2    1    3    3  502    0 -0.15841693965E+02  0.13992350696E+04 -0.30509622859E+01  0.13993280701E+04  0.25500000920E-02 0.  1.
       -2    1    3    3    0  502  0.15841693965E+02 -0.13992350696E+04  0.24873238776E+03  0.14212591390E+04  0.25500000920E-02 0. -1.
</event>
<event>
 5   0  0.1105862E-05  0.1869598E+04  0.7818609E-02  0.8670139E-01
       -1   -1    0    0    0  501  0.00000000000E+00  0.00000000000E+00  0.49032774448E+03  0.49032774450E+03  0.50400001928E-02 0. -1.
        1   -1    0    0  501    0  0.00000000000E+00  0.00000000000E+00 -0.17821742978E+04  0.17821742978E+04  0.50400001928E-02 0.  1.
    10030    2    1    2    0    0  0.00000000000E+00  0.00000000000E+00 -0.12918465533E+04  0.22725020423E+04  0.18695983566E+04 0.  0.
        3    1    3    3  502    0  0.37072752054E+03  0.26700648931E+03  0.34537730006E+03  0.57272755253E+03  0.10100000352E+00 0. -1.
       -3    1    3    3    0  502 -0.37072752054E+03 -0.26700648931E+03 -0.16372238534E+04  0.16997744898E+04  0.10100000352E+00 0.  1.
</event>
<event>
 5   0  0.2624815E-05  0.2875222E+04  0.7818609E-02  0.8280288E-01
        2   -1    0    0  501    0  0.00000000000E+00  0.00000000000E+00  0.13772089241E+04  0.13772089241E+04  0.25500000920E-02 0.  1.
       -2   -1    0    0    0  501  0.00000000000E+00  0.00000000000E+00 -0.15006626333E+04  0.15006626333E+04  0.25500000920E-02 0. -1.
    10030    2    1    2    0    0  0.00000000000E+00  0.00000000000E+00 -0.12345370920E+03  0.28778715575E+04  0.28752224059E+04 0.  0.
        4    1    3    3  502    0 -0.54643987804E+03 -0.39609268250E+03 -0.13322420551E+04  0.14934377991E+04  0.12699999809E+01 0. -1.
       -4    1    3    3    0  502  0.54643987804E+03  0.39609268250E+03  0.12087883459E+04  0.13844337584E+04  0.12699999809E+01 0.  1.
</event>
<event>
 5   0  0.2697964E-05  0.2331693E+04  0.7818609E-02  0.8465529E-01
        2   -1    0    0  501    0  0.00000000000E+00  0.00000000000E+00  0.11631623179E+04  0.11631623179E+04  0.25500000920E-02 0.  1.
       -2   -1    0    0    0  501  0.00000000000E+00  0.00000000000E+00 -0.11685371331E+04  0.11685371331E+04  0.25500000920E-02 0. -1.
    10030    2    1    2    0    0  0.00000000000E+00  0.00000000000E+00 -0.53748152118E+01  0.23316994510E+04  0.23316932562E+04 0.  0.
        1    1    3    3  502    0 -0.71280924410E+03 -0.48345698371E+03 -0.78841889298E+03  0.11676609201E+04  0.50400001928E-02 0. -1.
       -1    1    3    3    0  502  0.71280924410E+03  0.48345698371E+03  0.78304407777E+03  0.11640385309E+04  0.50400001928E-02 0.  1.
</event>
<event>
 5   0  0.2697964E-05  0.2780563E+04  0.7818609E-02  0.8309328E-01
       -2   -1    0    0    0  501  0.00000000000E+00  0.00000000000E+00  0.12305095486E+04  0.12305095486E+04  0.25500000920E-02 0. -1.
        2   -1    0    0  501    0  0.00000000000E+00  0.00000000000E+00 -0.15707988521E+04  0.15707988521E+04  0.25500000920E-02 0.  1.
    10030    2    1    2    0    0  0.00000000000E+00  0.00000000000E+00 -0.34028930350E+03  0.28013084006E+04  0.27805632425E+04 0.  0.
        1    1    3    3  502    0  0.66075734191E+03 -0.89366547854E+03  0.67133827053E+03  0.12984349525E+04  0.50400001928E-02 0.  1.
       -1    1    3    3    0  502 -0.66075734191E+03  0.89366547854E+03 -0.10116275740E+04  0.15028734481E+04  0.50400001928E-02 0. -1.
</event>
<event>
 5   0  0.2651061E-05  0.2845076E+04  0.7818609E-02  0.8289409E-01
        2   -1    0    0  501    0  0.00000000000E+00  0.00000000000E+00  0.16955358094E+04  0.16955358094E+04  0.25500000920E-02 0. -1.
       -2   -1    0    0    0  501  0.00000000000E+00  0.00000000000E+00 -0.11934953773E+04  0.11934953773E+04  0.25500000920E-02 0.  1.
    10030    2    1    2    0    0  0.00000000000E+00  0.00000000000E+00  0.50204043205E+03  0.28890311867E+04  0.28450758518E+04 0.  0.
        3    1    3    3  502    0 -0.11937652910E+04 -0.33009680339E+02 -0.53386974602E+03  0.13081216017E+04  0.10100000352E+00 0.  1.
       -3    1    3    3    0  502  0.11937652910E+04  0.33009680339E+02  0.10359101781E+04  0.15809095850E+04  0.10100000352E+00 0. -1.
</event>
<event>
 5   0  0.2518686E-05  0.2774162E+04  0.7818609E-02  0.8311335E-01
       -2   -1    0    0    0  501  0.00000000000E+00  0.00000000000E+00  0.12861326484E+04  0.12861326484E+04  0.25500000920E-02 0.  1.
        2   -1    0    0  501    0  0.00000000000E+00  0.00000000000E+00 -0.14959531103E+04  0.14959531103E+04  0.25500000920E-02 0. -1.
    10030    2    1    2    0    0  0.00000000000E+00  0.00000000000E+00 -0.20982046194E+03  0.27820857587E+04  0.27741623137E+04 0.  0.
        5    1    3    3  502    0  0.55859627331E+03  0.12387666571E+04  0.17409188326E+03  0.13700009858E+04  0.46999998093E+01 0.  1.
       -5    1    3    3    0  502 -0.55859627331E+03 -0.12387666571E+04 -0.38391234520E+03  0.14120847729E+04  0.46999998093E+01 0. -1.
</event>
<event>
 5   0  0.1105862E-05  0.2569302E+04  0.7818609E-02  0.8378704E-01
       -1   -1    0    0    0  501  0.00000000000E+00  0.00000000000E+00  0.94817244565E+03  0.94817244567E+03  0.50400001928E-02 0.  1.
        1   -1    0    0  501    0  0.00000000000E+00  0.00000000000E+00 -0.17405359233E+04  0.17405359233E+04  0.50400001928E-02 0. -1.
    10030    2    1    2    0    0  0.00000000000E+00  0.00000000000E+00 -0.79236347768E+03  0.26887083690E+04  0.25693020089E+04 0.  0.
        3    1    3    3  502    0 -0.15421146780E+03 -0.22082716659E+03 -0.17106560201E+04  0.17317303034E+04  0.10100000352E+00 0. -1.
       -3    1    3    3    0  502  0.15421146780E+03  0.22082716659E+03  0.91829254246E+03  0.95697806560E+03  0.10100000352E+00 0.  1.
</event>
<event>
 5   0  0.1067434E-05  0.2878540E+04  0.7818609E-02  0.8279291E-01
       -1   -1    0    0    0  501  0.00000000000E+00  0.00000000000E+00  0.10646097268E+04  0.10646097268E+04  0.50400001928E-02 0. -1.
        1   -1    0    0  501    0  0.00000000000E+00  0.00000000000E+00 -0.19457811444E+04  0.19457811445E+04  0.50400001928E-02 0.  1.
    10030    2    1    2    0    0  0.00000000000E+00  0.00000000000E+00 -0.88117141764E+03  0.30103908713E+04  0.28785395829E+04 0.  0.
        4    1    3    3  502    0  0.10928110264E+04  0.93216983769E+03 -0.53597420651E+03  0.15331165998E+04  0.12699999809E+01 0.  1.
       -4    1    3    3    0  502 -0.10928110264E+04 -0.93216983769E+03 -0.34519721113E+03  0.14772742715E+04  0.12699999809E+01 0. -1.
</event>
<event>
 5   0  0.2624815E-05  0.2809369E+04  0.7818609E-02  0.8300366E-01
       -2   -1    0    0    0  501  0.00000000000E+00  0.00000000000E+00  0.10241053787E+04  0.10241053787E+04  0.25500000920E-02 0.  1.
        2   -1    0    0  501    0  0.00000000000E+00  0.00000000000E+00 -0.19266950040E+04  0.19266950040E+04  0.25500000920E-02 0. -1.
    10030    2    1    2    0    0  0.00000000000E+00  0.00000000000E+00 -0.90258962527E+03  0.29508003827E+04  0.28093691225E+04 0.  0.
        4    1    3    3  502    0  0.51209490615E+03  0.83979157617E+03  0.60200885337E+03  0.11532160928E+04  0.12699999809E+01 0.  1.
       -4    1    3    3    0  502 -0.51209490615E+03 -0.83979157617E+03 -0.15045984786E+04  0.17975842899E+04  0.12699999809E+01 0. -1.
</event>
<event>
 5   0  0.1105862E-05  0.2821191E+04  0.7818609E-02  0.8296719E-01
       -1   -1    0    0    0  501  0.00000000000E+00  0.00000000000E+00  0.10570915230E+04  0.10570915230E+04  0.50400001928E-02 0. -1.
        1   -1    0    0  501    0  0.00000000000E+00  0.00000000000E+00 -0.18823154387E+04  0.18823154387E+04  0.50400001928E-02 0.  1.
    10030    2    1    2    0    0  0.00000000000E+00  0.00000000000E+00 -0.82522391570E+03  0.29394069618E+04  0.28211910208E+04 0.  0.
        3    1    3    3  502    0 -0.72943715505E+03 -0.50926612965E+03  0.72795006787E+03  0.11494963530E+04  0.10100000352E+00 0. -1.
       -3    1    3    3    0  502  0.72943715505E+03  0.50926612965E+03 -0.15531739836E+04  0.17899106088E+04  0.10100000352E+00 0.  1.
</event>
<event>
 5   0  0.1075146E-05  0.2674067E+04  0.7818609E-02  0.8343469E-01
        1   -1    0    0  501    0  0.00000000000E+00  0.00000000000E+00  0.14458260576E+04  0.14458260576E+04  0.50400001928E-02 0.  1.
       -1   -1    0    0    0  501  0.00000000000E+00  0.00000000000E+00 -0.12364275141E+04  0.12364275141E+04  0.50400001928E-02 0. -1.
    10030    2    1    2    0    0  0.00000000000E+00  0.00000000000E+00  0.20939854352E+03  0.26822535716E+04  0.26740674024E+04 0.  0.
        2    1    3    3  502    0  0.84735480558E+03 -0.10292993645E+04  0.34359229330E+01  0.13332213447E+04  0.25500000920E-02 0. -1.
       -2    1    3    3    0  502 -0.84735480558E+03  0.10292993645E+04  0.20596262059E+03  0.13490322270E+04  0.25500000920E-02 0.  1.
</event>
<event>
 5   0  0.1105862E-05  0.2775256E+04  0.7818609E-02  0.8310992E-01
       -1   -1    0    0    0  501  0.00000000000E+00  0.00000000000E+00  0.88393700140E+03  0.88393700142E+03  0.50400001928E-02 0. -1.
        1   -1    0    0  501    0  0.00000000000E+00  0.00000000000E+00 -0.21783352829E+04  0.21783352829E+04  0.50400001928E-02 0.  1.
    10030    2    1    2    0    0  0.00000000000E+00  0.00000000000E+00 -0.12943982815E+04  0.30622722843E+04  0.27752557778E+04 0.  0.
        3    1    3    3  502    0 -0.29048677832E+03  0.97321026634E+03 -0.16904943313E+04  0.19721287700E+04  0.10100000352E+00 0.  1.
       -3    1    3    3    0  502  0.29048677832E+03 -0.97321026634E+03  0.39609604987E+03  0.10901435143E+04  0.10100000352E+00 0. -1.
</event>
<event>
 5   0  0.1105862E-05  0.2833412E+04  0.7818609E-02  0.8292970E-01
        1   -1    0    0  501    0  0.00000000000E+00  0.00000000000E+00  0.26481191641E+04  0.26481191641E+04  0.50400001928E-02 0. -1.
       -1   -1    0    0    0  501  0.00000000000E+00  0.00000000000E+00 -0.75791762839E+03  0.75791762841E+03  0.50400001928E-02 0.  1.
    10030    2    1    2    0    0  0.00000000000E+00  0.00000000000E+00  0.18902015357E+04  0.34060367926E+04  0.28334122161E+04 0.  0.
        3    1    3    3  502    0  0.37306555959E+03 -0.57877701369E+03  0.24334191288E+04  0.25289700295E+04  0.10100000352E+00 0. -1.
       -3    1    3    3    0  502 -0.37306555959E+03  0.57877701369E+03 -0.54321759305E+03  0.87706676309E+03  0.10100000352E+00 0.  1.
</event>
<event>
 5   0  0.1017456E-05  0.2763638E+04  0.7818609E-02  0.8314647E-01
       -1   -1    0    0    0  501  0.00000000000E+00  0.00000000000E+00  0.15813891322E+04  0.15813891322E+04  0.50400001928E-02 0. -1.
        1   -1    0    0  501    0  0.00000000000E+00  0.00000000000E+00 -0.12074345053E+04  0.12074345054E+04  0.50400001928E-02 0.  1.
    10030    2    1    2    0    0  0.00000000000E+00  0.00000000000E+00  0.37395462688E+03  0.27888236376E+04  0.27636380404E+04 0.  0.
        5    1    3    3  502    0  0.63768796031E+02 -0.93997030152E+03  0.12070261010E+04  0.15311906235E+04  0.46999998093E+01 0. -1.
       -5    1    3    3    0  502 -0.63768796031E+02  0.93997030152E+03 -0.83307147412E+03  0.12576330141E+04  0.46999998093E+01 0.  1.
</event>
<event>
 5   0  0.1075146E-05  0.1860875E+04  0.7818609E-02  0.8674580E-01
        1   -1    0    0  501    0  0.00000000000E+00  0.00000000000E+00  0.19997583872E+04  0.19997583872E+04  0.50400001928E-02 0.  1.
       -1   -1    0    0    0  501  0.00000000000E+00  0.00000000000E+00 -0.43290924606E+03  0.43290924609E+03  0.50400001928E-02 0. -1.
    10030    2    1    2    0    0  0.00000000000E+00  0.00000000000E+00  0.15668491411E+04  0.24326676332E+04  0.18608749509E+04 0.  0.
        2    1    3    3  502    0  0.33156298275E+03 -0.81767338048E+03  0.11694351807E+04  0.14649581600E+04  0.25500000920E-02 0.  1.
       -2    1    3    3    0  502 -0.33156298275E+03  0.81767338048E+03  0.39741396036E+03  0.96770947322E+03  0.25500000920E-02 0. -1.
</event>
<event>
 5   0  0.1075146E-05  0.2825297E+04  0.7818609E-02  0.8295457E-01
       -1   -1    0    0    0  501  0.00000000000E+00  0.00000000000E+00  0.86680623753E+03  0.86680623755E+03  0.50400001928E-02 0.  1.
        1   -1    0    0  501    0  0.00000000000E+00  0.00000000000E+00 -0.23022173671E+04  0.23022173671E+04  0.50400001928E-02 0. -1.
    10030    2    1    2    0    0  0.00000000000E+00  0.00000000000E+00 -0.14354111296E+04  0.31690236046E+04  0.28252974173E+04 0.  0.
        2    1    3    3  502    0  0.38088731883E+03 -0.94047989911E+03  0.38472080116E+03  0.10851671231E+04  0.25500000920E-02 0.  1.
       -2    1    3    3    0  502 -0.38088731883E+03  0.94047989911E+03 -0.18201319307E+04  0.20838564815E+04  0.25500000920E-02 0. -1.
</event>
<event>
 5   0  0.2518686E-05  0.2824927E+04  0.7818609E-02  0.8295571E-01
        2   -1    0    0  501    0  0.00000000000E+00  0.00000000000E+00  0.18282917841E+04  0.18282917841E+04  0.25500000920E-02 0. -1.
       -2   -1    0    0    0  501  0.00000000000E+00  0.00000000000E+00 -0.10912117735E+04  0.10912117735E+04  0.25500000920E-02 0.  1.
    10030    2    1    2    0    0  0.00000000000E+00  0.00000000000E+00  0.73708001059E+03  0.29195035576E+04  0.28249272700E+04 0.  0.
        5    1    3    3  502    0  0.13306276367E+04  0.33191136355E+03  0.19143983900E+02  0.13715406093E+04  0.46999998093E+01 0. -1.
       -5    1    3    3    0  502 -0.13306276367E+04 -0.33191136355E+03  0.71793602669E+03  0.15479629483E+04  0.46999998093E+01 0.  1.
</event>
<event>
 5   0  0.1105862E-05  0.2872765E+04  0.7818609E-02  0.8281027E-01
        1   -1    0    0  501    0  0.00000000000E+00  0.00000000000E+00  0.26990832788E+04  0.26990832788E+04  0.50400001928E-02 0.  1.
       -1   -1    0    0    0  501  0.00000000000E+00  0.00000000000E+00 -0.76440547946E+03  0.76440547948E+03  0.50400001928E-02 0. -1.
    10030    2    1    2    0    0  0.00000000000E+00  0.00000000000E+00  0.19346777993E+04  0.34634887583E+04  0.28727645555E+04 0.  0.
        3    1    3    3  502    0 -0.10421803671E+04 -0.11961721415E+03  0.21502975773E+04  0.23925358674E+04  0.10100000352E+00 0.  1.
       -3    1    3    3    0  502  0.10421803671E+04  0.11961721415E+03 -0.21561977803E+03  0.10709528908E+04  0.10100000352E+00 0. -1.
</event>
<event>
 5   0  0.2518686E-05  0.2680052E+04  0.7818609E-02  0.8341506E-01
       -2   -1    0    0    0  501  0.00000000000E+00  0.00000000000E+00  0.11289290478E+04  0.11289290478E+04  0.25500000920E-02 0.  1.
        2   -1    0    0  501    0  0.00000000000E+00  0.00000000000E+00 -0.15905959993E+04  0.15905959993E+04  0.25500000920E-02 0. -1.
    10030    2    1    2    0    0  0.00000000000E+00  0.00000000000E+00 -0.46166695149E+03  0.27195250471E+04  0.26800522584E+04 0.  0.
        5    1    3    3  502    0  0.31822258845E+03 -0.56330005301E+03  0.95993863989E+03  0.11576168830E+04  0.46999998093E+01 0.  1.
       -5    1    3    3    0  502 -0.31822258845E+03  0.56330005301E+03 -0.14216055914E+04  0.15619081641E+04  0.46999998093E+01 0. -1.
</event>
<event>
 5   0  0.1105862E-05  0.2790053E+04  0.7818609E-02  0.8306363E-01
       -1   -1    0    0    0  501  0.00000000000E+00  0.00000000000E+00  0.10192654224E+04  0.10192654224E+04  0.50400001928E-02 0.  1.
        1   -1    0    0  501    0  0.00000000000E+00  0.00000000000E+00 -0.19093151529E+04  0.19093151529E+04  0.50400001928E-02 0. -1.
    10030    2    1    2    0    0  0.00000000000E+00  0.00000000000E+00 -0.89004973057E+03  0.29285805753E+04  0.27900529857E+04 0.  0.
        3    1    3    3  502    0  0.11848147997E+04 -0.50819900288E+03  0.11439708202E+03  0.12942716248E+04  0.10100000352E+00 0.  1.
       -3    1    3    3    0  502 -0.11848147997E+04  0.50819900288E+03 -0.10044468126E+04  0.16343089505E+04  0.10100000352E+00 0. -1.
</event>
<event>
 5   0  0.2624815E-05  0.2781743E+04  0.7818609E-02  0.8308959E-01
        2   -1    0    0  501    0  0.00000000000E+00  0.00000000000E+00  0.16353665468E+04  0.16353665468E+04  0.25500000920E-02 0. -1.
       -2   -1    0    0    0  501  0.00000000000E+00  0.00000000000E+00 -0.11829292066E+04  0.11829292066E+04  0.25500000920E-02 0.  1.
    10030    2    1    2    0    0  0.00000000000E+00  0.00000000000E+00  0.45243734024E+03  0.28182957534E+04  0.27817425127E+04 0.  0.
        4    1    3    3  502    0 -0.20091635386E+03  0.13761935160E+04  0.21035196677E+03  0.14066007029E+04  0.12699999809E+01 0. -1.
       -4    1    3    3    0  502  0.20091635386E+03 -0.13761935160E+04  0.24208537347E+03  0.14116950505E+04  0.12699999809E+01 0.  1.
</event>
<event>
 5   0  0.1067434E-05  0.2092294E+04  0.7818609E-02  0.8564646E-01
        1   -1    0    0  501    0  0.00000000000E+00  0.00000000000E+00  0.12686025108E+04  0.12686025108E+04  0.50400001928E-02 0. -1.
       -1   -1    0    0    0  501  0.00000000000E+00  0.00000000000E+00 -0.86269993014E+03  0.86269993016E+03  0.50400001928E-02 0.  1.
    10030    2    1    2    0    0  0.00000000000E+00  0.00000000000E+00  0.40590258063E+03  0.21313024409E+04  0.20922937628E+04 0.  0.
        4    1    3    3  502    0 -0.66280383910E+03 -0.28619962780E+03 -0.56826549032E+03  0.91877442088E+03  0.12699999809E+01 0.  1.
       -4    1    3    3    0  502  0.66280383910E+03  0.28619962780E+03  0.97416807095E+03  0.12125280201E+04  0.12699999809E+01 0. -1.
</event>
<event>
 5   0  0.2624815E-05  0.2644609E+04  0.7818609E-02  0.8353205E-01
        2   -1    0    0  501    0  0.00000000000E+00  0.00000000000E+00  0.95749927431E+03  0.95749927432E+03  0.25500000920E-02 0.  1.
       -2   -1    0    0    0  501  0.00000000000E+00  0.00000000000E+00 -0.18260995195E+04  0.18260995195E+04  0.25500000920E-02 0. -1.
    10030    2    1    2    0    0  0.00000000000E+00  0.00000000000E+00 -0.86860024522E+03  0.27835987939E+04  0.26446088291E+04 0.  0.
        4    1    3    3  502    0 -0.12829630169E+04  0.31046416387E+03 -0.35205749044E+03  0.13661362264E+04  0.12699999809E+01 0.  1.
       -4    1    3    3    0  502  0.12829630169E+04 -0.31046416387E+03 -0.51654275477E+03  0.14174625674E+04  0.12699999809E+01 0. -1.
</event>
<event>
 5   0  0.2588048E-05  0.2885495E+04  0.7818609E-02  0.8277206E-01
       -2   -1    0    0    0  501  0.00000000000E+00  0.00000000000E+00  0.95365714835E+03  0.95365714835E+03  0.25500000920E-02 0.  1.
        2   -1    0    0  501    0  0.00000000000E+00  0.00000000000E+00 -0.21826723200E+04  0.21826723200E+04  0.25500000920E-02 0. -1.
    10030    2    1    2    0    0  0.00000000000E+00  0.00000000000E+00 -0.12290151716E+04  0.31363294683E+04  0.28854954933E+04 0.  0.
        2    1    3    3  502    0 -0.13042602976E+03 -0.18388235281E+03  0.93439421164E+03  0.96120560323E+03  0.25500000920E-02 0.  1.
       -2    1    3    3    0  502  0.13042602976E+03  0.18388235281E+03 -0.21634093833E+04  0.21751238651E+04  0.25500000920E-02 0. -1.
</event>
<event>
 5   0  0.1078103E-05  0.2802722E+04  0.7818609E-02  0.8302424E-01
        1   -1    0    0  501    0  0.00000000000E+00  0.00000000000E+00  0.16292963191E+04  0.16292963191E+04  0.50400001928E-02 0. -1.
       -1   -1    0    0    0  501  0.00000000000E+00  0.00000000000E+00 -0.12053133248E+04  0.12053133248E+04  0.50400001928E-02 0.  1.
    10030    2    1    2    0    0  0.00000000000E+00  0.00000000000E+00  0.42398299432E+03  0.28346096439E+04  0.28027219366E+04 0.  0.
        1    1    3    3  502    0 -0.11848491408E+04 -0.70174509130E+03 -0.50769927512E+02  0.13780026289E+04  0.50400001928E-02 0. -1.
       -1    1    3    3    0  502  0.11848491408E+04  0.70174509130E+03  0.47475292183E+03  0.14566070151E+04  0.50400001928E-02 0.  1.
</event>
<event>
 5   0  0.8958000E-06  0.2815073E+04  0.7818609E-02  0.8298604E-01
        3   -1    0    0  501    0  0.00000000000E+00  0.00000000000E+00  0.19133206709E+04  0.19133206736E+04  0.10100000352E+00 0.  1.
       -3   -1    0    0    0  501  0.00000000000E+00  0.00000000000E+00 -0.10354559362E+04  0.10354559411E+04  0.10100000352E+00 0. -1.
    10030    2    1    2    0    0  0.00000000000E+00  0.00000000000E+00  0.87786473473E+03  0.29487766146E+04  0.28150731839E+04 0.  0.
        1    1    3    3  502    0  0.99974889460E+03  0.58860798321E+03  0.12737817466E+04  0.17229269132E+04  0.50400001928E-02 0.  1.
       -1    1    3    3    0  502 -0.99974889460E+03 -0.58860798321E+03 -0.39591701190E+03  0.12258497014E+04  0.50400001928E-02 0. -1.
</event>
<event>
 5   0  0.1078103E-05  0.2808520E+04  0.7818609E-02  0.8300628E-01
       -1   -1    0    0    0  501  0.00000000000E+00  0.00000000000E+00  0.11817555066E+04  0.11817555066E+04  0.50400001928E-02 0.  1.
        1   -1    0    0  501    0  0.00000000000E+00  0.00000000000E+00 -0.16686580364E+04  0.16686580364E+04  0.50400001928E-02 0. -1.
    10030    2    1    2    0    0  0.00000000000E+00  0.00000000000E+00 -0.48690252982E+03  0.28504135429E+04  0.28085197689E+04 0.  0.
        1    1    3    3  502    0 -0.42267039212E+03  0.71383773158E+03 -0.13933707823E+04  0.16216339613E+04  0.50400001928E-02 0. -1.
       -1    1    3    3    0  502  0.42267039212E+03 -0.71383773158E+03  0.90646825251E+03  0.12287795816E+04  0.50400001928E-02 0.  1.
</event>
<event>
 5   0  0.2518686E-05  0.2763885E+04  0.7818609E-02  0.8314569E-01
        2   -1    0    0  501    0  0.00000000000E+00  0.00000000000E+00  0.24845683750E+04  0.24845683750E+04  0.25500000920E-02 0. -1.
       -2   -1    0    0    0  501  0.00000000000E+00  0.00000000000E+00 -0.76865078559E+03  0.76865078560E+03  0.25500000920E-02 0.  1.
    10030    2    1    2    0    0  0.00000000000E+00  0.00000000000E+00  0.17159175894E+04  0.32532191606E+04  0.27638852605E+04 0.  0.
        5    1    3    3  502    0  0.87558065706E+03 -0.81393524812E+03  0.41958555438E+02  0.11962084624E+04  0.46999998093E+01 0.  1.
       -5    1    3    3    0  502 -0.87558065706E+03  0.81393524812E+03  0.16739590340E+04  0.20570106982E+04  0.46999998093E+01 0. -1.
</event>
<event>
 5   0  0.2651061E-05  0.2108485E+04  0.7818609E-02  0.8557515E-01
        2   -1    0    0  501    0  0.00000000000E+00  0.00000000000E+00  0.23332873798E+04  0.23332873798E+04  0.25500000920E-02 0. -1.
       -2   -1    0    0    0  501  0.00000000000E+00  0.00000000000E+00 -0.47633538261E+03  0.47633538262E+03  0.25500000920E-02 0.  1.
    10030    2    1    2    0    0  0.00000000000E+00  0.00000000000E+00  0.18569519972E+04  0.28096227624E+04  0.21084850835E+04 0.  0.
        3    1    3    3  502    0 -0.40322892434E+03  0.87964206083E+02 -0.36421420409E+03  0.55043915526E+03  0.10100000352E+00 0.  1.
       -3    1    3    3    0  502  0.40322892434E+03 -0.87964206083E+02  0.22211662013E+04  0.22591836072E+04  0.10100000352E+00 0. -1.
</event>
<event>
 5   0  0.2518686E-05  0.2752056E+04  0.7818609E-02  0.8318310E-01
        2   -1    0    0  501    0  0.00000000000E+00  0.00000000000E+00  0.14721779382E+04  0.14721779382E+04  0.25500000920E-02 0.  1.
       -2   -1    0    0    0  501  0.00000000000E+00  0.00000000000E+00 -0.12861574751E+04  0.12861574751E+04  0.25500000920E-02 0. -1.
    10030    2    1    2    0    0  0.00000000000E+00  0.00000000000E+00  0.18602046310E+03  0.27583354133E+04  0.27520557116E+04 0.  0.
        5    1    3    3  502    0  0.10118058015E+03 -0.95546889383E+03 -0.89426140402E+03  0.13125867078E+04  0.46999998093E+01 0. -1.
       -5    1    3    3    0  502 -0.10118058015E+03  0.95546889383E+03  0.10802818671E+04  0.14457487055E+04  0.46999998093E+01 0.  1.
</event>
<event>
 5   0  0.1075146E-05  0.1378337E+04  0.7818609E-02  0.8969650E-01
       -1   -1    0    0    0  501  0.00000000000E+00  0.00000000000E+00  0.12545235039E+04  0.12545235039E+04  0.50400001928E-02 0.  1.
        1   -1    0    0  501    0  0.00000000000E+00  0.00000000000E+00 -0.37859269794E+03  0.37859269797E+03  0.50400001928E-02 0. -1.
    10030    2    1    2    0    0  0.00000000000E+00  0.00000000000E+00  0.87593080597E+03  0.16331162019E+04  0.13783373143E+04 0.  0.
        2    1    3    3  502    0 -0.54684272591E+03 -0.40522076634E+03  0.30973581103E+03  0.74778145805E+03  0.25500000920E-02 0.  1.
       -2    1    3    3    0  502  0.54684272591E+03  0.40522076634E+03  0.56619499493E+03  0.88533474384E+03  0.25500000920E-02 0. -1.
</event>
<event>
 5   0  0.2624815E-05  0.2648042E+04  0.7818609E-02  0.8352063E-01
       -2   -1    0    0    0  501  0.00000000000E+00  0.00000000000E+00  0.88884459836E+03  0.88884459836E+03  0.25500000920E-02 0.  1.
        2   -1    0    0  501    0  0.00000000000E+00  0.00000000000E+00 -0.19722583850E+04  0.19722583850E+04  0.25500000920E-02 0. -1.
    10030    2    1    2    0    0  0.00000000000E+00  0.00000000000E+00 -0.10834137867E+04  0.28611029834E+04  0.26480417007E+04 0.  0.
        4    1    3    3  502    0  0.49362246907E+03 -0.72335067355E+03 -0.16146478239E+04  0.18368420039E+04  0.12699999809E+01 0. -1.
       -4    1    3    3    0  502 -0.49362246907E+03  0.72335067355E+03  0.53123403729E+03  0.10242609795E+04  0.12699999809E+01 0.  1.
</event>
<event>
 5   0  0.1078103E-05  0.1831853E+04  0.7818609E-02  0.8689541E-01
       -1   -1    0    0    0  501  0.00000000000E+00  0.00000000000E+00  0.90381884268E+03  0.90381884270E+03  0.50400001928E-02 0. -1.
        1   -1    0    0  501    0  0.00000000000E+00  0.00000000000E+00 -0.92819633256E+03  0.92819633257E+03  0.50400001928E-02 0.  1.
    10030    2    1    2    0    0  0.00000000000E+00  0.00000000000E+00 -0.24377489878E+02  0.18320151753E+04  0.18318529800E+04 0.  0.
        1    1    3    3  502    0  0.38539350921E+03  0.42786258507E+02 -0.84205888690E+03  0.92705015500E+03  0.50400001928E-02 0.  1.
       -1    1    3    3    0  502 -0.38539350921E+03 -0.42786258507E+02  0.81768139702E+03  0.90496502027E+03  0.50400001928E-02 0. -1.
</event>
<event>
 5   0  0.2651061E-05  0.2680263E+04  0.7818609E-02  0.8341437E-01
        2   -1    0    0  501    0  0.00000000000E+00  0.00000000000E+00  0.15449407373E+04  0.15449407373E+04  0.25500000920E-02 0.  1.
       -2   -1    0    0    0  501  0.00000000000E+00  0.00000000000E+00 -0.11624736802E+04  0.11624736802E+04  0.25500000920E-02 0. -1.
    10030    2    1    2    0    0  0.00000000000E+00  0.00000000000E+00  0.38246705715E+03  0.27074144175E+04  0.26802633786E+04 0.  0.
        3    1    3    3  502    0  0.61605400930E+02 -0.10673182722E+04  0.10074969504E+04  0.14690179151E+04  0.10100000352E+00 0.  1.
       -3    1    3    3    0  502 -0.61605400930E+02  0.10673182722E+04 -0.62502989322E+03  0.12383965025E+04  0.10100000352E+00 0. -1.
</event>
<event>
 5   0  0.1078103E-05  0.2381926E+04  0.7818609E-02  0.8446301E-01
       -1   -1    0    0    0  501  0.00000000000E+00  0.00000000000E+00  0.98315752047E+03  0.98315752049E+03  0.50400001928E-02 0. -1.
        1   -1    0    0  501    0  0.00000000000E+00  0.00000000000E+00 -0.14426914645E+04  0.14426914645E+04  0.50400001928E-02 0.  1.
    10030    2    1    2    0    0  0.00000000000E+00  0.00000000000E+00 -0.45953394405E+03  0.24258489850E+04  0.23819260804E+04 0.  0.
        1    1    3    3  502    0  0.37420416204E+03 -0.65525697498E+03  0.70863728147E+03  0.10351604971E+04  0.50400001928E-02 0. -1.
       -1    1    3    3    0  502 -0.37420416204E+03  0.65525697498E+03 -0.11681712255E+04  0.13906884879E+04  0.50400001928E-02 0.  1.
</event>
<event>
 5   0  0.2518686E-05  0.2879083E+04  0.7818609E-02  0.8279128E-01
        2   -1    0    0  501    0  0.00000000000E+00  0.00000000000E+00  0.20719058504E+04  0.20719058504E+04  0.25500000920E-02 0.  1.
       -2   -1    0    0    0  501  0.00000000000E+00  0.00000000000E+00 -0.10001801579E+04  0.10001801579E+04  0.25500000920E-02 0. -1.
    10030    2    1    2    0    0  0.00000000000E+00  0.00000000000E+00  0.10717256926E+04  0.30720860083E+04  0.28790825765E+04 0.  0.
        5    1    3    3  502    0 -0.79373055531E+03  0.11118952891E+04  0.10200878158E+04  0.17049693752E+04  0.46999998093E+01 0.  1.
       -5    1    3    3    0  502  0.79373055531E+03 -0.11118952891E+04  0.51637876774E+02  0.13671166331E+04  0.46999998093E+01 0. -1.
</event>
<event>
 5   0  0.8958000E-06  0.2727668E+04  0.7818609E-02  0.8326083E-01
        3   -1    0    0  501    0  0.00000000000E+00  0.00000000000E+00  0.18093121395E+04  0.18093121424E+04  0.10100000352E+00 0.  1.
       -3   -1    0    0    0  501  0.00000000000E+00  0.00000000000E+00 -0.10280387172E+04  0.10280387222E+04  0.10100000352E+00 0. -1.
    10030    2    1    2    0    0  0.00000000000E+00  0.00000000000E+00  0.78127342235E+03  0.28373508645E+04  0.27276678258E+04 0.  0.
        5    1    3    3  502    0  0.14678487545E+03  0.87601414817E+03 -0.68590622287E+03  0.11222459730E+04  0.46999998093E+01 0. -1.
       -5    1    3    3    0  502 -0.14678487545E+03 -0.87601414817E+03  0.14671796452E+04  0.17151048915E+04  0.46999998093E+01 0.  1.
</event>
<event>
 5   0  0.1067434E-05  0.2855927E+04  0.7818609E-02  0.8286112E-01
        1   -1    0    0  501    0  0.00000000000E+00  0.00000000000E+00  0.13693091186E+04  0.13693091186E+04  0.50400001928E-02 0.  1.
       -1   -1    0    0    0  501  0.00000000000E+00  0.00000000000E+00 -0.14891308616E+04  0.14891308616E+04  0.50400001928E-02 0. -1.
    10030    2    1    2    0    0  0.00000000000E+00  0.00000000000E+00 -0.11982174302E+03  0.28584399803E+04  0.28559274974E+04 0.  0.
        4    1    3    3  502    0  0.31040678428E+03  0.26002896567E+03  0.13106408803E+04  0.13717684078E+04  0.12699999809E+01 0.  1.
       -4    1    3    3    0  502 -0.31040678428E+03 -0.26002896567E+03 -0.14304626233E+04  0.14866715724E+04  0.12699999809E+01 0. -1.
</event>
<event>
 5   0  0.2588048E-05  0.1723728E+04  0.7818609E-02  0.8747946E-01
       -2   -1    0    0    0  501  0.00000000000E+00  0.00000000000E+00  0.48627474872E+03  0.48627474873E+03  0.25500000920E-02 0. -1.
        2   -1    0    0  501    0  0.00000000000E+00  0.00000000000E+00 -0.15275510517E+04  0.15275510517E+04  0.25500000920E-02 0.  1.
    10030    2    1    2    0    0  0.00000000000E+00  0.00000000000E+00 -0.10412763030E+04  0.20138258004E+04  0.17237279412E+04 0.  0.
        2    1    3    3  502    0  0.55126299580E+03 -0.59735142319E+03 -0.85537075643E+03  0.11799909933E+04  0.25500000920E-02 0.  1.
       -2    1    3    3    0  502 -0.55126299580E+03  0.59735142319E+03 -0.18590554655E+03  0.83383480713E+03  0.25500000920E-02 0. -1.
</event>
<event>
 5   0  0.2651061E-05  0.2830197E+04  0.7818609E-02  0.8293954E-01
       -2   -1    0    0    0  501  0.00000000000E+00  0.00000000000E+00  0.11551190849E+04  0.11551190850E+04  0.25500000920E-02 0.  1.
        2   -1    0    0  501    0  0.00000000000E+00  0.00000000000E+00 -0.17335909058E+04  0.17335909058E+04  0.25500000920E-02 0. -1.
    10030    2    1    2    0    0  0.00000000000E+00  0.00000000000E+00 -0.57847182085E+03  0.28887099908E+04  0.28301971244E+04 0.  0.
        3    1    3    3  502    0  0.83649767807E+02  0.54657559853E+03 -0.16187645357E+04  0.17105966213E+04  0.10100000352E+00 0. -1.
       -3    1    3    3    0  502 -0.83649767807E+02 -0.54657559853E+03  0.10402927148E+04  0.11781133695E+04  0.10100000352E+00 0.  1.
</event>
<event>
 5   0  0.1017456E-05  0.2793057E+04  0.7818609E-02  0.8305427E-01
        1   -1    0    0  501    0  0.00000000000E+00  0.00000000000E+00  0.16720316552E+04  0.16720316552E+04  0.50400001928E-02 0. -1.
       -1   -1    0    0    0  501  0.00000000000E+00  0.00000000000E+00 -0.11664207572E+04  0.11664207572E+04  0.50400001928E-02 0.  1.
    10030    2    1    2    0    0  0.00000000000E+00  0.00000000000E+00  0.50561089804E+03  0.28384524124E+04  0.27930574139E+04 0.  0.
        5    1    3    3  502    0  0.12307033156E+04  0.59607739548E+03  0.54083993933E+03  0.14705335231E+04  0.46999998093E+01 0. -1.
       -5    1    3    3    0  502 -0.12307033156E+04 -0.59607739548E+03 -0.35229041280E+02  0.13679188894E+04  0.46999998093E+01 0.  1.
</event>
<event>
 5   0  0.3890274E-05  0.1420038E+04  0.7818609E-02  0.8939440E-01
       -2   -1    0    0    0  501  0.00000000000E+00  0.00000000000E+00  0.60059515087E+03  0.60059515088E+03  0.25500000920E-02 0. -1.
        2   -1    0    0  501    0  0.00000000000E+00  0.00000000000E+00 -0.83937893862E+03  0.83937893862E+03  0.25500000920E-02 0.  1.
    10030    2    1    2    0    0  0.00000000000E+00  0.00000000000E+00 -0.23878378775E+03  0.14399740895E+04  0.14200379154E+04 0.  0.
        5    1    3    3  502    0  0.12219600910E+03 -0.17506001747E+03  0.56726087132E+03  0.60612280974E+03  0.46999998093E+01 0. -1.
       -5    1    3    3    0  502 -0.12219600910E+03  0.17506001747E+03 -0.80604465907E+03  0.83385127976E+03  0.46999998093E+01 0.  1.
</event>
<event>
 5   0  0.2624815E-05  0.2849109E+04  0.7818609E-02  0.8288182E-01
       -2   -1    0    0    0  501  0.00000000000E+00  0.00000000000E+00  0.15837491635E+04  0.15837491635E+04  0.25500000920E-02 0. -1.
        2   -1    0    0  501    0  0.00000000000E+00  0.00000000000E+00 -0.12813612544E+04  0.12813612544E+04  0.25500000920E-02 0.  1.
    10030    2    1    2    0    0  0.00000000000E+00  0.00000000000E+00  0.30238790910E+03  0.28651104179E+04  0.28491085025E+04 0.  0.
        4    1    3    3  502    0 -0.20672087257E+03  0.90346761008E+03 -0.93671666479E+03  0.13177355443E+04  0.12699999809E+01 0.  1.
       -4    1    3    3    0  502  0.20672087257E+03 -0.90346761008E+03  0.12391045739E+04  0.15473748736E+04  0.12699999809E+01 0. -1.
</event>
<event>
 5   0  0.2588048E-05  0.1641846E+04  0.7818609E-02  0.8795245E-01
       -2   -1    0    0    0  501  0.00000000000E+00  0.00000000000E+00  0.86447265191E+03  0.86447265191E+03  0.25500000920E-02 0.  1.
        2   -1    0    0  501    0  0.00000000000E+00  0.00000000000E+00 -0.77956753839E+03  0.77956753840E+03  0.25500000920E-02 0. -1.
    10030    2    1    2    0    0  0.00000000000E+00  0.00000000000E+00  0.84905113514E+02  0.16440401903E+04  0.16418462988E+04 0.  0.
        2    1    3    3  502    0 -0.78574345093E+03 -0.21143570810E+03 -0.66398669904E+02  0.81639856241E+03  0.25500000920E-02 0.  1.
       -2    1    3    3    0  502  0.78574345093E+03  0.21143570810E+03  0.15130378342E+03  0.82764162789E+03  0.25500000920E-02 0. -1.
</event>
<event>
 5   0  0.1075146E-05  0.2771399E+04  0.7818609E-02  0.8312203E-01
       -1   -1    0    0    0  501  0.00000000000E+00  0.00000000000E+00  0.30819819803E+04  0.30819819803E+04  0.50400001928E-02 0.  1.
        1   -1    0    0  501    0  0.00000000000E+00  0.00000000000E+00 -0.62302850425E+03  0.62302850427E+03  0.50400001928E-02 0. -1.
    10030    2    1    2    0    0  0.00000000000E+00  0.00000000000E+00  0.24589534761E+04  0.37050104846E+04  0.27713986529E+04 0.  0.
        2    1    3    3  502    0  0.47780820101E+03 -0.82230429593E+03 -0.11783587396E+03  0.95831640143E+03  0.25500000920E-02 0. -1.
       -2    1    3    3    0  502 -0.47780820101E+03  0.82230429593E+03  0.25767893500E+04  0.27466940832E+04  0.25500000920E-02 0.  1.
</event>
<event>
 5   0  0.2588048E-05  0.2804193E+04  0.7818609E-02  0.8301968E-01
       -2   -1    0    0    0  501  0.00000000000E+00  0.00000000000E+00  0.15657048161E+04  0.15657048161E+04  0.25500000920E-02 0. -1.
        2   -1    0    0  501    0  0.00000000000E+00  0.00000000000E+00 -0.12555845954E+04  0.12555845954E+04  0.25500000920E-02 0.  1.
    10030    2    1    2    0    0  0.00000000000E+00  0.00000000000E+00  0.31012022078E+03  0.28212894115E+04  0.28041931802E+04 0.  0.
        2    1    3    3  502    0  0.46143396874E+03  0.22075644780E+03 -0.11583566553E+04  0.12662720314E+04  0.25500000920E-02 0.  1.
       -2    1    3    3    0  502 -0.46143396874E+03 -0.22075644780E+03  0.14684768761E+04  0.15550173801E+04  0.25500000920E-02 0. -1.
</event>
<event>
 5   0  0.2518686E-05  0.2782644E+04  0.7818609E-02  0.8308677E-01
        2   -1    0    0  501    0  0.00000000000E+00  0.00000000000E+00  0.26763953502E+04  0.26763953502E+04  0.25500000920E-02 0. -1.
       -2   -1    0    0    0  501  0.00000000000E+00  0.00000000000E+00 -0.72327739350E+03  0.72327739351E+03  0.25500000920E-02 0.  1.
    10030    2    1    2    0    0  0.00000000000E+00  0.00000000000E+00  0.19531179567E+04  0.33996727437E+04  0.27826435294E+04 0.  0.
        5    1    3    3  502    0 -0.25717217766E+03  0.12177271351E+04  0.17363580792E+04  0.21363422885E+04  0.46999998093E+01 0. -1.
       -5    1    3    3    0  502  0.25717217766E+03 -0.12177271351E+04  0.21675987751E+03  0.12633304552E+04  0.46999998093E+01 0.  1.
</event>
<event>
 5   0  0.2624815E-05  0.2865024E+04  0.7818609E-02  0.8283360E-01
       -2   -1    0    0    0  501  0.00000000000E+00  0.00000000000E+00  0.14655815664E+04  0.14655815664E+04  0.25500000920E-02 0.  1.
        2   -1    0    0  501    0  0.00000000000E+00  0.00000000000E+00 -0.14001888558E+04  0.14001888558E+04  0.25500000920E-02 0. -1.
    10030    2    1    2    0    0  0.00000000000E+00  0.00000000000E+00  0.65392710559E+02  0.28657704222E+04  0.28650242418E+04 0.  0.
        4    1    3    3  502    0 -0.18316388399E+03  0.79270597640E+03  0.12120528760E+04  0.14597964106E+04  0.12699999809E+01 0.  1.
       -4    1    3    3    0  502  0.18316388399E+03 -0.79270597640E+03 -0.11466601654E+04  0.14059740116E+04  0.12699999809E+01 0. -1.
</event>
<event>
 5   0  0.2588048E-05  0.1642011E+04  0.7818609E-02  0.8795146E-01
       -2   -1    0    0    0  501  0.00000000000E+00  0.00000000000E+00  0.59328857443E+03  0.59328857444E+03  0.25500000920E-02 0.  1.
        2   -1    0    0  501    0  0.00000000000E+00  0.00000000000E+00 -0.11361256598E+04  0.11361256598E+04  0.25500000920E-02 0. -1.
    10030    2    1    2    0    0  0.00000000000E+00  0.00000000000E+00 -0.54283708536E+03  0.17294142342E+04  0.16420114166E+04 0.  0.
        2    1    3    3  502    0 -0.12209763441E+03  0.90971535868E+02  0.57828785830E+03  0.59799707334E+03  0.25500000920E-02 0.  1.
       -2    1    3    3    0  502  0.12209763441E+03 -0.90971535868E+02 -0.11211249437E+04  0.11314171609E+04  0.25500000920E-02 0. -1.
</event>
<event>
 5   0  0.2518686E-05  0.2641920E+04  0.7818609E-02  0.8354100E-01
        2   -1    0    0  501    0  0.00000000000E+00  0.00000000000E+00  0.16846785817E+04  0.16846785817E+04  0.25500000920E-02 0. -1.
       -2   -1    0    0    0  501  0.00000000000E+00  0.00000000000E+00 -0.10357676469E+04  0.10357676469E+04  0.25500000920E-02 0.  1.
    10030    2    1    2    0    0  0.00000000000E+00  0.00000000000E+00  0.64891093483E+03  0.27204462287E+04  0.26419201884E+04 0.  0.
        5    1    3    3  502    0 -0.13048577809E+04  0.83435719396E+02  0.13099317981E+03  0.13140763489E+04  0.46999998093E+01 0.  1.
       -5    1    3    3    0  502  0.13048577809E+04 -0.83435719396E+02  0.51791775502E+03  0.14063698797E+04  0.46999998093E+01 0. -1.
</event>
<event>
 5   0  0.1078103E-05  0.2790130E+04  0.7818609E-02  0.8306339E-01
       -1   -1    0    0    0  501  0.00000000000E+00  0.00000000000E+00  0.76972213896E+03  0.76972213898E+03  0.50400001928E-02 0.  1.
        1   -1    0    0  501    0  0.00000000000E+00  0.00000000000E+00 -0.25284528309E+04  0.25284528309E+04  0.50400001928E-02 0. -1.
    10030    2    1    2    0    0  0.00000000000E+00  0.00000000000E+00 -0.17587306919E+04  0.32981749698E+04  0.27901298330E+04 0.  0.
        1    1    3    3  502    0 -0.20254129197E+02  0.70462686457E+03  0.54371020164E+03  0.89024155791E+03  0.50400001928E-02 0.  1.
       -1    1    3    3    0  502  0.20254129197E+02 -0.70462686457E+03 -0.23024408935E+04  0.24079334119E+04  0.50400001928E-02 0. -1.
</event>
<event>
 5   0  0.2651061E-05  0.1683120E+04  0.7818609E-02  0.8771051E-01
        2   -1    0    0  501    0  0.00000000000E+00  0.00000000000E+00  0.26075830786E+04  0.26075830786E+04  0.25500000920E-02 0. -1.
       -2   -1    0    0    0  501  0.00000000000E+00  0.00000000000E+00 -0.27160141075E+03  0.27160141076E+03  0.25500000920E-02 0.  1.
    10030    2    1    2    0    0  0.00000000000E+00  0.00000000000E+00  0.23359816679E+04  0.28791844894E+04  0.16831200109E+04 0.  0.
        3    1    3    3  502    0  0.32000425088E+03 -0.43751089065E+03  0.66789411118E+02  0.54614955429E+03  0.10100000352E+00 0.  1.
       -3    1    3    3    0  502 -0.32000425088E+03  0.43751089065E+03  0.22691922568E+04  0.23330349351E+04  0.10100000352E+00 0. -1.
</event>
<event>
 5   0  0.1078103E-05  0.2760131E+04  0.7818609E-02  0.8315754E-01
        1   -1    0    0  501    0  0.00000000000E+00  0.00000000000E+00  0.24213714121E+04  0.24213714121E+04  0.50400001928E-02 0.  1.
       -1   -1    0    0    0  501  0.00000000000E+00  0.00000000000E+00 -0.78657101160E+03  0.78657101162E+03  0.50400001928E-02 0. -1.
    10030    2    1    2    0    0  0.00000000000E+00  0.00000000000E+00  0.16348004005E+04  0.32079424237E+04  0.27601308383E+04 0.  0.
        1    1    3    3  502    0  0.28854658078E+03 -0.12203949007E+04  0.14870354098E+04  0.19452241909E+04  0.50400001928E-02 0.  1.
       -1    1    3    3    0  502 -0.28854658078E+03  0.12203949007E+04  0.14776499070E+03  0.12627182328E+04  0.50400001928E-02 0. -1.
</event>
<event>
 5   0  0.2588048E-05  0.2717961E+04  0.7818609E-02  0.8329201E-01
       -2   -1    0    0    0  501  0.00000000000E+00  0.00000000000E+00  0.19367629100E+04  0.19367629100E+04  0.25500000920E-02 0. -1.
        2   -1    0    0  501    0  0.00000000000E+00  0.00000000000E+00 -0.95356425134E+03  0.95356425134E+03  0.25500000920E-02 0.  1.
    10030    2    1    2    0    0  0.00000000000E+00  0.00000000000E+00  0.98319865863E+03  0.28903271613E+04  0.27179609079E+04 0.  0.
        2    1    3    3  502    0 -0.12660251326E+04  0.20961959155E+03  0.96725476762E+03  0.16069666440E+04  0.25500000920E-02 0. -1.
       -2    1    3    3    0  502  0.12660251326E+04 -0.20961959155E+03  0.15943891011E+02  0.12833605173E+04  0.25500000920E-02 0.  1.
</event>
<event>
 5   0  0.2518686E-05  0.2770593E+04  0.7818609E-02  0.8312456E-01
        2   -1    0    0  501    0  0.00000000000E+00  0.00000000000E+00  0.12129557463E+04  0.12129557463E+04  0.25500000920E-02 0. -1.
       -2   -1    0    0    0  501  0.00000000000E+00  0.00000000000E+00 -0.15821244763E+04  0.15821244763E+04  0.25500000920E-02 0.  1.
    10030    2    1    2    0    0  0.00000000000E+00  0.00000000000E+00 -0.36916873005E+03  0.27950802226E+04  0.27705934201E+04 0.  0.
        5    1    3    3  502    0 -0.27428402663E+03 -0.10654604632E+04 -0.10338002664E+04  0.15097028869E+04  0.46999998093E+01 0.  1.
       -5    1    3    3    0  502  0.27428402663E+03  0.10654604632E+04  0.66463153636E+03  0.12853773357E+04  0.46999998093E+01 0. -1.
</event>
<event>
 5   0  0.1078103E-05  0.2518132E+04  0.7818609E-02  0.8396554E-01
       -1   -1    0    0    0  501  0.00000000000E+00  0.00000000000E+00  0.97961934861E+03  0.97961934863E+03  0.50400001928E-02 0. -1.
        1   -1    0    0  501    0  0.00000000000E+00  0.00000000000E+00 -0.16182276170E+04  0.16182276170E+04  0.50400001928E-02 0.  1.
    10030    2    1    2    0    0  0.00000000000E+00  0.00000000000E+00 -0.63860826834E+03  0.25978469656E+04  0.25181319140E+04 0.  0.
        1    1    3    3  502    0  0.46238450119E+03 -0.97288810350E+03  0.35320324106E+03  0.11336062890E+04  0.50400001928E-02 0. -1.
       -1    1    3    3    0  502 -0.46238450119E+03  0.97288810350E+03 -0.99181150940E+03  0.14642406766E+04  0.50400001928E-02 0.  1.
</event>
<event>
 5   0  0.1067434E-05  0.1419117E+04  0.7818609E-02  0.8940096E-01
       -1   -1    0    0    0  501  0.00000000000E+00  0.00000000000E+00  0.60704453547E+03  0.60704453549E+03  0.50400001928E-02 0.  1.
        1   -1    0    0  501    0  0.00000000000E+00  0.00000000000E+00 -0.82938470221E+03  0.82938470222E+03  0.50400001928E-02 0. -1.
    10030    2    1    2    0    0  0.00000000000E+00  0.00000000000E+00 -0.22234016674E+03  0.14364292377E+04  0.14191172627E+04 0.  0.
        4    1    3    3  502    0  0.81571482106E+02  0.64174837640E+03  0.18389412408E+03  0.67254259871E+03  0.12699999809E+01 0.  1.
       -4    1    3    3    0  502 -0.81571482106E+02 -0.64174837640E+03 -0.40623429082E+03  0.76388663900E+03  0.12699999809E+01 0. -1.
</event>
<event>
 5   0  0.1017456E-05  0.2872674E+04  0.7818609E-02  0.8281054E-01
        1   -1    0    0  501    0  0.00000000000E+00  0.00000000000E+00  0.20397555070E+04  0.20397555070E+04  0.50400001928E-02 0. -1.
       -1   -1    0    0    0  501  0.00000000000E+00  0.00000000000E+00 -0.10114273511E+04  0.10114273511E+04  0.50400001928E-02 0.  1.
    10030    2    1    2    0    0  0.00000000000E+00  0.00000000000E+00  0.10283281559E+04  0.30511828581E+04  0.28726743702E+04 0.  0.
        5    1    3    3  502    0 -0.43611755456E+03  0.20563780229E+03  0.19512193208E+04  0.20099165045E+04  0.46999998093E+01 0. -1.
       -5    1    3    3    0  502  0.43611755456E+03 -0.20563780229E+03 -0.92289116483E+03  0.10412663537E+04  0.46999998093E+01 0.  1.
</event>
<event>
 5   0  0.8958000E-06  0.2922360E+04  0.7818609E-02  0.8266256E-01
       -3   -1    0    0    0  501  0.00000000000E+00  0.00000000000E+00  0.17780560866E+04  0.17780560895E+04  0.10100000352E+00 0. -1.
        3   -1    0    0  501    0  0.00000000000E+00  0.00000000000E+00 -0.12007757708E+04  0.12007757750E+04  0.10100000352E+00 0.  1.
    10030    2    1    2    0    0  0.00000000000E+00  0.00000000000E+00  0.57728031582E+03  0.29788318645E+04  0.29223597852E+04 0.  0.
        5    1    3    3  502    0  0.30025699691E+03 -0.13290488975E+04 -0.24928815434E+03  0.13851685494E+04  0.46999998093E+01 0.  1.
       -5    1    3    3    0  502 -0.30025699691E+03  0.13290488975E+04  0.82656847016E+03  0.15936633152E+04  0.46999998093E+01 0. -1.
</event>
<event>
 5   0  0.8958000E-06  0.3098694E+04  0.7818609E-02  0.8216096E-01
        3   -1    0    0  501    0  0.00000000000E+00  0.00000000000E+00  0.25307156503E+04  0.25307156523E+04  0.10100000352E+00 0. -1.
       -3   -1    0    0    0  501  0.00000000000E+00  0.00000000000E+00 -0.94853658073E+03  0.94853658611E+03  0.10100000352E+00 0.  1.
    10030    2    1    2    0    0  0.00000000000E+00  0.00000000000E+00  0.15821790696E+04  0.34792522385E+04  0.30986941654E+04 0.  0.
        4    1    3    3  502    0 -0.79442911147E+03 -0.29014569755E+03 -0.66648039293E+03  0.10768007550E+04  0.12699999809E+01 0.  1.
       -4    1    3    3    0  502  0.79442911147E+03  0.29014569755E+03  0.22486594625E+04  0.24024514834E+04  0.12699999809E+01 0. -1.
</event>
<event>
 5   0  0.1105862E-05  0.2731911E+04  0.7818609E-02  0.8324725E-01
        1   -1    0    0  501    0  0.00000000000E+00  0.00000000000E+00  0.12470104337E+04  0.12470104337E+04  0.50400001928E-02 0. -1.
       -1   -1    0    0    0  501  0.00000000000E+00  0.00000000000E+00 -0.14962462515E+04  0.14962462515E+04  0.50400001928E-02 0.  1.
    10030    2    1    2    0    0  0.00000000000E+00  0.00000000000E+00 -0.24923581779E+03  0.27432566853E+04  0.27319111897E+04 0.  0.
        3    1    3    3  502    0 -0.10147939787E+04  0.85907819433E+03 -0.43898757454E+03  0.14001900814E+04  0.10100000352E+00 0.  1.
       -3    1    3    3    0  502  0.10147939787E+04 -0.85907819433E+03  0.18975175675E+03  0.13430666039E+04  0.10100000352E+00 0. -1.
</event>
<event>
 5   0  0.2518686E-05  0.2804102E+04  0.7818609E-02  0.8301996E-01
       -2   -1    0    0    0  501  0.00000000000E+00  0.00000000000E+00  0.21351215142E+04  0.21351215142E+04  0.25500000920E-02 0.  1.
        2   -1    0    0  501    0  0.00000000000E+00  0.00000000000E+00 -0.92067213167E+03  0.92067213167E+03  0.25500000920E-02 0. -1.
    10030    2    1    2    0    0  0.00000000000E+00  0.00000000000E+00  0.12144493825E+04  0.30557936459E+04  0.28041019068E+04 0.  0.
        5    1    3    3  502    0 -0.42248553565E+03 -0.98504769431E+03  0.15921829247E+04  0.19193440400E+04  0.46999998093E+01 0.  1.
       -5    1    3    3    0  502  0.42248553565E+03  0.98504769431E+03 -0.37773354221E+03  0.11364496059E+04  0.46999998093E+01 0. -1.
</event>
<event>
 5   0  0.8958000E-06  0.1505930E+04  0.7818609E-02  0.8880519E-01
        3   -1    0    0  501    0  0.00000000000E+00  0.00000000000E+00  0.41018244109E+03  0.41018245352E+03  0.10100000352E+00 0. -1.
       -3   -1    0    0    0  501  0.00000000000E+00  0.00000000000E+00 -0.13822059041E+04  0.13822059078E+04  0.10100000352E+00 0.  1.
    10030    2    1    2    0    0  0.00000000000E+00  0.00000000000E+00 -0.97202346306E+03  0.17923883614E+04  0.15059304184E+04 0.  0.
        4    1    3    3  502    0  0.50196235417E+03 -0.56915572472E+02  0.17854188656E+03  0.53580258076E+03  0.12699999809E+01 0. -1.
       -4    1    3    3    0  502 -0.50196235417E+03  0.56915572472E+02 -0.11505653496E+04  0.12565857806E+04  0.12699999809E+01 0.  1.
</event>
<event>
 5   0  0.2518686E-05  0.2801382E+04  0.7818609E-02  0.8302839E-01
       -2   -1    0    0    0  501  0.00000000000E+00  0.00000000000E+00  0.10216732833E+04  0.10216732833E+04  0.25500000920E-02 0. -1.
        2   -1    0    0  501    0  0.00000000000E+00  0.00000000000E+00 -0.19203160905E+04  0.19203160905E+04  0.25500000920E-02 0.  1.
    10030    2    1    2    0    0  0.00000000000E+00  0.00000000000E+00 -0.89864280722E+03  0.29419893737E+04  0.28013822624E+04 0.  0.
        5    1    3    3  502    0  0.41951177038E+03  0.12417730393E+04 -0.96799630588E+03  0.16294260783E+04  0.46999998093E+01 0.  1.
       -5    1    3    3    0  502 -0.41951177038E+03 -0.12417730393E+04  0.69353498668E+02  0.13125632954E+04  0.46999998093E+01 0. -1.
</event>
<event>
 5   0  0.1067434E-05  0.2691336E+04  0.7818609E-02  0.8337822E-01
       -1   -1    0    0    0  501  0.00000000000E+00  0.00000000000E+00  0.23137016297E+04  0.23137016297E+04  0.50400001928E-02 0. -1.
        1   -1    0    0  501    0  0.00000000000E+00  0.00000000000E+00 -0.78265148909E+03  0.78265148910E+03  0.50400001928E-02 0.  1.
    10030    2    1    2    0    0  0.00000000000E+00  0.00000000000E+00  0.15310501406E+04  0.30963531188E+04  0.26913357470E+04 0.  0.
        4    1    3    3  502    0 -0.20552803825E+03  0.83443708634E+03  0.19568752024E+04  0.21372620795E+04  0.12699999809E+01 0. -1.
       -4    1    3    3    0  502  0.20552803825E+03 -0.83443708634E+03 -0.42582506181E+03  0.95909103934E+03  0.12699999809E+01 0.  1.
</event>
<event>
 5   0  0.1017456E-05  0.1573854E+04  0.7818609E-02  0.8836773E-01
       -1   -1    0    0    0  501  0.00000000000E+00  0.00000000000E+00  0.43439962711E+03  0.43439962714E+03  0.50400001928E-02 0. -1.
        1   -1    0    0  501    0  0.00000000000E+00  0.00000000000E+00 -0.14255405014E+04  0.14255405014E+04  0.50400001928E-02 0.  1.
    10030    2    1    2    0    0  0.00000000000E+00  0.00000000000E+00 -0.99114087430E+03  0.18599401286E+04  0.15738542020E+04 0.  0.
        5    1    3    3  502    0 -0.15025852535E+03  0.38773230202E+02  0.41612150787E+03  0.44413982835E+03  0.46999998093E+01 0. -1.
       -5    1    3    3    0  502  0.15025852535E+03 -0.38773230202E+02 -0.14072623822E+04  0.14158003002E+04  0.46999998093E+01 0.  1.
</event>
<event>
 5   0  0.2651061E-05  0.2761934E+04  0.7818609E-02  0.8315185E-01
       -2   -1    0    0    0  501  0.00000000000E+00  0.00000000000E+00  0.17190930652E+04  0.17190930652E+04  0.25500000920E-02 0.  1.
        2   -1    0    0  501    0  0.00000000000E+00  0.00000000000E+00 -0.11093465753E+04  0.11093465753E+04  0.25500000920E-02 0. -1.
    10030    2    1    2    0    0  0.00000000000E+00  0.00000000000E+00  0.60974648984E+03  0.28284396405E+04  0.27619341082E+04 0.  0.
        3    1    3    3  502    0  0.55526035960E+03  0.48983160215E+03 -0.88888041356E+03  0.11568740058E+04  0.10100000352E+00 0. -1.
       -3    1    3    3    0  502 -0.55526035960E+03 -0.48983160215E+03  0.14986269034E+04  0.16715656347E+04  0.10100000352E+00 0.  1.
</event>
<event>
 5   0  0.2518686E-05  0.2415380E+04  0.7818609E-02  0.8433768E-01
       -2   -1    0    0    0  501  0.00000000000E+00  0.00000000000E+00  0.11477735748E+04  0.11477735748E+04  0.25500000920E-02 0. -1.
        2   -1    0    0  501    0  0.00000000000E+00  0.00000000000E+00 -0.12707336884E+04  0.12707336884E+04  0.25500000920E-02 0.  1.
    10030    2    1    2    0    0  0.00000000000E+00  0.00000000000E+00 -0.12296011357E+03  0.24185072633E+04  0.24153795132E+04 0.  0.
        5    1    3    3  502    0 -0.10341060520E+04  0.56264172232E+03 -0.33118256613E+03  0.12229656645E+04  0.46999998093E+01 0.  1.
       -5    1    3    3    0  502  0.10341060520E+04 -0.56264172232E+03  0.20822245256E+03  0.11955415987E+04  0.46999998093E+01 0. -1.
</event>
<event>
 5   0  0.8958000E-06  0.2725458E+04  0.7818609E-02  0.8326792E-01
       -3   -1    0    0    0  501  0.00000000000E+00  0.00000000000E+00  0.11026178236E+04  0.11026178282E+04  0.10100000352E+00 0.  1.
        3   -1    0    0  501    0  0.00000000000E+00  0.00000000000E+00 -0.16842018418E+04  0.16842018449E+04  0.10100000352E+00 0. -1.
    10030    2    1    2    0    0  0.00000000000E+00  0.00000000000E+00 -0.58158401825E+03  0.27868196731E+04  0.27254584788E+04 0.  0.
        1    1    3    3  502    0  0.65649906937E+02 -0.62213027133E+03  0.94711532774E+03  0.11350697903E+04  0.50400001928E-02 0.  1.
       -1    1    3    3    0  502 -0.65649906937E+02  0.62213027133E+03 -0.15286993460E+04  0.16517498828E+04  0.50400001928E-02 0. -1.
</event>
<event>
 5   0  0.2624815E-05  0.1619180E+04  0.7818609E-02  0.8808851E-01
        2   -1    0    0  501    0  0.00000000000E+00  0.00000000000E+00  0.11868335878E+04  0.11868335878E+04  0.25500000920E-02 0.  1.
       -2   -1    0    0    0  501  0.00000000000E+00  0.00000000000E+00 -0.55225578388E+03  0.55225578389E+03  0.25500000920E-02 0. -1.
    10030    2    1    2    0    0  0.00000000000E+00  0.00000000000E+00  0.63457780390E+03  0.17390893717E+04  0.16191796854E+04 0.  0.
        4    1    3    3  502    0  0.58926337645E+02 -0.25458461403E+03 -0.50571296071E+03  0.56923883432E+03  0.12699999809E+01 0. -1.
       -4    1    3    3    0  502 -0.58926337645E+02  0.25458461403E+03  0.11402907646E+04  0.11698505373E+04  0.12699999809E+01 0.  1.
</event>
<event>
 5   0  0.1078103E-05  0.2149540E+04  0.7818609E-02  0.8539729E-01
        1   -1    0    0  501    0  0.00000000000E+00  0.00000000000E+00  0.11105913155E+04  0.11105913155E+04  0.50400001928E-02 0.  1.
       -1   -1    0    0    0  501  0.00000000000E+00  0.00000000000E+00 -0.10401045344E+04  0.10401045344E+04  0.50400001928E-02 0. -1.
    10030    2    1    2    0    0  0.00000000000E+00  0.00000000000E+00  0.70486781058E+02  0.21506958499E+04  0.21495404748E+04 0.  0.
        1    1    3    3  502    0  0.62485581162E+03 -0.76642158828E+03  0.45652104022E+03  0.10891548542E+04  0.50400001928E-02 0.  1.
       -1    1    3    3    0  502 -0.62485581162E+03  0.76642158828E+03 -0.38603425917E+03  0.10615409957E+04  0.50400001928E-02 0. -1.
</event>
<event>
 5   0  0.1067434E-05  0.2669905E+04  0.7818609E-02  0.8344836E-01
        1   -1    0    0  501    0  0.00000000000E+00  0.00000000000E+00  0.20089188934E+04  0.20089188934E+04  0.50400001928E-02 0.  1.
       -1   -1    0    0    0  501  0.00000000000E+00  0.00000000000E+00 -0.88709331155E+03  0.88709331157E+03  0.50400001928E-02 0. -1.
    10030    2    1    2    0    0  0.00000000000E+00  0.00000000000E+00  0.11218255818E+04  0.28960122049E+04  0.26699052521E+04 0.  0.
        4    1    3    3  502    0  0.12481488327E+03  0.11333101393E+04 -0.19224320503E+03  0.11562567577E+04  0.12699999809E+01 0. -1.
       -4    1    3    3    0  502 -0.12481488327E+03 -0.11333101393E+04  0.13140687868E+04  0.17397554473E+04  0.12699999809E+01 0.  1.
</event>
<event>
 5   0  0.1067434E-05  0.2801808E+04  0.7818609E-02  0.8302707E-01
       -1   -1    0    0    0  501  0.00000000000E+00  0.00000000000E+00  0.58077123157E+03  0.58077123160E+03  0.50400001928E-02 0.  1.
        1   -1    0    0  501    0  0.00000000000E+00  0.00000000000E+00 -0.33791820177E+04  0.33791820178E+04  0.50400001928E-02 0. -1.
    10030    2    1    2    0    0  0.00000000000E+00  0.00000000000E+00 -0.27984107862E+04  0.39599532493E+04  0.28018077751E+04 0.  0.
        4    1    3    3  502    0 -0.82135397886E+03  0.92711690456E+03 -0.23242382930E+04  0.26336767776E+04  0.12699999809E+01 0. -1.
       -4    1    3    3    0  502  0.82135397886E+03 -0.92711690456E+03 -0.47417249316E+03  0.13262764717E+04  0.12699999809E+01 0.  1.
</event>
<event>
 5   0  0.1067434E-05  0.2737989E+04  0.7818609E-02  0.8322783E-01
       -1   -1    0    0    0  501  0.00000000000E+00  0.00000000000E+00  0.13915184594E+04  0.13915184594E+04  0.50400001928E-02 0. -1.
        1   -1    0    0  501    0  0.00000000000E+00  0.00000000000E+00 -0.13468355492E+04  0.13468355492E+04  0.50400001928E-02 0.  1.
    10030    2    1    2    0    0  0.00000000000E+00  0.00000000000E+00  0.44682910172E+02  0.27383540086E+04  0.27379894291E+04 0.  0.
        4    1    3    3  502    0  0.62036231246E+03  0.68141408311E+02 -0.11962838656E+04  0.13492921663E+04  0.12699999809E+01 0.  1.
       -4    1    3    3    0  502 -0.62036231246E+03 -0.68141408311E+02  0.12409667757E+04  0.13890618423E+04  0.12699999809E+01 0. -1.
</event>
<event>
 5   0  0.1078103E-05  0.2788972E+04  0.7818609E-02  0.8306700E-01
        1   -1    0    0  501    0  0.00000000000E+00  0.00000000000E+00  0.19834324296E+04  0.19834324296E+04  0.50400001928E-02 0.  1.
       -1   -1    0    0    0  501  0.00000000000E+00  0.00000000000E+00 -0.98041709809E+03  0.98041709811E+03  0.50400001928E-02 0. -1.
    10030    2    1    2    0    0  0.00000000000E+00  0.00000000000E+00  0.10030153315E+04  0.29638495277E+04  0.27889719015E+04 0.  0.
        1    1    3    3  502    0 -0.10352488349E+04 -0.83731369913E+03  0.94192949684E+03  0.16309707410E+04  0.50400001928E-02 0.  1.
       -1    1    3    3    0  502  0.10352488349E+04  0.83731369913E+03  0.61085834628E+02  0.13328787867E+04  0.50400001928E-02 0. -1.
</event>
<event>
 5   0  0.1017456E-05  0.1793385E+04  0.7818609E-02  0.8709825E-01
       -1   -1    0    0    0  501  0.00000000000E+00  0.00000000000E+00  0.17606175640E+04  0.17606175640E+04  0.50400001928E-02 0. -1.
        1   -1    0    0  501    0  0.00000000000E+00  0.00000000000E+00 -0.45669081889E+03  0.45669081892E+03  0.50400001928E-02 0.  1.
    10030    2    1    2    0    0  0.00000000000E+00  0.00000000000E+00  0.13039267451E+04  0.22173083829E+04  0.17933854879E+04 0.  0.
        5    1    3    3  502    0  0.14171055407E+03 -0.51373853383E+03  0.15435534727E+04  0.16329692512E+04  0.46999998093E+01 0. -1.
       -5    1    3    3    0  502 -0.14171055407E+03  0.51373853383E+03 -0.23962672760E+03  0.58433913172E+03  0.46999998093E+01 0.  1.
</event>
<event>
 5   0  0.2624815E-05  0.2821601E+04  0.7818609E-02  0.8296593E-01
       -2   -1    0    0    0  501  0.00000000000E+00  0.00000000000E+00  0.92307872860E+03  0.92307872860E+03  0.25500000920E-02 0.  1.
        2   -1    0    0  501    0  0.00000000000E+00  0.00000000000E+00 -0.21562172223E+04  0.21562172223E+04  0.25500000920E-02 0. -1.
    10030    2    1    2    0    0  0.00000000000E+00  0.00000000000E+00 -0.12331384937E+04  0.30792959509E+04  0.28216011427E+04 0.  0.
        4    1    3    3  502    0  0.52394656680E+03  0.78141100088E+03  0.53074615813E+03  0.10801926932E+04  0.12699999809E+01 0.  1.
       -4    1    3    3    0  502 -0.52394656680E+03 -0.78141100088E+03 -0.17638846518E+04  0.19991032577E+04  0.12699999809E+01 0. -1.
</event>
<event>
 5   0  0.1017456E-05  0.2190657E+04  0.7818609E-02  0.8522327E-01
       -1   -1    0    0    0  501  0.00000000000E+00  0.00000000000E+00  0.99618102413E+03  0.99618102415E+03  0.50400001928E-02 0.  1.
        1   -1    0    0  501    0  0.00000000000E+00  0.00000000000E+00 -0.12043438848E+04  0.12043438848E+04  0.50400001928E-02 0. -1.
    10030    2    1    2    0    0  0.00000000000E+00  0.00000000000E+00 -0.20816286069E+03  0.22005249090E+04  0.21906570016E+04 0.  0.
        5    1    3    3  502    0 -0.25642647935E+03 -0.94934699129E+03  0.38048992156E+03  0.10544235011E+04  0.46999998093E+01 0.  1.
       -5    1    3    3    0  502  0.25642647935E+03  0.94934699129E+03 -0.58865278225E+03  0.11461014079E+04  0.46999998093E+01 0. -1.
</event>
<event>
 5   0  0.2624815E-05  0.2630991E+04  0.7818609E-02  0.8357750E-01
       -2   -1    0    0    0  501  0.00000000000E+00  0.00000000000E+00  0.63809013058E+03  0.63809013059E+03  0.25500000920E-02 0.  1.
        2   -1    0    0  501    0  0.00000000000E+00  0.00000000000E+00 -0.27120429263E+04  0.27120429263E+04  0.25500000920E-02 0. -1.
    10030    2    1    2    0    0  0.00000000000E+00  0.00000000000E+00 -0.20739527957E+04  0.33501330569E+04  0.26309905549E+04 0.  0.
        4    1    3    3  502    0  0.76763428855E+03 -0.93586477436E+02 -0.23920500612E+04  0.25139462878E+04  0.12699999809E+01 0. -1.
       -4    1    3    3    0  502 -0.76763428855E+03  0.93586477436E+02  0.31809726544E+03  0.83618676914E+03  0.12699999809E+01 0.  1.
</event>
<event>
 5   0  0.1078103E-05  0.2809502E+04  0.7818609E-02  0.8300324E-01
        1   -1    0    0  501    0  0.00000000000E+00  0.00000000000E+00  0.12590455258E+04  0.12590455258E+04  0.50400001928E-02 0.  1.
       -1   -1    0    0    0  501  0.00000000000E+00  0.00000000000E+00 -0.15673187930E+04  0.15673187930E+04  0.50400001928E-02 0. -1.
    10030    2    1    2    0    0  0.00000000000E+00  0.00000000000E+00 -0.30827326720E+03  0.28263643188E+04  0.28095022433E+04 0.  0.
        1    1    3    3  502    0 -0.14059428541E+03 -0.60219512314E+03 -0.14230235768E+04  0.15515804264E+04  0.50400001928E-02 0. -1.
       -1    1    3    3    0  502  0.14059428541E+03  0.60219512314E+03  0.11147503096E+04  0.12747838924E+04  0.50400001928E-02 0.  1.
</event>
<event>
 5   0  0.2697964E-05  0.2821329E+04  0.7818609E-02  0.8296677E-01
        2   -1    0    0  501    0  0.00000000000E+00  0.00000000000E+00  0.94794409011E+03  0.94794409011E+03  0.25500000920E-02 0. -1.
       -2   -1    0    0    0  501  0.00000000000E+00  0.00000000000E+00 -0.20992528078E+04  0.20992528078E+04  0.25500000920E-02 0.  1.
    10030    2    1    2    0    0  0.00000000000E+00  0.00000000000E+00 -0.11513087177E+04  0.30471968979E+04  0.28213289725E+04 0.  0.
        1    1    3    3  502    0  0.11651815281E+04 -0.17601457429E+03 -0.14132004229E+04  0.18400447165E+04  0.50400001928E-02 0.  1.
       -1    1    3    3    0  502 -0.11651815281E+04  0.17601457429E+03  0.26189170517E+03  0.12071521814E+04  0.50400001928E-02 0. -1.
</event>
<event>
 5   0  0.1105862E-05  0.1783774E+04  0.7818609E-02  0.8714976E-01
       -1   -1    0    0    0  501  0.00000000000E+00  0.00000000000E+00  0.57100790806E+03  0.57100790808E+03  0.50400001928E-02 0.  1.
        1   -1    0    0  501    0  0.00000000000E+00  0.00000000000E+00 -0.13930846501E+04  0.13930846501E+04  0.50400001928E-02 0. -1.
    10030    2    1    2    0    0  0.00000000000E+00  0.00000000000E+00 -0.82207674208E+03  0.19640925582E+04  0.17837739227E+04 0.  0.
        3    1    3    3  502    0 -0.85127866049E+03 -0.25289225218E+03 -0.32002363258E+03  0.94395179148E+03  0.10100000352E+00 0.  1.
       -3    1    3    3    0  502  0.85127866049E+03  0.25289225218E+03 -0.50205310950E+03  0.10201407667E+04  0.10100000352E+00 0. -1.
</event>
<event>
 5   0  0.2588048E-05  0.2817918E+04  0.7818609E-02  0.8297727E-01
       -2   -1    0    0    0  501  0.00000000000E+00  0.00000000000E+00  0.11698545563E+04  0.11698545563E+04  0.25500000920E-02 0. -1.
        2   -1    0    0  501    0  0.00000000000E+00  0.00000000000E+00 -0.16969339997E+04  0.16969339997E+04  0.25500000920E-02 0.  1.
    10030    2    1    2    0    0  0.00000000000E+00  0.00000000000E+00 -0.52707944337E+03  0.28667885560E+04  0.28179183603E+04 0.  0.
        2    1    3    3  502    0 -0.33561971828E+03  0.12585824911E+04 -0.80997253254E+03  0.15338598325E+04  0.25500000920E-02 0.  1.
       -2    1    3    3    0  502  0.33561971828E+03 -0.12585824911E+04  0.28289308917E+03  0.13329287236E+04  0.25500000920E-02 0. -1.
</event>
<event>
 5   0  0.1078103E-05  0.1916328E+04  0.7818609E-02  0.8646771E-01
        1   -1    0    0  501    0  0.00000000000E+00  0.00000000000E+00  0.14126118467E+04  0.14126118467E+04  0.50400001928E-02 0.  1.
       -1   -1    0    0    0  501  0.00000000000E+00  0.00000000000E+00 -0.64991549237E+03  0.64991549239E+03  0.50400001928E-02 0. -1.
    10030    2    1    2    0    0  0.00000000000E+00  0.00000000000E+00  0.76269635428E+03  0.20625273391E+04  0.19163280762E+04 0.  0.
        1    1    3    3  502    0  0.37264133019E+03  0.44321646897E+03  0.12029864337E+04  0.13350950375E+04  0.50400001928E-02 0.  1.
       -1    1    3    3    0  502 -0.37264133019E+03 -0.44321646897E+03 -0.44029007943E+03  0.72743230160E+03  0.50400001928E-02 0. -1.
</event>
<event>
 5   0  0.1105862E-05  0.2428908E+04  0.7818609E-02  0.8428760E-01
        1   -1    0    0  501    0  0.00000000000E+00  0.00000000000E+00  0.21105214829E+04  0.21105214829E+04  0.50400001928E-02 0. -1.
       -1   -1    0    0    0  501  0.00000000000E+00  0.00000000000E+00 -0.69883126348E+03  0.69883126350E+03  0.50400001928E-02 0.  1.
    10030    2    1    2    0    0  0.00000000000E+00  0.00000000000E+00  0.14116902194E+04  0.28093527464E+04  0.24289078982E+04 0.  0.
        3    1    3    3  502    0 -0.56740380083E+03  0.10623452663E+04  0.52527026056E+03  0.13139381244E+04  0.10100000352E+00 0.  1.
       -3    1    3    3    0  502  0.56740380083E+03 -0.10623452663E+04  0.88641995884E+03  0.14954146220E+04  0.10100000352E+00 0. -1.
</event>
<event>
 5   0  0.1078103E-05  0.1661538E+04  0.7818609E-02  0.8783610E-01
        1   -1    0    0  501    0  0.00000000000E+00  0.00000000000E+00  0.11761924148E+04  0.11761924148E+04  0.50400001928E-02 0. -1.
       -1   -1    0    0    0  501  0.00000000000E+00  0.00000000000E+00 -0.58678943714E+03  0.58678943716E+03  0.50400001928E-02 0.  1.
    10030    2    1    2    0    0  0.00000000000E+00  0.00000000000E+00  0.58940297766E+03  0.17629818520E+04  0.16615381850E+04 0.  0.
        1    1    3    3  502    0  0.42572882749E+03  0.32194721181E+03 -0.38078443492E+03  0.65566136660E+03  0.50400001928E-02 0.  1.
       -1    1    3    3    0  502 -0.42572882749E+03 -0.32194721181E+03  0.97018741258E+03  0.11073204854E+04  0.50400001928E-02 0. -1.
</event>
<event>
 5   0  0.2518686E-05  0.2820631E+04  0.7818609E-02  0.8296892E-01
        2   -1    0    0  501    0  0.00000000000E+00  0.00000000000E+00  0.13797706678E+04  0.13797706678E+04  0.25500000920E-02 0. -1.
       -2   -1    0    0    0  501  0.00000000000E+00  0.00000000000E+00 -0.14415360631E+04  0.14415360631E+04  0.25500000920E-02 0.  1.
    10030    2    1    2    0    0  0.00000000000E+00  0.00000000000E+00 -0.61765395226E+02  0.28213067309E+04  0.28206305511E+04 0.  0.
        5    1    3    3  502    0  0.15847516316E+03 -0.10661240265E+04 -0.94062383425E+03  0.14305698532E+04  0.46999998093E+01 0.  1.
       -5    1    3    3    0  502 -0.15847516316E+03  0.10661240265E+04  0.87885843902E+03  0.13907368777E+04  0.46999998093E+01 0. -1.
</event>
<event>
 5   0  0.2651061E-05  0.2627063E+04  0.7818609E-02  0.8359066E-01
        2   -1    0    0  501    0  0.00000000000E+00  0.00000000000E+00  0.14379107120E+04  0.14379107120E+04  0.25500000920E-02 0. -1.
       -2   -1    0    0    0  501  0.00000000000E+00  0.00000000000E+00 -0.11999107819E+04  0.11999107819E+04  0.25500000920E-02 0.  1.
    10030    2    1    2    0    0  0.00000000000E+00  0.00000000000E+00  0.23799993012E+03  0.26378214939E+04  0.26270626690E+04 0.  0.
        3    1    3    3  502    0  0.78992002884E+03 -0.31331103666E+03  0.11247141995E+04  0.14096522615E+04  0.10100000352E+00 0. -1.
       -3    1    3    3    0  502 -0.78992002884E+03  0.31331103666E+03 -0.88671426938E+03  0.12281692324E+04  0.10100000352E+00 0.  1.
</event>
<event>
 5   0  0.2697964E-05  0.2832303E+04  0.7818609E-02  0.8293309E-01
        2   -1    0    0  501    0  0.00000000000E+00  0.00000000000E+00  0.16643984382E+04  0.16643984382E+04  0.25500000920E-02 0. -1.
       -2   -1    0    0    0  501  0.00000000000E+00  0.00000000000E+00 -0.12049306634E+04  0.12049306634E+04  0.25500000920E-02 0.  1.
    10030    2    1    2    0    0  0.00000000000E+00  0.00000000000E+00  0.45946777475E+03  0.28693291016E+04  0.28323027482E+04 0.  0.
        1    1    3    3  502    0 -0.78371169031E+03 -0.49828725833E+03 -0.85334976655E+03  0.12612295705E+04  0.50400001928E-02 0.  1.
       -1    1    3    3    0  502  0.78371169031E+03  0.49828725833E+03  0.13128175413E+04  0.16080995311E+04  0.50400001928E-02 0. -1.
</event>
<event>
 5   0  0.1075146E-05  0.2773395E+04  0.7818609E-02  0.8311576E-01
       -1   -1    0    0    0  501  0.00000000000E+00  0.00000000000E+00  0.12244749297E+04  0.12244749297E+04  0.50400001928E-02 0.  1.
        1   -1    0    0  501    0  0.00000000000E+00  0.00000000000E+00 -0.15704124256E+04  0.15704124257E+04  0.50400001928E-02 0. -1.
    10030    2    1    2    0    0  0.00000000000E+00  0.00000000000E+00 -0.34593749594E+03  0.27948873554E+04  0.27733954962E+04 0.  0.
        2    1    3    3  502    0 -0.90962692224E+03  0.75456918269E+03  0.55800375410E+03  0.13069674742E+04  0.25500000920E-02 0.  1.
       -2    1    3    3    0  502  0.90962692224E+03 -0.75456918269E+03 -0.90394125004E+03  0.14879198811E+04  0.25500000920E-02 0. -1.
</event>
<event>
 5   0  0.1078103E-05  0.2733536E+04  0.7818609E-02  0.8324205E-01
       -1   -1    0    0    0  501  0.00000000000E+00  0.00000000000E+00  0.11161866009E+04  0.11161866009E+04  0.50400001928E-02 0.  1.
        1   -1    0    0  501    0  0.00000000000E+00  0.00000000000E+00 -0.16736046048E+04  0.16736046048E+04  0.50400001928E-02 0. -1.
    10030    2    1    2    0    0  0.00000000000E+00  0.00000000000E+00 -0.55741800391E+03  0.27897912057E+04  0.27335361970E+04 0.  0.
        1    1    3    3  502    0 -0.23117502503E+03 -0.74405475202E+03  0.86734127184E+03  0.11659074783E+04  0.50400001928E-02 0.  1.
       -1    1    3    3    0  502  0.23117502503E+03  0.74405475202E+03 -0.14247592757E+04  0.16238837274E+04  0.50400001928E-02 0. -1.
</event>
<event>
 5   0  0.2518686E-05  0.2983849E+04  0.7818609E-02  0.8248358E-01
       -2   -1    0    0    0  501  0.00000000000E+00  0.00000000000E+00  0.79048470141E+03  0.79048470141E+03  0.25500000920E-02 0. -1.
        2   -1    0    0  501    0  0.00000000000E+00  0.00000000000E+00 -0.28157904894E+04  0.28157904894E+04  0.25500000920E-02 0.  1.
    10030    2    1    2    0    0  0.00000000000E+00  0.00000000000E+00 -0.20253057880E+04  0.36062751908E+04  0.29838493958E+04 0.  0.
        5    1    3    3  502    0  0.88236121731E+03  0.68789377571E+03  0.18016565743E+03  0.11332435390E+04  0.46999998093E+01 0. -1.
       -5    1    3    3    0  502 -0.88236121731E+03 -0.68789377571E+03 -0.22054714454E+04  0.24730316518E+04  0.46999998093E+01 0.  1.
</event>
<event>
 5   0  0.1017456E-05  0.2745990E+04  0.7818609E-02  0.8320235E-01
        1   -1    0    0  501    0  0.00000000000E+00  0.00000000000E+00  0.17363656678E+04  0.17363656678E+04  0.50400001928E-02 0. -1.
       -1   -1    0    0    0  501  0.00000000000E+00  0.00000000000E+00 -0.10856674652E+04  0.10856674653E+04  0.50400001928E-02 0.  1.
    10030    2    1    2    0    0  0.00000000000E+00  0.00000000000E+00  0.65069820253E+03  0.28220331330E+04  0.27459903229E+04 0.  0.
        5    1    3    3  502    0 -0.14572412282E+03  0.11684030057E+04 -0.40038834623E+03  0.12436776196E+04  0.46999998093E+01 0. -1.
       -5    1    3    3    0  502  0.14572412282E+03 -0.11684030057E+04  0.10510865488E+04  0.15783555134E+04  0.46999998093E+01 0.  1.
</event>
<event>
 5   0  0.1067434E-05  0.2795868E+04  0.7818609E-02  0.8304552E-01
       -1   -1    0    0    0  501  0.00000000000E+00  0.00000000000E+00  0.14702243619E+04  0.14702243619E+04  0.50400001928E-02 0. -1.
        1   -1    0    0  501    0  0.00000000000E+00  0.00000000000E+00 -0.13291978981E+04  0.13291978981E+04  0.50400001928E-02 0.  1.
    10030    2    1    2    0    0  0.00000000000E+00  0.00000000000E+00  0.14102646382E+03  0.27994222600E+04  0.27958677591E+04 0.  0.
        4    1    3    3  502    0  0.26096800541E+03  0.10968793915E+04 -0.75695670449E+03  0.13580256863E+04  0.12699999809E+01 0.  1.
       -4    1    3    3    0  502 -0.26096800541E+03 -0.10968793915E+04  0.89798316831E+03  0.14413965737E+04  0.12699999809E+01 0. -1.
</event>
<event>
 5   0  0.2518686E-05  0.2768031E+04  0.7818609E-02  0.8313263E-01
        2   -1    0    0  501    0  0.00000000000E+00  0.00000000000E+00  0.16923620211E+04  0.16923620211E+04  0.25500000920E-02 0.  1.
       -2   -1    0    0    0  501  0.00000000000E+00  0.00000000000E+00 -0.11318491479E+04  0.11318491479E+04  0.25500000920E-02 0. -1.
    10030    2    1    2    0    0  0.00000000000E+00  0.00000000000E+00  0.56051287326E+03  0.28242111690E+04  0.27680307163E+04 0.  0.
        5    1    3    3  502    0 -0.98992413821E+01  0.85661782532E+03 -0.82881270587E+03  0.11919918981E+04  0.46999998093E+01 0. -1.
       -5    1    3    3    0  502  0.98992413821E+01 -0.85661782532E+03  0.13893255791E+04  0.16322192710E+04  0.46999998093E+01 0.  1.
</event>
<event>
 5   0  0.1017456E-05  0.2791347E+04  0.7818609E-02  0.8305960E-01
        1   -1    0    0  501    0  0.00000000000E+00  0.00000000000E+00  0.17466724081E+04  0.17466724081E+04  0.50400001928E-02 0.  1.
       -1   -1    0    0    0  501  0.00000000000E+00  0.00000000000E+00 -0.11152090309E+04  0.11152090309E+04  0.50400001928E-02 0. -1.
    10030    2    1    2    0    0  0.00000000000E+00  0.00000000000E+00  0.63146337715E+03  0.28618814390E+04  0.27913472328E+04 0.  0.
        5    1    3    3  502    0 -0.96061545744E+03  0.69662234631E+03  0.10690203939E+04  0.15971510395E+04  0.46999998093E+01 0.  1.
       -5    1    3    3    0  502  0.96061545744E+03 -0.69662234631E+03 -0.43755701673E+03  0.12647303995E+04  0.46999998093E+01 0. -1.
</event>
<event>
 5   0  0.2518686E-05  0.2151419E+04  0.7818609E-02  0.8538925E-01
       -2   -1    0    0    0  501  0.00000000000E+00  0.00000000000E+00  0.11288585945E+04  0.11288585945E+04  0.25500000920E-02 0. -1.
        2   -1    0    0  501    0  0.00000000000E+00  0.00000000000E+00 -0.10250625871E+04  0.10250625871E+04  0.25500000920E-02 0.  1.
    10030    2    1    2    0    0  0.00000000000E+00  0.00000000000E+00  0.10379600745E+03  0.21539211816E+04  0.21514187983E+04 0.  0.
        5    1    3    3  502    0 -0.10282707677E+03 -0.14008642751E+03  0.11147028162E+04  0.11281764371E+04  0.46999998093E+01 0. -1.
       -5    1    3    3    0  502  0.10282707677E+03  0.14008642751E+03 -0.10109068087E+04  0.10257447445E+04  0.46999998093E+01 0.  1.
</event>
<event>
 5   0  0.2624815E-05  0.2827139E+04  0.7818609E-02  0.8294892E-01
       -2   -1    0    0    0  501  0.00000000000E+00  0.00000000000E+00  0.12964208787E+04  0.12964208787E+04  0.25500000920E-02 0. -1.
        2   -1    0    0  501    0  0.00000000000E+00  0.00000000000E+00 -0.15413039904E+04  0.15413039904E+04  0.25500000920E-02 0.  1.
    10030    2    1    2    0    0  0.00000000000E+00  0.00000000000E+00 -0.24488311164E+03  0.28377248691E+04  0.28271389591E+04 0.  0.
        4    1    3    3  502    0  0.29331636293E+03  0.25693045899E+02 -0.15101821329E+04  0.15386183116E+04  0.12699999809E+01 0.  1.
       -4    1    3    3    0  502 -0.29331636293E+03 -0.25693045899E+02  0.12652990213E+04  0.12991065574E+04  0.12699999809E+01 0. -1.
</event>
<event>
 5   0  0.2697964E-05  0.2867075E+04  0.7818609E-02  0.8282741E-01
        2   -1    0    0  501    0  0.00000000000E+00  0.00000000000E+00  0.13682567309E+04  0.13682567309E+04  0.25500000920E-02 0. -1.
       -2   -1    0    0    0  501  0.00000000000E+00  0.00000000000E+00 -0.15019333865E+04  0.15019333865E+04  0.25500000920E-02 0.  1.
    10030    2    1    2    0    0  0.00000000000E+00  0.00000000000E+00 -0.13367665564E+03  0.28701901173E+04  0.28670754893E+04 0.  0.
        1    1    3    3  502    0  0.78001171803E+03  0.52273797248E+03 -0.11512312083E+04  0.14855997318E+04  0.50400001928E-02 0.  1.
       -1    1    3    3    0  502 -0.78001171803E+03 -0.52273797248E+03  0.10175545526E+04  0.13845903856E+04  0.50400001928E-02 0. -1.
</event>
<event>
 5   0  0.2697964E-05  0.2823728E+04  0.7818609E-02  0.8295940E-01
        2   -1    0    0  501    0  0.00000000000E+00  0.00000000000E+00  0.16947027025E+04  0.16947027025E+04  0.25500000920E-02 0. -1.
       -2   -1    0    0    0  501  0.00000000000E+00  0.00000000000E+00 -0.11762295197E+04  0.11762295198E+04  0.25500000920E-02 0.  1.
    10030    2    1    2    0    0  0.00000000000E+00  0.00000000000E+00  0.51847318272E+03  0.28709322222E+04  0.28237275689E+04 0.  0.
        1    1    3    3  502    0 -0.24032538345E+03  0.12741432629E+04 -0.30881811715E+03  0.13328788294E+04  0.50400001928E-02 0. -1.
       -1    1    3    3    0  502  0.24032538345E+03 -0.12741432629E+04  0.82729129987E+03  0.15380533928E+04  0.50400001928E-02 0.  1.
</event>
<event>
 5   0  0.1075146E-05  0.3013428E+04  0.7818609E-02  0.8239907E-01
        1   -1    0    0  501    0  0.00000000000E+00  0.00000000000E+00  0.20502258044E+04  0.20502258044E+04  0.50400001928E-02 0.  1.
       -1   -1    0    0    0  501  0.00000000000E+00  0.00000000000E+00 -0.11072860296E+04  0.11072860296E+04  0.50400001928E-02 0. -1.
    10030    2    1    2    0    0  0.00000000000E+00  0.00000000000E+00  0.94293977478E+03  0.31575118340E+04  0.30134275440E+04 0.  0.
        2    1    3    3  502    0 -0.44880326020E+03  0.14088515773E+04  0.16796667541E+03  0.14881195978E+04  0.25500000920E-02 0.  1.
       -2    1    3    3    0  502  0.44880326020E+03 -0.14088515773E+04  0.77497309937E+03  0.16693922361E+04  0.25500000920E-02 0. -1.
</event>
<event>
 5   0  0.2697964E-05  0.2776871E+04  0.7818609E-02  0.8310485E-01
        2   -1    0    0  501    0  0.00000000000E+00  0.00000000000E+00  0.15069612124E+04  0.15069612124E+04  0.25500000920E-02 0.  1.
       -2   -1    0    0    0  501  0.00000000000E+00  0.00000000000E+00 -0.12792318229E+04  0.12792318229E+04  0.25500000920E-02 0. -1.
    10030    2    1    2    0    0  0.00000000000E+00  0.00000000000E+00  0.22772938948E+03  0.27861930354E+04  0.27768707128E+04 0.  0.
        1    1    3    3  502    0 -0.12178057548E+03 -0.11593354123E+04 -0.64289784690E+03  0.13312425580E+04  0.50400001928E-02 0. -1.
       -1    1    3    3    0  502  0.12178057548E+03  0.11593354123E+04  0.87062723638E+03  0.14549504773E+04  0.50400001928E-02 0.  1.
</event>
<event>
 5   0  0.1017456E-05  0.2847112E+04  0.7818609E-02  0.8288790E-01
       -1   -1    0    0    0  501  0.00000000000E+00  0.00000000000E+00  0.19234237506E+04  0.19234237506E+04  0.50400001928E-02 0. -1.
        1   -1    0    0  501    0  0.00000000000E+00  0.00000000000E+00 -0.10535957428E+04  0.10535957428E+04  0.50400001928E-02 0.  1.
    10030    2    1    2    0    0  0.00000000000E+00  0.00000000000E+00  0.86982800784E+03  0.29770194935E+04  0.28471115716E+04 0.  0.
        5    1    3    3  502    0  0.12308722353E+03 -0.12656947421E+04 -0.23408800555E+03  0.12930401885E+04  0.46999998093E+01 0.  1.
       -5    1    3    3    0  502 -0.12308722353E+03  0.12656947421E+04  0.11039160134E+04  0.16839793049E+04  0.46999998093E+01 0. -1.
</event>
<event>
 5   0  0.1105862E-05  0.2753973E+04  0.7818609E-02  0.8317702E-01
        1   -1    0    0  501    0  0.00000000000E+00  0.00000000000E+00  0.24466378424E+04  0.24466378424E+04  0.50400001928E-02 0.  1.
       -1   -1    0    0    0  501  0.00000000000E+00  0.00000000000E+00 -0.77497881920E+03  0.77497881921E+03  0.50400001928E-02 0. -1.
    10030    2    1    2    0    0  0.00000000000E+00  0.00000000000E+00  0.16716590232E+04  0.32216166616E+04  0.27539734974E+04 0.  0.
        3    1    3    3  502    0  0.36116357440E+03 -0.83571141826E+03  0.20443252166E+04  0.22378825491E+04  0.10100000352E+00 0.  1.
       -3    1    3    3    0  502 -0.36116357440E+03  0.83571141826E+03 -0.37266619346E+03  0.98373411247E+03  0.10100000352E+00 0. -1.
</event>
<event>
 5   0  0.2624815E-05  0.2875192E+04  0.7818609E-02  0.8280297E-01
        2   -1    0    0  501    0  0.00000000000E+00  0.00000000000E+00  0.15574334936E+04  0.15574334936E+04  0.25500000920E-02 0. -1.
       -2   -1    0    0    0  501  0.00000000000E+00  0.00000000000E+00 -0.13269796933E+04  0.13269796933E+04  0.25500000920E-02 0.  1.
    10030    2    1    2    0    0  0.00000000000E+00  0.00000000000E+00  0.23045380023E+03  0.28844131869E+04  0.28751922507E+04 0.  0.
        4    1    3    3  502    0  0.15859100044E+03  0.10649999497E+04  0.10708073088E+04  0.15185538857E+04  0.12699999809E+01 0. -1.
       -4    1    3    3    0  502 -0.15859100044E+03 -0.10649999497E+04 -0.84035350860E+03  0.13658593012E+04  0.12699999809E+01 0.  1.
</event>
<event>
 5   0  0.1067434E-05  0.2786989E+04  0.7818609E-02  0.8307319E-01
        1   -1    0    0  501    0  0.00000000000E+00  0.00000000000E+00  0.15357470538E+04  0.15357470539E+04  0.50400001928E-02 0.  1.
       -1   -1    0    0    0  501  0.00000000000E+00  0.00000000000E+00 -0.12644180709E+04  0.12644180710E+04  0.50400001928E-02 0. -1.
    10030    2    1    2    0    0  0.00000000000E+00  0.00000000000E+00  0.27132898290E+03  0.28001651248E+04  0.27869885736E+04 0.  0.
        4    1    3    3  502    0 -0.78458571289E+03  0.37882224119E+03  0.12283464508E+04  0.15059607058E+04  0.12699999809E+01 0.  1.
       -4    1    3    3    0  502  0.78458571289E+03 -0.37882224119E+03 -0.95701746793E+03  0.12942044190E+04  0.12699999809E+01 0. -1.
</event>
<event>
 5   0  0.2651061E-05  0.2741582E+04  0.7818609E-02  0.8321638E-01
        2   -1    0    0  501    0  0.00000000000E+00  0.00000000000E+00  0.15059978618E+04  0.15059978618E+04  0.25500000920E-02 0.  1.
       -2   -1    0    0    0  501  0.00000000000E+00  0.00000000000E+00 -0.12477225990E+04  0.12477225990E+04  0.25500000920E-02 0. -1.
    10030    2    1    2    0    0  0.00000000000E+00  0.00000000000E+00  0.25827526274E+03  0.27537204608E+04  0.27415817086E+04 0.  0.
        3    1    3    3  502    0  0.10875777769E+04  0.18069043781E+03 -0.68908142252E+03  0.13001183301E+04  0.10100000352E+00 0. -1.
       -3    1    3    3    0  502 -0.10875777769E+04 -0.18069043781E+03  0.94735668526E+03  0.14536021307E+04  0.10100000352E+00 0.  1.
</event>
<event>
 5   0  0.2651061E-05  0.2832455E+04  0.7818609E-02  0.8293263E-01
       -2   -1    0    0    0  501  0.00000000000E+00  0.00000000000E+00  0.77585164224E+03  0.77585164225E+03  0.25500000920E-02 0. -1.
        2   -1    0    0  501    0  0.00000000000E+00  0.00000000000E+00 -0.25851588725E+04  0.25851588725E+04  0.25500000920E-02 0.  1.
    10030    2    1    2    0    0  0.00000000000E+00  0.00000000000E+00 -0.18093072302E+04  0.33610105147E+04  0.28324545939E+04 0.  0.
        3    1    3    3  502    0 -0.99031369469E+03  0.64454146317E+03 -0.18310774976E+04  0.21792199807E+04  0.10100000352E+00 0.  1.
       -3    1    3    3    0  502  0.99031369469E+03 -0.64454146317E+03  0.21770267403E+02  0.11817905341E+04  0.10100000352E+00 0. -1.
</event>
<event>
 5   0  0.2651061E-05  0.2712097E+04  0.7818609E-02  0.8331091E-01
       -2   -1    0    0    0  501  0.00000000000E+00  0.00000000000E+00  0.11008877385E+04  0.11008877385E+04  0.25500000920E-02 0. -1.
        2   -1    0    0  501    0  0.00000000000E+00  0.00000000000E+00 -0.16703498393E+04  0.16703498393E+04  0.25500000920E-02 0.  1.
    10030    2    1    2    0    0  0.00000000000E+00  0.00000000000E+00 -0.56946210085E+03  0.27712375778E+04  0.27120970905E+04 0.  0.
        3    1    3    3  502    0  0.11152456048E+04 -0.22487092408E+03  0.46928157335E+03  0.12306766013E+04  0.10100000352E+00 0. -1.
       -3    1    3    3    0  502 -0.11152456048E+04  0.22487092408E+03 -0.10387436742E+04  0.15405609766E+04  0.10100000352E+00 0.  1.
</event>
<event>
 5   0  0.1075146E-05  0.2768113E+04  0.7818609E-02  0.8313237E-01
       -1   -1    0    0    0  501  0.00000000000E+00  0.00000000000E+00  0.79589220665E+03  0.79589220666E+03  0.50400001928E-02 0. -1.
        1   -1    0    0  501    0  0.00000000000E+00  0.00000000000E+00 -0.24068739642E+04  0.24068739642E+04  0.50400001928E-02 0.  1.
    10030    2    1    2    0    0  0.00000000000E+00  0.00000000000E+00 -0.16109817575E+04  0.32027661708E+04  0.27681128810E+04 0.  0.
        2    1    3    3  502    0 -0.44743935804E+03 -0.66773585966E+03 -0.21091512749E+04  0.22571203463E+04  0.25500000920E-02 0.  1.
       -2    1    3    3    0  502  0.44743935804E+03  0.66773585966E+03  0.49816951736E+03  0.94564582452E+03  0.25500000920E-02 0. -1.
</event>
<event>
 5   0  0.2518686E-05  0.2830516E+04  0.7818609E-02  0.8293856E-01
        2   -1    0    0  501    0  0.00000000000E+00  0.00000000000E+00  0.14754420839E+04  0.14754420839E+04  0.25500000920E-02 0.  1.
       -2   -1    0    0    0  501  0.00000000000E+00  0.00000000000E+00 -0.13575292850E+04  0.13575292850E+04  0.25500000920E-02 0. -1.
    10030    2    1    2    0    0  0.00000000000E+00  0.00000000000E+00  0.11791279892E+03  0.28329713689E+04  0.28305164456E+04 0.  0.
        5    1    3    3  502    0  0.63356231618E+03  0.71410899868E+03  0.11046500289E+04  0.14600091256E+04  0.46999998093E+01 0.  1.
       -5    1    3    3    0  502 -0.63356231618E+03 -0.71410899868E+03 -0.98673722998E+03  0.13729622433E+04  0.46999998093E+01 0. -1.
</event>
<event>
 5   0  0.2518686E-05  0.2695574E+04  0.7818609E-02  0.8336442E-01
       -2   -1    0    0    0  501  0.00000000000E+00  0.00000000000E+00  0.78494884186E+03  0.78494884187E+03  0.25500000920E-02 0.  1.
        2   -1    0    0  501    0  0.00000000000E+00  0.00000000000E+00 -0.23142016664E+04  0.23142016664E+04  0.25500000920E-02 0. -1.
    10030    2    1    2    0    0  0.00000000000E+00  0.00000000000E+00 -0.15292528245E+04  0.30991505083E+04  0.26955740894E+04 0.  0.
        5    1    3    3  502    0  0.32351332012E+03  0.61758628030E+03 -0.20907624774E+04  0.22039472564E+04  0.46999998093E+01 0. -1.
       -5    1    3    3    0  502 -0.32351332012E+03 -0.61758628030E+03  0.56150965289E+03  0.89520325189E+03  0.46999998093E+01 0.  1.
</event>
<event>
 5   0  0.2624815E-05  0.2828620E+04  0.7818609E-02  0.8294438E-01
       -2   -1    0    0    0  501  0.00000000000E+00  0.00000000000E+00  0.85652894140E+03  0.85652894140E+03  0.25500000920E-02 0. -1.
        2   -1    0    0  501    0  0.00000000000E+00  0.00000000000E+00 -0.23353237638E+04  0.23353237638E+04  0.25500000920E-02 0.  1.
    10030    2    1    2    0    0  0.00000000000E+00  0.00000000000E+00 -0.14787948224E+04  0.31918527052E+04  0.28286197279E+04 0.  0.
        4    1    3    3  502    0  0.46759289622E+03  0.12705205008E+04 -0.27770482392E+03  0.13820228080E+04  0.12699999809E+01 0. -1.
       -4    1    3    3    0  502 -0.46759289622E+03 -0.12705205008E+04 -0.12010899985E+04  0.18098298972E+04  0.12699999809E+01 0.  1.
</event>
<event>
 5   0  0.2624815E-05  0.2856207E+04  0.7818609E-02  0.8286028E-01
       -2   -1    0    0    0  501  0.00000000000E+00  0.00000000000E+00  0.25641604754E+04  0.25641604754E+04  0.25500000920E-02 0. -1.
        2   -1    0    0  501    0  0.00000000000E+00  0.00000000000E+00 -0.79537918920E+03  0.79537918920E+03  0.25500000920E-02 0.  1.
    10030    2    1    2    0    0  0.00000000000E+00  0.00000000000E+00  0.17687812862E+04  0.33595396646E+04  0.28562071913E+04 0.  0.
        4    1    3    3  502    0  0.20978982718E+03  0.13586295281E+03 -0.76945224858E+03  0.80902959728E+03  0.12699999809E+01 0.  1.
       -4    1    3    3    0  502 -0.20978982718E+03 -0.13586295281E+03  0.25382335348E+04  0.25505100673E+04  0.12699999809E+01 0. -1.
</event>
<event>
 5   0  0.1075146E-05  0.2810587E+04  0.7818609E-02  0.8299989E-01
        1   -1    0    0  501    0  0.00000000000E+00  0.00000000000E+00  0.13253525329E+04  0.13253525329E+04  0.50400001928E-02 0. -1.
       -1   -1    0    0    0  501  0.00000000000E+00  0.00000000000E+00 -0.14900558679E+04  0.14900558679E+04  0.50400001928E-02 0.  1.
    10030    2    1    2    0    0  0.00000000000E+00  0.00000000000E+00 -0.16470333502E+03  0.28154084008E+04  0.28105866424E+04 0.  0.
        2    1    3    3  502    0 -0.13766381839E+04  0.20033493283E+03  0.11694327371E+03  0.13960453087E+04  0.25500000920E-02 0.  1.
       -2    1    3    3    0  502  0.13766381839E+04 -0.20033493283E+03 -0.28164660873E+03  0.14193630920E+04  0.25500000920E-02 0. -1.
</event>
<event>
 5   0  0.2651061E-05  0.2780298E+04  0.7818609E-02  0.8309411E-01
       -2   -1    0    0    0  501  0.00000000000E+00  0.00000000000E+00  0.17386196994E+04  0.17386196994E+04  0.25500000920E-02 0. -1.
        2   -1    0    0  501    0  0.00000000000E+00  0.00000000000E+00 -0.11115221402E+04  0.11115221402E+04  0.25500000920E-02 0.  1.
    10030    2    1    2    0    0  0.00000000000E+00  0.00000000000E+00  0.62709755925E+03  0.28501418396E+04  0.27802980338E+04 0.  0.
        3    1    3    3  502    0  0.47370044735E+03  0.13066864432E+04  0.28656833428E+03  0.14191345937E+04  0.10100000352E+00 0. -1.
       -3    1    3    3    0  502 -0.47370044735E+03 -0.13066864432E+04  0.34052922497E+03  0.14310072459E+04  0.10100000352E+00 0.  1.
</event>
<event>
 5   0  0.1067434E-05  0.2832145E+04  0.7818609E-02  0.8293358E-01
       -1   -1    0    0    0  501  0.00000000000E+00  0.00000000000E+00  0.82667495019E+03  0.82667495020E+03  0.50400001928E-02 0. -1.
        1   -1    0    0  501    0  0.00000000000E+00  0.00000000000E+00 -0.24256950879E+04  0.24256950879E+04  0.50400001928E-02 0.  1.
    10030    2    1    2    0    0  0.00000000000E+00  0.00000000000E+00 -0.15990201377E+04  0.32523700381E+04  0.28321450288E+04 0.  0.
        4    1    3    3  502    0  0.12273290892E+04 -0.12984046975E+02  0.11503023141E+02  0.12274523254E+04  0.12699999809E+01 0. -1.
       -4    1    3    3    0  502 -0.12273290892E+04  0.12984046975E+02 -0.16105231608E+04  0.20249177127E+04  0.12699999809E+01 0.  1.
</event>
<event>
 5   0  0.2697964E-05  0.2883475E+04  0.7818609E-02  0.8277811E-01
        2   -1    0    0  501    0  0.00000000000E+00  0.00000000000E+00  0.21727219829E+04  0.21727219829E+04  0.25500000920E-02 0.  1.
       -2   -1    0    0    0  501  0.00000000000E+00  0.00000000000E+00 -0.95668349722E+03  0.95668349723E+03  0.25500000920E-02 0. -1.
    10030    2    1    2    0    0  0.00000000000E+00  0.00000000000E+00  0.12160384857E+04  0.31294054802E+04  0.28834751708E+04 0.  0.
        1    1    3    3  502    0 -0.95144206707E+03 -0.10063540310E+04  0.10429710479E+04  0.17337182728E+04  0.50400001928E-02 0. -1.
       -1    1    3    3    0  502  0.95144206707E+03  0.10063540310E+04  0.17306743783E+03  0.13956872074E+04  0.50400001928E-02 0.  1.
</event>
<event>
 5   0  0.2588048E-05  0.2813664E+04  0.7818609E-02  0.8299039E-01
        2   -1    0    0  501    0  0.00000000000E+00  0.00000000000E+00  0.12268273195E+04  0.12268273195E+04  0.25500000920E-02 0. -1.
       -2   -1    0    0    0  501  0.00000000000E+00  0.00000000000E+00 -0.16132475651E+04  0.16132475651E+04  0.25500000920E-02 0.  1.
    10030    2    1    2    0    0  0.00000000000E+00  0.00000000000E+00 -0.38642024555E+03  0.28400748846E+04  0.28136639358E+04 0.  0.
        2    1    3    3  502    0  0.87474138916E+03 -0.24906632808E+03 -0.12765833185E+04  0.15674410684E+04  0.25500000920E-02 0.  1.
       -2    1    3    3    0  502 -0.87474138916E+03  0.24906632808E+03  0.89016307296E+03  0.12726338162E+04  0.25500000920E-02 0. -1.
</event>
<event>
 5   0  0.1067434E-05  0.2625449E+04  0.7818609E-02  0.8359608E-01
       -1   -1    0    0    0  501  0.00000000000E+00  0.00000000000E+00  0.81534491319E+03  0.81534491321E+03  0.50400001928E-02 0. -1.
        1   -1    0    0  501    0  0.00000000000E+00  0.00000000000E+00 -0.21135173018E+04  0.21135173018E+04  0.50400001928E-02 0.  1.
    10030    2    1    2    0    0  0.00000000000E+00  0.00000000000E+00 -0.12981723886E+04  0.29288622150E+04  0.26254489757E+04 0.  0.
        4    1    3    3  502    0  0.23442463497E+03 -0.12678312938E+04 -0.92436867784E+03  0.15864457647E+04  0.12699999809E+01 0.  1.
       -4    1    3    3    0  502 -0.23442463497E+03  0.12678312938E+04 -0.37380371077E+03  0.13424164503E+04  0.12699999809E+01 0. -1.
</event>
<event>
 5   0  0.1075146E-05  0.2793127E+04  0.7818609E-02  0.8305405E-01
        1   -1    0    0  501    0  0.00000000000E+00  0.00000000000E+00  0.21065239717E+04  0.21065239717E+04  0.50400001928E-02 0.  1.
       -1   -1    0    0    0  501  0.00000000000E+00  0.00000000000E+00 -0.92588039265E+03  0.92588039266E+03  0.50400001928E-02 0. -1.
    10030    2    1    2    0    0  0.00000000000E+00  0.00000000000E+00  0.11806435791E+04  0.30324043644E+04  0.27931267369E+04 0.  0.
        2    1    3    3  502    0 -0.17441023268E+03 -0.11674809572E+04 -0.21990742732E+03  0.12007455981E+04  0.25500000920E-02 0. -1.
       -2    1    3    3    0  502  0.17441023268E+03  0.11674809572E+04  0.14005510064E+04  0.18316587663E+04  0.25500000920E-02 0.  1.
</event>
<event>
 5   0  0.2624815E-05  0.2790017E+04  0.7818609E-02  0.8306374E-01
        2   -1    0    0  501    0  0.00000000000E+00  0.00000000000E+00  0.13772326838E+04  0.13772326838E+04  0.25500000920E-02 0. -1.
       -2   -1    0    0    0  501  0.00000000000E+00  0.00000000000E+00 -0.14130134102E+04  0.14130134102E+04  0.25500000920E-02 0.  1.
    10030    2    1    2    0    0  0.00000000000E+00  0.00000000000E+00 -0.35780726409E+02  0.27902460939E+04  0.27900166674E+04 0.  0.
        4    1    3    3  502    0  0.10524173251E+04  0.51068387139E+03 -0.77799654259E+03  0.14048702701E+04  0.12699999809E+01 0.  1.
       -4    1    3    3    0  502 -0.10524173251E+04 -0.51068387139E+03  0.74221581618E+03  0.13853758238E+04  0.12699999809E+01 0. -1.
</event>
<event>
 5   0  0.2624815E-05  0.2939958E+04  0.7818609E-02  0.8261087E-01
        2   -1    0    0  501    0  0.00000000000E+00  0.00000000000E+00  0.11891952164E+04  0.11891952164E+04  0.25500000920E-02 0.  1.
       -2   -1    0    0    0  501  0.00000000000E+00  0.00000000000E+00 -0.18170589591E+04  0.18170589591E+04  0.25500000920E-02 0. -1.
    10030    2    1    2    0    0  0.00000000000E+00  0.00000000000E+00 -0.62786374276E+03  0.30062541755E+04  0.29399577018E+04 0.  0.
        4    1    3    3  502    0  0.13857410849E+04  0.73350138593E+02  0.18195499116E+03  0.13995598698E+04  0.12699999809E+01 0. -1.
       -4    1    3    3    0  502 -0.13857410849E+04 -0.73350138593E+02 -0.80981873392E+03  0.16066943057E+04  0.12699999809E+01 0.  1.
</event>
<event>
 5   0  0.1067434E-05  0.2795595E+04  0.7818609E-02  0.8304637E-01
       -1   -1    0    0    0  501  0.00000000000E+00  0.00000000000E+00  0.11418947744E+04  0.11418947744E+04  0.50400001928E-02 0.  1.
        1   -1    0    0  501    0  0.00000000000E+00  0.00000000000E+00 -0.17110483750E+04  0.17110483750E+04  0.50400001928E-02 0. -1.
    10030    2    1    2    0    0  0.00000000000E+00  0.00000000000E+00 -0.56915360057E+03  0.28529431494E+04  0.27955945330E+04 0.  0.
        4    1    3    3  502    0 -0.13798604487E+04 -0.21792822021E+03 -0.33381612850E+03  0.14362946730E+04  0.12699999809E+01 0. -1.
       -4    1    3    3    0  502  0.13798604487E+04  0.21792822021E+03 -0.23533747206E+03  0.14166484764E+04  0.12699999809E+01 0.  1.
</event>
<event>
 5   0  0.1075146E-05  0.2853181E+04  0.7818609E-02  0.8286945E-01
       -1   -1    0    0    0  501  0.00000000000E+00  0.00000000000E+00  0.18467966577E+04  0.18467966577E+04  0.50400001928E-02 0. -1.
        1   -1    0    0  501    0  0.00000000000E+00  0.00000000000E+00 -0.11019946398E+04  0.11019946398E+04  0.50400001928E-02 0.  1.
    10030    2    1    2    0    0  0.00000000000E+00  0.00000000000E+00  0.74480201787E+03  0.29487912975E+04  0.28531806936E+04 0.  0.
        2    1    3    3  502    0  0.17130999408E+03  0.94661850988E+02 -0.10880523853E+04  0.11055161570E+04  0.25500000920E-02 0.  1.
       -2    1    3    3    0  502 -0.17130999408E+03 -0.94661850988E+02  0.18328544032E+04  0.18432751405E+04  0.25500000920E-02 0. -1.
</event>
<event>
 5   0  0.2518686E-05  0.2757259E+04  0.7818609E-02  0.8316662E-01
       -2   -1    0    0    0  501  0.00000000000E+00  0.00000000000E+00  0.81206310424E+03  0.81206310424E+03  0.25500000920E-02 0.  1.
        2   -1    0    0  501    0  0.00000000000E+00  0.00000000000E+00 -0.23404827434E+04  0.23404827434E+04  0.25500000920E-02 0. -1.
    10030    2    1    2    0    0  0.00000000000E+00  0.00000000000E+00 -0.15284196391E+04  0.31525458476E+04  0.27572592783E+04 0.  0.
        5    1    3    3  502    0  0.65512073142E+03 -0.89200234683E+03  0.17567713334E+03  0.11205962273E+04  0.46999998093E+01 0.  1.
       -5    1    3    3    0  502 -0.65512073142E+03  0.89200234683E+03 -0.17040967725E+04  0.20319496203E+04  0.46999998093E+01 0. -1.
</event>
<event>
 5   0  0.2518686E-05  0.2886785E+04  0.7818609E-02  0.8276820E-01
        2   -1    0    0  501    0  0.00000000000E+00  0.00000000000E+00  0.14461824228E+04  0.14461824228E+04  0.25500000920E-02 0. -1.
       -2   -1    0    0    0  501  0.00000000000E+00  0.00000000000E+00 -0.14406076166E+04  0.14406076167E+04  0.25500000920E-02 0.  1.
    10030    2    1    2    0    0  0.00000000000E+00  0.00000000000E+00  0.55748061779E+01  0.28867900395E+04  0.28867846566E+04 0.  0.
        5    1    3    3  502    0 -0.51260195279E+03  0.10591400788E+04  0.83874401741E+03  0.14450093720E+04  0.46999998093E+01 0. -1.
       -5    1    3    3    0  502  0.51260195279E+03 -0.10591400788E+04 -0.83316921123E+03  0.14417806675E+04  0.46999998093E+01 0.  1.
</event>
<event>
 5   0  0.1017456E-05  0.2740973E+04  0.7818609E-02  0.8321832E-01
       -1   -1    0    0    0  501  0.00000000000E+00  0.00000000000E+00  0.96177712282E+03  0.96177712284E+03  0.50400001928E-02 0. -1.
        1   -1    0    0  501    0  0.00000000000E+00  0.00000000000E+00 -0.19528773408E+04  0.19528773408E+04  0.50400001928E-02 0.  1.
    10030    2    1    2    0    0  0.00000000000E+00  0.00000000000E+00 -0.99110021794E+03  0.29146544636E+04  0.27409726376E+04 0.  0.
        5    1    3    3  502    0  0.88300159119E+03 -0.40607863757E+03 -0.15230155287E+04  0.18067069659E+04  0.46999998093E+01 0.  1.
       -5    1    3    3    0  502 -0.88300159119E+03  0.40607863757E+03  0.53191531074E+03  0.11079474977E+04  0.46999998093E+01 0. -1.
</event>
<event>
 5   0  0.2588048E-05  0.1847736E+04  0.7818609E-02  0.8681318E-01
        2   -1    0    0  501    0  0.00000000000E+00  0.00000000000E+00  0.14563348632E+04  0.14563348632E+04  0.25500000920E-02 0.  1.
       -2   -1    0    0    0  501  0.00000000000E+00  0.00000000000E+00 -0.58608212768E+03  0.58608212769E+03  0.25500000920E-02 0. -1.
    10030    2    1    2    0    0  0.00000000000E+00  0.00000000000E+00  0.87025273556E+03  0.20424169909E+04  0.18477357336E+04 0.  0.
        2    1    3    3  502    0 -0.88965708827E+02 -0.89374770989E+03  0.19591833156E+03  0.91928442765E+03  0.25500000920E-02 0. -1.
       -2    1    3    3    0  502  0.88965708827E+02  0.89374770989E+03  0.67433440399E+03  0.11231325633E+04  0.25500000920E-02 0.  1.
</event>
<event>
 5   0  0.1067434E-05  0.2767445E+04  0.7818609E-02  0.8313447E-01
        1   -1    0    0  501    0  0.00000000000E+00  0.00000000000E+00  0.13346771610E+04  0.13346771610E+04  0.50400001928E-02 0. -1.
       -1   -1    0    0    0  501  0.00000000000E+00  0.00000000000E+00 -0.14345696156E+04  0.14345696156E+04  0.50400001928E-02 0.  1.
    10030    2    1    2    0    0  0.00000000000E+00  0.00000000000E+00 -0.99892454616E+02  0.27692467765E+04  0.27674445264E+04 0.  0.
        4    1    3    3  502    0  0.39859449246E+03  0.15124117140E+02 -0.13757918843E+04  0.14324493813E+04  0.12699999809E+01 0.  1.
       -4    1    3    3    0  502 -0.39859449246E+03 -0.15124117140E+02  0.12758994297E+04  0.13367973952E+04  0.12699999809E+01 0. -1.
</event>
<event>
 5   0  0.2651061E-05  0.2893635E+04  0.7818609E-02  0.8274774E-01
       -2   -1    0    0    0  501  0.00000000000E+00  0.00000000000E+00  0.83250678597E+03  0.83250678597E+03  0.25500000920E-02 0. -1.
        2   -1    0    0  501    0  0.00000000000E+00  0.00000000000E+00 -0.25144302203E+04  0.25144302203E+04  0.25500000920E-02 0.  1.
    10030    2    1    2    0    0  0.00000000000E+00  0.00000000000E+00 -0.16819234343E+04  0.33469370062E+04  0.28936345458E+04 0.  0.
        3    1    3    3  502    0  0.24651503692E+03  0.45211784326E+03  0.72291974814E+03  0.88757714035E+03  0.10100000352E+00 0. -1.
       -3    1    3    3    0  502 -0.24651503692E+03 -0.45211784326E+03 -0.24048431824E+04  0.24593598659E+04  0.10100000352E+00 0.  1.
</event>
<event>
 5   0  0.2518686E-05  0.2794178E+04  0.7818609E-02  0.8305078E-01
        2   -1    0    0  501    0  0.00000000000E+00  0.00000000000E+00  0.14118216940E+04  0.14118216940E+04  0.25500000920E-02 0. -1.
       -2   -1    0    0    0  501  0.00000000000E+00  0.00000000000E+00 -0.13825098142E+04  0.13825098142E+04  0.25500000920E-02 0.  1.
    10030    2    1    2    0    0  0.00000000000E+00  0.00000000000E+00  0.29311879795E+02  0.27943315081E+04  0.27941777665E+04 0.  0.
        5    1    3    3  502    0  0.54580396885E+03  0.55832592232E+03  0.11732555929E+04  0.14093191917E+04  0.46999998093E+01 0. -1.
       -5    1    3    3    0  502 -0.54580396885E+03 -0.55832592232E+03 -0.11439437131E+04  0.13850123164E+04  0.46999998093E+01 0.  1.
</event>
<event>
 5   0  0.2588048E-05  0.1675845E+04  0.7818609E-02  0.8775262E-01
       -2   -1    0    0    0  501  0.00000000000E+00  0.00000000000E+00  0.84419917211E+03  0.84419917211E+03  0.25500000920E-02 0.  1.
        2   -1    0    0  501    0  0.00000000000E+00  0.00000000000E+00 -0.83169273060E+03  0.83169273061E+03  0.25500000920E-02 0. -1.
    10030    2    1    2    0    0  0.00000000000E+00  0.00000000000E+00  0.12506441502E+02  0.16758919027E+04  0.16758452370E+04 0.  0.
        2    1    3    3  502    0 -0.71216904918E+03 -0.37291156309E+03 -0.23011436901E+03  0.83618204437E+03  0.25500000920E-02 0.  1.
       -2    1    3    3    0  502  0.71216904918E+03  0.37291156309E+03  0.24262081051E+03  0.83970985835E+03  0.25500000920E-02 0. -1.
</event>
<event>
 5   0  0.1105862E-05  0.2832503E+04  0.7818609E-02  0.8293248E-01
        1   -1    0    0  501    0  0.00000000000E+00  0.00000000000E+00  0.14306732750E+04  0.14306732750E+04  0.50400001928E-02 0.  1.
       -1   -1    0    0    0  501  0.00000000000E+00  0.00000000000E+00 -0.14019750540E+04  0.14019750540E+04  0.50400001928E-02 0. -1.
    10030    2    1    2    0    0  0.00000000000E+00  0.00000000000E+00  0.28698220995E+02  0.28326483290E+04  0.28325029511E+04 0.  0.
        3    1    3    3  502    0 -0.24654721761E+03 -0.65509282047E+03  0.12456052585E+04  0.14287983078E+04  0.10100000352E+00 0.  1.
       -3    1    3    3    0  502  0.24654721761E+03  0.65509282047E+03 -0.12169070375E+04  0.14038500213E+04  0.10100000352E+00 0. -1.
</event>
<event>
 5   0  0.2588048E-05  0.2872857E+04  0.7818609E-02  0.8281000E-01
       -2   -1    0    0    0  501  0.00000000000E+00  0.00000000000E+00  0.14267508479E+04  0.14267508479E+04  0.25500000920E-02 0.  1.
        2   -1    0    0  501    0  0.00000000000E+00  0.00000000000E+00 -0.14461713269E+04  0.14461713269E+04  0.25500000920E-02 0. -1.
    10030    2    1    2    0    0  0.00000000000E+00  0.00000000000E+00 -0.19420478966E+02  0.28729221748E+04  0.28728565344E+04 0.  0.
        2    1    3    3  502    0  0.29176985621E+03  0.53385841139E+03 -0.13109669739E+04  0.14452573678E+04  0.25500000920E-02 0. -1.
       -2    1    3    3    0  502 -0.29176985621E+03 -0.53385841139E+03  0.12915464950E+04  0.14276648070E+04  0.25500000920E-02 0.  1.
</event>
<event>
 5   0  0.1017456E-05  0.2797453E+04  0.7818609E-02  0.8304059E-01
        1   -1    0    0  501    0  0.00000000000E+00  0.00000000000E+00  0.11806321157E+04  0.11806321158E+04  0.50400001928E-02 0.  1.
       -1   -1    0    0    0  501  0.00000000000E+00  0.00000000000E+00 -0.16571092880E+04  0.16571092880E+04  0.50400001928E-02 0. -1.
    10030    2    1    2    0    0  0.00000000000E+00  0.00000000000E+00 -0.47647717224E+03  0.28377414038E+04  0.27974534453E+04 0.  0.
        5    1    3    3  502    0  0.91041549956E+02 -0.11744129067E+04 -0.10033423278E+04  0.15473371178E+04  0.46999998093E+01 0. -1.
       -5    1    3    3    0  502 -0.91041549956E+02  0.11744129067E+04  0.52686515559E+03  0.12904042860E+04  0.46999998093E+01 0.  1.
</event>
<event>
 5   0  0.1067434E-05  0.2889601E+04  0.7818609E-02  0.8275978E-01
       -1   -1    0    0    0  501  0.00000000000E+00  0.00000000000E+00  0.14695567706E+04  0.14695567706E+04  0.50400001928E-02 0.  1.
        1   -1    0    0  501    0  0.00000000000E+00  0.00000000000E+00 -0.14204613601E+04  0.14204613601E+04  0.50400001928E-02 0. -1.
    10030    2    1    2    0    0  0.00000000000E+00  0.00000000000E+00  0.49095410464E+02  0.28900181307E+04  0.28896010861E+04 0.  0.
        4    1    3    3  502    0 -0.12522266209E+04  0.16809690194E+03  0.72544762000E+03  0.14569159004E+04  0.12699999809E+01 0.  1.
       -4    1    3    3    0  502  0.12522266209E+04 -0.16809690194E+03 -0.67635220954E+03  0.14331022304E+04  0.12699999809E+01 0. -1.
</event>
<event>
 5   0  0.2651061E-05  0.2805627E+04  0.7818609E-02  0.8301524E-01
        2   -1    0    0  501    0  0.00000000000E+00  0.00000000000E+00  0.26760965725E+04  0.26760965725E+04  0.25500000920E-02 0. -1.
       -2   -1    0    0    0  501  0.00000000000E+00  0.00000000000E+00 -0.73535679473E+03  0.73535679474E+03  0.25500000920E-02 0.  1.
    10030    2    1    2    0    0  0.00000000000E+00  0.00000000000E+00  0.19407397778E+04  0.34114533673E+04  0.28056270586E+04 0.  0.
        3    1    3    3  502    0 -0.77701799357E+03  0.87685049089E+03  0.32238661188E+02  0.11720337398E+04  0.10100000352E+00 0.  1.
       -3    1    3    3    0  502  0.77701799357E+03 -0.87685049089E+03  0.19085011166E+04  0.22394196275E+04  0.10100000352E+00 0. -1.
</event>
<event>
 5   0  0.1105862E-05  0.2655992E+04  0.7818609E-02  0.8349427E-01
       -1   -1    0    0    0  501  0.00000000000E+00  0.00000000000E+00  0.11476939211E+04  0.11476939211E+04  0.50400001928E-02 0. -1.
        1   -1    0    0  501    0  0.00000000000E+00  0.00000000000E+00 -0.15366239091E+04  0.15366239091E+04  0.50400001928E-02 0.  1.
    10030    2    1    2    0    0  0.00000000000E+00  0.00000000000E+00 -0.38892998800E+03  0.26843178302E+04  0.26559924093E+04 0.  0.
        3    1    3    3  502    0 -0.71701885426E+03  0.14711323094E+03 -0.13143506311E+04  0.15044188020E+04  0.10100000352E+00 0.  1.
       -3    1    3    3    0  502  0.71701885426E+03 -0.14711323094E+03  0.92542064308E+03  0.11798990283E+04  0.10100000352E+00 0. -1.
</event>
<event>
 5   0  0.1075146E-05  0.1412982E+04  0.7818609E-02  0.8944475E-01
       -1   -1    0    0    0  501  0.00000000000E+00  0.00000000000E+00  0.62964655623E+03  0.62964655625E+03  0.50400001928E-02 0.  1.
        1   -1    0    0  501    0  0.00000000000E+00  0.00000000000E+00 -0.79271367098E+03  0.79271367100E+03  0.50400001928E-02 0. -1.
    10030    2    1    2    0    0  0.00000000000E+00  0.00000000000E+00 -0.16306711475E+03  0.14223602272E+04  0.14129818584E+04 0.  0.
        2    1    3    3  502    0  0.53688021316E+03  0.25659074744E+03 -0.46491604134E+03  0.75513316737E+03  0.25500000920E-02 0. -1.
       -2    1    3    3    0  502 -0.53688021316E+03 -0.25659074744E+03  0.30184892659E+03  0.66722705988E+03  0.25500000920E-02 0.  1.
</event>
<event>
 5   0  0.1075146E-05  0.2319116E+04  0.7818609E-02  0.8470422E-01
        1   -1    0    0  501    0  0.00000000000E+00  0.00000000000E+00  0.20776668890E+04  0.20776668890E+04  0.50400001928E-02 0. -1.
       -1   -1    0    0    0  501  0.00000000000E+00  0.00000000000E+00 -0.64715593545E+03  0.64715593547E+03  0.50400001928E-02 0.  1.
    10030    2    1    2    0    0  0.00000000000E+00  0.00000000000E+00  0.14305109536E+04  0.27248228245E+04  0.23191157446E+04 0.  0.
        2    1    3    3  502    0 -0.86900829321E+03  0.26250158056E+03 -0.13240680564E+03  0.91739525596E+03  0.25500000920E-02 0.  1.
       -2    1    3    3    0  502  0.86900829321E+03 -0.26250158056E+03  0.15629177592E+04  0.18074275685E+04  0.25500000920E-02 0. -1.
</event>
<event>
 5   0  0.2624815E-05  0.2832174E+04  0.7818609E-02  0.8293349E-01
       -2   -1    0    0    0  501  0.00000000000E+00  0.00000000000E+00  0.10252738402E+04  0.10252738402E+04  0.25500000920E-02 0.  1.
        2   -1    0    0  501    0  0.00000000000E+00  0.00000000000E+00 -0.19558695653E+04  0.19558695653E+04  0.25500000920E-02 0. -1.
    10030    2    1    2    0    0  0.00000000000E+00  0.00000000000E+00 -0.93059572503E+03  0.29811434055E+04  0.28321736530E+04 0.  0.
        4    1    3    3  502    0 -0.84175661152E+03 -0.10559316308E+04 -0.16546729607E+02  0.13504892481E+04  0.12699999809E+01 0.  1.
       -4    1    3    3    0  502  0.84175661152E+03  0.10559316308E+04 -0.91404899543E+03  0.16306541574E+04  0.12699999809E+01 0. -1.
</event>
<event>
 5   0  0.1078103E-05  0.2742617E+04  0.7818609E-02  0.8321308E-01
        1   -1    0    0  501    0  0.00000000000E+00  0.00000000000E+00  0.22402634179E+04  0.22402634179E+04  0.50400001928E-02 0. -1.
       -1   -1    0    0    0  501  0.00000000000E+00  0.00000000000E+00 -0.83940456118E+03  0.83940456119E+03  0.50400001928E-02 0.  1.
    10030    2    1    2    0    0  0.00000000000E+00  0.00000000000E+00  0.14008588567E+04  0.30796679791E+04  0.27426172400E+04 0.  0.
        1    1    3    3  502    0 -0.42833948803E+03  0.10018887887E+04  0.16353567048E+04  0.19651074815E+04  0.50400001928E-02 0. -1.
       -1    1    3    3    0  502  0.42833948803E+03 -0.10018887887E+04 -0.23449784809E+03  0.11145604976E+04  0.50400001928E-02 0.  1.
</event>
<event>
 5   0  0.1078103E-05  0.1461194E+04  0.7818609E-02  0.8910676E-01
        1   -1    0    0  501    0  0.00000000000E+00  0.00000000000E+00  0.49724096756E+03  0.49724096759E+03  0.50400001928E-02 0. -1.
       -1   -1    0    0    0  501  0.00000000000E+00  0.00000000000E+00 -0.10734678373E+04  0.10734678373E+04  0.50400001928E-02 0.  1.
    10030    2    1    2    0    0  0.00000000000E+00  0.00000000000E+00 -0.57622686973E+03  0.15707088049E+04  0.14611942870E+04 0.  0.
        1    1    3    3  502    0 -0.50970563272E+03 -0.51340809185E+03 -0.17857155245E+03  0.74516810196E+03  0.50400001928E-02 0. -1.
       -1    1    3    3    0  502  0.50970563272E+03  0.51340809185E+03 -0.39765531728E+03  0.82554070293E+03  0.50400001928E-02 0.  1.
</event>
<event>
 5   0  0.2518686E-05  0.1521032E+04  0.7818609E-02  0.8870586E-01
       -2   -1    0    0    0  501  0.00000000000E+00  0.00000000000E+00  0.44840001997E+03  0.44840001998E+03  0.25500000920E-02 0.  1.
        2   -1    0    0  501    0  0.00000000000E+00  0.00000000000E+00 -0.12898854547E+04  0.12898854547E+04  0.25500000920E-02 0. -1.
    10030    2    1    2    0    0  0.00000000000E+00  0.00000000000E+00 -0.84148543468E+03  0.17382854746E+04  0.15210321018E+04 0.  0.
        5    1    3    3  502    0 -0.54833899231E+03  0.81390599076E+02  0.17425792652E+03  0.58110927979E+03  0.46999998093E+01 0.  1.
       -5    1    3    3    0  502  0.54833899231E+03 -0.81390599076E+02 -0.10157433612E+04  0.11571761948E+04  0.46999998093E+01 0. -1.
</event>
<event>
 5   0  0.2697964E-05  0.2568461E+04  0.7818609E-02  0.8378994E-01
        2   -1    0    0  501    0  0.00000000000E+00  0.00000000000E+00  0.14371931255E+04  0.14371931255E+04  0.25500000920E-02 0.  1.
       -2   -1    0    0    0  501  0.00000000000E+00  0.00000000000E+00 -0.11475476697E+04  0.11475476697E+04  0.25500000920E-02 0. -1.
    10030    2    1    2    0    0  0.00000000000E+00  0.00000000000E+00  0.28964545581E+03  0.25847407952E+04  0.25684607235E+04 0.  0.
        1    1    3    3  502    0  0.31340146994E+03  0.34899473108E+03 -0.10582589217E+04  0.11575533461E+04  0.50400001928E-02 0. -1.
       -1    1    3    3    0  502 -0.31340146994E+03 -0.34899473108E+03  0.13479043775E+04  0.14271874490E+04  0.50400001928E-02 0.  1.
</event>
<event>
 5   0  0.2697964E-05  0.2763762E+04  0.7818609E-02  0.8314608E-01
       -2   -1    0    0    0  501  0.00000000000E+00  0.00000000000E+00  0.75363198691E+03  0.75363198691E+03  0.25500000920E-02 0.  1.
        2   -1    0    0  501    0  0.00000000000E+00  0.00000000000E+00 -0.25338564896E+04  0.25338564896E+04  0.25500000920E-02 0. -1.
    10030    2    1    2    0    0  0.00000000000E+00  0.00000000000E+00 -0.17802245027E+04  0.32874884765E+04  0.27637621466E+04 0.  0.
        1    1    3    3  502    0  0.18793659170E+03 -0.13164496229E+04 -0.13371411040E+04  0.18858170919E+04  0.50400001928E-02 0.  1.
       -1    1    3    3    0  502 -0.18793659170E+03  0.13164496229E+04 -0.44308339864E+03  0.14016713846E+04  0.50400001928E-02 0. -1.
</event>
<event>
 5   0  0.1105862E-05  0.2767289E+04  0.7818609E-02  0.8313496E-01
       -1   -1    0    0    0  501  0.00000000000E+00  0.00000000000E+00  0.15377605062E+04  0.15377605062E+04  0.50400001928E-02 0. -1.
        1   -1    0    0  501    0  0.00000000000E+00  0.00000000000E+00 -0.12449740030E+04  0.12449740030E+04  0.50400001928E-02 0.  1.
    10030    2    1    2    0    0  0.00000000000E+00  0.00000000000E+00  0.29278650315E+03  0.27827345092E+04  0.27672888198E+04 0.  0.
        3    1    3    3  502    0  0.57023012835E+03  0.62031748571E+03  0.12500232855E+04  0.15074861216E+04  0.10100000352E+00 0. -1.
       -3    1    3    3    0  502 -0.57023012835E+03 -0.62031748571E+03 -0.95723678234E+03  0.12752483876E+04  0.10100000352E+00 0.  1.
</event>
<event>
 5   0  0.2518686E-05  0.1964059E+04  0.7818609E-02  0.8623611E-01
        2   -1    0    0  501    0  0.00000000000E+00  0.00000000000E+00  0.68442506444E+03  0.68442506444E+03  0.25500000920E-02 0.  1.
       -2   -1    0    0    0  501  0.00000000000E+00  0.00000000000E+00 -0.14090395112E+04  0.14090395112E+04  0.25500000920E-02 0. -1.
    10030    2    1    2    0    0  0.00000000000E+00  0.00000000000E+00 -0.72461444674E+03  0.20934645756E+04  0.19640590197E+04 0.  0.
        5    1    3    3  502    0  0.13338880500E+03 -0.12843923845E+03  0.66563582462E+03  0.69092861591E+03  0.46999998093E+01 0.  1.
       -5    1    3    3    0  502 -0.13338880500E+03  0.12843923845E+03 -0.13902502714E+04  0.14025359597E+04  0.46999998093E+01 0. -1.
</event>
<event>
 5   0  0.2588048E-05  0.2762963E+04  0.7818609E-02  0.8314860E-01
        2   -1    0    0  501    0  0.00000000000E+00  0.00000000000E+00  0.21099667700E+04  0.21099667700E+04  0.25500000920E-02 0.  1.
       -2   -1    0    0    0  501  0.00000000000E+00  0.00000000000E+00 -0.90451240617E+03  0.90451240617E+03  0.25500000920E-02 0. -1.
    10030    2    1    2    0    0  0.00000000000E+00  0.00000000000E+00  0.12054543638E+04  0.30144791762E+04  0.27629629893E+04 0.  0.
        2    1    3    3  502    0 -0.10289298524E+03  0.96652023979E+03 -0.46834265582E+03  0.10789315009E+04  0.25500000920E-02 0. -1.
       -2    1    3    3    0  502  0.10289298524E+03 -0.96652023979E+03  0.16737970197E+04  0.19355476753E+04  0.25500000920E-02 0.  1.
</event>
<event>
 5   0  0.1017456E-05  0.2810138E+04  0.7818609E-02  0.8300128E-01
       -1   -1    0    0    0  501  0.00000000000E+00  0.00000000000E+00  0.15015489001E+04  0.15015489001E+04  0.50400001928E-02 0.  1.
        1   -1    0    0  501    0  0.00000000000E+00  0.00000000000E+00 -0.13147880198E+04  0.13147880198E+04  0.50400001928E-02 0. -1.
    10030    2    1    2    0    0  0.00000000000E+00  0.00000000000E+00  0.18676088031E+03  0.28163369200E+04  0.28101377227E+04 0.  0.
        5    1    3    3  502    0 -0.89984997102E+03 -0.82719938816E+03  0.78787928202E+03  0.14542230404E+04  0.46999998093E+01 0.  1.
       -5    1    3    3    0  502  0.89984997102E+03  0.82719938816E+03 -0.60111840172E+03  0.13621138796E+04  0.46999998093E+01 0. -1.
</event>
<event>
 5   0  0.2697964E-05  0.2796797E+04  0.7818609E-02  0.8304264E-01
       -2   -1    0    0    0  501  0.00000000000E+00  0.00000000000E+00  0.15692261360E+04  0.15692261360E+04  0.25500000920E-02 0. -1.
        2   -1    0    0  501    0  0.00000000000E+00  0.00000000000E+00 -0.12461669890E+04  0.12461669890E+04  0.25500000920E-02 0.  1.
    10030    2    1    2    0    0  0.00000000000E+00  0.00000000000E+00  0.32305914694E+03  0.28153931250E+04  0.27967966025E+04 0.  0.
        1    1    3    3  502    0 -0.15564046041E+03  0.80164301467E+03  0.13042703631E+04  0.15388231399E+04  0.50400001928E-02 0. -1.
       -1    1    3    3    0  502  0.15564046041E+03 -0.80164301467E+03 -0.98121121618E+03  0.12765699850E+04  0.50400001928E-02 0.  1.
</event>
<event>
 5   0  0.2624815E-05  0.2809503E+04  0.7818609E-02  0.8300324E-01
       -2   -1    0    0    0  501  0.00000000000E+00  0.00000000000E+00  0.13128504605E+04  0.13128504605E+04  0.25500000920E-02 0.  1.
        2   -1    0    0  501    0  0.00000000000E+00  0.00000000000E+00 -0.15030852324E+04  0.15030852324E+04  0.25500000920E-02 0. -1.
    10030    2    1    2    0    0  0.00000000000E+00  0.00000000000E+00 -0.19023477191E+03  0.28159356929E+04  0.28095025464E+04 0.  0.
        4    1    3    3  502    0 -0.10748357624E+04 -0.77921220522E+02  0.80804576026E+03  0.13469533014E+04  0.12699999809E+01 0.  1.
       -4    1    3    3    0  502  0.10748357624E+04  0.77921220522E+02 -0.99828053217E+03  0.14689823915E+04  0.12699999809E+01 0. -1.
</event>
<event>
 5   0  0.2697964E-05  0.2786363E+04  0.7818609E-02  0.8307515E-01
       -2   -1    0    0    0  501  0.00000000000E+00  0.00000000000E+00  0.26865965979E+04  0.26865965979E+04  0.25500000920E-02 0.  1.
        2   -1    0    0  501    0  0.00000000000E+00  0.00000000000E+00 -0.72245856539E+03  0.72245856539E+03  0.25500000920E-02 0. -1.
    10030    2    1    2    0    0  0.00000000000E+00  0.00000000000E+00  0.19641380325E+04  0.34090551633E+04  0.27863630229E+04 0.  0.
        1    1    3    3  502    0  0.40547698756E+03  0.12188032234E+04  0.32200058071E+03  0.13242270420E+04  0.50400001928E-02 0. -1.
       -1    1    3    3    0  502 -0.40547698756E+03 -0.12188032234E+04  0.16421374518E+04  0.20848281213E+04  0.50400001928E-02 0.  1.
</event>
<event>
 5   0  0.2588048E-05  0.2850322E+04  0.7818609E-02  0.8287814E-01
       -2   -1    0    0    0  501  0.00000000000E+00  0.00000000000E+00  0.13981555088E+04  0.13981555088E+04  0.25500000920E-02 0. -1.
        2   -1    0    0  501    0  0.00000000000E+00  0.00000000000E+00 -0.14526878353E+04  0.14526878353E+04  0.25500000920E-02 0.  1.
    10030    2    1    2    0    0  0.00000000000E+00  0.00000000000E+00 -0.54532326487E+02  0.28508433441E+04  0.28503217359E+04 0.  0.
        2    1    3    3  502    0  0.10547656368E+04  0.89326895380E+03 -0.37463870006E+03  0.14320663839E+04  0.25500000920E-02 0.  1.
       -2    1    3    3    0  502 -0.10547656368E+04 -0.89326895380E+03  0.32010637358E+03  0.14187769602E+04  0.25500000920E-02 0. -1.
</event>
<event>
 5   0  0.1075146E-05  0.2517181E+04  0.7818609E-02  0.8396890E-01
       -1   -1    0    0    0  501  0.00000000000E+00  0.00000000000E+00  0.11530311318E+04  0.11530311318E+04  0.50400001928E-02 0.  1.
        1   -1    0    0  501    0  0.00000000000E+00  0.00000000000E+00 -0.13738140848E+04  0.13738140848E+04  0.50400001928E-02 0. -1.
    10030    2    1    2    0    0  0.00000000000E+00  0.00000000000E+00 -0.22078295299E+03  0.25268452166E+04  0.25171812879E+04 0.  0.
        2    1    3    3  502    0 -0.16503796153E+03 -0.12316589079E+04  0.89947300012E+02  0.12459180194E+04  0.25500000920E-02 0. -1.
       -2    1    3    3    0  502  0.16503796153E+03  0.12316589079E+04 -0.31073025301E+03  0.12809271972E+04  0.25500000920E-02 0.  1.
</event>
<event>
 5   0  0.1075146E-05  0.2615661E+04  0.7818609E-02  0.8362901E-01
        1   -1    0    0  501    0  0.00000000000E+00  0.00000000000E+00  0.13507882503E+04  0.13507882504E+04  0.50400001928E-02 0.  1.
       -1   -1    0    0    0  501  0.00000000000E+00  0.00000000000E+00 -0.12662386684E+04  0.12662386684E+04  0.50400001928E-02 0. -1.
    10030    2    1    2    0    0  0.00000000000E+00  0.00000000000E+00  0.84549581968E+02  0.26170269187E+04  0.26156607696E+04 0.  0.
        2    1    3    3  502    0 -0.40537626024E+03  0.99287390330E+03 -0.70664259055E+03  0.12843178154E+04  0.25500000920E-02 0. -1.
       -2    1    3    3    0  502  0.40537626024E+03 -0.99287390330E+03  0.79119217252E+03  0.13327091033E+04  0.25500000920E-02 0.  1.
</event>
<event>
 5   0  0.2697964E-05  0.2751018E+04  0.7818609E-02  0.8318639E-01
       -2   -1    0    0    0  501  0.00000000000E+00  0.00000000000E+00  0.11758188820E+04  0.11758188820E+04  0.25500000920E-02 0.  1.
        2   -1    0    0  501    0  0.00000000000E+00  0.00000000000E+00 -0.16091124669E+04  0.16091124669E+04  0.25500000920E-02 0. -1.
    10030    2    1    2    0    0  0.00000000000E+00  0.00000000000E+00 -0.43329358488E+03  0.27849313489E+04  0.27510178639E+04 0.  0.
        1    1    3    3  502    0 -0.52635813957E+03  0.47815289495E+03  0.97529825351E+03  0.12070168869E+04  0.50400001928E-02 0.  1.
       -1    1    3    3    0  502  0.52635813957E+03 -0.47815289495E+03 -0.14085918384E+04  0.15779144620E+04  0.50400001928E-02 0. -1.
</event>
<event>
 5   0  0.1078103E-05  0.2709789E+04  0.7818609E-02  0.8331836E-01
       -1   -1    0    0    0  501  0.00000000000E+00  0.00000000000E+00  0.90255832349E+03  0.90255832351E+03  0.50400001928E-02 0. -1.
        1   -1    0    0  501    0  0.00000000000E+00  0.00000000000E+00 -0.20339283956E+04  0.20339283956E+04  0.50400001928E-02 0.  1.
    10030    2    1    2    0    0  0.00000000000E+00  0.00000000000E+00 -0.11313700721E+04  0.29364867191E+04  0.27097889238E+04 0.  0.
        1    1    3    3  502    0  0.73072700147E+03  0.55178605798E+03  0.51651486538E+03  0.10512932087E+04  0.50400001928E-02 0. -1.
       -1    1    3    3    0  502 -0.73072700147E+03 -0.55178605798E+03 -0.16478849375E+04  0.18851935104E+04  0.50400001928E-02 0.  1.
</event>
<event>
 5   0  0.1017456E-05  0.2720937E+04  0.7818609E-02  0.8328243E-01
       -1   -1    0    0    0  501  0.00000000000E+00  0.00000000000E+00  0.10721583136E+04  0.10721583136E+04  0.50400001928E-02 0. -1.
        1   -1    0    0  501    0  0.00000000000E+00  0.00000000000E+00 -0.17263071914E+04  0.17263071914E+04  0.50400001928E-02 0.  1.
    10030    2    1    2    0    0  0.00000000000E+00  0.00000000000E+00 -0.65414887774E+03  0.27984655050E+04  0.27209370497E+04 0.  0.
        5    1    3    3  502    0  0.19537442301E+03  0.77758263788E+03  0.80335460234E+03  0.11349919079E+04  0.46999998093E+01 0. -1.
       -5    1    3    3    0  502 -0.19537442301E+03 -0.77758263788E+03 -0.14575034801E+04  0.16634735971E+04  0.46999998093E+01 0.  1.
</event>
<event>
 5   0  0.2697964E-05  0.3003286E+04  0.7818609E-02  0.8242793E-01
        2   -1    0    0  501    0  0.00000000000E+00  0.00000000000E+00  0.21828654847E+04  0.21828654847E+04  0.25500000920E-02 0. -1.
       -2   -1    0    0    0  501  0.00000000000E+00  0.00000000000E+00 -0.10330142136E+04  0.10330142136E+04  0.25500000920E-02 0.  1.
    10030    2    1    2    0    0  0.00000000000E+00  0.00000000000E+00  0.11498512711E+04  0.32158796984E+04  0.30032855823E+04 0.  0.
        1    1    3    3  502    0 -0.12615336994E+04  0.65633900167E+03  0.58407697938E+02  0.14232566947E+04  0.50400001928E-02 0.  1.
       -1    1    3    3    0  502  0.12615336994E+04 -0.65633900167E+03  0.10914435732E+04  0.17926230037E+04  0.50400001928E-02 0. -1.
</event>
<event>
 5   0  0.1067434E-05  0.2762368E+04  0.7818609E-02  0.8315048E-01
       -1   -1    0    0    0  501  0.00000000000E+00  0.00000000000E+00  0.10871391645E+04  0.10871391645E+04  0.50400001928E-02 0.  1.
        1   -1    0    0  501    0  0.00000000000E+00  0.00000000000E+00 -0.17547607397E+04  0.17547607397E+04  0.50400001928E-02 0. -1.
    10030    2    1    2    0    0  0.00000000000E+00  0.00000000000E+00 -0.66762157522E+03  0.28418999042E+04  0.27623679150E+04 0.  0.
        4    1    3    3  502    0 -0.13234398021E+04  0.37515031435E+03 -0.46163305168E+03  0.14509780686E+04  0.12699999809E+01 0. -1.
       -4    1    3    3    0  502  0.13234398021E+04 -0.37515031435E+03 -0.20598852354E+03  0.13909218357E+04  0.12699999809E+01 0.  1.
</event>
<event>
 5   0  0.2588048E-05  0.2800443E+04  0.7818609E-02  0.8303131E-01
       -2   -1    0    0    0  501  0.00000000000E+00  0.00000000000E+00  0.16247190976E+04  0.16247190976E+04  0.25500000920E-02 0.  1.
        2   -1    0    0  501    0  0.00000000000E+00  0.00000000000E+00 -0.12067445685E+04  0.12067445685E+04  0.25500000920E-02 0. -1.
    10030    2    1    2    0    0  0.00000000000E+00  0.00000000000E+00  0.41797452908E+03  0.28314636660E+04  0.28004434979E+04 0.  0.
        2    1    3    3  502    0  0.19838009493E+02 -0.17642915283E+03 -0.11953181364E+04  0.12084313136E+04  0.25500000920E-02 0. -1.
       -2    1    3    3    0  502 -0.19838009493E+02  0.17642915283E+03  0.16132926655E+04  0.16230323524E+04  0.25500000920E-02 0.  1.
</event>
<event>
 5   0  0.1067434E-05  0.1469268E+04  0.7818609E-02  0.8905150E-01
       -1   -1    0    0    0  501  0.00000000000E+00  0.00000000000E+00  0.44634823709E+03  0.44634823711E+03  0.50400001928E-02 0. -1.
        1   -1    0    0  501    0  0.00000000000E+00  0.00000000000E+00 -0.12091173043E+04  0.12091173043E+04  0.50400001928E-02 0.  1.
    10030    2    1    2    0    0  0.00000000000E+00  0.00000000000E+00 -0.76276906720E+03  0.16554655414E+04  0.14692683584E+04 0.  0.
        4    1    3    3  502    0  0.34151370526E+03  0.64767828995E+03 -0.44867750923E+03  0.85873855063E+03  0.12699999809E+01 0. -1.
       -4    1    3    3    0  502 -0.34151370526E+03 -0.64767828995E+03 -0.31409155796E+03  0.79672699078E+03  0.12699999809E+01 0.  1.
</event>
<event>
 5   0  0.1078103E-05  0.2766848E+04  0.7818609E-02  0.8313635E-01
        1   -1    0    0  501    0  0.00000000000E+00  0.00000000000E+00  0.23300126690E+04  0.23300126691E+04  0.50400001928E-02 0.  1.
       -1   -1    0    0    0  501  0.00000000000E+00  0.00000000000E+00 -0.82139528195E+03  0.82139528197E+03  0.50400001928E-02 0. -1.
    10030    2    1    2    0    0  0.00000000000E+00  0.00000000000E+00  0.15086173871E+04  0.31514079510E+04  0.27668476021E+04 0.  0.
        1    1    3    3  502    0  0.27626926708E+03 -0.11165631101E+04 -0.12117543612E+03  0.11565990546E+04  0.50400001928E-02 0. -1.
       -1    1    3    3    0  502 -0.27626926708E+03  0.11165631101E+04  0.16297928232E+04  0.19948088964E+04  0.50400001928E-02 0.  1.
</event>
<event>
 5   0  0.2518686E-05  0.2798983E+04  0.7818609E-02  0.8303584E-01
        2   -1    0    0  501    0  0.00000000000E+00  0.00000000000E+00  0.12801482148E+04  0.12801482148E+04  0.25500000920E-02 0. -1.
       -2   -1    0    0    0  501  0.00000000000E+00  0.00000000000E+00 -0.15299611575E+04  0.15299611575E+04  0.25500000920E-02 0.  1.
    10030    2    1    2    0    0  0.00000000000E+00  0.00000000000E+00 -0.24981294267E+03  0.28101093722E+04  0.27989834186E+04 0.  0.
        5    1    3    3  502    0  0.11124929584E+04 -0.39083111493E+03  0.63185723136E+03  0.13377799496E+04  0.46999998093E+01 0. -1.
       -5    1    3    3    0  502 -0.11124929584E+04  0.39083111493E+03 -0.88167017403E+03  0.14723294226E+04  0.46999998093E+01 0.  1.
</event>
<event>
 5   0  0.1105862E-05  0.2813622E+04  0.7818609E-02  0.8299052E-01
       -1   -1    0    0    0  501  0.00000000000E+00  0.00000000000E+00  0.14100188620E+04  0.14100188620E+04  0.50400001928E-02 0.  1.
        1   -1    0    0  501    0  0.00000000000E+00  0.00000000000E+00 -0.14036108992E+04  0.14036108992E+04  0.50400001928E-02 0. -1.
    10030    2    1    2    0    0  0.00000000000E+00  0.00000000000E+00  0.64079627945E+01  0.28136297611E+04  0.28136224642E+04 0.  0.
        3    1    3    3  502    0  0.79640519081E+03  0.11500869958E+04 -0.14564702284E+03  0.14064758766E+04  0.10100000352E+00 0.  1.
       -3    1    3    3    0  502 -0.79640519081E+03 -0.11500869958E+04  0.15205498564E+03  0.14071538846E+04  0.10100000352E+00 0. -1.
</event>
<event>
 5   0  0.1105862E-05  0.2611263E+04  0.7818609E-02  0.8364386E-01
        1   -1    0    0  501    0  0.00000000000E+00  0.00000000000E+00  0.20009575495E+04  0.20009575495E+04  0.50400001928E-02 0. -1.
       -1   -1    0    0    0  501  0.00000000000E+00  0.00000000000E+00 -0.85192877749E+03  0.85192877751E+03  0.50400001928E-02 0.  1.
    10030    2    1    2    0    0  0.00000000000E+00  0.00000000000E+00  0.11490287720E+04  0.28528863270E+04  0.26112627742E+04 0.  0.
        3    1    3    3  502    0 -0.41096444388E+03  0.24663882461E+03  0.19013669273E+04  0.19608464209E+04  0.10100000352E+00 0. -1.
       -3    1    3    3    0  502  0.41096444388E+03 -0.24663882461E+03 -0.75233815531E+03  0.89203990610E+03  0.10100000352E+00 0.  1.
</event>
<event>
 5   0  0.2588048E-05  0.2710442E+04  0.7818609E-02  0.8331625E-01
       -2   -1    0    0    0  501  0.00000000000E+00  0.00000000000E+00  0.81647093017E+03  0.81647093018E+03  0.25500000920E-02 0.  1.
        2   -1    0    0  501    0  0.00000000000E+00  0.00000000000E+00 -0.22494664661E+04  0.22494664661E+04  0.25500000920E-02 0. -1.
    10030    2    1    2    0    0  0.00000000000E+00  0.00000000000E+00 -0.14329955359E+04  0.30659373963E+04  0.27104420141E+04 0.  0.
        2    1    3    3  502    0  0.11192759154E+04  0.56521369120E+03 -0.13488149845E+03  0.12611257313E+04  0.25500000920E-02 0.  1.
       -2    1    3    3    0  502 -0.11192759154E+04 -0.56521369120E+03 -0.12981140375E+04  0.18048116650E+04  0.25500000920E-02 0. -1.
</event>
<event>
 5   0  0.2624815E-05  0.2744798E+04  0.7818609E-02  0.8320614E-01
       -2   -1    0    0    0  501  0.00000000000E+00  0.00000000000E+00  0.12092280573E+04  0.12092280573E+04  0.25500000920E-02 0.  1.
        2   -1    0    0  501    0  0.00000000000E+00  0.00000000000E+00 -0.15575879656E+04  0.15575879656E+04  0.25500000920E-02 0. -1.
    10030    2    1    2    0    0  0.00000000000E+00  0.00000000000E+00 -0.34835990827E+03  0.27668160229E+04  0.27447980397E+04 0.  0.
        4    1    3    3  502    0 -0.13402318454E+04 -0.25471407886E+03 -0.23391241927E+02  0.13644227441E+04  0.12699999809E+01 0.  1.
       -4    1    3    3    0  502  0.13402318454E+04  0.25471407886E+03 -0.32496866635E+03  0.14023932788E+04  0.12699999809E+01 0. -1.
</event>
<event>
 5   0  0.1105862E-05  0.2776409E+04  0.7818609E-02  0.8310630E-01
       -1   -1    0    0    0  501  0.00000000000E+00  0.00000000000E+00  0.13595621172E+04  0.13595621172E+04  0.50400001928E-02 0. -1.
        1   -1    0    0  501    0  0.00000000000E+00  0.00000000000E+00 -0.14174501554E+04  0.14174501554E+04  0.50400001928E-02 0.  1.
    10030    2    1    2    0    0  0.00000000000E+00  0.00000000000E+00 -0.57888038215E+02  0.27770122726E+04  0.27764088563E+04 0.  0.
        3    1    3    3  502    0 -0.54870625694E+03  0.10546007319E+04  0.68804527339E+03  0.13735601802E+04  0.10100000352E+00 0. -1.
       -3    1    3    3    0  502  0.54870625694E+03 -0.10546007319E+04 -0.74593331160E+03  0.14034520924E+04  0.10100000352E+00 0.  1.
</event>
<event>
 5   0  0.2588048E-05  0.2725782E+04  0.7818609E-02  0.8326688E-01
        2   -1    0    0  501    0  0.00000000000E+00  0.00000000000E+00  0.10755662541E+04  0.10755662541E+04  0.25500000920E-02 0.  1.
       -2   -1    0    0    0  501  0.00000000000E+00  0.00000000000E+00 -0.17269712564E+04  0.17269712564E+04  0.25500000920E-02 0. -1.
    10030    2    1    2    0    0  0.00000000000E+00  0.00000000000E+00 -0.65140500228E+03  0.28025375105E+04  0.27257820934E+04 0.  0.
        2    1    3    3  502    0 -0.27266577897E+01 -0.69845330377E+03  0.87756321280E+03  0.11215888929E+04  0.25500000920E-02 0.  1.
       -2    1    3    3    0  502  0.27266577897E+01  0.69845330377E+03 -0.15289682151E+04  0.16809486176E+04  0.25500000920E-02 0. -1.
</event>
<event>
 5   0  0.2624815E-05  0.2824770E+04  0.7818609E-02  0.8295619E-01
       -2   -1    0    0    0  501  0.00000000000E+00  0.00000000000E+00  0.12376843061E+04  0.12376843061E+04  0.25500000920E-02 0. -1.
        2   -1    0    0  501    0  0.00000000000E+00  0.00000000000E+00 -0.16117444431E+04  0.16117444431E+04  0.25500000920E-02 0.  1.
    10030    2    1    2    0    0  0.00000000000E+00  0.00000000000E+00 -0.37406013692E+03  0.28494287492E+04  0.28247695854E+04 0.  0.
        4    1    3    3  502    0 -0.34821384358E+03  0.70398325710E+03  0.99709300103E+03  0.12692680461E+04  0.12699999809E+01 0. -1.
       -4    1    3    3    0  502  0.34821384358E+03 -0.70398325710E+03 -0.13711531380E+04  0.15801607031E+04  0.12699999809E+01 0.  1.
</event>
<event>
 5   0  0.2651061E-05  0.2748223E+04  0.7818609E-02  0.8319526E-01
        2   -1    0    0  501    0  0.00000000000E+00  0.00000000000E+00  0.19449651015E+04  0.19449651015E+04  0.25500000920E-02 0.  1.
       -2   -1    0    0    0  501  0.00000000000E+00  0.00000000000E+00 -0.97080525536E+03  0.97080525536E+03  0.25500000920E-02 0. -1.
    10030    2    1    2    0    0  0.00000000000E+00  0.00000000000E+00  0.97415984612E+03  0.29157703568E+04  0.27482229473E+04 0.  0.
        3    1    3    3  502    0  0.27950002677E+02  0.80415749637E+03  0.16688699489E+04  0.18527216192E+04  0.10100000352E+00 0.  1.
       -3    1    3    3    0  502 -0.27950002677E+02 -0.80415749637E+03 -0.69471010276E+03  0.10630487377E+04  0.10100000352E+00 0. -1.
</event>
<event>
 5   0  0.1105862E-05  0.2809492E+04  0.7818609E-02  0.8300328E-01
       -1   -1    0    0    0  501  0.00000000000E+00  0.00000000000E+00  0.85968827165E+03  0.85968827167E+03  0.50400001928E-02 0.  1.
        1   -1    0    0  501    0  0.00000000000E+00  0.00000000000E+00 -0.22953795221E+04  0.22953795221E+04  0.50400001928E-02 0. -1.
    10030    2    1    2    0    0  0.00000000000E+00  0.00000000000E+00 -0.14356912505E+04  0.31550677938E+04  0.28094916652E+04 0.  0.
        3    1    3    3  502    0  0.60399452493E+03  0.74611089387E+03 -0.18695782206E+04  0.21016216561E+04  0.10100000352E+00 0. -1.
       -3    1    3    3    0  502 -0.60399452493E+03 -0.74611089387E+03  0.43388697011E+03  0.10534461377E+04  0.10100000352E+00 0.  1.
</event>
<event>
 5   0  0.2588048E-05  0.1481405E+04  0.7818609E-02  0.8896913E-01
       -2   -1    0    0    0  501  0.00000000000E+00  0.00000000000E+00  0.81186696856E+03  0.81186696856E+03  0.25500000920E-02 0. -1.
        2   -1    0    0  501    0  0.00000000000E+00  0.00000000000E+00 -0.67577609417E+03  0.67577609418E+03  0.25500000920E-02 0.  1.
    10030    2    1    2    0    0  0.00000000000E+00  0.00000000000E+00  0.13609087439E+03  0.14876430627E+04  0.14814051289E+04 0.  0.
        2    1    3    3  502    0  0.31769002310E+03  0.59975458052E+02  0.73727211540E+03  0.80504296686E+03  0.25500000920E-02 0. -1.
       -2    1    3    3    0  502 -0.31769002310E+03 -0.59975458052E+02 -0.60118124101E+03  0.68260009588E+03  0.25500000920E-02 0.  1.
</event>
<event>
 5   0  0.8958000E-06  0.2803913E+04  0.7818609E-02  0.8302055E-01
       -3   -1    0    0    0  501  0.00000000000E+00  0.00000000000E+00  0.13065351088E+04  0.13065351127E+04  0.10100000352E+00 0.  1.
        3   -1    0    0  501    0  0.00000000000E+00  0.00000000000E+00 -0.15043466976E+04  0.15043467010E+04  0.10100000352E+00 0. -1.
    10030    2    1    2    0    0  0.00000000000E+00  0.00000000000E+00 -0.19781158876E+03  0.28108818137E+04  0.28039128278E+04 0.  0.
        2    1    3    3  502    0  0.51109916028E+03 -0.36653560260E+03  0.11571693056E+04  0.13170465069E+04  0.25500000920E-02 0.  1.
       -2    1    3    3    0  502 -0.51109916028E+03  0.36653560260E+03 -0.13549808944E+04  0.14938353068E+04  0.25500000920E-02 0. -1.
</event>
<event>
 5   0  0.1067434E-05  0.2739701E+04  0.7818609E-02  0.8322237E-01
       -1   -1    0    0    0  501  0.00000000000E+00  0.00000000000E+00  0.13839080361E+04  0.13839080361E+04  0.50400001928E-02 0.  1.
        1   -1    0    0  501    0  0.00000000000E+00  0.00000000000E+00 -0.13559353709E+04  0.13559353709E+04  0.50400001928E-02 0. -1.
    10030    2    1    2    0    0  0.00000000000E+00  0.00000000000E+00  0.27972665192E+02  0.27398434070E+04  0.27397006087E+04 0.  0.
        4    1    3    3  502    0  0.93034581196E+03 -0.10047053884E+04 -0.24900088733E+02  0.13695246893E+04  0.12699999809E+01 0. -1.
       -4    1    3    3    0  502 -0.93034581196E+03  0.10047053884E+04  0.52872753925E+02  0.13703187178E+04  0.12699999809E+01 0.  1.
</event>
<event>
 5   0  0.2588048E-05  0.2802480E+04  0.7818609E-02  0.8302499E-01
        2   -1    0    0  501    0  0.00000000000E+00  0.00000000000E+00  0.20502439270E+04  0.20502439270E+04  0.25500000920E-02 0. -1.
       -2   -1    0    0    0  501  0.00000000000E+00  0.00000000000E+00 -0.95767823443E+03  0.95767823443E+03  0.25500000920E-02 0.  1.
    10030    2    1    2    0    0  0.00000000000E+00  0.00000000000E+00  0.10925656926E+04  0.30079221614E+04  0.28024803187E+04 0.  0.
        2    1    3    3  502    0 -0.36905413228E+02  0.19339903611E+03  0.20353234373E+04  0.20448243668E+04  0.25500000920E-02 0. -1.
       -2    1    3    3    0  502  0.36905413228E+02 -0.19339903611E+03 -0.94275774474E+03  0.96309779460E+03  0.25500000920E-02 0.  1.
</event>
<event>
 5   0  0.1017456E-05  0.2774432E+04  0.7818609E-02  0.8311250E-01
        1   -1    0    0  501    0  0.00000000000E+00  0.00000000000E+00  0.22986056104E+04  0.22986056105E+04  0.50400001928E-02 0. -1.
       -1   -1    0    0    0  501  0.00000000000E+00  0.00000000000E+00 -0.83718958250E+03  0.83718958251E+03  0.50400001928E-02 0.  1.
    10030    2    1    2    0    0  0.00000000000E+00  0.00000000000E+00  0.14614160280E+04  0.31357951930E+04  0.27744323177E+04 0.  0.
        5    1    3    3  502    0 -0.14096008542E+03 -0.20691515665E+03 -0.81143298597E+03  0.84919326920E+03  0.46999998093E+01 0.  1.
       -5    1    3    3    0  502  0.14096008542E+03  0.20691515665E+03  0.22728490139E+04  0.22866019238E+04  0.46999998093E+01 0. -1.
</event>
<event>
 5   0  0.1017456E-05  0.1537847E+04  0.7818609E-02  0.8859668E-01
        1   -1    0    0  501    0  0.00000000000E+00  0.00000000000E+00  0.86364022494E+03  0.86364022496E+03  0.50400001928E-02 0.  1.
       -1   -1    0    0    0  501  0.00000000000E+00  0.00000000000E+00 -0.68459411630E+03  0.68459411632E+03  0.50400001928E-02 0. -1.
    10030    2    1    2    0    0  0.00000000000E+00  0.00000000000E+00  0.17904610864E+03  0.15482343413E+04  0.15378465679E+04 0.  0.
        5    1    3    3  502    0 -0.12123453232E+03 -0.36579107911E+03  0.75938955549E+03  0.85158411937E+03  0.46999998093E+01 0.  1.
       -5    1    3    3    0  502  0.12123453232E+03  0.36579107911E+03 -0.58034344685E+03  0.69665022191E+03  0.46999998093E+01 0. -1.
</event>
<event>
 5   0  0.1105862E-05  0.2378225E+04  0.7818609E-02  0.8447701E-01
       -1   -1    0    0    0  501  0.00000000000E+00  0.00000000000E+00  0.15114526415E+04  0.15114526415E+04  0.50400001928E-02 0. -1.
        1   -1    0    0  501    0  0.00000000000E+00  0.00000000000E+00 -0.93551622197E+03  0.93551622198E+03  0.50400001928E-02 0.  1.
    10030    2    1    2    0    0  0.00000000000E+00  0.00000000000E+00  0.57593641952E+03  0.24469688635E+04  0.23782249388E+04 0.  0.
        3    1    3    3  502    0  0.11773906035E+04 -0.14502516321E+03  0.20370138793E+03  0.12036507786E+04  0.10100000352E+00 0. -1.
       -3    1    3    3    0  502 -0.11773906035E+04  0.14502516321E+03  0.37223503159E+03  0.12433180849E+04  0.10100000352E+00 0.  1.
</event>
<event>
 5   0  0.1075146E-05  0.3091448E+04  0.7818609E-02  0.8218089E-01
        1   -1    0    0  501    0  0.00000000000E+00  0.00000000000E+00  0.23702561220E+04  0.23702561220E+04  0.50400001928E-02 0.  1.
       -1   -1    0    0    0  501  0.00000000000E+00  0.00000000000E+00 -0.10080190892E+04  0.10080190892E+04  0.50400001928E-02 0. -1.
    10030    2    1    2    0    0  0.00000000000E+00  0.00000000000E+00  0.13622370328E+04  0.33782752112E+04  0.30914484743E+04 0.  0.
        2    1    3    3  502    0  0.19465542215E+03 -0.81753711629E+03 -0.73655365256E+03  0.11174833122E+04  0.25500000920E-02 0. -1.
       -2    1    3    3    0  502 -0.19465542215E+03  0.81753711629E+03  0.20987906853E+04  0.22607918990E+04  0.25500000920E-02 0.  1.
</event>
<event>
 5   0  0.2518686E-05  0.2367839E+04  0.7818609E-02  0.8451643E-01
       -2   -1    0    0    0  501  0.00000000000E+00  0.00000000000E+00  0.99558177358E+03  0.99558177358E+03  0.25500000920E-02 0. -1.
        2   -1    0    0  501    0  0.00000000000E+00  0.00000000000E+00 -0.14078859836E+04  0.14078859836E+04  0.25500000920E-02 0.  1.
    10030    2    1    2    0    0  0.00000000000E+00  0.00000000000E+00 -0.41230421002E+03  0.24034677572E+04  0.23678392045E+04 0.  0.
        5    1    3    3  502    0 -0.77316992635E+03  0.89637478081E+03 -0.18678486538E+03  0.11984115147E+04  0.46999998093E+01 0. -1.
       -5    1    3    3    0  502  0.77316992635E+03 -0.89637478081E+03 -0.22551934464E+03  0.12050562425E+04  0.46999998093E+01 0.  1.
</event>
<event>
 5   0  0.1067434E-05  0.2738545E+04  0.7818609E-02  0.8322606E-01
        1   -1    0    0  501    0  0.00000000000E+00  0.00000000000E+00  0.93122192789E+03  0.93122192790E+03  0.50400001928E-02 0.  1.
       -1   -1    0    0    0  501  0.00000000000E+00  0.00000000000E+00 -0.20133838152E+04  0.20133838152E+04  0.50400001928E-02 0. -1.
    10030    2    1    2    0    0  0.00000000000E+00  0.00000000000E+00 -0.10821618873E+04  0.29446057431E+04  0.27385449845E+04 0.  0.
        4    1    3    3  502    0 -0.11608559720E+04 -0.20348333883E+03 -0.12906070305E+04  0.17477586152E+04  0.12699999809E+01 0. -1.
       -4    1    3    3    0  502  0.11608559720E+04  0.20348333883E+03  0.20844514321E+03  0.11968471279E+04  0.12699999809E+01 0.  1.
</event>
<event>
 5   0  0.1017456E-05  0.2636995E+04  0.7818609E-02  0.8355742E-01
        1   -1    0    0  501    0  0.00000000000E+00  0.00000000000E+00  0.16003120678E+04  0.16003120678E+04  0.50400001928E-02 0.  1.
       -1   -1    0    0    0  501  0.00000000000E+00  0.00000000000E+00 -0.10863102915E+04  0.10863102915E+04  0.50400001928E-02 0. -1.
    10030    2    1    2    0    0  0.00000000000E+00  0.00000000000E+00  0.51400177630E+03  0.26866223593E+04  0.26369948569E+04 0.  0.
        5    1    3    3  502    0  0.57233790490E+03  0.24288927646E+03 -0.92757037648E+03  0.11166802458E+04  0.46999998093E+01 0. -1.
       -5    1    3    3    0  502 -0.57233790490E+03 -0.24288927646E+03  0.14415721528E+04  0.15699421135E+04  0.46999998093E+01 0.  1.
</event>
<event>
 5   0  0.2588048E-05  0.2749595E+04  0.7818609E-02  0.8319090E-01
       -2   -1    0    0    0  501  0.00000000000E+00  0.00000000000E+00  0.11894659926E+04  0.11894659926E+04  0.25500000920E-02 0.  1.
        2   -1    0    0  501    0  0.00000000000E+00  0.00000000000E+00 -0.15890052562E+04  0.15890052562E+04  0.25500000920E-02 0. -1.
    10030    2    1    2    0    0  0.00000000000E+00  0.00000000000E+00 -0.39953926366E+03  0.27784712488E+04  0.27495946715E+04 0.  0.
        2    1    3    3  502    0  0.56365293071E+03  0.28150362471E+03 -0.14345349173E+04  0.15667926940E+04  0.25500000920E-02 0. -1.
       -2    1    3    3    0  502 -0.56365293071E+03 -0.28150362471E+03  0.10349956537E+04  0.12116785548E+04  0.25500000920E-02 0.  1.
</event>
<event>
 5   0  0.1075146E-05  0.2724427E+04  0.7818609E-02  0.8327123E-01
        1   -1    0    0  501    0  0.00000000000E+00  0.00000000000E+00  0.13628155560E+04  0.13628155560E+04  0.50400001928E-02 0. -1.
       -1   -1    0    0    0  501  0.00000000000E+00  0.00000000000E+00 -0.13616116778E+04  0.13616116778E+04  0.50400001928E-02 0.  1.
    10030    2    1    2    0    0  0.00000000000E+00  0.00000000000E+00  0.12038781725E+01  0.27244272338E+04  0.27244269678E+04 0.  0.
        2    1    3    3  502    0  0.12604662840E+04  0.46047892060E+03 -0.23351234296E+03  0.13621101658E+04  0.25500000920E-02 0.  1.
       -2    1    3    3    0  502 -0.12604662840E+04 -0.46047892060E+03  0.23471622113E+03  0.13623170680E+04  0.25500000920E-02 0. -1.
</event>
<event>
 5   0  0.2518686E-05  0.1905190E+04  0.7818609E-02  0.8652277E-01
       -2   -1    0    0    0  501  0.00000000000E+00  0.00000000000E+00  0.72711868836E+03  0.72711868836E+03  0.25500000920E-02 0. -1.
        2   -1    0    0  501    0  0.00000000000E+00  0.00000000000E+00 -0.12479903441E+04  0.12479903441E+04  0.25500000920E-02 0.  1.
    10030    2    1    2    0    0  0.00000000000E+00  0.00000000000E+00 -0.52087165574E+03  0.19751090325E+04  0.19051898615E+04 0.  0.
        5    1    3    3  502    0  0.22633040532E+03  0.34834078022E+03 -0.11491286012E+04  0.12219187304E+04  0.46999998093E+01 0.  1.
       -5    1    3    3    0  502 -0.22633040532E+03 -0.34834078022E+03  0.62825694550E+03  0.75319030205E+03  0.46999998093E+01 0. -1.
</event>
<event>
 5   0  0.1078103E-05  0.2394926E+04  0.7818609E-02  0.8441405E-01
        1   -1    0    0  501    0  0.00000000000E+00  0.00000000000E+00  0.14453143841E+04  0.14453143841E+04  0.50400001928E-02 0.  1.
       -1   -1    0    0    0  501  0.00000000000E+00  0.00000000000E+00 -0.99211502284E+03  0.99211502286E+03  0.50400001928E-02 0. -1.
    10030    2    1    2    0    0  0.00000000000E+00  0.00000000000E+00  0.45319936123E+03  0.24374294069E+04  0.23949263982E+04 0.  0.
        1    1    3    3  502    0 -0.63965080127E+03  0.68049887255E+03 -0.53615832006E+03  0.10768925700E+04  0.50400001928E-02 0. -1.
       -1    1    3    3    0  502  0.63965080127E+03 -0.68049887255E+03  0.98935768130E+03  0.13605368369E+04  0.50400001928E-02 0.  1.
</event>
<event>
 5   0  0.2651061E-05  0.2769706E+04  0.7818609E-02  0.8312736E-01
        2   -1    0    0  501    0  0.00000000000E+00  0.00000000000E+00  0.92215047850E+03  0.92215047850E+03  0.25500000920E-02 0. -1.
       -2   -1    0    0    0  501  0.00000000000E+00  0.00000000000E+00 -0.20797227599E+04  0.20797227599E+04  0.25500000920E-02 0.  1.
    10030    2    1    2    0    0  0.00000000000E+00  0.00000000000E+00 -0.11575722814E+04  0.30018732384E+04  0.27697056437E+04 0.  0.
        3    1    3    3  502    0  0.15840000630E+03 -0.27212826826E+03 -0.20404113990E+04  0.20645636449E+04  0.10100000352E+00 0.  1.
       -3    1    3    3    0  502 -0.15840000630E+03  0.27212826826E+03  0.88283911759E+03  0.93730959354E+03  0.10100000352E+00 0. -1.
</event>
<event>
 5   0  0.2518686E-05  0.2715412E+04  0.7818609E-02  0.8330021E-01
        2   -1    0    0  501    0  0.00000000000E+00  0.00000000000E+00  0.16900738227E+04  0.16900738227E+04  0.25500000920E-02 0.  1.
       -2   -1    0    0    0  501  0.00000000000E+00  0.00000000000E+00 -0.10907016199E+04  0.10907016199E+04  0.25500000920E-02 0. -1.
    10030    2    1    2    0    0  0.00000000000E+00  0.00000000000E+00  0.59937220275E+03  0.27807754426E+04  0.27154124963E+04 0.  0.
        5    1    3    3  502    0  0.58924740164E+03  0.63960871353E+03 -0.76801906335E+03  0.11602530665E+04  0.46999998093E+01 0. -1.
       -5    1    3    3    0  502 -0.58924740164E+03 -0.63960871353E+03  0.13673912661E+04  0.16205223761E+04  0.46999998093E+01 0.  1.
</event>
<event>
 5   0  0.1078103E-05  0.2811902E+04  0.7818609E-02  0.8299583E-01
       -1   -1    0    0    0  501  0.00000000000E+00  0.00000000000E+00  0.11118070143E+04  0.11118070143E+04  0.50400001928E-02 0.  1.
        1   -1    0    0  501    0  0.00000000000E+00  0.00000000000E+00 -0.17779145172E+04  0.17779145172E+04  0.50400001928E-02 0. -1.
    10030    2    1    2    0    0  0.00000000000E+00  0.00000000000E+00 -0.66610750286E+03  0.28897215315E+04  0.28119017274E+04 0.  0.
        1    1    3    3  502    0 -0.52586881951E+03  0.77926968201E+03 -0.14074037459E+04  0.16925083623E+04  0.50400001928E-02 0. -1.
       -1    1    3    3    0  502  0.52586881951E+03 -0.77926968201E+03  0.74129624300E+03  0.11972131692E+04  0.50400001928E-02 0.  1.
</event>
<event>
 5   0  0.2588048E-05  0.3015166E+04  0.7818609E-02  0.8239413E-01
        2   -1    0    0  501    0  0.00000000000E+00  0.00000000000E+00  0.22210121286E+04  0.22210121286E+04  0.25500000920E-02 0.  1.
       -2   -1    0    0    0  501  0.00000000000E+00  0.00000000000E+00 -0.10233204759E+04  0.10233204759E+04  0.25500000920E-02 0. -1.
    10030    2    1    2    0    0  0.00000000000E+00  0.00000000000E+00  0.11976916527E+04  0.32443326044E+04  0.30151664553E+04 0.  0.
        2    1    3    3  502    0 -0.75011414695E+03  0.94707100623E+03 -0.37146471814E+03  0.12639623258E+04  0.25500000920E-02 0. -1.
       -2    1    3    3    0  502  0.75011414695E+03 -0.94707100623E+03  0.15691563708E+04  0.19803702786E+04  0.25500000920E-02 0.  1.
</event>
<event>
 5   0  0.2518686E-05  0.2800293E+04  0.7818609E-02  0.8303177E-01
        2   -1    0    0  501    0  0.00000000000E+00  0.00000000000E+00  0.69053987012E+03  0.69053987012E+03  0.25500000920E-02 0. -1.
       -2   -1    0    0    0  501  0.00000000000E+00  0.00000000000E+00 -0.28389528872E+04  0.28389528872E+04  0.25500000920E-02 0.  1.
    10030    2    1    2    0    0  0.00000000000E+00  0.00000000000E+00 -0.21484130170E+04  0.35294927573E+04  0.28002929547E+04 0.  0.
        5    1    3    3  502    0  0.14668706152E+03 -0.12748378160E+04 -0.17800981865E+04  0.21944247982E+04  0.46999998093E+01 0.  1.
       -5    1    3    3    0  502 -0.14668706152E+03  0.12748378160E+04 -0.36831483053E+03  0.13350679591E+04  0.46999998093E+01 0. -1.
</event>
<event>
 5   0  0.1075146E-05  0.2817018E+04  0.7818609E-02  0.8298004E-01
        1   -1    0    0  501    0  0.00000000000E+00  0.00000000000E+00  0.24921648570E+04  0.24921648570E+04  0.50400001928E-02 0.  1.
       -1   -1    0    0    0  501  0.00000000000E+00  0.00000000000E+00 -0.79605387366E+03  0.79605387367E+03  0.50400001928E-02 0. -1.
    10030    2    1    2    0    0  0.00000000000E+00  0.00000000000E+00  0.16961109833E+04  0.32882187307E+04  0.28170179185E+04 0.  0.
        2    1    3    3  502    0  0.59142419067E+03  0.72372921178E+03  0.20780333994E+04  0.22785498358E+04  0.25500000920E-02 0.  1.
       -2    1    3    3    0  502 -0.59142419067E+03 -0.72372921178E+03 -0.38192241608E+03  0.10096688948E+04  0.25500000920E-02 0. -1.
</event>
<event>
 5   0  0.2518686E-05  0.2668245E+04  0.7818609E-02  0.8345382E-01
       -2   -1    0    0    0  501  0.00000000000E+00  0.00000000000E+00  0.61289335049E+03  0.61289335049E+03  0.25500000920E-02 0.  1.
        2   -1    0    0  501    0  0.00000000000E+00  0.00000000000E+00 -0.29040662995E+04  0.29040662995E+04  0.25500000920E-02 0. -1.
    10030    2    1    2    0    0  0.00000000000E+00  0.00000000000E+00 -0.22911729490E+04  0.35169596500E+04  0.26682450595E+04 0.  0.
        5    1    3    3  502    0 -0.11922710466E+04 -0.35685804140E+03 -0.51208094435E+03  0.13457737157E+04  0.46999998093E+01 0. -1.
       -5    1    3    3    0  502  0.11922710466E+04  0.35685804140E+03 -0.17790920047E+04  0.21711859343E+04  0.46999998093E+01 0.  1.
</event>
<event>
 5   0  0.1067434E-05  0.2606161E+04  0.7818609E-02  0.8366111E-01
       -1   -1    0    0    0  501  0.00000000000E+00  0.00000000000E+00  0.14221018208E+04  0.14221018208E+04  0.50400001928E-02 0.  1.
        1   -1    0    0  501    0  0.00000000000E+00  0.00000000000E+00 -0.11940208151E+04  0.11940208151E+04  0.50400001928E-02 0. -1.
    10030    2    1    2    0    0  0.00000000000E+00  0.00000000000E+00  0.22808100574E+03  0.26161226359E+04  0.26061612960E+04 0.  0.
        4    1    3    3  502    0  0.11319654183E+04 -0.64252131726E+03  0.51850406283E+02  0.13026394086E+04  0.12699999809E+01 0. -1.
       -4    1    3    3    0  502 -0.11319654183E+04  0.64252131726E+03  0.17623059946E+03  0.13134832273E+04  0.12699999809E+01 0.  1.
</event>
<event>
 5   0  0.1017456E-05  0.2579252E+04  0.7818609E-02  0.8375283E-01
       -1   -1    0    0    0  501  0.00000000000E+00  0.00000000000E+00  0.12206555132E+04  0.12206555132E+04  0.50400001928E-02 0.  1.
        1   -1    0    0  501    0  0.00000000000E+00  0.00000000000E+00 -0.13624938924E+04  0.13624938924E+04  0.50400001928E-02 0. -1.
    10030    2    1    2    0    0  0.00000000000E+00  0.00000000000E+00 -0.14183837919E+03  0.25831494055E+04  0.25792523579E+04 0.  0.
        5    1    3    3  502    0  0.81194296302E+03  0.20638896345E+03  0.91100382198E+03  0.12376582053E+04  0.46999998093E+01 0.  1.
       -5    1    3    3    0  502 -0.81194296302E+03 -0.20638896345E+03 -0.10528422012E+04  0.13454912003E+04  0.46999998093E+01 0. -1.
</event>
<event>
 5   0  0.1017456E-05  0.1926746E+04  0.7818609E-02  0.8641656E-01
       -1   -1    0    0    0  501  0.00000000000E+00  0.00000000000E+00  0.56967618497E+03  0.56967618499E+03  0.50400001928E-02 0. -1.
        1   -1    0    0  501    0  0.00000000000E+00  0.00000000000E+00 -0.16291494458E+04  0.16291494459E+04  0.50400001928E-02 0.  1.
    10030    2    1    2    0    0  0.00000000000E+00  0.00000000000E+00 -0.10594732609E+04  0.21988256308E+04  0.19267461079E+04 0.  0.
        5    1    3    3  502    0 -0.56875365565E+03 -0.60479250864E+02 -0.14143982616E+04  0.15256746026E+04  0.46999998093E+01 0.  1.
       -5    1    3    3    0  502  0.56875365565E+03  0.60479250864E+02  0.35492500077E+03  0.67315102820E+03  0.46999998093E+01 0. -1.
</event>
<event>
 5   0  0.8958000E-06  0.2805995E+04  0.7818609E-02  0.8301410E-01
       -3   -1    0    0    0  501  0.00000000000E+00  0.00000000000E+00  0.87814487305E+03  0.87814487885E+03  0.10100000352E+00 0. -1.
        3   -1    0    0  501    0  0.00000000000E+00  0.00000000000E+00 -0.22415459432E+04  0.22415459455E+04  0.10100000352E+00 0.  1.
    10030    2    1    2    0    0  0.00000000000E+00  0.00000000000E+00 -0.13634010702E+04  0.31196908244E+04  0.28059950751E+04 0.  0.
        4    1    3    3  502    0  0.40725100971E+03  0.44531268844E+03 -0.20898858877E+04  0.21752658256E+04  0.12699999809E+01 0.  1.
       -4    1    3    3    0  502 -0.40725100971E+03 -0.44531268844E+03  0.72648481750E+03  0.94442499880E+03  0.12699999809E+01 0. -1.
</event>
<event>
 5   0  0.2651061E-05  0.2576450E+04  0.7818609E-02  0.8376245E-01
       -2   -1    0    0    0  501  0.00000000000E+00  0.00000000000E+00  0.10584261452E+04  0.10584261452E+04  0.25500000920E-02 0. -1.
        2   -1    0    0  501    0  0.00000000000E+00  0.00000000000E+00 -0.15679168393E+04  0.15679168393E+04  0.25500000920E-02 0.  1.
    10030    2    1    2    0    0  0.00000000000E+00  0.00000000000E+00 -0.50949069409E+03  0.26263429845E+04  0.25764504080E+04 0.  0.
        3    1    3    3  502    0  0.88915007087E+00 -0.99352333597E+03 -0.10906461273E+04  0.14753299275E+04  0.10100000352E+00 0. -1.
       -3    1    3    3    0  502 -0.88915007087E+00  0.99352333597E+03  0.58115543321E+03  0.11510130570E+04  0.10100000352E+00 0.  1.
</event>
<event>
 5   0  0.1017456E-05  0.2967627E+04  0.7818609E-02  0.8253036E-01
        1   -1    0    0  501    0  0.00000000000E+00  0.00000000000E+00  0.13617879762E+04  0.13617879762E+04  0.50400001928E-02 0.  1.
       -1   -1    0    0    0  501  0.00000000000E+00  0.00000000000E+00 -0.16167738039E+04  0.16167738040E+04  0.50400001928E-02 0. -1.
    10030    2    1    2    0    0  0.00000000000E+00  0.00000000000E+00 -0.25498582779E+03  0.29785617801E+04  0.29676274203E+04 0.  0.
        5    1    3    3  502    0 -0.91268346964E+03  0.11683500161E+04 -0.18811546561E+03  0.14944706067E+04  0.46999998093E+01 0.  1.
       -5    1    3    3    0  502  0.91268346964E+03 -0.11683500161E+04 -0.66870362182E+02  0.14840911734E+04  0.46999998093E+01 0. -1.
</event>
<event>
 5   0  0.1017456E-05  0.2250455E+04  0.7818609E-02  0.8497716E-01
        1   -1    0    0  501    0  0.00000000000E+00  0.00000000000E+00  0.10491473278E+04  0.10491473278E+04  0.50400001928E-02 0.  1.
       -1   -1    0    0    0  501  0.00000000000E+00  0.00000000000E+00 -0.12068242315E+04  0.12068242315E+04  0.50400001928E-02 0. -1.
    10030    2    1    2    0    0  0.00000000000E+00  0.00000000000E+00 -0.15767690372E+03  0.22559715593E+04  0.22504545476E+04 0.  0.
        5    1    3    3  502    0  0.56365010637E+02  0.84190146770E+03  0.66739175254E+03  0.10758294182E+04  0.46999998093E+01 0.  1.
       -5    1    3    3    0  502 -0.56365010637E+02 -0.84190146770E+03 -0.82506865625E+03  0.11801421411E+04  0.46999998093E+01 0. -1.
</event>
<event>
 5   0  0.2651061E-05  0.2809525E+04  0.7818609E-02  0.8300317E-01
        2   -1    0    0  501    0  0.00000000000E+00  0.00000000000E+00  0.75480964569E+03  0.75480964569E+03  0.25500000920E-02 0.  1.
       -2   -1    0    0    0  501  0.00000000000E+00  0.00000000000E+00 -0.26143776104E+04  0.26143776104E+04  0.25500000920E-02 0. -1.
    10030    2    1    2    0    0  0.00000000000E+00  0.00000000000E+00 -0.18595679647E+04  0.33691872561E+04  0.28095248266E+04 0.  0.
        3    1    3    3  502    0 -0.10214918323E+04  0.95827517353E+03 -0.10590563577E+04  0.17559434075E+04  0.10100000352E+00 0.  1.
       -3    1    3    3    0  502  0.10214918323E+04 -0.95827517353E+03 -0.80051160701E+03  0.16132438485E+04  0.10100000352E+00 0. -1.
</event>
<event>
 5   0  0.2697964E-05  0.2939948E+04  0.7818609E-02  0.8261090E-01
       -2   -1    0    0    0  501  0.00000000000E+00  0.00000000000E+00  0.10038515460E+04  0.10038515460E+04  0.25500000920E-02 0.  1.
        2   -1    0    0  501    0  0.00000000000E+00  0.00000000000E+00 -0.21525323157E+04  0.21525323157E+04  0.25500000920E-02 0. -1.
    10030    2    1    2    0    0  0.00000000000E+00  0.00000000000E+00 -0.11486807697E+04  0.31563838617E+04  0.29399475458E+04 0.  0.
        1    1    3    3  502    0  0.99790791675E+03 -0.10255240745E+04 -0.93572615072E+03  0.17097085327E+04  0.50400001928E-02 0. -1.
       -1    1    3    3    0  502 -0.99790791675E+03  0.10255240745E+04 -0.21295461894E+03  0.14466753290E+04  0.50400001928E-02 0.  1.
</event>
<event>
 5   0  0.2624815E-05  0.2714293E+04  0.7818609E-02  0.8330382E-01
       -2   -1    0    0    0  501  0.00000000000E+00  0.00000000000E+00  0.95059979749E+03  0.95059979749E+03  0.25500000920E-02 0.  1.
        2   -1    0    0  501    0  0.00000000000E+00  0.00000000000E+00 -0.19375623375E+04  0.19375623375E+04  0.25500000920E-02 0. -1.
    10030    2    1    2    0    0  0.00000000000E+00  0.00000000000E+00 -0.98696254002E+03  0.28881621350E+04  0.27142928108E+04 0.  0.
        4    1    3    3  502    0  0.27094099849E+03 -0.11195673953E+04 -0.12570891778E+04  0.17050263902E+04  0.12699999809E+01 0. -1.
       -4    1    3    3    0  502 -0.27094099849E+03  0.11195673953E+04  0.27012663776E+03  0.11831357448E+04  0.12699999809E+01 0.  1.
</event>
<event>
 5   0  0.1075146E-05  0.2735461E+04  0.7818609E-02  0.8323590E-01
       -1   -1    0    0    0  501  0.00000000000E+00  0.00000000000E+00  0.25833569043E+04  0.25833569043E+04  0.50400001928E-02 0. -1.
        1   -1    0    0  501    0  0.00000000000E+00  0.00000000000E+00 -0.72413030078E+03  0.72413030080E+03  0.50400001928E-02 0.  1.
    10030    2    1    2    0    0  0.00000000000E+00  0.00000000000E+00  0.18592266035E+04  0.33074872051E+04  0.27354612132E+04 0.  0.
        2    1    3    3  502    0 -0.56293861811E+03 -0.58228349018E+02  0.24351419120E+04  0.25000413117E+04  0.25500000920E-02 0. -1.
       -2    1    3    3    0  502  0.56293861811E+03  0.58228349018E+02 -0.57591530845E+03  0.80744589348E+03  0.25500000920E-02 0.  1.
</event>
<event>
 5   0  0.2518686E-05  0.2502850E+04  0.7818609E-02  0.8401971E-01
        2   -1    0    0  501    0  0.00000000000E+00  0.00000000000E+00  0.13806999188E+04  0.13806999188E+04  0.25500000920E-02 0.  1.
       -2   -1    0    0    0  501  0.00000000000E+00  0.00000000000E+00 -0.11342537776E+04  0.11342537776E+04  0.25500000920E-02 0. -1.
    10030    2    1    2    0    0  0.00000000000E+00  0.00000000000E+00  0.24644614116E+03  0.25149536964E+04  0.25028496548E+04 0.  0.
        5    1    3    3  502    0 -0.12317333366E+04  0.16085182981E+03  0.27561959301E+03  0.12724105366E+04  0.46999998093E+01 0. -1.
       -5    1    3    3    0  502  0.12317333366E+04 -0.16085182981E+03 -0.29173451843E+02  0.12425431598E+04  0.46999998093E+01 0.  1.
</event>
<event>
 5   0  0.1067434E-05  0.2802576E+04  0.7818609E-02  0.8302469E-01
       -1   -1    0    0    0  501  0.00000000000E+00  0.00000000000E+00  0.12446265395E+04  0.12446265395E+04  0.50400001928E-02 0.  1.
        1   -1    0    0  501    0  0.00000000000E+00  0.00000000000E+00 -0.15776689502E+04  0.15776689503E+04  0.50400001928E-02 0. -1.
    10030    2    1    2    0    0  0.00000000000E+00  0.00000000000E+00 -0.33304241071E+03  0.28222954898E+04  0.28025764190E+04 0.  0.
        4    1    3    3  502    0  0.23147575656E+02  0.28246344818E+03 -0.15485055197E+04  0.15742275462E+04  0.12699999809E+01 0. -1.
       -4    1    3    3    0  502 -0.23147575656E+02 -0.28246344818E+03  0.12154631089E+04  0.12480679436E+04  0.12699999809E+01 0.  1.
</event>
<event>
 5   0  0.2697964E-05  0.2821293E+04  0.7818609E-02  0.8296688E-01
        2   -1    0    0  501    0  0.00000000000E+00  0.00000000000E+00  0.16323788012E+04  0.16323788012E+04  0.25500000920E-02 0. -1.
       -2   -1    0    0    0  501  0.00000000000E+00  0.00000000000E+00 -0.12190326821E+04  0.12190326821E+04  0.25500000920E-02 0.  1.
    10030    2    1    2    0    0  0.00000000000E+00  0.00000000000E+00  0.41334611912E+03  0.28514114834E+04  0.28212926883E+04 0.  0.
        1    1    3    3  502    0  0.67828721091E+03 -0.59756539048E+03 -0.88783075870E+03  0.12670443530E+04  0.50400001928E-02 0.  1.
       -1    1    3    3    0  502 -0.67828721091E+03  0.59756539048E+03  0.13011768778E+04  0.15843671304E+04  0.50400001928E-02 0. -1.
</event>
<event>
 5   0  0.2518686E-05  0.2795916E+04  0.7818609E-02  0.8304537E-01
       -2   -1    0    0    0  501  0.00000000000E+00  0.00000000000E+00  0.96610154398E+03  0.96610154398E+03  0.25500000920E-02 0.  1.
        2   -1    0    0  501    0  0.00000000000E+00  0.00000000000E+00 -0.20228588705E+04  0.20228588705E+04  0.25500000920E-02 0. -1.
    10030    2    1    2    0    0  0.00000000000E+00  0.00000000000E+00 -0.10567573265E+04  0.29889604144E+04  0.27959163636E+04 0.  0.
        5    1    3    3  502    0  0.54180325354E+03  0.86512958817E+03 -0.15494509717E+04  0.18554838651E+04  0.46999998093E+01 0. -1.
       -5    1    3    3    0  502 -0.54180325354E+03 -0.86512958817E+03  0.49269364523E+03  0.11334765494E+04  0.46999998093E+01 0.  1.
</event>
<event>
 5   0  0.2588048E-05  0.2807689E+04  0.7818609E-02  0.8300885E-01
        2   -1    0    0  501    0  0.00000000000E+00  0.00000000000E+00  0.12223133176E+04  0.12223133176E+04  0.25500000920E-02 0. -1.
       -2   -1    0    0    0  501  0.00000000000E+00  0.00000000000E+00 -0.16123362021E+04  0.16123362021E+04  0.25500000920E-02 0.  1.
    10030    2    1    2    0    0  0.00000000000E+00  0.00000000000E+00 -0.39002288446E+03  0.28346495197E+04  0.28076894503E+04 0.  0.
        2    1    3    3  502    0 -0.49195757296E+03 -0.81241854731E+03 -0.12387340355E+04  0.15609318243E+04  0.25500000920E-02 0.  1.
       -2    1    3    3    0  502  0.49195757296E+03  0.81241854731E+03  0.84871115101E+03  0.12737176954E+04  0.25500000920E-02 0. -1.
</event>
<event>
 5   0  0.1078103E-05  0.2803685E+04  0.7818609E-02  0.8302125E-01
        1   -1    0    0  501    0  0.00000000000E+00  0.00000000000E+00  0.21578193645E+04  0.21578193645E+04  0.50400001928E-02 0. -1.
       -1   -1    0    0    0  501  0.00000000000E+00  0.00000000000E+00 -0.91071706450E+03  0.91071706451E+03  0.50400001928E-02 0.  1.
    10030    2    1    2    0    0  0.00000000000E+00  0.00000000000E+00  0.12471023000E+04  0.30685364290E+04  0.28036853728E+04 0.  0.
        1    1    3    3  502    0 -0.19868555036E+03  0.89518102542E+03 -0.53696298117E+03  0.10626167039E+04  0.50400001928E-02 0.  1.
       -1    1    3    3    0  502  0.19868555036E+03 -0.89518102542E+03  0.17840652811E+04  0.20059197251E+04  0.50400001928E-02 0. -1.
</event>
<event>
 5   0  0.1067434E-05  0.2651640E+04  0.7818609E-02  0.8350869E-01
       -1   -1    0    0    0  501  0.00000000000E+00  0.00000000000E+00  0.11869774600E+04  0.11869774600E+04  0.50400001928E-02 0. -1.
        1   -1    0    0  501    0  0.00000000000E+00  0.00000000000E+00 -0.14809032584E+04  0.14809032585E+04  0.50400001928E-02 0.  1.
    10030    2    1    2    0    0  0.00000000000E+00  0.00000000000E+00 -0.29392579848E+03  0.26678807184E+04  0.26516400873E+04 0.  0.
        4    1    3    3  502    0 -0.12361843931E+04 -0.47035095388E+03 -0.23925970597E+03  0.13441088845E+04  0.12699999809E+01 0. -1.
       -4    1    3    3    0  502  0.12361843931E+04  0.47035095388E+03 -0.54666092514E+02  0.13237718339E+04  0.12699999809E+01 0.  1.
</event>
<event>
 5   0  0.2588048E-05  0.2789145E+04  0.7818609E-02  0.8306646E-01
        2   -1    0    0  501    0  0.00000000000E+00  0.00000000000E+00  0.15170918878E+04  0.15170918878E+04  0.25500000920E-02 0. -1.
       -2   -1    0    0    0  501  0.00000000000E+00  0.00000000000E+00 -0.12819476800E+04  0.12819476800E+04  0.25500000920E-02 0.  1.
    10030    2    1    2    0    0  0.00000000000E+00  0.00000000000E+00  0.23514420785E+03  0.27990395678E+04  0.27891449772E+04 0.  0.
        2    1    3    3  502    0 -0.87186372447E+03  0.99610632124E+03  0.55782906960E+03  0.14365052830E+04  0.25500000920E-02 0. -1.
       -2    1    3    3    0  502  0.87186372447E+03 -0.99610632124E+03 -0.32268486175E+03  0.13625342848E+04  0.25500000920E-02 0.  1.
</event>
<event>
 5   0  0.2518686E-05  0.2791048E+04  0.7818609E-02  0.8306053E-01
       -2   -1    0    0    0  501  0.00000000000E+00  0.00000000000E+00  0.10083854411E+04  0.10083854411E+04  0.25500000920E-02 0.  1.
        2   -1    0    0  501    0  0.00000000000E+00  0.00000000000E+00 -0.19312918571E+04  0.19312918571E+04  0.25500000920E-02 0. -1.
    10030    2    1    2    0    0  0.00000000000E+00  0.00000000000E+00 -0.92290641596E+03  0.29396772982E+04  0.27910475390E+04 0.  0.
        5    1    3    3  502    0 -0.42735346183E+03  0.44367109260E+02  0.93698075301E+03  0.10308028149E+04  0.46999998093E+01 0.  1.
       -5    1    3    3    0  502  0.42735346183E+03 -0.44367109260E+02 -0.18598871690E+04  0.19088744833E+04  0.46999998093E+01 0. -1.
</event>
<event>
 5   0  0.1067434E-05  0.2914139E+04  0.7818609E-02  0.8268683E-01
        1   -1    0    0  501    0  0.00000000000E+00  0.00000000000E+00  0.20683033570E+04  0.20683033570E+04  0.50400001928E-02 0. -1.
       -1   -1    0    0    0  501  0.00000000000E+00  0.00000000000E+00 -0.10264702945E+04  0.10264702945E+04  0.50400001928E-02 0.  1.
    10030    2    1    2    0    0  0.00000000000E+00  0.00000000000E+00  0.10418330625E+04  0.30947736514E+04  0.29141392938E+04 0.  0.
        4    1    3    3  502    0 -0.38612092298E+03 -0.11573132279E+04 -0.32507144906E+03  0.12625911193E+04  0.12699999809E+01 0.  1.
       -4    1    3    3    0  502  0.38612092298E+03  0.11573132279E+04  0.13669045115E+04  0.18321825322E+04  0.12699999809E+01 0. -1.
</event>
<event>
 5   0  0.1075146E-05  0.2384457E+04  0.7818609E-02  0.8445345E-01
       -1   -1    0    0    0  501  0.00000000000E+00  0.00000000000E+00  0.15092586851E+04  0.15092586851E+04  0.50400001928E-02 0. -1.
        1   -1    0    0  501    0  0.00000000000E+00  0.00000000000E+00 -0.94179302705E+03  0.94179302706E+03  0.50400001928E-02 0.  1.
    10030    2    1    2    0    0  0.00000000000E+00  0.00000000000E+00  0.56746565801E+03  0.24510517121E+04  0.23844574273E+04 0.  0.
        2    1    3    3  502    0 -0.75573284742E+03  0.91607513382E+03  0.17551427672E+03  0.12004711778E+04  0.25500000920E-02 0.  1.
       -2    1    3    3    0  502  0.75573284742E+03 -0.91607513382E+03  0.39195138129E+03  0.12505805343E+04  0.25500000920E-02 0. -1.
</event>
<event>
 5   0  0.2624815E-05  0.2875860E+04  0.7818609E-02  0.8280096E-01
       -2   -1    0    0    0  501  0.00000000000E+00  0.00000000000E+00  0.12489066894E+04  0.12489066894E+04  0.25500000920E-02 0.  1.
        2   -1    0    0  501    0  0.00000000000E+00  0.00000000000E+00 -0.16555620808E+04  0.16555620808E+04  0.25500000920E-02 0. -1.
    10030    2    1    2    0    0  0.00000000000E+00  0.00000000000E+00 -0.40665539140E+03  0.29044687701E+04  0.28758599113E+04 0.  0.
        4    1    3    3  502    0  0.78878932507E+03  0.10216967523E+03 -0.14131651025E+04  0.16216240198E+04  0.12699999809E+01 0. -1.
       -4    1    3    3    0  502 -0.78878932507E+03 -0.10216967523E+03  0.10065097111E+04  0.12828447503E+04  0.12699999809E+01 0.  1.
</event>
<event>
 5   0  0.1017456E-05  0.2354503E+04  0.7818609E-02  0.8456736E-01
       -1   -1    0    0    0  501  0.00000000000E+00  0.00000000000E+00  0.14556256927E+04  0.14556256927E+04  0.50400001928E-02 0.  1.
        1   -1    0    0  501    0  0.00000000000E+00  0.00000000000E+00 -0.95211361490E+03  0.95211361491E+03  0.50400001928E-02 0. -1.
    10030    2    1    2    0    0  0.00000000000E+00  0.00000000000E+00  0.50351207779E+03  0.24077393076E+04  0.23545029541E+04 0.  0.
        5    1    3    3  502    0  0.26146242610E+02 -0.10726768140E+04  0.74704141795E+03  0.13074448912E+04  0.46999998093E+01 0. -1.
       -5    1    3    3    0  502 -0.26146242610E+02  0.10726768140E+04 -0.24352934015E+03  0.11002944164E+04  0.46999998093E+01 0.  1.
</event>
<event>
 5   0  0.2624815E-05  0.2630605E+04  0.7818609E-02  0.8357879E-01
        2   -1    0    0  501    0  0.00000000000E+00  0.00000000000E+00  0.11431759404E+04  0.11431759404E+04  0.25500000920E-02 0.  1.
       -2   -1    0    0    0  501  0.00000000000E+00  0.00000000000E+00 -0.15133460546E+04  0.15133460546E+04  0.25500000920E-02 0. -1.
    10030    2    1    2    0    0  0.00000000000E+00  0.00000000000E+00 -0.37017011426E+03  0.26565219950E+04  0.26306051008E+04 0.  0.
        4    1    3    3  502    0 -0.92014839437E+03 -0.36976530001E+03  0.68749943977E+03  0.12066716775E+04  0.12699999809E+01 0.  1.
       -4    1    3    3    0  502  0.92014839437E+03  0.36976530001E+03 -0.10576695540E+04  0.14498503175E+04  0.12699999809E+01 0. -1.
</event>
<event>
 5   0  0.2624815E-05  0.2995757E+04  0.7818609E-02  0.8244944E-01
       -2   -1    0    0    0  501  0.00000000000E+00  0.00000000000E+00  0.11702144693E+04  0.11702144693E+04  0.25500000920E-02 0. -1.
        2   -1    0    0  501    0  0.00000000000E+00  0.00000000000E+00 -0.19172894065E+04  0.19172894065E+04  0.25500000920E-02 0.  1.
    10030    2    1    2    0    0  0.00000000000E+00  0.00000000000E+00 -0.74707493721E+03  0.30875038759E+04  0.29957568696E+04 0.  0.
        4    1    3    3  502    0 -0.70419865674E+03 -0.12226366469E+04  0.14475767917E+03  0.14183414670E+04  0.12699999809E+01 0. -1.
       -4    1    3    3    0  502  0.70419865674E+03  0.12226366469E+04 -0.89183261638E+03  0.16691624088E+04  0.12699999809E+01 0.  1.
</event>
<event>
 5   0  0.2651061E-05  0.2845851E+04  0.7818609E-02  0.8289173E-01
       -2   -1    0    0    0  501  0.00000000000E+00  0.00000000000E+00  0.76711982416E+03  0.76711982416E+03  0.25500000920E-02 0.  1.
        2   -1    0    0  501    0  0.00000000000E+00  0.00000000000E+00 -0.26393744519E+04  0.26393744519E+04  0.25500000920E-02 0. -1.
    10030    2    1    2    0    0  0.00000000000E+00  0.00000000000E+00 -0.18722546277E+04  0.34064942760E+04  0.28458506394E+04 0.  0.
        3    1    3    3  502    0 -0.12916634272E+04  0.68815070645E+02 -0.22636705947E+03  0.13131534484E+04  0.10100000352E+00 0. -1.
       -3    1    3    3    0  502  0.12916634272E+04 -0.68815070645E+02 -0.16458875682E+04  0.20933408276E+04  0.10100000352E+00 0.  1.
</event>
<event>
 5   0  0.1075146E-05  0.2523048E+04  0.7818609E-02  0.8394820E-01
        1   -1    0    0  501    0  0.00000000000E+00  0.00000000000E+00  0.82545006767E+03  0.82545006768E+03  0.50400001928E-02 0. -1.
       -1   -1    0    0    0  501  0.00000000000E+00  0.00000000000E+00 -0.19279705561E+04  0.19279705561E+04  0.50400001928E-02 0.  1.
    10030    2    1    2    0    0  0.00000000000E+00  0.00000000000E+00 -0.11025204884E+04  0.27534206237E+04  0.25230484942E+04 0.  0.
        2    1    3    3  502    0 -0.45462366701E+03  0.86080288965E+03  0.32435922772E+03  0.10260960979E+04  0.25500000920E-02 0. -1.
       -2    1    3    3    0  502  0.45462366701E+03 -0.86080288965E+03 -0.14268797161E+04  0.17273245259E+04  0.25500000920E-02 0.  1.
</event>
<event>
 5   0  0.1078103E-05  0.2248058E+04  0.7818609E-02  0.8498687E-01
       -1   -1    0    0    0  501  0.00000000000E+00  0.00000000000E+00  0.84695318961E+03  0.84695318962E+03  0.50400001928E-02 0.  1.
        1   -1    0    0  501    0  0.00000000000E+00  0.00000000000E+00 -0.14917488751E+04  0.14917488751E+04  0.50400001928E-02 0. -1.
    10030    2    1    2    0    0  0.00000000000E+00  0.00000000000E+00 -0.64479568545E+03  0.23387020647E+04  0.22480582447E+04 0.  0.
        1    1    3    3  502    0 -0.95992788765E+03 -0.52522003142E+03 -0.58991174899E+03  0.12431063923E+04  0.50400001928E-02 0. -1.
       -1    1    3    3    0  502  0.95992788765E+03  0.52522003142E+03 -0.54883936468E+02  0.10955956724E+04  0.50400001928E-02 0.  1.
</event>
<event>
 5   0  0.1017456E-05  0.2820956E+04  0.7818609E-02  0.8296792E-01
        1   -1    0    0  501    0  0.00000000000E+00  0.00000000000E+00  0.11223862184E+04  0.11223862184E+04  0.50400001928E-02 0. -1.
       -1   -1    0    0    0  501  0.00000000000E+00  0.00000000000E+00 -0.17725167801E+04  0.17725167801E+04  0.50400001928E-02 0.  1.
    10030    2    1    2    0    0  0.00000000000E+00  0.00000000000E+00 -0.65013056174E+03  0.28949029985E+04  0.28209561541E+04 0.  0.
        5    1    3    3  502    0  0.91111529659E+03 -0.60465844963E+03  0.58917705072E+03  0.12421330893E+04  0.46999998093E+01 0. -1.
       -5    1    3    3    0  502 -0.91111529659E+03  0.60465844963E+03 -0.12393076125E+04  0.16527699092E+04  0.46999998093E+01 0.  1.
</event>
<event>
 5   0  0.2697964E-05  0.2874211E+04  0.7818609E-02  0.8280592E-01
       -2   -1    0    0    0  501  0.00000000000E+00  0.00000000000E+00  0.11548976960E+04  0.11548976960E+04  0.25500000920E-02 0.  1.
        2   -1    0    0  501    0  0.00000000000E+00  0.00000000000E+00 -0.17882724826E+04  0.17882724826E+04  0.25500000920E-02 0. -1.
    10030    2    1    2    0    0  0.00000000000E+00  0.00000000000E+00 -0.63337478651E+03  0.29431701786E+04  0.28742106882E+04 0.  0.
        1    1    3    3  502    0  0.59212933350E+03 -0.95338924305E+03  0.60245843270E+03  0.12737834822E+04  0.50400001928E-02 0.  1.
       -1    1    3    3    0  502 -0.59212933350E+03  0.95338924305E+03 -0.12358332192E+04  0.16693866964E+04  0.50400001928E-02 0. -1.
</event>
<event>
 5   0  0.2518686E-05  0.2726898E+04  0.7818609E-02  0.8326330E-01
        2   -1    0    0  501    0  0.00000000000E+00  0.00000000000E+00  0.16846585508E+04  0.16846585508E+04  0.25500000920E-02 0. -1.
       -2   -1    0    0    0  501  0.00000000000E+00  0.00000000000E+00 -0.11034838197E+04  0.11034838197E+04  0.25500000920E-02 0.  1.
    10030    2    1    2    0    0  0.00000000000E+00  0.00000000000E+00  0.58117473109E+03  0.27881423706E+04  0.27268982032E+04 0.  0.
        5    1    3    3  502    0  0.76824977236E+03  0.49962173100E+03  0.13227861009E+04  0.16092279968E+04  0.46999998093E+01 0. -1.
       -5    1    3    3    0  502 -0.76824977236E+03 -0.49962173100E+03 -0.74161136985E+03  0.11789143738E+04  0.46999998093E+01 0.  1.
</event>
<event>
 5   0  0.2624815E-05  0.2810885E+04  0.7818609E-02  0.8299897E-01
        2   -1    0    0  501    0  0.00000000000E+00  0.00000000000E+00  0.18598220648E+04  0.18598220648E+04  0.25500000920E-02 0. -1.
       -2   -1    0    0    0  501  0.00000000000E+00  0.00000000000E+00 -0.10620739064E+04  0.10620739064E+04  0.25500000920E-02 0.  1.
    10030    2    1    2    0    0  0.00000000000E+00  0.00000000000E+00  0.79774815837E+03  0.29218959712E+04  0.28108849038E+04 0.  0.
        4    1    3    3  502    0  0.39575046690E+03 -0.86854501618E+03  0.14712553688E+04  0.17537339736E+04  0.12699999809E+01 0. -1.
       -4    1    3    3    0  502 -0.39575046690E+03  0.86854501618E+03 -0.67350721039E+03  0.11681619976E+04  0.12699999809E+01 0.  1.
</event>
<event>
 5   0  0.1017456E-05  0.2999140E+04  0.7818609E-02  0.8243977E-01
        1   -1    0    0  501    0  0.00000000000E+00  0.00000000000E+00  0.16251698082E+04  0.16251698082E+04  0.50400001928E-02 0. -1.
       -1   -1    0    0    0  501  0.00000000000E+00  0.00000000000E+00 -0.13836770182E+04  0.13836770182E+04  0.50400001928E-02 0.  1.
    10030    2    1    2    0    0  0.00000000000E+00  0.00000000000E+00  0.24149278999E+03  0.30088468265E+04  0.29991399530E+04 0.  0.
        5    1    3    3  502    0  0.58514580183E+03  0.10776394882E+04  0.98666539927E+03  0.15739228621E+04  0.46999998093E+01 0. -1.
       -5    1    3    3    0  502 -0.58514580183E+03 -0.10776394882E+04 -0.74517260928E+03  0.14349239643E+04  0.46999998093E+01 0.  1.
</event>
<event>
 5   0  0.1078103E-05  0.2894160E+04  0.7818609E-02  0.8274617E-01
        1   -1    0    0  501    0  0.00000000000E+00  0.00000000000E+00  0.11211787835E+04  0.11211787835E+04  0.50400001928E-02 0.  1.
       -1   -1    0    0    0  501  0.00000000000E+00  0.00000000000E+00 -0.18677128418E+04  0.18677128418E+04  0.50400001928E-02 0. -1.
    10030    2    1    2    0    0  0.00000000000E+00  0.00000000000E+00 -0.74653405828E+03  0.29888916254E+04  0.28941596445E+04 0.  0.
        1    1    3    3  502    0 -0.15666380906E+03 -0.13732874871E+04  0.69217337720E+02  0.13839267001E+04  0.50400001928E-02 0.  1.
       -1    1    3    3    0  502  0.15666380906E+03  0.13732874871E+04 -0.81575139600E+03  0.16049649253E+04  0.50400001928E-02 0. -1.
</event>
<event>
 5   0  0.1075146E-05  0.2792303E+04  0.7818609E-02  0.8305662E-01
        1   -1    0    0  501    0  0.00000000000E+00  0.00000000000E+00  0.95860012096E+03  0.95860012097E+03  0.50400001928E-02 0. -1.
       -1   -1    0    0    0  501  0.00000000000E+00  0.00000000000E+00 -0.20334231161E+04  0.20334231161E+04  0.50400001928E-02 0.  1.
    10030    2    1    2    0    0  0.00000000000E+00  0.00000000000E+00 -0.10748229951E+04  0.29920232371E+04  0.27923034542E+04 0.  0.
        2    1    3    3  502    0 -0.37250498301E+02 -0.72391809580E+03  0.74116296171E+03  0.10367099618E+04  0.25500000920E-02 0. -1.
       -2    1    3    3    0  502  0.37250498301E+02  0.72391809580E+03 -0.18159859568E+04  0.19553132753E+04  0.25500000920E-02 0.  1.
</event>
<event>
 5   0  0.1075146E-05  0.2775110E+04  0.7818609E-02  0.8311038E-01
        1   -1    0    0  501    0  0.00000000000E+00  0.00000000000E+00  0.16902178541E+04  0.16902178541E+04  0.50400001928E-02 0.  1.
       -1   -1    0    0    0  501  0.00000000000E+00  0.00000000000E+00 -0.11390888113E+04  0.11390888113E+04  0.50400001928E-02 0. -1.
    10030    2    1    2    0    0  0.00000000000E+00  0.00000000000E+00  0.55112904284E+03  0.28293066654E+04  0.27751095447E+04 0.  0.
        2    1    3    3  502    0  0.11961279752E+04  0.70000363225E+03  0.20655939307E+03  0.14012116189E+04  0.25500000920E-02 0.  1.
       -2    1    3    3    0  502 -0.11961279752E+04 -0.70000363225E+03  0.34456964977E+03  0.14280950465E+04  0.25500000920E-02 0. -1.
</event>
<event>
 5   0  0.1017456E-05  0.2780812E+04  0.7818609E-02  0.8309250E-01
       -1   -1    0    0    0  501  0.00000000000E+00  0.00000000000E+00  0.16736954013E+04  0.16736954013E+04  0.50400001928E-02 0. -1.
        1   -1    0    0  501    0  0.00000000000E+00  0.00000000000E+00 -0.11550665177E+04  0.11550665177E+04  0.50400001928E-02 0.  1.
    10030    2    1    2    0    0  0.00000000000E+00  0.00000000000E+00  0.51862888360E+03  0.28287619191E+04  0.27808124849E+04 0.  0.
        5    1    3    3  502    0 -0.10387256499E+04  0.27303112441E+03 -0.63892345081E+03  0.12496968579E+04  0.46999998093E+01 0.  1.
       -5    1    3    3    0  502  0.10387256499E+04 -0.27303112441E+03  0.11575523344E+04  0.15790650612E+04  0.46999998093E+01 0. -1.
</event>
<event>
 5   0  0.2697964E-05  0.2780865E+04  0.7818609E-02  0.8309234E-01
       -2   -1    0    0    0  501  0.00000000000E+00  0.00000000000E+00  0.57248968840E+03  0.57248968841E+03  0.25500000920E-02 0. -1.
        2   -1    0    0  501    0  0.00000000000E+00  0.00000000000E+00 -0.33770074925E+04  0.33770074925E+04  0.25500000920E-02 0.  1.
    10030    2    1    2    0    0  0.00000000000E+00  0.00000000000E+00 -0.28045178041E+04  0.39494971809E+04  0.27808645901E+04 0.  0.
        1    1    3    3  502    0  0.10871312651E+04  0.85417881920E+02 -0.17709947121E+03  0.11047691274E+04  0.50400001928E-02 0. -1.
       -1    1    3    3    0  502 -0.10871312651E+04 -0.85417881920E+02 -0.26274183329E+04  0.28447280535E+04  0.50400001928E-02 0.  1.
</event>
<event>
 5   0  0.1075146E-05  0.2620073E+04  0.7818609E-02  0.8361415E-01
       -1   -1    0    0    0  501  0.00000000000E+00  0.00000000000E+00  0.13400031227E+04  0.13400031227E+04  0.50400001928E-02 0. -1.
        1   -1    0    0  501    0  0.00000000000E+00  0.00000000000E+00 -0.12807395529E+04  0.12807395529E+04  0.50400001928E-02 0.  1.
    10030    2    1    2    0    0  0.00000000000E+00  0.00000000000E+00  0.59263569768E+02  0.26207426756E+04  0.26200725182E+04 0.  0.
        2    1    3    3  502    0  0.67039884212E+03 -0.88129100051E+03 -0.67060910512E+03  0.12945365993E+04  0.25500000920E-02 0.  1.
       -2    1    3    3    0  502 -0.67039884212E+03  0.88129100051E+03  0.72987267489E+03  0.13262060762E+04  0.25500000920E-02 0. -1.
</event>
<event>
 5   0  0.1078103E-05  0.2594860E+04  0.7818609E-02  0.8369949E-01
       -1   -1    0    0    0  501  0.00000000000E+00  0.00000000000E+00  0.84365826005E+03  0.84365826006E+03  0.50400001928E-02 0.  1.
        1   -1    0    0  501    0  0.00000000000E+00  0.00000000000E+00 -0.19952676917E+04  0.19952676917E+04  0.50400001928E-02 0. -1.
    10030    2    1    2    0    0  0.00000000000E+00  0.00000000000E+00 -0.11516094317E+04  0.28389259518E+04  0.25948595871E+04 0.  0.
        1    1    3    3  502    0  0.59521656608E+03 -0.89402687832E+03  0.22049884332E+03  0.10964426841E+04  0.50400001928E-02 0.  1.
       -1    1    3    3    0  502 -0.59521656608E+03  0.89402687832E+03 -0.13721082750E+04  0.17424832676E+04  0.50400001928E-02 0. -1.
</event>
<event>
 5   0  0.2624815E-05  0.2778668E+04  0.7818609E-02  0.8309922E-01
        2   -1    0    0  501    0  0.00000000000E+00  0.00000000000E+00  0.18855899195E+04  0.18855899195E+04  0.25500000920E-02 0. -1.
       -2   -1    0    0    0  501  0.00000000000E+00  0.00000000000E+00 -0.10236843704E+04  0.10236843704E+04  0.25500000920E-02 0.  1.
    10030    2    1    2    0    0  0.00000000000E+00  0.00000000000E+00  0.86190554910E+03  0.29092742899E+04  0.27786679756E+04 0.  0.
        4    1    3    3  502    0 -0.86397521265E+03  0.49748178258E+03 -0.58215797188E+03  0.11544915804E+04  0.12699999809E+01 0.  1.
       -4    1    3    3    0  502  0.86397521265E+03 -0.49748178258E+03  0.14440635210E+04  0.17547827095E+04  0.12699999809E+01 0. -1.
</event>
<event>
 5   0  0.1017456E-05  0.2530125E+04  0.7818609E-02  0.8392331E-01
       -1   -1    0    0    0  501  0.00000000000E+00  0.00000000000E+00  0.14460678386E+04  0.14460678386E+04  0.50400001928E-02 0. -1.
        1   -1    0    0  501    0  0.00000000000E+00  0.00000000000E+00 -0.11067137362E+04  0.11067137362E+04  0.50400001928E-02 0.  1.
    10030    2    1    2    0    0  0.00000000000E+00  0.00000000000E+00  0.33935410234E+03  0.25527815748E+04  0.25301250091E+04 0.  0.
        5    1    3    3  502    0 -0.60542103922E+03 -0.21602319474E+02  0.12901891850E+04  0.14253461046E+04  0.46999998093E+01 0. -1.
       -5    1    3    3    0  502  0.60542103922E+03  0.21602319474E+02 -0.95083508266E+03  0.11274354702E+04  0.46999998093E+01 0.  1.
</event>
<event>
 5   0  0.1017456E-05  0.2585412E+04  0.7818609E-02  0.8373173E-01
       -1   -1    0    0    0  501  0.00000000000E+00  0.00000000000E+00  0.12562507861E+04  0.12562507861E+04  0.50400001928E-02 0. -1.
        1   -1    0    0  501    0  0.00000000000E+00  0.00000000000E+00 -0.13302191288E+04  0.13302191288E+04  0.50400001928E-02 0.  1.
    10030    2    1    2    0    0  0.00000000000E+00  0.00000000000E+00 -0.73968342762E+02  0.25864699149E+04  0.25854120184E+04 0.  0.
        5    1    3    3  502    0  0.46202564001E+03 -0.11918593233E+04 -0.22959969724E+03  0.12987434117E+04  0.46999998093E+01 0.  1.
       -5    1    3    3    0  502 -0.46202564001E+03  0.11918593233E+04  0.15563135448E+03  0.12877265032E+04  0.46999998093E+01 0. -1.
</event>
<event>
 5   0  0.1075146E-05  0.2088726E+04  0.7818609E-02  0.8566226E-01
       -1   -1    0    0    0  501  0.00000000000E+00  0.00000000000E+00  0.78012254280E+03  0.78012254281E+03  0.50400001928E-02 0. -1.
        1   -1    0    0  501    0  0.00000000000E+00  0.00000000000E+00 -0.13981064103E+04  0.13981064103E+04  0.50400001928E-02 0.  1.
    10030    2    1    2    0    0  0.00000000000E+00  0.00000000000E+00 -0.61798386745E+03  0.21782289531E+04  0.20887262414E+04 0.  0.
        2    1    3    3  502    0 -0.41898698130E+03 -0.46136653490E+03 -0.11829261607E+04  0.13370577668E+04  0.25500000920E-02 0.  1.
       -2    1    3    3    0  502  0.41898698130E+03  0.46136653490E+03  0.56494229322E+03  0.84117118632E+03  0.25500000920E-02 0. -1.
</event>
<event>
 5   0  0.2697964E-05  0.2797612E+04  0.7818609E-02  0.8304010E-01
       -2   -1    0    0    0  501  0.00000000000E+00  0.00000000000E+00  0.92391065558E+03  0.92391065558E+03  0.25500000920E-02 0.  1.
        2   -1    0    0  501    0  0.00000000000E+00  0.00000000000E+00 -0.21178001718E+04  0.21178001718E+04  0.25500000920E-02 0. -1.
    10030    2    1    2    0    0  0.00000000000E+00  0.00000000000E+00 -0.11938895162E+04  0.30417108274E+04  0.27976119424E+04 0.  0.
        1    1    3    3  502    0  0.64751897111E+03  0.74628105787E+03 -0.16735125535E+04  0.19434146500E+04  0.50400001928E-02 0. -1.
       -1    1    3    3    0  502 -0.64751897111E+03 -0.74628105787E+03  0.47962303726E+03  0.10982961773E+04  0.50400001928E-02 0.  1.
</event>
<event>
 5   0  0.1067434E-05  0.1795619E+04  0.7818609E-02  0.8708633E-01
        1   -1    0    0  501    0  0.00000000000E+00  0.00000000000E+00  0.73500384814E+03  0.73500384815E+03  0.50400001928E-02 0.  1.
       -1   -1    0    0    0  501  0.00000000000E+00  0.00000000000E+00 -0.10966765235E+04  0.10966765235E+04  0.50400001928E-02 0. -1.
    10030    2    1    2    0    0  0.00000000000E+00  0.00000000000E+00 -0.36167267539E+03  0.18316803717E+04  0.17956185174E+04 0.  0.
        4    1    3    3  502    0  0.18649759361E+03 -0.13092885950E+03  0.70501427741E+03  0.74092540982E+03  0.12699999809E+01 0.  1.
       -4    1    3    3    0  502 -0.18649759361E+03  0.13092885950E+03 -0.10666869528E+04  0.10907549619E+04  0.12699999809E+01 0. -1.
</event>
<event>
 5   0  0.2697964E-05  0.2682141E+04  0.7818609E-02  0.8340823E-01
       -2   -1    0    0    0  501  0.00000000000E+00  0.00000000000E+00  0.91208794911E+03  0.91208794912E+03  0.25500000920E-02 0. -1.
        2   -1    0    0  501    0  0.00000000000E+00  0.00000000000E+00 -0.19718169815E+04  0.19718169815E+04  0.25500000920E-02 0.  1.
    10030    2    1    2    0    0  0.00000000000E+00  0.00000000000E+00 -0.10597290324E+04  0.28839049306E+04  0.26821413137E+04 0.  0.
        1    1    3    3  502    0  0.87413995108E+03  0.25928933260E+03  0.52753526910E+03  0.10533969206E+04  0.50400001928E-02 0. -1.
       -1    1    3    3    0  502 -0.87413995108E+03 -0.25928933260E+03 -0.15872643015E+04  0.18305080100E+04  0.50400001928E-02 0.  1.
</event>
<event>
 5   0  0.2651061E-05  0.2663377E+04  0.7818609E-02  0.8346986E-01
       -2   -1    0    0    0  501  0.00000000000E+00  0.00000000000E+00  0.10433041031E+04  0.10433041031E+04  0.25500000920E-02 0. -1.
        2   -1    0    0  501    0  0.00000000000E+00  0.00000000000E+00 -0.16997869617E+04  0.16997869617E+04  0.25500000920E-02 0.  1.
    10030    2    1    2    0    0  0.00000000000E+00  0.00000000000E+00 -0.65648285859E+03  0.27430910647E+04  0.26633773382E+04 0.  0.
        3    1    3    3  502    0 -0.23817657030E+03  0.90801296947E+03  0.64458092287E+03  0.11387274510E+04  0.10100000352E+00 0. -1.
       -3    1    3    3    0  502  0.23817657030E+03 -0.90801296947E+03 -0.13010637815E+04  0.16043636137E+04  0.10100000352E+00 0.  1.
</event>
<event>
 5   0  0.2651061E-05  0.2823185E+04  0.7818609E-02  0.8296106E-01
        2   -1    0    0  501    0  0.00000000000E+00  0.00000000000E+00  0.18070051667E+04  0.18070051667E+04  0.25500000920E-02 0.  1.
       -2   -1    0    0    0  501  0.00000000000E+00  0.00000000000E+00 -0.11027050562E+04  0.11027050562E+04  0.25500000920E-02 0. -1.
    10030    2    1    2    0    0  0.00000000000E+00  0.00000000000E+00  0.70430011048E+03  0.29097102229E+04  0.28231852464E+04 0.  0.
        3    1    3    3  502    0  0.13226229774E+03 -0.13049543991E+04 -0.18556225176E+03  0.13247009696E+04  0.10100000352E+00 0. -1.
       -3    1    3    3    0  502 -0.13226229774E+03  0.13049543991E+04  0.88986236224E+03  0.15850092533E+04  0.10100000352E+00 0.  1.
</event>
<event>
 5   0  0.1078103E-05  0.2852060E+04  0.7818609E-02  0.8287286E-01
       -1   -1    0    0    0  501  0.00000000000E+00  0.00000000000E+00  0.12013528233E+04  0.12013528233E+04  0.50400001928E-02 0.  1.
        1   -1    0    0  501    0  0.00000000000E+00  0.00000000000E+00 -0.16927259958E+04  0.16927259958E+04  0.50400001928E-02 0. -1.
    10030    2    1    2    0    0  0.00000000000E+00  0.00000000000E+00 -0.49137317255E+03  0.28940788191E+04  0.28520597147E+04 0.  0.
        1    1    3    3  502    0  0.77006454277E+03 -0.11784686122E+04 -0.14796420132E+02  0.14078375631E+04  0.50400001928E-02 0.  1.
       -1    1    3    3    0  502 -0.77006454277E+03  0.11784686122E+04 -0.47657675242E+03  0.14862412560E+04  0.50400001928E-02 0. -1.
</event>
<event>
 5   0  0.1017456E-05  0.2838035E+04  0.7818609E-02  0.8291556E-01
       -1   -1    0    0    0  501  0.00000000000E+00  0.00000000000E+00  0.11982197346E+04  0.11982197346E+04  0.50400001928E-02 0. -1.
        1   -1    0    0  501    0  0.00000000000E+00  0.00000000000E+00 -0.16805017213E+04  0.16805017213E+04  0.50400001928E-02 0.  1.
    10030    2    1    2    0    0  0.00000000000E+00  0.00000000000E+00 -0.48228198668E+03  0.28787214559E+04  0.28380347612E+04 0.  0.
        5    1    3    3  502    0  0.12285470983E+04  0.68959995497E+03 -0.41301686381E+03  0.14681556765E+04  0.46999998093E+01 0. -1.
       -5    1    3    3    0  502 -0.12285470983E+04 -0.68959995497E+03 -0.69265122872E+02  0.14105657794E+04  0.46999998093E+01 0.  1.
</event>
<event>
 5   0  0.2651061E-05  0.1980615E+04  0.7818609E-02  0.8615738E-01
       -2   -1    0    0    0  501  0.00000000000E+00  0.00000000000E+00  0.28739536899E+04  0.28739536899E+04  0.25500000920E-02 0. -1.
        2   -1    0    0  501    0  0.00000000000E+00  0.00000000000E+00 -0.34124040967E+03  0.34124040968E+03  0.25500000920E-02 0.  1.
    10030    2    1    2    0    0  0.00000000000E+00  0.00000000000E+00  0.25327132803E+04  0.32151940996E+04  0.19806151918E+04 0.  0.
        3    1    3    3  502    0 -0.72394265981E+03 -0.57395270759E+01  0.23632566936E+04  0.24716610056E+04  0.10100000352E+00 0. -1.
       -3    1    3    3    0  502  0.72394265981E+03  0.57395270759E+01  0.16945658670E+03  0.74353309398E+03  0.10100000352E+00 0.  1.
</event>
<event>
 5   0  0.1017456E-05  0.2701828E+04  0.7818609E-02  0.8334412E-01
       -1   -1    0    0    0  501  0.00000000000E+00  0.00000000000E+00  0.10393579832E+04  0.10393579832E+04  0.50400001928E-02 0.  1.
        1   -1    0    0  501    0  0.00000000000E+00  0.00000000000E+00 -0.17558620037E+04  0.17558620037E+04  0.50400001928E-02 0. -1.
    10030    2    1    2    0    0  0.00000000000E+00  0.00000000000E+00 -0.71650402051E+03  0.27952199870E+04  0.27018284113E+04 0.  0.
        5    1    3    3  502    0  0.12711319606E+04 -0.35303825547E+03 -0.57453585881E+02  0.13205057651E+04  0.46999998093E+01 0.  1.
       -5    1    3    3    0  502 -0.12711319606E+04  0.35303825547E+03 -0.65905043463E+03  0.14747142219E+04  0.46999998093E+01 0. -1.
</event>
<event>
 5   0  0.2588048E-05  0.3140125E+04  0.7818609E-02  0.8204811E-01
       -2   -1    0    0    0  501  0.00000000000E+00  0.00000000000E+00  0.10160292981E+04  0.10160292981E+04  0.25500000920E-02 0.  1.
        2   -1    0    0  501    0  0.00000000000E+00  0.00000000000E+00 -0.24262061029E+04  0.24262061029E+04  0.25500000920E-02 0. -1.
    10030    2    1    2    0    0  0.00000000000E+00  0.00000000000E+00 -0.14101768047E+04  0.34422354010E+04  0.31401251464E+04 0.  0.
        2    1    3    3  502    0  0.74297599320E+03 -0.34874873884E+03  0.76213708176E+03  0.11200410442E+04  0.25500000920E-02 0.  1.
       -2    1    3    3    0  502 -0.74297599320E+03  0.34874873884E+03 -0.21723138865E+04  0.23221943568E+04  0.25500000920E-02 0. -1.
</event>
<event>
 5   0  0.1105862E-05  0.2403434E+04  0.7818609E-02  0.8438219E-01
        1   -1    0    0  501    0  0.00000000000E+00  0.00000000000E+00  0.21592709451E+04  0.21592709451E+04  0.50400001928E-02 0. -1.
       -1   -1    0    0    0  501  0.00000000000E+00  0.00000000000E+00 -0.66880164599E+03  0.66880164601E+03  0.50400001928E-02 0.  1.
    10030    2    1    2    0    0  0.00000000000E+00  0.00000000000E+00  0.14904692991E+04  0.28280725911E+04  0.24034341782E+04 0.  0.
        3    1    3    3  502    0  0.35627778851E+03  0.67477269953E+03  0.18376295876E+04  0.19897574148E+04  0.10100000352E+00 0. -1.
       -3    1    3    3    0  502 -0.35627778851E+03 -0.67477269953E+03 -0.34716028849E+03  0.83831517624E+03  0.10100000352E+00 0.  1.
</event>
<event>
 5   0  0.1078103E-05  0.2383791E+04  0.7818609E-02  0.8445597E-01
       -1   -1    0    0    0  501  0.00000000000E+00  0.00000000000E+00  0.11663139115E+04  0.11663139115E+04  0.50400001928E-02 0. -1.
        1   -1    0    0  501    0  0.00000000000E+00  0.00000000000E+00 -0.12180381045E+04  0.12180381045E+04  0.50400001928E-02 0.  1.
    10030    2    1    2    0    0  0.00000000000E+00  0.00000000000E+00 -0.51724193024E+02  0.23843520161E+04  0.23837909188E+04 0.  0.
        1    1    3    3  502    0  0.88409088582E+03 -0.47070480590E+03 -0.67210633244E+03  0.12061951048E+04  0.50400001928E-02 0.  1.
       -1    1    3    3    0  502 -0.88409088582E+03  0.47070480590E+03  0.62038213941E+03  0.11781569113E+04  0.50400001928E-02 0. -1.
</event>
<event>
 5   0  0.1067434E-05  0.1376118E+04  0.7818609E-02  0.8971289E-01
       -1   -1    0    0    0  501  0.00000000000E+00  0.00000000000E+00  0.34950112118E+03  0.34950112121E+03  0.50400001928E-02 0. -1.
        1   -1    0    0  501    0  0.00000000000E+00  0.00000000000E+00 -0.13545738815E+04  0.13545738815E+04  0.50400001928E-02 0.  1.
    10030    2    1    2    0    0  0.00000000000E+00  0.00000000000E+00 -0.10050727604E+04  0.17040750028E+04  0.13761178588E+04 0.  0.
        4    1    3    3  502    0  0.48827466373E+03 -0.42864359357E+03 -0.22212854552E+03  0.68665142626E+03  0.12699999809E+01 0. -1.
       -4    1    3    3    0  502 -0.48827466373E+03  0.42864359357E+03 -0.78294421484E+03  0.10174235765E+04  0.12699999809E+01 0.  1.
</event>
<event>
 5   0  0.2624815E-05  0.2391239E+04  0.7818609E-02  0.8442791E-01
        2   -1    0    0  501    0  0.00000000000E+00  0.00000000000E+00  0.14013123430E+04  0.14013123430E+04  0.25500000920E-02 0. -1.
       -2   -1    0    0    0  501  0.00000000000E+00  0.00000000000E+00 -0.10201197007E+04  0.10201197007E+04  0.25500000920E-02 0.  1.
    10030    2    1    2    0    0  0.00000000000E+00  0.00000000000E+00  0.38119264233E+03  0.24214320437E+04  0.23912392836E+04 0.  0.
        4    1    3    3  502    0 -0.65305723083E+03  0.38989098965E+03  0.11247440357E+04  0.13577737254E+04  0.12699999809E+01 0. -1.
       -4    1    3    3    0  502  0.65305723083E+03 -0.38989098965E+03 -0.74355139340E+03  0.10636583183E+04  0.12699999809E+01 0.  1.
</event>
<event>
 5   0  0.1105862E-05  0.2630061E+04  0.7818609E-02  0.8358061E-01
        1   -1    0    0  501    0  0.00000000000E+00  0.00000000000E+00  0.13560604151E+04  0.13560604151E+04  0.50400001928E-02 0. -1.
       -1   -1    0    0    0  501  0.00000000000E+00  0.00000000000E+00 -0.12752421440E+04  0.12752421440E+04  0.50400001928E-02 0.  1.
    10030    2    1    2    0    0  0.00000000000E+00  0.00000000000E+00  0.80818271071E+02  0.26313025592E+04  0.26300611333E+04 0.  0.
        3    1    3    3  502    0 -0.64798839324E+03 -0.10438596747E+04  0.50943037599E+03  0.13300568772E+04  0.10100000352E+00 0. -1.
       -3    1    3    3    0  502  0.64798839324E+03  0.10438596747E+04 -0.42861210492E+03  0.13012456820E+04  0.10100000352E+00 0.  1.
</event>
<event>
 5   0  0.1017456E-05  0.2740688E+04  0.7818609E-02  0.8321923E-01
        1   -1    0    0  501    0  0.00000000000E+00  0.00000000000E+00  0.13143276729E+04  0.13143276730E+04  0.50400001928E-02 0.  1.
       -1   -1    0    0    0  501  0.00000000000E+00  0.00000000000E+00 -0.14287476603E+04  0.14287476603E+04  0.50400001928E-02 0. -1.
    10030    2    1    2    0    0  0.00000000000E+00  0.00000000000E+00 -0.11441998732E+03  0.27430753332E+04  0.27406879338E+04 0.  0.
        5    1    3    3  502    0 -0.71177182805E+03 -0.34592243584E+03 -0.11769065593E+04  0.14182427882E+04  0.46999998093E+01 0. -1.
       -5    1    3    3    0  502  0.71177182805E+03  0.34592243584E+03  0.10624865720E+04  0.13248325451E+04  0.46999998093E+01 0.  1.
</event>
<event>
 5   0  0.1067434E-05  0.2829412E+04  0.7818609E-02  0.8294195E-01
        1   -1    0    0  501    0  0.00000000000E+00  0.00000000000E+00  0.23737129962E+04  0.23737129962E+04  0.50400001928E-02 0.  1.
       -1   -1    0    0    0  501  0.00000000000E+00  0.00000000000E+00 -0.84314880995E+03  0.84314880997E+03  0.50400001928E-02 0. -1.
    10030    2    1    2    0    0  0.00000000000E+00  0.00000000000E+00  0.15305641863E+04  0.32168618062E+04  0.28294121566E+04 0.  0.
        4    1    3    3  502    0 -0.38646973861E+03  0.12930910569E+04  0.28299004086E+03  0.13789591424E+04  0.12699999809E+01 0. -1.
       -4    1    3    3    0  502  0.38646973861E+03 -0.12930910569E+04  0.12475741454E+04  0.18379026638E+04  0.12699999809E+01 0.  1.
</event>
<event>
 5   0  0.2588048E-05  0.1846162E+04  0.7818609E-02  0.8682129E-01
       -2   -1    0    0    0  501  0.00000000000E+00  0.00000000000E+00  0.51646365111E+03  0.51646365112E+03  0.25500000920E-02 0. -1.
        2   -1    0    0  501    0  0.00000000000E+00  0.00000000000E+00 -0.16498327565E+04  0.16498327565E+04  0.25500000920E-02 0.  1.
    10030    2    1    2    0    0  0.00000000000E+00  0.00000000000E+00 -0.11333691054E+04  0.21662964076E+04  0.18461621263E+04 0.  0.
        2    1    3    3  502    0 -0.57168865722E+02  0.96520843294E+02  0.50843526072E+03  0.52066396720E+03  0.25500000920E-02 0. -1.
       -2    1    3    3    0  502  0.57168865722E+02 -0.96520843294E+02 -0.16418043661E+04  0.16456324404E+04  0.25500000920E-02 0.  1.
</event>
<event>
 5   0  0.2624815E-05  0.2741784E+04  0.7818609E-02  0.8321574E-01
        2   -1    0    0  501    0  0.00000000000E+00  0.00000000000E+00  0.17755041036E+04  0.17755041036E+04  0.25500000920E-02 0.  1.
       -2   -1    0    0    0  501  0.00000000000E+00  0.00000000000E+00 -0.10584851132E+04  0.10584851132E+04  0.25500000920E-02 0. -1.
    10030    2    1    2    0    0  0.00000000000E+00  0.00000000000E+00  0.71701899046E+03  0.28339892168E+04  0.27417838442E+04 0.  0.
        4    1    3    3  502    0  0.10184511085E+04  0.23923030597E+03 -0.55721248222E+03  0.11853105766E+04  0.12699999809E+01 0. -1.
       -4    1    3    3    0  502 -0.10184511085E+04 -0.23923030597E+03  0.12742314727E+04  0.16486786402E+04  0.12699999809E+01 0.  1.
</event>
<event>
 5   0  0.2624815E-05  0.2806212E+04  0.7818609E-02  0.8301342E-01
       -2   -1    0    0    0  501  0.00000000000E+00  0.00000000000E+00  0.10843299915E+04  0.10843299915E+04  0.25500000920E-02 0.  1.
        2   -1    0    0  501    0  0.00000000000E+00  0.00000000000E+00 -0.18155974128E+04  0.18155974128E+04  0.25500000920E-02 0. -1.
    10030    2    1    2    0    0  0.00000000000E+00  0.00000000000E+00 -0.73126742127E+03  0.28999274043E+04  0.28062121995E+04 0.  0.
        4    1    3    3  502    0  0.23896319027E+02  0.13540737106E+04  0.13523166120E+02  0.13543526634E+04  0.12699999809E+01 0.  1.
       -4    1    3    3    0  502 -0.23896319027E+02 -0.13540737106E+04 -0.74479058739E+03  0.15455747409E+04  0.12699999809E+01 0. -1.
</event>
<event>
 5   0  0.1067434E-05  0.1532378E+04  0.7818609E-02  0.8863203E-01
       -1   -1    0    0    0  501  0.00000000000E+00  0.00000000000E+00  0.62447953371E+03  0.62447953373E+03  0.50400001928E-02 0.  1.
        1   -1    0    0  501    0  0.00000000000E+00  0.00000000000E+00 -0.94005555043E+03  0.94005555044E+03  0.50400001928E-02 0. -1.
    10030    2    1    2    0    0  0.00000000000E+00  0.00000000000E+00 -0.31557601672E+03  0.15645350842E+04  0.15323778278E+04 0.  0.
        4    1    3    3  502    0  0.41681248399E+03 -0.63698093266E+03 -0.68977063119E+02  0.76435384707E+03  0.12699999809E+01 0. -1.
       -4    1    3    3    0  502 -0.41681248399E+03  0.63698093266E+03 -0.24659895360E+03  0.80018123710E+03  0.12699999809E+01 0.  1.
</event>
<event>
 5   0  0.2588048E-05  0.2690335E+04  0.7818609E-02  0.8338148E-01
       -2   -1    0    0    0  501  0.00000000000E+00  0.00000000000E+00  0.10907129955E+04  0.10907129955E+04  0.25500000920E-02 0. -1.
        2   -1    0    0  501    0  0.00000000000E+00  0.00000000000E+00 -0.16589836316E+04  0.16589836316E+04  0.25500000920E-02 0.  1.
    10030    2    1    2    0    0  0.00000000000E+00  0.00000000000E+00 -0.56827063612E+03  0.27496966270E+04  0.26903345563E+04 0.  0.
        2    1    3    3  502    0  0.18718816632E+03  0.15604453714E+03 -0.16362332511E+04  0.16542818863E+04  0.25500000920E-02 0.  1.
       -2    1    3    3    0  502 -0.18718816632E+03 -0.15604453714E+03  0.10679626150E+04  0.10954147407E+04  0.25500000920E-02 0. -1.
</event>
<event>
 5   0  0.2624815E-05  0.1679364E+04  0.7818609E-02  0.8773222E-01
       -2   -1    0    0    0  501  0.00000000000E+00  0.00000000000E+00  0.12698266631E+04  0.12698266631E+04  0.25500000920E-02 0.  1.
        2   -1    0    0  501    0  0.00000000000E+00  0.00000000000E+00 -0.55524587971E+03  0.55524587972E+03  0.25500000920E-02 0. -1.
    10030    2    1    2    0    0  0.00000000000E+00  0.00000000000E+00  0.71458078339E+03  0.18250725428E+04  0.16793641924E+04 0.  0.
        4    1    3    3  502    0  0.74200574953E+03  0.33634376121E+03  0.57831999968E+03  0.99907722073E+03  0.12699999809E+01 0. -1.
       -4    1    3    3    0  502 -0.74200574953E+03 -0.33634376121E+03  0.13626078370E+03  0.82599532209E+03  0.12699999809E+01 0.  1.
</event>
<event>
 5   0  0.2518686E-05  0.2817010E+04  0.7818609E-02  0.8298007E-01
       -2   -1    0    0    0  501  0.00000000000E+00  0.00000000000E+00  0.13389971538E+04  0.13389971538E+04  0.25500000920E-02 0. -1.
        2   -1    0    0  501    0  0.00000000000E+00  0.00000000000E+00 -0.14816211906E+04  0.14816211906E+04  0.25500000920E-02 0.  1.
    10030    2    1    2    0    0  0.00000000000E+00  0.00000000000E+00 -0.14262403672E+03  0.28206183444E+04  0.28170101578E+04 0.  0.
        5    1    3    3  502    0  0.38878696691E+03 -0.80850954960E+03 -0.11585303587E+04  0.14652841633E+04  0.46999998093E+01 0.  1.
       -5    1    3    3    0  502 -0.38878696691E+03  0.80850954960E+03  0.10159063219E+04  0.13553341811E+04  0.46999998093E+01 0. -1.
</event>
<event>
 5   0  0.8958000E-06  0.2333108E+04  0.7818609E-02  0.8464981E-01
       -4   -1    0    0    0  501  0.00000000000E+00  0.00000000000E+00  0.11196810756E+04  0.11196817959E+04  0.12699999809E+01 0.  1.
        4   -1    0    0  501    0  0.00000000000E+00  0.00000000000E+00 -0.12153872550E+04  0.12153879186E+04  0.12699999809E+01 0. -1.
    10030    2    1    2    0    0  0.00000000000E+00  0.00000000000E+00 -0.95706179420E+02  0.23350697145E+04  0.23331075626E+04 0.  0.
        4    1    3    3  502    0 -0.52294941762E+03  0.71227916423E+03  0.71438337805E+03  0.11362935030E+04  0.12699999809E+01 0.  1.
       -4    1    3    3    0  502  0.52294941762E+03 -0.71227916423E+03 -0.81008955747E+03  0.11987762115E+04  0.12699999809E+01 0. -1.
</event>
<event>
 5   0  0.2518686E-05  0.2779139E+04  0.7818609E-02  0.8309774E-01
       -2   -1    0    0    0  501  0.00000000000E+00  0.00000000000E+00  0.12124325357E+04  0.12124325357E+04  0.25500000920E-02 0.  1.
        2   -1    0    0  501    0  0.00000000000E+00  0.00000000000E+00 -0.15925862561E+04  0.15925862561E+04  0.25500000920E-02 0. -1.
    10030    2    1    2    0    0  0.00000000000E+00  0.00000000000E+00 -0.38015372038E+03  0.28050187919E+04  0.27791389982E+04 0.  0.
        5    1    3    3  502    0 -0.16016996291E+02  0.80426604795E+03  0.95351474512E+03  0.12475226969E+04  0.46999998093E+01 0.  1.
       -5    1    3    3    0  502  0.16016996291E+02 -0.80426604795E+03 -0.13336684655E+04  0.15574960950E+04  0.46999998093E+01 0. -1.
</event>
<event>
 5   0  0.1017456E-05  0.2849613E+04  0.7818609E-02  0.8288029E-01
        1   -1    0    0  501    0  0.00000000000E+00  0.00000000000E+00  0.15419211058E+04  0.15419211058E+04  0.50400001928E-02 0.  1.
       -1   -1    0    0    0  501  0.00000000000E+00  0.00000000000E+00 -0.13165873355E+04  0.13165873355E+04  0.50400001928E-02 0. -1.
    10030    2    1    2    0    0  0.00000000000E+00  0.00000000000E+00  0.22533377026E+03  0.28585084413E+04  0.28496131669E+04 0.  0.
        5    1    3    3  502    0 -0.53830419348E+03  0.41482546521E+03  0.13688539417E+04  0.15282783696E+04  0.46999998093E+01 0.  1.
       -5    1    3    3    0  502  0.53830419348E+03 -0.41482546521E+03 -0.11435201714E+04  0.13302300717E+04  0.46999998093E+01 0. -1.
</event>
<event>
 5   0  0.1075146E-05  0.2786437E+04  0.7818609E-02  0.8307492E-01
       -1   -1    0    0    0  501  0.00000000000E+00  0.00000000000E+00  0.24862561119E+04  0.24862561119E+04  0.50400001928E-02 0. -1.
        1   -1    0    0  501    0  0.00000000000E+00  0.00000000000E+00 -0.78071507737E+03  0.78071507739E+03  0.50400001928E-02 0.  1.
    10030    2    1    2    0    0  0.00000000000E+00  0.00000000000E+00  0.17055410346E+04  0.32669711893E+04  0.27864368881E+04 0.  0.
        2    1    3    3  502    0 -0.92162829119E+03 -0.86446693321E+03  0.16475247918E+03  0.12743018344E+04  0.25500000920E-02 0.  1.
       -2    1    3    3    0  502  0.92162829119E+03  0.86446693321E+03  0.15407885554E+04  0.19926693550E+04  0.25500000920E-02 0. -1.
</event>
<event>
 5   0  0.2697964E-05  0.2934688E+04  0.7818609E-02  0.8262631E-01
       -2   -1    0    0    0  501  0.00000000000E+00  0.00000000000E+00  0.19041637041E+04  0.19041637041E+04  0.25500000920E-02 0. -1.
        2   -1    0    0  501    0  0.00000000000E+00  0.00000000000E+00 -0.11307314176E+04  0.11307314176E+04  0.25500000920E-02 0.  1.
    10030    2    1    2    0    0  0.00000000000E+00  0.00000000000E+00  0.77343228654E+03  0.30348951217E+04  0.29346875299E+04 0.  0.
        1    1    3    3  502    0  0.11943901878E+04 -0.65994064974E+03  0.94458792115E+03  0.16596192101E+04  0.50400001928E-02 0. -1.
       -1    1    3    3    0  502 -0.11943901878E+04  0.65994064974E+03 -0.17115563461E+03  0.13752759116E+04  0.50400001928E-02 0.  1.
</event>
<event>
 5   0  0.1067434E-05  0.2830983E+04  0.7818609E-02  0.8293714E-01
       -1   -1    0    0    0  501  0.00000000000E+00  0.00000000000E+00  0.13216022465E+04  0.13216022465E+04  0.50400001928E-02 0. -1.
        1   -1    0    0  501    0  0.00000000000E+00  0.00000000000E+00 -0.15160505131E+04  0.15160505131E+04  0.50400001928E-02 0.  1.
    10030    2    1    2    0    0  0.00000000000E+00  0.00000000000E+00 -0.19444826659E+03  0.28376527595E+04  0.28309827013E+04 0.  0.
        4    1    3    3  502    0 -0.22639013852E+02  0.43768674678E+03 -0.14463268977E+04  0.15112727487E+04  0.12699999809E+01 0.  1.
       -4    1    3    3    0  502  0.22639013852E+02 -0.43768674678E+03  0.12518786311E+04  0.13263800108E+04  0.12699999809E+01 0. -1.
</event>
<event>
 5   0  0.2651061E-05  0.1393028E+04  0.7818609E-02  0.8958880E-01
        2   -1    0    0  501    0  0.00000000000E+00  0.00000000000E+00  0.89145301732E+03  0.89145301733E+03  0.25500000920E-02 0.  1.
       -2   -1    0    0    0  501  0.00000000000E+00  0.00000000000E+00 -0.54420374326E+03  0.54420374327E+03  0.25500000920E-02 0. -1.
    10030    2    1    2    0    0  0.00000000000E+00  0.00000000000E+00  0.34724927407E+03  0.14356567606E+04  0.13930284548E+04 0.  0.
        3    1    3    3  502    0 -0.23753663639E+03 -0.65475653512E+03  0.17206680609E+03  0.71745158016E+03  0.10100000352E+00 0. -1.
       -3    1    3    3    0  502  0.23753663639E+03  0.65475653512E+03  0.17518246797E+03  0.71820518043E+03  0.10100000352E+00 0.  1.
</event>
<event>
 5   0  0.1017456E-05  0.2897371E+04  0.7818609E-02  0.8273660E-01
        1   -1    0    0  501    0  0.00000000000E+00  0.00000000000E+00  0.15307347243E+04  0.15307347243E+04  0.50400001928E-02 0.  1.
       -1   -1    0    0    0  501  0.00000000000E+00  0.00000000000E+00 -0.13710343679E+04  0.13710343679E+04  0.50400001928E-02 0. -1.
    10030    2    1    2    0    0  0.00000000000E+00  0.00000000000E+00  0.15970035647E+03  0.29017690922E+04  0.28973711638E+04 0.  0.
        5    1    3    3  502    0  0.48837339306E+03  0.10907073033E+04 -0.74024368013E+03  0.14057502582E+04  0.46999998093E+01 0.  1.
       -5    1    3    3    0  502 -0.48837339306E+03 -0.10907073033E+04  0.89994403659E+03  0.14960188340E+04  0.46999998093E+01 0. -1.
</event>
<event>
 5   0  0.1105862E-05  0.2608979E+04  0.7818609E-02  0.8365158E-01
       -1   -1    0    0    0  501  0.00000000000E+00  0.00000000000E+00  0.10375202967E+04  0.10375202967E+04  0.50400001928E-02 0. -1.
        1   -1    0    0  501    0  0.00000000000E+00  0.00000000000E+00 -0.16401535523E+04  0.16401535523E+04  0.50400001928E-02 0.  1.
    10030    2    1    2    0    0  0.00000000000E+00  0.00000000000E+00 -0.60263325564E+03  0.26776738490E+04  0.26089788042E+04 0.  0.
        3    1    3    3  502    0 -0.31110188615E+03 -0.34597101686E+03  0.94946470023E+03  0.10573379570E+04  0.10100000352E+00 0. -1.
       -3    1    3    3    0  502  0.31110188615E+03  0.34597101686E+03 -0.15520979559E+04  0.16203358920E+04  0.10100000352E+00 0.  1.
</event>
<event>
 5   0  0.8958000E-06  0.2804934E+04  0.7818609E-02  0.8301738E-01
       -3   -1    0    0    0  501  0.00000000000E+00  0.00000000000E+00  0.14740806642E+04  0.14740806676E+04  0.10100000352E+00 0. -1.
        3   -1    0    0  501    0  0.00000000000E+00  0.00000000000E+00 -0.13343326193E+04  0.13343326232E+04  0.10100000352E+00 0.  1.
    10030    2    1    2    0    0  0.00000000000E+00  0.00000000000E+00  0.13974804486E+03  0.28084132908E+04  0.28049341696E+04 0.  0.
        4    1    3    3  502    0 -0.42640885216E+02 -0.22990942798E+03  0.14544253486E+04  0.14731026093E+04  0.12699999809E+01 0. -1.
       -4    1    3    3    0  502  0.42640885216E+02  0.22990942798E+03 -0.13146773037E+04  0.13353106814E+04  0.12699999809E+01 0.  1.
</event>
<event>
 5   0  0.2588048E-05  0.2938763E+04  0.7818609E-02  0.8261437E-01
       -2   -1    0    0    0  501  0.00000000000E+00  0.00000000000E+00  0.12797962361E+04  0.12797962361E+04  0.25500000920E-02 0.  1.
        2   -1    0    0  501    0  0.00000000000E+00  0.00000000000E+00 -0.16870508839E+04  0.16870508839E+04  0.25500000920E-02 0. -1.
    10030    2    1    2    0    0  0.00000000000E+00  0.00000000000E+00 -0.40725464780E+03  0.29668471200E+04  0.29387625772E+04 0.  0.
        2    1    3    3  502    0  0.29245600188E+03 -0.40632982298E+03 -0.15982949223E+04  0.16748674864E+04  0.25500000920E-02 0. -1.
       -2    1    3    3    0  502 -0.29245600188E+03  0.40632982298E+03  0.11910402745E+04  0.12919796336E+04  0.25500000920E-02 0.  1.
</event>
<event>
 5   0  0.2518686E-05  0.2732755E+04  0.7818609E-02  0.8324455E-01
       -2   -1    0    0    0  501  0.00000000000E+00  0.00000000000E+00  0.14923438899E+04  0.14923438899E+04  0.25500000920E-02 0.  1.
        2   -1    0    0  501    0  0.00000000000E+00  0.00000000000E+00 -0.12510433249E+04  0.12510433249E+04  0.25500000920E-02 0. -1.
    10030    2    1    2    0    0  0.00000000000E+00  0.00000000000E+00  0.24130056497E+03  0.27433872148E+04  0.27327545532E+04 0.  0.
        5    1    3    3  502    0  0.33184157021E+03  0.82805700615E+03  0.11596494159E+04  0.14630810268E+04  0.46999998093E+01 0.  1.
       -5    1    3    3    0  502 -0.33184157021E+03 -0.82805700615E+03 -0.91834885094E+03  0.12803061881E+04  0.46999998093E+01 0. -1.
</event>
<event>
 5   0  0.1067434E-05  0.1843203E+04  0.7818609E-02  0.8683656E-01
        1   -1    0    0  501    0  0.00000000000E+00  0.00000000000E+00  0.96121858961E+03  0.96121858963E+03  0.50400001928E-02 0.  1.
       -1   -1    0    0    0  501  0.00000000000E+00  0.00000000000E+00 -0.88361718937E+03  0.88361718939E+03  0.50400001928E-02 0. -1.
    10030    2    1    2    0    0  0.00000000000E+00  0.00000000000E+00  0.77601400241E+02  0.18448357790E+04  0.18432029390E+04 0.  0.
        4    1    3    3  502    0 -0.66869366892E+03 -0.52301274241E+03  0.39780229750E+03  0.93751897707E+03  0.12699999809E+01 0.  1.
       -4    1    3    3    0  502  0.66869366892E+03  0.52301274241E+03 -0.32020089726E+03  0.90731680194E+03  0.12699999809E+01 0. -1.
</event>
<event>
 5   0  0.2624815E-05  0.2747608E+04  0.7818609E-02  0.8319721E-01
       -2   -1    0    0    0  501  0.00000000000E+00  0.00000000000E+00  0.19264005772E+04  0.19264005772E+04  0.25500000920E-02 0. -1.
        2   -1    0    0  501    0  0.00000000000E+00  0.00000000000E+00 -0.97972207073E+03  0.97972207073E+03  0.25500000920E-02 0.  1.
    10030    2    1    2    0    0  0.00000000000E+00  0.00000000000E+00  0.94667850651E+03  0.29061226480E+04  0.27476078050E+04 0.  0.
        4    1    3    3  502    0 -0.92569502855E+03  0.92252356359E+03  0.92129962446E+03  0.15989858105E+04  0.12699999809E+01 0. -1.
       -4    1    3    3    0  502  0.92569502855E+03 -0.92252356359E+03  0.25378882046E+02  0.13071368375E+04  0.12699999809E+01 0.  1.
</event>
<event>
 5   0  0.1017456E-05  0.2734466E+04  0.7818609E-02  0.8323908E-01
       -1   -1    0    0    0  501  0.00000000000E+00  0.00000000000E+00  0.17169284208E+04  0.17169284208E+04  0.50400001928E-02 0.  1.
        1   -1    0    0  501    0  0.00000000000E+00  0.00000000000E+00 -0.10887621425E+04  0.10887621425E+04  0.50400001928E-02 0. -1.
    10030    2    1    2    0    0  0.00000000000E+00  0.00000000000E+00  0.62816627833E+03  0.28056905633E+04  0.27344664313E+04 0.  0.
        5    1    3    3  502    0 -0.16604170539E+03 -0.56928261199E+03  0.15781012005E+04  0.16858463837E+04  0.46999998093E+01 0.  1.
       -5    1    3    3    0  502  0.16604170539E+03  0.56928261199E+03 -0.94993492221E+03  0.11198441796E+04  0.46999998093E+01 0. -1.
</event>
<event>
 5   0  0.2588048E-05  0.2777405E+04  0.7818609E-02  0.8310318E-01
        2   -1    0    0  501    0  0.00000000000E+00  0.00000000000E+00  0.13523447574E+04  0.13523447574E+04  0.25500000920E-02 0. -1.
       -2   -1    0    0    0  501  0.00000000000E+00  0.00000000000E+00 -0.14260375337E+04  0.14260375337E+04  0.25500000920E-02 0.  1.
    10030    2    1    2    0    0  0.00000000000E+00  0.00000000000E+00 -0.73692776315E+02  0.27783822911E+04  0.27774048193E+04 0.  0.
        2    1    3    3  502    0 -0.17215426478E+03  0.36772810646E+03  0.12916395643E+04  0.13539548793E+04  0.25500000920E-02 0. -1.
       -2    1    3    3    0  502  0.17215426478E+03 -0.36772810646E+03 -0.13653323406E+04  0.14244274118E+04  0.25500000920E-02 0.  1.
</event>
<event>
 5   0  0.2651061E-05  0.2769337E+04  0.7818609E-02  0.8312852E-01
       -2   -1    0    0    0  501  0.00000000000E+00  0.00000000000E+00  0.74573372228E+03  0.74573372228E+03  0.25500000920E-02 0.  1.
        2   -1    0    0  501    0  0.00000000000E+00  0.00000000000E+00 -0.25710342613E+04  0.25710342613E+04  0.25500000920E-02 0. -1.
    10030    2    1    2    0    0  0.00000000000E+00  0.00000000000E+00 -0.18253005390E+04  0.33167679836E+04  0.27693370685E+04 0.  0.
        3    1    3    3  502    0 -0.99024103745E+03 -0.27391710891E+03  0.19912517950E+03  0.10465461013E+04  0.10100000352E+00 0.  1.
       -3    1    3    3    0  502  0.99024103745E+03  0.27391710891E+03 -0.20244257186E+04  0.22702218823E+04  0.10100000352E+00 0. -1.
</event>
<event>
 5   0  0.1075146E-05  0.2691502E+04  0.7818609E-02  0.8337768E-01
        1   -1    0    0  501    0  0.00000000000E+00  0.00000000000E+00  0.19166915140E+04  0.19166915140E+04  0.50400001928E-02 0.  1.
       -1   -1    0    0    0  501  0.00000000000E+00  0.00000000000E+00 -0.94488124756E+03  0.94488124757E+03  0.50400001928E-02 0. -1.
    10030    2    1    2    0    0  0.00000000000E+00  0.00000000000E+00  0.97181026641E+03  0.28615727615E+04  0.26915020854E+04 0.  0.
        2    1    3    3  502    0 -0.49101436151E+03 -0.27104745131E+03  0.17865122258E+04  0.18724817108E+04  0.25500000920E-02 0.  1.
       -2    1    3    3    0  502  0.49101436151E+03  0.27104745131E+03 -0.81470195942E+03  0.98909105079E+03  0.25500000920E-02 0. -1.
</event>
<event>
 5   0  0.1017456E-05  0.1803722E+04  0.7818609E-02  0.8704323E-01
       -1   -1    0    0    0  501  0.00000000000E+00  0.00000000000E+00  0.64839666556E+03  0.64839666558E+03  0.50400001928E-02 0. -1.
        1   -1    0    0  501    0  0.00000000000E+00  0.00000000000E+00 -0.12544065924E+04  0.12544065924E+04  0.50400001928E-02 0.  1.
    10030    2    1    2    0    0  0.00000000000E+00  0.00000000000E+00 -0.60600992684E+03  0.19028032580E+04  0.18037217655E+04 0.  0.
        5    1    3    3  502    0  0.62514526909E+03 -0.49062830536E+03  0.14680709970E+03  0.80814426683E+03  0.46999998093E+01 0. -1.
       -5    1    3    3    0  502 -0.62514526909E+03  0.49062830536E+03 -0.75281702653E+03  0.10946589912E+04  0.46999998093E+01 0.  1.
</event>
<event>
 5   0  0.2651061E-05  0.2736393E+04  0.7818609E-02  0.8323292E-01
       -2   -1    0    0    0  501  0.00000000000E+00  0.00000000000E+00  0.11823666952E+04  0.11823666952E+04  0.25500000920E-02 0.  1.
        2   -1    0    0  501    0  0.00000000000E+00  0.00000000000E+00 -0.15832328354E+04  0.15832328354E+04  0.25500000920E-02 0. -1.
    10030    2    1    2    0    0  0.00000000000E+00  0.00000000000E+00 -0.40086614026E+03  0.27655995306E+04  0.27363930824E+04 0.  0.
        3    1    3    3  502    0  0.32509874138E+03 -0.11463658927E+04 -0.88000685663E+03  0.14813021399E+04  0.10100000352E+00 0. -1.
       -3    1    3    3    0  502 -0.32509874138E+03  0.11463658927E+04  0.47914071636E+03  0.12842973908E+04  0.10100000352E+00 0.  1.
</event>
<event>
 5   0  0.2651061E-05  0.2846930E+04  0.7818609E-02  0.8288845E-01
        2   -1    0    0  501    0  0.00000000000E+00  0.00000000000E+00  0.15558622703E+04  0.15558622703E+04  0.25500000920E-02 0. -1.
       -2   -1    0    0    0  501  0.00000000000E+00  0.00000000000E+00 -0.13023345253E+04  0.13023345253E+04  0.25500000920E-02 0.  1.
    10030    2    1    2    0    0  0.00000000000E+00  0.00000000000E+00  0.25352774505E+03  0.28581967956E+04  0.28469303828E+04 0.  0.
        3    1    3    3  502    0 -0.12269143073E+04  0.52141293270E+02  0.84948469536E+03  0.14932051734E+04  0.10100000352E+00 0. -1.
       -3    1    3    3    0  502  0.12269143073E+04 -0.52141293270E+02 -0.59595695032E+03  0.13649916222E+04  0.10100000352E+00 0.  1.
</event>
<event>
 5   0  0.2588048E-05  0.2802068E+04  0.7818609E-02  0.8302627E-01
        2   -1    0    0  501    0  0.00000000000E+00  0.00000000000E+00  0.17781433859E+04  0.17781433859E+04  0.25500000920E-02 0. -1.
       -2   -1    0    0    0  501  0.00000000000E+00  0.00000000000E+00 -0.11039021422E+04  0.11039021422E+04  0.25500000920E-02 0.  1.
    10030    2    1    2    0    0  0.00000000000E+00  0.00000000000E+00  0.67424124366E+03  0.28820455282E+04  0.28020680170E+04 0.  0.
        2    1    3    3  502    0 -0.97568011242E+03  0.89265680655E+03  0.81304620913E+03  0.15523633577E+04  0.25500000920E-02 0. -1.
       -2    1    3    3    0  502  0.97568011242E+03 -0.89265680655E+03 -0.13880496547E+03  0.13296821705E+04  0.25500000920E-02 0.  1.
</event>
<event>
 5   0  0.1078103E-05  0.2749729E+04  0.7818609E-02  0.8319048E-01
        1   -1    0    0  501    0  0.00000000000E+00  0.00000000000E+00  0.10643869098E+04  0.10643869098E+04  0.50400001928E-02 0. -1.
       -1   -1    0    0    0  501  0.00000000000E+00  0.00000000000E+00 -0.17759077301E+04  0.17759077301E+04  0.50400001928E-02 0.  1.
    10030    2    1    2    0    0  0.00000000000E+00  0.00000000000E+00 -0.71152082029E+03  0.28402946399E+04  0.27497293983E+04 0.  0.
        1    1    3    3  502    0 -0.77309296848E+03  0.11221387597E+04 -0.16702739745E+03  0.13728679053E+04  0.50400001928E-02 0. -1.
       -1    1    3    3    0  502  0.77309296848E+03 -0.11221387597E+04 -0.54449342285E+03  0.14674267346E+04  0.50400001928E-02 0.  1.
</event>
<event>
 5   0  0.2624815E-05  0.2740753E+04  0.7818609E-02  0.8321902E-01
        2   -1    0    0  501    0  0.00000000000E+00  0.00000000000E+00  0.14447868234E+04  0.14447868234E+04  0.25500000920E-02 0. -1.
       -2   -1    0    0    0  501  0.00000000000E+00  0.00000000000E+00 -0.12997985770E+04  0.12997985770E+04  0.25500000920E-02 0.  1.
    10030    2    1    2    0    0  0.00000000000E+00  0.00000000000E+00  0.14498824642E+03  0.27445854004E+04  0.27407530769E+04 0.  0.
        4    1    3    3  502    0 -0.61825223472E+03 -0.10213287635E+04  0.74617693245E+03  0.14078813502E+04  0.12699999809E+01 0. -1.
       -4    1    3    3    0  502  0.61825223472E+03  0.10213287635E+04 -0.60118868603E+03  0.13367040502E+04  0.12699999809E+01 0.  1.
</event>
<event>
 5   0  0.2651061E-05  0.2540778E+04  0.7818609E-02  0.8388601E-01
        2   -1    0    0  501    0  0.00000000000E+00  0.00000000000E+00  0.11361231475E+04  0.11361231475E+04  0.25500000920E-02 0. -1.
       -2   -1    0    0    0  501  0.00000000000E+00  0.00000000000E+00 -0.14205221829E+04  0.14205221829E+04  0.25500000920E-02 0.  1.
    10030    2    1    2    0    0  0.00000000000E+00  0.00000000000E+00 -0.28439903540E+03  0.25566453304E+04  0.25407779388E+04 0.  0.
        3    1    3    3  502    0 -0.95328910602E+03 -0.62511796815E+03  0.42197611816E+03  0.12155642510E+04  0.10100000352E+00 0. -1.
       -3    1    3    3    0  502  0.95328910602E+03  0.62511796815E+03 -0.70637515356E+03  0.13410810794E+04  0.10100000352E+00 0.  1.
</event>
<event>
 5   0  0.1075146E-05  0.2816984E+04  0.7818609E-02  0.8298015E-01
       -1   -1    0    0    0  501  0.00000000000E+00  0.00000000000E+00  0.94349843111E+03  0.94349843113E+03  0.50400001928E-02 0. -1.
        1   -1    0    0  501    0  0.00000000000E+00  0.00000000000E+00 -0.21026521614E+04  0.21026521614E+04  0.50400001928E-02 0.  1.
    10030    2    1    2    0    0  0.00000000000E+00  0.00000000000E+00 -0.11591537303E+04  0.30461505926E+04  0.28169835041E+04 0.  0.
        2    1    3    3  502    0  0.92324868126E+03  0.20381835373E+03  0.54934574459E+03  0.10934856176E+04  0.25500000920E-02 0. -1.
       -2    1    3    3    0  502 -0.92324868126E+03 -0.20381835373E+03 -0.17084994749E+04  0.19526649750E+04  0.25500000920E-02 0.  1.
</event>
<event>
 5   0  0.1078103E-05  0.2804984E+04  0.7818609E-02  0.8301723E-01
       -1   -1    0    0    0  501  0.00000000000E+00  0.00000000000E+00  0.13485177783E+04  0.13485177783E+04  0.50400001928E-02 0.  1.
        1   -1    0    0  501    0  0.00000000000E+00  0.00000000000E+00 -0.14586260732E+04  0.14586260732E+04  0.50400001928E-02 0. -1.
    10030    2    1    2    0    0  0.00000000000E+00  0.00000000000E+00 -0.11010829495E+03  0.28071438515E+04  0.28049835590E+04 0.  0.
        1    1    3    3  502    0 -0.43830534756E+03 -0.11636183829E+04 -0.70429400254E+03  0.14290379144E+04  0.50400001928E-02 0. -1.
       -1    1    3    3    0  502  0.43830534756E+03  0.11636183829E+04  0.59418570759E+03  0.13781059371E+04  0.50400001928E-02 0.  1.
</event>
<event>
 5   0  0.2697964E-05  0.2333720E+04  0.7818609E-02  0.8464743E-01
       -2   -1    0    0    0  501  0.00000000000E+00  0.00000000000E+00  0.50600125158E+03  0.50600125158E+03  0.25500000920E-02 0. -1.
        2   -1    0    0  501    0  0.00000000000E+00  0.00000000000E+00 -0.26908274577E+04  0.26908274577E+04  0.25500000920E-02 0.  1.
    10030    2    1    2    0    0  0.00000000000E+00  0.00000000000E+00 -0.21848262061E+04  0.31968287093E+04  0.23337198301E+04 0.  0.
        1    1    3    3  502    0  0.41171843433E+03  0.50265758664E+03 -0.24200904339E+04  0.25057961663E+04  0.50400001928E-02 0.  1.
       -1    1    3    3    0  502 -0.41171843433E+03 -0.50265758664E+03  0.23526422780E+03  0.69103254300E+03  0.50400001928E-02 0. -1.
</event>
<event>
 5   0  0.1017456E-05  0.2386783E+04  0.7818609E-02  0.8444468E-01
        1   -1    0    0  501    0  0.00000000000E+00  0.00000000000E+00  0.66528822543E+03  0.66528822545E+03  0.50400001928E-02 0. -1.
       -1   -1    0    0    0  501  0.00000000000E+00  0.00000000000E+00 -0.21407015899E+04  0.21407015899E+04  0.50400001928E-02 0.  1.
    10030    2    1    2    0    0  0.00000000000E+00  0.00000000000E+00 -0.14754133645E+04  0.28059898154E+04  0.23867832428E+04 0.  0.
        5    1    3    3  502    0 -0.63180282864E+03 -0.77066410805E+03  0.34162551986E+02  0.99713948456E+03  0.46999998093E+01 0. -1.
       -5    1    3    3    0  502  0.63180282864E+03  0.77066410805E+03 -0.15095759165E+04  0.18088503308E+04  0.46999998093E+01 0.  1.
</event>
<event>
 5   0  0.1078103E-05  0.2763471E+04  0.7818609E-02  0.8314700E-01
        1   -1    0    0  501    0  0.00000000000E+00  0.00000000000E+00  0.13834599986E+04  0.13834599986E+04  0.50400001928E-02 0.  1.
       -1   -1    0    0    0  501  0.00000000000E+00  0.00000000000E+00 -0.13800135355E+04  0.13800135355E+04  0.50400001928E-02 0. -1.
    10030    2    1    2    0    0  0.00000000000E+00  0.00000000000E+00  0.34464631256E+01  0.27634735342E+04  0.27634713850E+04 0.  0.
        1    1    3    3  502    0 -0.30912294477E+03  0.74491355399E+03 -0.11202136133E+04  0.13803375447E+04  0.50400001928E-02 0. -1.
       -1    1    3    3    0  502  0.30912294477E+03 -0.74491355399E+03  0.11236600764E+04  0.13831359894E+04  0.50400001928E-02 0.  1.
</event>
<event>
 5   0  0.2651061E-05  0.2648827E+04  0.7818609E-02  0.8351802E-01
        2   -1    0    0  501    0  0.00000000000E+00  0.00000000000E+00  0.13250685507E+04  0.13250685507E+04  0.25500000920E-02 0.  1.
       -2   -1    0    0    0  501  0.00000000000E+00  0.00000000000E+00 -0.13237588966E+04  0.13237588966E+04  0.25500000920E-02 0. -1.
    10030    2    1    2    0    0  0.00000000000E+00  0.00000000000E+00  0.13096540440E+01  0.26488274473E+04  0.26488271236E+04 0.  0.
        3    1    3    3  502    0  0.27693636509E+03 -0.10804036823E+04  0.71487155184E+03  0.13247668523E+04  0.10100000352E+00 0.  1.
       -3    1    3    3    0  502 -0.27693636509E+03  0.10804036823E+04 -0.71356189780E+03  0.13240605950E+04  0.10100000352E+00 0. -1.
</event>
<event>
 5   0  0.1078103E-05  0.2852599E+04  0.7818609E-02  0.8287122E-01
        1   -1    0    0  501    0  0.00000000000E+00  0.00000000000E+00  0.24326778904E+04  0.24326778904E+04  0.50400001928E-02 0. -1.
       -1   -1    0    0    0  501  0.00000000000E+00  0.00000000000E+00 -0.83625119319E+03  0.83625119321E+03  0.50400001928E-02 0.  1.
    10030    2    1    2    0    0  0.00000000000E+00  0.00000000000E+00  0.15964266972E+04  0.32689290836E+04  0.28525986669E+04 0.  0.
        1    1    3    3  502    0 -0.60459425981E+03  0.82874395604E+03  0.19337886283E+04  0.21890384242E+04  0.50400001928E-02 0. -1.
       -1    1    3    3    0  502  0.60459425981E+03 -0.82874395604E+03 -0.33736193111E+03  0.10798906594E+04  0.50400001928E-02 0.  1.
</event>
<event>
 5   0  0.1078103E-05  0.3045983E+04  0.7818609E-02  0.8230721E-01
       -1   -1    0    0    0  501  0.00000000000E+00  0.00000000000E+00  0.22337736146E+04  0.22337736146E+04  0.50400001928E-02 0.  1.
        1   -1    0    0  501    0  0.00000000000E+00  0.00000000000E+00 -0.10383785787E+04  0.10383785787E+04  0.50400001928E-02 0. -1.
    10030    2    1    2    0    0  0.00000000000E+00  0.00000000000E+00  0.11953950360E+04  0.32721521933E+04  0.30459827124E+04 0.  0.
        1    1    3    3  502    0  0.74296921734E+03 -0.29416185448E+03 -0.79509303392E+03  0.11272565756E+04  0.50400001928E-02 0. -1.
       -1    1    3    3    0  502 -0.74296921734E+03  0.29416185448E+03  0.19904880699E+04  0.21448956177E+04  0.50400001928E-02 0.  1.
</event>
<event>
 5   0  0.1075146E-05  0.2841174E+04  0.7818609E-02  0.8290598E-01
        1   -1    0    0  501    0  0.00000000000E+00  0.00000000000E+00  0.15937151351E+04  0.15937151351E+04  0.50400001928E-02 0. -1.
       -1   -1    0    0    0  501  0.00000000000E+00  0.00000000000E+00 -0.12662665114E+04  0.12662665114E+04  0.50400001928E-02 0.  1.
    10030    2    1    2    0    0  0.00000000000E+00  0.00000000000E+00  0.32744862376E+03  0.28599816465E+04  0.28411744785E+04 0.  0.
        2    1    3    3  502    0 -0.12190824534E+04 -0.38332800509E+03  0.78828747911E+03  0.15014990967E+04  0.25500000920E-02 0. -1.
       -2    1    3    3    0  502  0.12190824534E+04  0.38332800509E+03 -0.46083885535E+03  0.13584825498E+04  0.25500000920E-02 0.  1.
</event>
<event>
 5   0  0.2697964E-05  0.1753201E+04  0.7818609E-02  0.8731590E-01
        2   -1    0    0  501    0  0.00000000000E+00  0.00000000000E+00  0.30727604074E+03  0.30727604075E+03  0.25500000920E-02 0. -1.
       -2   -1    0    0    0  501  0.00000000000E+00  0.00000000000E+00 -0.25007758043E+04  0.25007758043E+04  0.25500000920E-02 0.  1.
    10030    2    1    2    0    0  0.00000000000E+00  0.00000000000E+00 -0.21934997636E+04  0.28080518451E+04  0.17532010586E+04 0.  0.
        1    1    3    3  502    0  0.36667959257E+02  0.63093119768E+03 -0.20697039349E+04  0.21640455387E+04  0.50400001928E-02 0.  1.
       -1    1    3    3    0  502 -0.36667959257E+02 -0.63093119768E+03 -0.12379582872E+03  0.64400630639E+03  0.50400001928E-02 0. -1.
</event>
<event>
 5   0  0.8958000E-06  0.2839684E+04  0.7818609E-02  0.8291053E-01
        3   -1    0    0  501    0  0.00000000000E+00  0.00000000000E+00  0.13310435755E+04  0.13310435794E+04  0.10100000352E+00 0. -1.
       -3   -1    0    0    0  501  0.00000000000E+00  0.00000000000E+00 -0.15145648919E+04  0.15145648953E+04  0.10100000352E+00 0.  1.
    10030    2    1    2    0    0  0.00000000000E+00  0.00000000000E+00 -0.18352131636E+03  0.28456084746E+04  0.28396844045E+04 0.  0.
        4    1    3    3  502    0 -0.28238965248E+03 -0.23714830566E+03 -0.14657399458E+04  0.15114160368E+04  0.12699999809E+01 0.  1.
       -4    1    3    3    0  502  0.28238965248E+03  0.23714830566E+03  0.12822186294E+04  0.13341924378E+04  0.12699999809E+01 0. -1.
</event>
<event>
 5   0  0.2651061E-05  0.2815304E+04  0.7818609E-02  0.8298533E-01
        2   -1    0    0  501    0  0.00000000000E+00  0.00000000000E+00  0.17376758728E+04  0.17376758728E+04  0.25500000920E-02 0. -1.
       -2   -1    0    0    0  501  0.00000000000E+00  0.00000000000E+00 -0.11403071796E+04  0.11403071796E+04  0.25500000920E-02 0.  1.
    10030    2    1    2    0    0  0.00000000000E+00  0.00000000000E+00  0.59736869318E+03  0.28779830525E+04  0.28153040857E+04 0.  0.
        3    1    3    3  502    0 -0.13141580741E+04  0.12571998073E+03 -0.20072812933E+03  0.13353309512E+04  0.10100000352E+00 0. -1.
       -3    1    3    3    0  502  0.13141580741E+04 -0.12571998073E+03  0.79809682251E+03  0.15426521013E+04  0.10100000352E+00 0.  1.
</event>
<event>
 5   0  0.2588048E-05  0.2793785E+04  0.7818609E-02  0.8305201E-01
        2   -1    0    0  501    0  0.00000000000E+00  0.00000000000E+00  0.14670149529E+04  0.14670149529E+04  0.25500000920E-02 0. -1.
       -2   -1    0    0    0  501  0.00000000000E+00  0.00000000000E+00 -0.13301216167E+04  0.13301216167E+04  0.25500000920E-02 0.  1.
    10030    2    1    2    0    0  0.00000000000E+00  0.00000000000E+00  0.13689333628E+03  0.27971365696E+04  0.27937847454E+04 0.  0.
        2    1    3    3  502    0 -0.12038778995E+04  0.62076820072E+03 -0.27347901462E+03  0.13818342619E+04  0.25500000920E-02 0.  1.
       -2    1    3    3    0  502  0.12038778995E+04 -0.62076820072E+03  0.41037235090E+03  0.14153023077E+04  0.25500000920E-02 0. -1.
</event>
<event>
 5   0  0.2624815E-05  0.2067201E+04  0.7818609E-02  0.8575831E-01
       -2   -1    0    0    0  501  0.00000000000E+00  0.00000000000E+00  0.13031211638E+04  0.13031211638E+04  0.25500000920E-02 0. -1.
        2   -1    0    0  501    0  0.00000000000E+00  0.00000000000E+00 -0.81982413870E+03  0.81982413870E+03  0.25500000920E-02 0.  1.
    10030    2    1    2    0    0  0.00000000000E+00  0.00000000000E+00  0.48329702510E+03  0.21229453025E+04  0.20672011859E+04 0.  0.
        4    1    3    3  502    0  0.75619049328E+03 -0.66093877766E+03  0.49249836749E+03  0.11185796283E+04  0.12699999809E+01 0. -1.
       -4    1    3    3    0  502 -0.75619049328E+03  0.66093877766E+03 -0.92013423964E+01  0.10043656742E+04  0.12699999809E+01 0.  1.
</event>
<event>
 5   0  0.2651061E-05  0.2940994E+04  0.7818609E-02  0.8260784E-01
        2   -1    0    0  501    0  0.00000000000E+00  0.00000000000E+00  0.18388943805E+04  0.18388943805E+04  0.25500000920E-02 0. -1.
       -2   -1    0    0    0  501  0.00000000000E+00  0.00000000000E+00 -0.11759032509E+04  0.11759032509E+04  0.25500000920E-02 0.  1.
    10030    2    1    2    0    0  0.00000000000E+00  0.00000000000E+00  0.66299112958E+03  0.30147976314E+04  0.29409943082E+04 0.  0.
        3    1    3    3  502    0 -0.85970015943E+03  0.54079417789E+02 -0.89019752102E+03  0.12387334597E+04  0.10100000352E+00 0.  1.
       -3    1    3    3    0  502  0.85970015943E+03 -0.54079417789E+02  0.15531886506E+04  0.17760641717E+04  0.10100000352E+00 0. -1.
</event>
<event>
 5   0  0.1078103E-05  0.2817579E+04  0.7818609E-02  0.8297832E-01
       -1   -1    0    0    0  501  0.00000000000E+00  0.00000000000E+00  0.13408232374E+04  0.13408232375E+04  0.50400001928E-02 0. -1.
        1   -1    0    0  501    0  0.00000000000E+00  0.00000000000E+00 -0.14802006567E+04  0.14802006567E+04  0.50400001928E-02 0.  1.
    10030    2    1    2    0    0  0.00000000000E+00  0.00000000000E+00 -0.13937741925E+03  0.28210238942E+04  0.28175787028E+04 0.  0.
        1    1    3    3  502    0 -0.79538007402E+02 -0.11731553211E+04  0.70719029638E+03  0.13721289362E+04  0.50400001928E-02 0. -1.
       -1    1    3    3    0  502  0.79538007402E+02  0.11731553211E+04 -0.84656771563E+03  0.14488949580E+04  0.50400001928E-02 0.  1.
</event>
<event>
 5   0  0.8958000E-06  0.1925237E+04  0.7818609E-02  0.8642395E-01
       -3   -1    0    0    0  501  0.00000000000E+00  0.00000000000E+00  0.62609539515E+03  0.62609540330E+03  0.10100000352E+00 0. -1.
        3   -1    0    0  501    0  0.00000000000E+00  0.00000000000E+00 -0.14800211141E+04  0.14800211175E+04  0.10100000352E+00 0.  1.
    10030    2    1    2    0    0  0.00000000000E+00  0.00000000000E+00 -0.85392571895E+03  0.21061165208E+04  0.19252370415E+04 0.  0.
        2    1    3    3  502    0 -0.51220067929E+03 -0.72463046318E+03 -0.18821227566E+02  0.88757708547E+03  0.25500000920E-02 0. -1.
       -2    1    3    3    0  502  0.51220067929E+03  0.72463046318E+03 -0.83510449138E+03  0.12185394354E+04  0.25500000920E-02 0.  1.
</event>
<event>
 5   0  0.8958000E-06  0.1506654E+04  0.7818609E-02  0.8880040E-01
       -3   -1    0    0    0  501  0.00000000000E+00  0.00000000000E+00  0.41132273164E+03  0.41132274404E+03  0.10100000352E+00 0.  1.
        3   -1    0    0  501    0  0.00000000000E+00  0.00000000000E+00 -0.13796982372E+04  0.13796982409E+04  0.10100000352E+00 0. -1.
    10030    2    1    2    0    0  0.00000000000E+00  0.00000000000E+00 -0.96837550552E+03  0.17910209849E+04  0.15066535928E+04 0.  0.
        5    1    3    3  502    0  0.11718022699E+03  0.72559370959E+03 -0.68046231176E+03  0.10016329092E+04  0.46999998093E+01 0. -1.
       -5    1    3    3    0  502 -0.11718022699E+03 -0.72559370959E+03 -0.28791319376E+03  0.78938807575E+03  0.46999998093E+01 0.  1.
</event>
<event>
 5   0  0.2624815E-05  0.2784101E+04  0.7818609E-02  0.8308221E-01
        2   -1    0    0  501    0  0.00000000000E+00  0.00000000000E+00  0.12583087387E+04  0.12583087387E+04  0.25500000920E-02 0. -1.
       -2   -1    0    0    0  501  0.00000000000E+00  0.00000000000E+00 -0.15400073849E+04  0.15400073849E+04  0.25500000920E-02 0.  1.
    10030    2    1    2    0    0  0.00000000000E+00  0.00000000000E+00 -0.28169864621E+03  0.27983161237E+04  0.27841011118E+04 0.  0.
        4    1    3    3  502    0  0.12245551395E+03 -0.11730834826E+04  0.60230588665E+03  0.13243467084E+04  0.12699999809E+01 0. -1.
       -4    1    3    3    0  502 -0.12245551395E+03  0.11730834826E+04 -0.88400453287E+03  0.14739694153E+04  0.12699999809E+01 0.  1.
</event>
<event>
 5   0  0.2588048E-05  0.2974482E+04  0.7818609E-02  0.8251055E-01
        2   -1    0    0  501    0  0.00000000000E+00  0.00000000000E+00  0.15750380439E+04  0.15750380439E+04  0.25500000920E-02 0.  1.
       -2   -1    0    0    0  501  0.00000000000E+00  0.00000000000E+00 -0.14043379675E+04  0.14043379675E+04  0.25500000920E-02 0. -1.
    10030    2    1    2    0    0  0.00000000000E+00  0.00000000000E+00  0.17070007647E+03  0.29793760114E+04  0.29744819551E+04 0.  0.
        2    1    3    3  502    0 -0.31084890022E+02 -0.46671158783E+03  0.14994447407E+04  0.15707070086E+04  0.25500000920E-02 0.  1.
       -2    1    3    3    0  502  0.31084890022E+02  0.46671158783E+03 -0.13287446642E+04  0.14086690027E+04  0.25500000920E-02 0. -1.
</event>
<event>
 5   0  0.1075146E-05  0.2839906E+04  0.7818609E-02  0.8290985E-01
        1   -1    0    0  501    0  0.00000000000E+00  0.00000000000E+00  0.17913244251E+04  0.17913244251E+04  0.50400001928E-02 0. -1.
       -1   -1    0    0    0  501  0.00000000000E+00  0.00000000000E+00 -0.11255734448E+04  0.11255734448E+04  0.50400001928E-02 0.  1.
    10030    2    1    2    0    0  0.00000000000E+00  0.00000000000E+00  0.66575098028E+03  0.29168978700E+04  0.28399064802E+04 0.  0.
        2    1    3    3  502    0 -0.13066110205E+04  0.55415752381E+03  0.37816493688E+03  0.14687857705E+04  0.25500000920E-02 0.  1.
       -2    1    3    3    0  502  0.13066110205E+04 -0.55415752381E+03  0.28758604339E+03  0.14481120994E+04  0.25500000920E-02 0. -1.
</event>
<event>
 5   0  0.8958000E-06  0.2735326E+04  0.7818609E-02  0.8323633E-01
       -4   -1    0    0    0  501  0.00000000000E+00  0.00000000000E+00  0.97183968878E+03  0.97184051859E+03  0.12699999809E+01 0.  1.
        4   -1    0    0  501    0  0.00000000000E+00  0.00000000000E+00 -0.19247006965E+04  0.19247011155E+04  0.12699999809E+01 0. -1.
    10030    2    1    2    0    0  0.00000000000E+00  0.00000000000E+00 -0.95286100768E+03  0.28965416341E+04  0.27353261849E+04 0.  0.
        3    1    3    3  502    0  0.11451770335E+04 -0.67531839418E+03 -0.13655097931E+03  0.13364623271E+04  0.10100000352E+00 0.  1.
       -3    1    3    3    0  502 -0.11451770335E+04  0.67531839418E+03 -0.81631002838E+03  0.15600793070E+04  0.10100000352E+00 0. -1.
</event>
<event>
 5   0  0.2697964E-05  0.2836451E+04  0.7818609E-02  0.8292040E-01
        2   -1    0    0  501    0  0.00000000000E+00  0.00000000000E+00  0.18873396473E+04  0.18873396473E+04  0.25500000920E-02 0.  1.
       -2   -1    0    0    0  501  0.00000000000E+00  0.00000000000E+00 -0.10657136093E+04  0.10657136093E+04  0.25500000920E-02 0. -1.
    10030    2    1    2    0    0  0.00000000000E+00  0.00000000000E+00  0.82162603798E+03  0.29530532567E+04  0.28364509850E+04 0.  0.
        1    1    3    3  502    0  0.58595107265E+03 -0.56410628935E+03 -0.79876017334E+03  0.11399878858E+04  0.50400001928E-02 0. -1.
       -1    1    3    3    0  502 -0.58595107265E+03  0.56410628935E+03  0.16203862113E+04  0.18130653709E+04  0.50400001928E-02 0.  1.
</event>
<event>
 5   0  0.1078103E-05  0.2758409E+04  0.7818609E-02  0.8316298E-01
       -1   -1    0    0    0  501  0.00000000000E+00  0.00000000000E+00  0.13408254013E+04  0.13408254013E+04  0.50400001928E-02 0.  1.
        1   -1    0    0  501    0  0.00000000000E+00  0.00000000000E+00 -0.14186817278E+04  0.14186817278E+04  0.50400001928E-02 0. -1.
    10030    2    1    2    0    0  0.00000000000E+00  0.00000000000E+00 -0.77856326508E+02  0.27595071291E+04  0.27584085970E+04 0.  0.
        1    1    3    3  502    0  0.60024784792E+03 -0.95401376351E+03 -0.83408101397E+03  0.14021878896E+04  0.50400001928E-02 0. -1.
       -1    1    3    3    0  502 -0.60024784792E+03  0.95401376351E+03  0.75622468747E+03  0.13573192395E+04  0.50400001928E-02 0.  1.
</event>
<event>
 5   0  0.1017456E-05  0.2844214E+04  0.7818609E-02  0.8289672E-01
        1   -1    0    0  501    0  0.00000000000E+00  0.00000000000E+00  0.24058145126E+04  0.24058145126E+04  0.50400001928E-02 0.  1.
       -1   -1    0    0    0  501  0.00000000000E+00  0.00000000000E+00 -0.84062518726E+03  0.84062518728E+03  0.50400001928E-02 0. -1.
    10030    2    1    2    0    0  0.00000000000E+00  0.00000000000E+00  0.15651893254E+04  0.32464396999E+04  0.28442139689E+04 0.  0.
        5    1    3    3  502    0  0.11626898507E+03  0.13406759899E+04  0.25774595740E+03  0.13701772350E+04  0.46999998093E+01 0. -1.
       -5    1    3    3    0  502 -0.11626898507E+03 -0.13406759899E+04  0.13074433680E+04  0.18762624649E+04  0.46999998093E+01 0.  1.
</event>
<event>
 5   0  0.1078103E-05  0.2827076E+04  0.7818609E-02  0.8294911E-01
       -1   -1    0    0    0  501  0.00000000000E+00  0.00000000000E+00  0.19304817048E+04  0.19304817048E+04  0.50400001928E-02 0. -1.
        1   -1    0    0  501    0  0.00000000000E+00  0.00000000000E+00 -0.10350213491E+04  0.10350213491E+04  0.50400001928E-02 0.  1.
    10030    2    1    2    0    0  0.00000000000E+00  0.00000000000E+00  0.89546035573E+03  0.29655030539E+04  0.28270760715E+04 0.  0.
        1    1    3    3  502    0  0.98730333830E+03 -0.36813139052E+03 -0.54063796528E+03  0.11843048645E+04  0.50400001928E-02 0.  1.
       -1    1    3    3    0  502 -0.98730333830E+03  0.36813139052E+03  0.14360983210E+04  0.17811981895E+04  0.50400001928E-02 0. -1.
</event>
<event>
 5   0  0.1105862E-05  0.2781728E+04  0.7818609E-02  0.8308964E-01
        1   -1    0    0  501    0  0.00000000000E+00  0.00000000000E+00  0.10675168805E+04  0.10675168805E+04  0.50400001928E-02 0. -1.
       -1   -1    0    0    0  501  0.00000000000E+00  0.00000000000E+00 -0.18121513896E+04  0.18121513896E+04  0.50400001928E-02 0.  1.
    10030    2    1    2    0    0  0.00000000000E+00  0.00000000000E+00 -0.74463450906E+03  0.28796682701E+04  0.27817276635E+04 0.  0.
        3    1    3    3  502    0 -0.12633049498E+04  0.38114357941E+03 -0.82744697921E+03  0.15575231420E+04  0.10100000352E+00 0. -1.
       -3    1    3    3    0  502  0.12633049498E+04 -0.38114357941E+03  0.82812470158E+02  0.13221451281E+04  0.10100000352E+00 0.  1.
</event>
<event>
 5   0  0.2651061E-05  0.2751390E+04  0.7818609E-02  0.8318521E-01
        2   -1    0    0  501    0  0.00000000000E+00  0.00000000000E+00  0.23223987399E+04  0.23223987399E+04  0.25500000920E-02 0.  1.
       -2   -1    0    0    0  501  0.00000000000E+00  0.00000000000E+00 -0.81490623374E+03  0.81490623375E+03  0.25500000920E-02 0. -1.
    10030    2    1    2    0    0  0.00000000000E+00  0.00000000000E+00  0.15074925061E+04  0.31373049736E+04  0.27513903470E+04 0.  0.
        3    1    3    3  502    0 -0.32969827999E+03 -0.69399184473E+02  0.22746262350E+04  0.22994437853E+04  0.10100000352E+00 0.  1.
       -3    1    3    3    0  502  0.32969827999E+03  0.69399184473E+02 -0.76713372890E+03  0.83786118829E+03  0.10100000352E+00 0. -1.
</event>
<event>
 5   0  0.2697964E-05  0.2824033E+04  0.7818609E-02  0.8295846E-01
        2   -1    0    0  501    0  0.00000000000E+00  0.00000000000E+00  0.13559355097E+04  0.13559355097E+04  0.25500000920E-02 0.  1.
       -2   -1    0    0    0  501  0.00000000000E+00  0.00000000000E+00 -0.14704167114E+04  0.14704167114E+04  0.25500000920E-02 0. -1.
    10030    2    1    2    0    0  0.00000000000E+00  0.00000000000E+00 -0.11448120165E+03  0.28263522211E+04  0.28240327428E+04 0.  0.
        1    1    3    3  502    0  0.10970517137E+04 -0.45187397426E+03  0.70894528399E+03  0.13821418042E+04  0.50400001928E-02 0.  1.
       -1    1    3    3    0  502 -0.10970517137E+04  0.45187397426E+03 -0.82342648564E+03  0.14442104169E+04  0.50400001928E-02 0. -1.
</event>
<event>
 5   0  0.8958000E-06  0.2884281E+04  0.7818609E-02  0.8277570E-01
        3   -1    0    0  501    0  0.00000000000E+00  0.00000000000E+00  0.25945055119E+04  0.25945055138E+04  0.10100000352E+00 0. -1.
       -3   -1    0    0    0  501  0.00000000000E+00  0.00000000000E+00 -0.80160523379E+03  0.80160524015E+03  0.10100000352E+00 0.  1.
    10030    2    1    2    0    0  0.00000000000E+00  0.00000000000E+00  0.17929002781E+04  0.33961107540E+04  0.28842809929E+04 0.  0.
        1    1    3    3  502    0  0.52090501374E+02 -0.12231442924E+04  0.17939255579E+04  0.21718573360E+04  0.50400001928E-02 0. -1.
       -1    1    3    3    0  502 -0.52090501374E+02  0.12231442924E+04 -0.10252798468E+01  0.12242534180E+04  0.50400001928E-02 0.  1.
</event>
<event>
 5   0  0.2624815E-05  0.2816380E+04  0.7818609E-02  0.8298201E-01
       -2   -1    0    0    0  501  0.00000000000E+00  0.00000000000E+00  0.16493694433E+04  0.16493694433E+04  0.25500000920E-02 0.  1.
        2   -1    0    0  501    0  0.00000000000E+00  0.00000000000E+00 -0.12022769633E+04  0.12022769633E+04  0.25500000920E-02 0. -1.
    10030    2    1    2    0    0  0.00000000000E+00  0.00000000000E+00  0.44709248003E+03  0.28516464066E+04  0.28163798647E+04 0.  0.
        4    1    3    3  502    0  0.71135823104E+03  0.27471922401E+03 -0.97512583482E+03  0.12378906218E+04  0.12699999809E+01 0. -1.
       -4    1    3    3    0  502 -0.71135823104E+03 -0.27471922401E+03  0.14222183149E+04  0.16137557848E+04  0.12699999809E+01 0.  1.
</event>
<event>
 5   0  0.1075146E-05  0.2805120E+04  0.7818609E-02  0.8301681E-01
        1   -1    0    0  501    0  0.00000000000E+00  0.00000000000E+00  0.19103687817E+04  0.19103687817E+04  0.50400001928E-02 0.  1.
       -1   -1    0    0    0  501  0.00000000000E+00  0.00000000000E+00 -0.10297355841E+04  0.10297355841E+04  0.50400001928E-02 0. -1.
    10030    2    1    2    0    0  0.00000000000E+00  0.00000000000E+00  0.88063319761E+03  0.29401043659E+04  0.28051201139E+04 0.  0.
        2    1    3    3  502    0  0.13761400764E+04 -0.26403147378E+03  0.50407632354E+03  0.14891497806E+04  0.25500000920E-02 0.  1.
       -2    1    3    3    0  502 -0.13761400764E+04  0.26403147378E+03  0.37655687407E+03  0.14509545853E+04  0.25500000920E-02 0. -1.
</event>
<event>
 5   0  0.2518686E-05  0.1719333E+04  0.7818609E-02  0.8750414E-01
       -2   -1    0    0    0  501  0.00000000000E+00  0.00000000000E+00  0.45154198851E+03  0.45154198852E+03  0.25500000920E-02 0.  1.
        2   -1    0    0  501    0  0.00000000000E+00  0.00000000000E+00 -0.16366718739E+04  0.16366718739E+04  0.25500000920E-02 0. -1.
    10030    2    1    2    0    0  0.00000000000E+00  0.00000000000E+00 -0.11851298853E+04  0.20882138624E+04  0.17193325129E+04 0.  0.
        5    1    3    3  502    0 -0.17587269255E+03  0.48378545720E+03 -0.14287751254E+04  0.15186836476E+04  0.46999998093E+01 0. -1.
       -5    1    3    3    0  502  0.17587269255E+03 -0.48378545720E+03  0.24364524002E+03  0.56953021480E+03  0.46999998093E+01 0.  1.
</event>
<event>
 5   0  0.2518686E-05  0.2679103E+04  0.7818609E-02  0.8341817E-01
       -2   -1    0    0    0  501  0.00000000000E+00  0.00000000000E+00  0.68586905030E+03  0.68586905031E+03  0.25500000920E-02 0. -1.
        2   -1    0    0  501    0  0.00000000000E+00  0.00000000000E+00 -0.26162408710E+04  0.26162408710E+04  0.25500000920E-02 0.  1.
    10030    2    1    2    0    0  0.00000000000E+00  0.00000000000E+00 -0.19303718207E+04  0.33021099213E+04  0.26791033139E+04 0.  0.
        5    1    3    3  502    0  0.10887764285E+04  0.63119960592E+03 -0.39965214246E+03  0.13204510513E+04  0.46999998093E+01 0. -1.
       -5    1    3    3    0  502 -0.10887764285E+04 -0.63119960592E+03 -0.15307196782E+04  0.19816588700E+04  0.46999998093E+01 0.  1.
</event>
<event>
 5   0  0.2651061E-05  0.2722958E+04  0.7818609E-02  0.8327594E-01
        2   -1    0    0  501    0  0.00000000000E+00  0.00000000000E+00  0.29831591057E+04  0.29831591057E+04  0.25500000920E-02 0.  1.
       -2   -1    0    0    0  501  0.00000000000E+00  0.00000000000E+00 -0.62136296243E+03  0.62136296243E+03  0.25500000920E-02 0. -1.
    10030    2    1    2    0    0  0.00000000000E+00  0.00000000000E+00  0.23617961433E+04  0.36045220681E+04  0.27229576415E+04 0.  0.
        3    1    3    3  502    0 -0.10558056300E+04  0.50587857494E+03  0.21008688509E+04  0.24050548018E+04  0.10100000352E+00 0.  1.
       -3    1    3    3    0  502  0.10558056300E+04 -0.50587857494E+03  0.26092729242E+03  0.11994672663E+04  0.10100000352E+00 0. -1.
</event>
<event>
 5   0  0.2518686E-05  0.2053414E+04  0.7818609E-02  0.8582047E-01
       -2   -1    0    0    0  501  0.00000000000E+00  0.00000000000E+00  0.65650723134E+03  0.65650723135E+03  0.25500000920E-02 0. -1.
        2   -1    0    0  501    0  0.00000000000E+00  0.00000000000E+00 -0.16056603994E+04  0.16056603994E+04  0.25500000920E-02 0.  1.
    10030    2    1    2    0    0  0.00000000000E+00  0.00000000000E+00 -0.94915316808E+03  0.22621676308E+04  0.20534143891E+04 0.  0.
        5    1    3    3  502    0  0.37761716541E+03  0.52213088988E+03 -0.13551413225E+04  0.15005483943E+04  0.46999998093E+01 0.  1.
       -5    1    3    3    0  502 -0.37761716541E+03 -0.52213088988E+03  0.40598815443E+03  0.76161923644E+03  0.46999998093E+01 0. -1.
</event>
<event>
 5   0  0.2588048E-05  0.1732297E+04  0.7818609E-02  0.8743156E-01
       -2   -1    0    0    0  501  0.00000000000E+00  0.00000000000E+00  0.47795722104E+03  0.47795722105E+03  0.25500000920E-02 0. -1.
        2   -1    0    0  501    0  0.00000000000E+00  0.00000000000E+00 -0.15696244031E+04  0.15696244031E+04  0.25500000920E-02 0.  1.
    10030    2    1    2    0    0  0.00000000000E+00  0.00000000000E+00 -0.10916671821E+04  0.20475816242E+04  0.17322971083E+04 0.  0.
        2    1    3    3  502    0  0.84184314713E+03  0.20115337809E+03 -0.58414860072E+03  0.10442184415E+04  0.25500000920E-02 0. -1.
       -2    1    3    3    0  502 -0.84184314713E+03 -0.20115337809E+03 -0.50751858138E+03  0.10033631827E+04  0.25500000920E-02 0.  1.
</event>
<event>
 5   0  0.2518686E-05  0.2578860E+04  0.7818609E-02  0.8375418E-01
        2   -1    0    0  501    0  0.00000000000E+00  0.00000000000E+00  0.17900284405E+04  0.17900284406E+04  0.25500000920E-02 0.  1.
       -2   -1    0    0    0  501  0.00000000000E+00  0.00000000000E+00 -0.92882883770E+03  0.92882883770E+03  0.25500000920E-02 0. -1.
    10030    2    1    2    0    0  0.00000000000E+00  0.00000000000E+00  0.86119960285E+03  0.27188572783E+04  0.25788602412E+04 0.  0.
        5    1    3    3  502    0 -0.99533767264E+03 -0.65757334666E+03 -0.85363435368E+02  0.11959969878E+04  0.46999998093E+01 0. -1.
       -5    1    3    3    0  502  0.99533767264E+03  0.65757334666E+03  0.94656303822E+03  0.15228602904E+04  0.46999998093E+01 0.  1.
</event>
<event>
 5   0  0.2588048E-05  0.2823116E+04  0.7818609E-02  0.8296127E-01
        2   -1    0    0  501    0  0.00000000000E+00  0.00000000000E+00  0.16889164160E+04  0.16889164160E+04  0.25500000920E-02 0.  1.
       -2   -1    0    0    0  501  0.00000000000E+00  0.00000000000E+00 -0.11797485069E+04  0.11797485069E+04  0.25500000920E-02 0. -1.
    10030    2    1    2    0    0  0.00000000000E+00  0.00000000000E+00  0.50916790911E+03  0.28686649229E+04  0.28231164482E+04 0.  0.
        2    1    3    3  502    0 -0.43192326873E+03  0.23779711710E+03  0.15985692879E+04  0.16728804343E+04  0.25500000920E-02 0.  1.
       -2    1    3    3    0  502  0.43192326873E+03 -0.23779711710E+03 -0.10894013788E+04  0.11957844886E+04  0.25500000920E-02 0. -1.
</event>
<event>
 5   0  0.2624815E-05  0.2128623E+04  0.7818609E-02  0.8548739E-01
        2   -1    0    0  501    0  0.00000000000E+00  0.00000000000E+00  0.19245592384E+04  0.19245592384E+04  0.25500000920E-02 0.  1.
       -2   -1    0    0    0  501  0.00000000000E+00  0.00000000000E+00 -0.58858076468E+03  0.58858076468E+03  0.25500000920E-02 0. -1.
    10030    2    1    2    0    0  0.00000000000E+00  0.00000000000E+00  0.13359784738E+04  0.25131400031E+04  0.21286226046E+04 0.  0.
        4    1    3    3  502    0  0.36431269852E+03 -0.12390833091E+03 -0.50357351074E+03  0.63377039249E+03  0.12699999809E+01 0. -1.
       -4    1    3    3    0  502 -0.36431269852E+03  0.12390833091E+03  0.18395519845E+04  0.18793696106E+04  0.12699999809E+01 0.  1.
</event>
<event>
 5   0  0.2697964E-05  0.2532277E+04  0.7818609E-02  0.8391576E-01
       -2   -1    0    0    0  501  0.00000000000E+00  0.00000000000E+00  0.14245169320E+04  0.14245169320E+04  0.25500000920E-02 0. -1.
        2   -1    0    0  501    0  0.00000000000E+00  0.00000000000E+00 -0.11253684530E+04  0.11253684530E+04  0.25500000920E-02 0.  1.
    10030    2    1    2    0    0  0.00000000000E+00  0.00000000000E+00  0.29914847899E+03  0.25498853850E+04  0.25322767748E+04 0.  0.
        1    1    3    3  502    0  0.24800149467E+03 -0.13939016470E+03  0.13919167909E+04  0.14206923355E+04  0.50400001928E-02 0. -1.
       -1    1    3    3    0  502 -0.24800149467E+03  0.13939016470E+03 -0.10927683119E+04  0.11291930494E+04  0.50400001928E-02 0.  1.
</event>
<event>
 5   0  0.1078103E-05  0.2778951E+04  0.7818609E-02  0.8309833E-01
       -1   -1    0    0    0  501  0.00000000000E+00  0.00000000000E+00  0.17704481583E+04  0.17704481583E+04  0.50400001928E-02 0.  1.
        1   -1    0    0  501    0  0.00000000000E+00  0.00000000000E+00 -0.10904821992E+04  0.10904821992E+04  0.50400001928E-02 0. -1.
    10030    2    1    2    0    0  0.00000000000E+00  0.00000000000E+00  0.67996595905E+03  0.28609303575E+04  0.27789510260E+04 0.  0.
        1    1    3    3  502    0 -0.15125279323E+03  0.55421369210E+03  0.16424580634E+04  0.17400283659E+04  0.50400001928E-02 0.  1.
       -1    1    3    3    0  502  0.15125279323E+03 -0.55421369210E+03 -0.96249210434E+03  0.11209019917E+04  0.50400001928E-02 0. -1.
</event>
<event>
 5   0  0.1017456E-05  0.2790055E+04  0.7818609E-02  0.8306362E-01
       -1   -1    0    0    0  501  0.00000000000E+00  0.00000000000E+00  0.13618797069E+04  0.13618797069E+04  0.50400001928E-02 0.  1.
        1   -1    0    0  501    0  0.00000000000E+00  0.00000000000E+00 -0.14289825144E+04  0.14289825144E+04  0.50400001928E-02 0. -1.
    10030    2    1    2    0    0  0.00000000000E+00  0.00000000000E+00 -0.67102807496E+02  0.27908622213E+04  0.27900554029E+04 0.  0.
        5    1    3    3  502    0 -0.10769244375E+04  0.16032161241E+03  0.83883090902E+03  0.13744557640E+04  0.46999998093E+01 0.  1.
       -5    1    3    3    0  502  0.10769244375E+04 -0.16032161241E+03 -0.90593371652E+03  0.14164064572E+04  0.46999998093E+01 0. -1.
</event>
<event>
 5   0  0.1075146E-05  0.2769311E+04  0.7818609E-02  0.8312860E-01
       -1   -1    0    0    0  501  0.00000000000E+00  0.00000000000E+00  0.81950427505E+03  0.81950427506E+03  0.50400001928E-02 0.  1.
        1   -1    0    0  501    0  0.00000000000E+00  0.00000000000E+00 -0.23395493783E+04  0.23395493783E+04  0.50400001928E-02 0. -1.
    10030    2    1    2    0    0  0.00000000000E+00  0.00000000000E+00 -0.15200451033E+04  0.31590536534E+04  0.27693109015E+04 0.  0.
        2    1    3    3  502    0 -0.82494262543E+03 -0.35253934036E+03  0.44314686840E+03  0.10005965564E+04  0.25500000920E-02 0.  1.
       -2    1    3    3    0  502  0.82494262543E+03  0.35253934036E+03 -0.19631919717E+04  0.21584570970E+04  0.25500000920E-02 0. -1.
</event>
<event>
 5   0  0.1017456E-05  0.2793403E+04  0.7818609E-02  0.8305320E-01
        1   -1    0    0  501    0  0.00000000000E+00  0.00000000000E+00  0.99081743529E+03  0.99081743530E+03  0.50400001928E-02 0.  1.
       -1   -1    0    0    0  501  0.00000000000E+00  0.00000000000E+00 -0.19688536764E+04  0.19688536764E+04  0.50400001928E-02 0. -1.
    10030    2    1    2    0    0  0.00000000000E+00  0.00000000000E+00 -0.97803624113E+03  0.29596711117E+04  0.27934026206E+04 0.  0.
        5    1    3    3  502    0 -0.71644248456E+03  0.99212362257E+03  0.22421665785E+03  0.12441440093E+04  0.46999998093E+01 0.  1.
       -5    1    3    3    0  502  0.71644248456E+03 -0.99212362257E+03 -0.12022528990E+04  0.17155271024E+04  0.46999998093E+01 0. -1.
</event>
<event>
 5   0  0.2697964E-05  0.2835660E+04  0.7818609E-02  0.8292282E-01
        2   -1    0    0  501    0  0.00000000000E+00  0.00000000000E+00  0.14912730354E+04  0.14912730354E+04  0.25500000920E-02 0. -1.
       -2   -1    0    0    0  501  0.00000000000E+00  0.00000000000E+00 -0.13480043651E+04  0.13480043651E+04  0.25500000920E-02 0.  1.
    10030    2    1    2    0    0  0.00000000000E+00  0.00000000000E+00  0.14326867031E+03  0.28392774006E+04  0.28356604602E+04 0.  0.
        1    1    3    3  502    0  0.15053706117E+03 -0.59998340770E+03  0.13490363029E+04  0.14840958334E+04  0.50400001928E-02 0. -1.
       -1    1    3    3    0  502 -0.15053706117E+03  0.59998340770E+03 -0.12057676325E+04  0.13551815672E+04  0.50400001928E-02 0.  1.
</event>
<event>
 5   0  0.2624815E-05  0.3501706E+04  0.7818609E-02  0.8113386E-01
        2   -1    0    0  501    0  0.00000000000E+00  0.00000000000E+00  0.15191176153E+04  0.15191176153E+04  0.25500000920E-02 0. -1.
       -2   -1    0    0    0  501  0.00000000000E+00  0.00000000000E+00 -0.20179390394E+04  0.20179390394E+04  0.25500000920E-02 0.  1.
    10030    2    1    2    0    0  0.00000000000E+00  0.00000000000E+00 -0.49882142402E+03  0.35370566547E+04  0.35017062935E+04 0.  0.
        4    1    3    3  502    0 -0.21707329962E+03 -0.11603205652E+04  0.10567093432E+04  0.15843297890E+04  0.12699999809E+01 0. -1.
       -4    1    3    3    0  502  0.21707329962E+03  0.11603205652E+04 -0.15555307672E+04  0.19527268657E+04  0.12699999809E+01 0.  1.
</event>
<event>
 5   0  0.1067434E-05  0.2490203E+04  0.7818609E-02  0.8406484E-01
       -1   -1    0    0    0  501  0.00000000000E+00  0.00000000000E+00  0.12937522531E+04  0.12937522531E+04  0.50400001928E-02 0.  1.
        1   -1    0    0  501    0  0.00000000000E+00  0.00000000000E+00 -0.11982800327E+04  0.11982800327E+04  0.50400001928E-02 0. -1.
    10030    2    1    2    0    0  0.00000000000E+00  0.00000000000E+00  0.95472220376E+02  0.24920322858E+04  0.24902027967E+04 0.  0.
        4    1    3    3  502    0  0.16578782262E+03 -0.65746105378E+03 -0.99731805392E+03  0.12059790848E+04  0.12699999809E+01 0. -1.
       -4    1    3    3    0  502 -0.16578782262E+03  0.65746105378E+03  0.10927902743E+04  0.12860532010E+04  0.12699999809E+01 0.  1.
</event>
<event>
 5   0  0.1075146E-05  0.2869005E+04  0.7818609E-02  0.8282159E-01
        1   -1    0    0  501    0  0.00000000000E+00  0.00000000000E+00  0.10414830428E+04  0.10414830428E+04  0.50400001928E-02 0.  1.
       -1   -1    0    0    0  501  0.00000000000E+00  0.00000000000E+00 -0.19758345104E+04  0.19758345104E+04  0.50400001928E-02 0. -1.
    10030    2    1    2    0    0  0.00000000000E+00  0.00000000000E+00 -0.93435146758E+03  0.30173175532E+04  0.28690054988E+04 0.  0.
        2    1    3    3  502    0  0.10272967146E+04  0.19843417673E+03  0.56492385346E+03  0.11890557693E+04  0.25500000920E-02 0.  1.
       -2    1    3    3    0  502 -0.10272967146E+04 -0.19843417673E+03 -0.14992753210E+04  0.18282617839E+04  0.25500000920E-02 0. -1.
</event>
<event>
 5   0  0.1075146E-05  0.2812451E+04  0.7818609E-02  0.8299413E-01
        1   -1    0    0  501    0  0.00000000000E+00  0.00000000000E+00  0.10346899577E+04  0.10346899577E+04  0.50400001928E-02 0.  1.
       -1   -1    0    0    0  501  0.00000000000E+00  0.00000000000E+00 -0.19111712115E+04  0.19111712115E+04  0.50400001928E-02 0. -1.
    10030    2    1    2    0    0  0.00000000000E+00  0.00000000000E+00 -0.87648125380E+03  0.29458611693E+04  0.28124506468E+04 0.  0.
        2    1    3    3  502    0 -0.30752193390E+03  0.13280556302E+04 -0.76658055695E+02  0.13653490229E+04  0.25500000920E-02 0. -1.
       -2    1    3    3    0  502  0.30752193390E+03 -0.13280556302E+04 -0.79982319810E+03  0.15805121464E+04  0.25500000920E-02 0.  1.
</event>
<event>
 5   0  0.2588048E-05  0.2796051E+04  0.7818609E-02  0.8304495E-01
       -2   -1    0    0    0  501  0.00000000000E+00  0.00000000000E+00  0.11448192643E+04  0.11448192643E+04  0.25500000920E-02 0. -1.
        2   -1    0    0  501    0  0.00000000000E+00  0.00000000000E+00 -0.17072350870E+04  0.17072350870E+04  0.25500000920E-02 0.  1.
    10030    2    1    2    0    0  0.00000000000E+00  0.00000000000E+00 -0.56241582274E+03  0.28520543514E+04  0.27960512273E+04 0.  0.
        2    1    3    3  502    0  0.55713508130E+03 -0.10099194337E+04 -0.10870561918E+04  0.15849378302E+04  0.25500000920E-02 0.  1.
       -2    1    3    3    0  502 -0.55713508130E+03  0.10099194337E+04  0.52464036907E+03  0.12671165212E+04  0.25500000920E-02 0. -1.
</event>
<event>
 5   0  0.1078103E-05  0.2373791E+04  0.7818609E-02  0.8449381E-01
        1   -1    0    0  501    0  0.00000000000E+00  0.00000000000E+00  0.14216460883E+04  0.14216460883E+04  0.50400001928E-02 0. -1.
       -1   -1    0    0    0  501  0.00000000000E+00  0.00000000000E+00 -0.99090851055E+03  0.99090851057E+03  0.50400001928E-02 0.  1.
    10030    2    1    2    0    0  0.00000000000E+00  0.00000000000E+00  0.43073757776E+03  0.24125545989E+04  0.23737912359E+04 0.  0.
        1    1    3    3  502    0 -0.95046808116E+03  0.19985210583E+03  0.90870440747E+03  0.13300654637E+04  0.50400001928E-02 0. -1.
       -1    1    3    3    0  502  0.95046808116E+03 -0.19985210583E+03 -0.47796682970E+03  0.10824891352E+04  0.50400001928E-02 0.  1.
</event>
<event>
 5   0  0.1075146E-05  0.2778282E+04  0.7818609E-02  0.8310043E-01
       -1   -1    0    0    0  501  0.00000000000E+00  0.00000000000E+00  0.14594574048E+04  0.14594574048E+04  0.50400001928E-02 0.  1.
        1   -1    0    0  501    0  0.00000000000E+00  0.00000000000E+00 -0.13222125791E+04  0.13222125791E+04  0.50400001928E-02 0. -1.
    10030    2    1    2    0    0  0.00000000000E+00  0.00000000000E+00  0.13724482569E+03  0.27816699839E+04  0.27782821594E+04 0.  0.
        2    1    3    3  502    0 -0.95039979591E+03  0.10058826811E+04  0.18982041963E+03  0.13968147808E+04  0.25500000920E-02 0.  1.
       -2    1    3    3    0  502  0.95039979591E+03 -0.10058826811E+04 -0.52575593940E+02  0.13848552030E+04  0.25500000920E-02 0. -1.
</event>
<event>
 5   0  0.1105862E-05  0.2897474E+04  0.7818609E-02  0.8273629E-01
        1   -1    0    0  501    0  0.00000000000E+00  0.00000000000E+00  0.13312989270E+04  0.13312989270E+04  0.50400001928E-02 0. -1.
       -1   -1    0    0    0  501  0.00000000000E+00  0.00000000000E+00 -0.15765351447E+04  0.15765351447E+04  0.50400001928E-02 0.  1.
    10030    2    1    2    0    0  0.00000000000E+00  0.00000000000E+00 -0.24523621764E+03  0.29078340717E+04  0.28974744496E+04 0.  0.
        3    1    3    3  502    0 -0.92259019410E+03 -0.19125559718E+03  0.98181110623E+03  0.13607734669E+04  0.10100000352E+00 0. -1.
       -3    1    3    3    0  502  0.92259019410E+03  0.19125559718E+03 -0.12270473239E+04  0.15470606048E+04  0.10100000352E+00 0.  1.
</event>
<event>
 5   0  0.1067434E-05  0.3049607E+04  0.7818609E-02  0.8229705E-01
       -1   -1    0    0    0  501  0.00000000000E+00  0.00000000000E+00  0.30108374075E+04  0.30108374075E+04  0.50400001928E-02 0.  1.
        1   -1    0    0  501    0  0.00000000000E+00  0.00000000000E+00 -0.77221906704E+03  0.77221906706E+03  0.50400001928E-02 0. -1.
    10030    2    1    2    0    0  0.00000000000E+00  0.00000000000E+00  0.22386183405E+04  0.37830564746E+04  0.30496072232E+04 0.  0.
        4    1    3    3  502    0  0.42529787949E+03  0.78381251553E+03  0.26536222512E+04  0.27994558419E+04  0.12699999809E+01 0.  1.
       -4    1    3    3    0  502 -0.42529787949E+03 -0.78381251553E+03 -0.41500391072E+03  0.98360063268E+03  0.12699999809E+01 0. -1.
</event>
<event>
 5   0  0.2624815E-05  0.2894601E+04  0.7818609E-02  0.8274486E-01
        2   -1    0    0  501    0  0.00000000000E+00  0.00000000000E+00  0.21651732448E+04  0.21651732448E+04  0.25500000920E-02 0. -1.
       -2   -1    0    0    0  501  0.00000000000E+00  0.00000000000E+00 -0.96744166987E+03  0.96744166987E+03  0.25500000920E-02 0.  1.
    10030    2    1    2    0    0  0.00000000000E+00  0.00000000000E+00  0.11977315750E+04  0.31326149147E+04  0.28946010568E+04 0.  0.
        4    1    3    3  502    0  0.69708646767E+03 -0.85275360814E+03  0.16149833874E+04  0.19548123220E+04  0.12699999809E+01 0. -1.
       -4    1    3    3    0  502 -0.69708646767E+03  0.85275360814E+03 -0.41725181244E+03  0.11778025927E+04  0.12699999809E+01 0.  1.
</event>
<event>
 5   0  0.2588048E-05  0.2640254E+04  0.7818609E-02  0.8354655E-01
       -2   -1    0    0    0  501  0.00000000000E+00  0.00000000000E+00  0.16635114241E+04  0.16635114241E+04  0.25500000920E-02 0.  1.
        2   -1    0    0  501    0  0.00000000000E+00  0.00000000000E+00 -0.10476243954E+04  0.10476243954E+04  0.25500000920E-02 0. -1.
    10030    2    1    2    0    0  0.00000000000E+00  0.00000000000E+00  0.61588702872E+03  0.27111358196E+04  0.26402538893E+04 0.  0.
        2    1    3    3  502    0  0.40008503989E+03 -0.33640234305E+03 -0.93683035809E+03  0.10727934076E+04  0.25500000920E-02 0. -1.
       -2    1    3    3    0  502 -0.40008503989E+03  0.33640234305E+03  0.15527173868E+04  0.16383424120E+04  0.25500000920E-02 0.  1.
</event>
<event>
 5   0  0.2518686E-05  0.2771072E+04  0.7818609E-02  0.8312306E-01
        2   -1    0    0  501    0  0.00000000000E+00  0.00000000000E+00  0.98207797764E+03  0.98207797765E+03  0.25500000920E-02 0.  1.
       -2   -1    0    0    0  501  0.00000000000E+00  0.00000000000E+00 -0.19547431066E+04  0.19547431066E+04  0.25500000920E-02 0. -1.
    10030    2    1    2    0    0  0.00000000000E+00  0.00000000000E+00 -0.97266512895E+03  0.29368210842E+04  0.27710721080E+04 0.  0.
        5    1    3    3  502    0  0.11311756178E+04  0.62424459138E+03 -0.10167146681E+04  0.16440712863E+04  0.46999998093E+01 0. -1.
       -5    1    3    3    0  502 -0.11311756178E+04 -0.62424459138E+03  0.44049539204E+02  0.12927497979E+04  0.46999998093E+01 0.  1.
</event>
<event>
 5   0  0.2651061E-05  0.1809293E+04  0.7818609E-02  0.8701373E-01
        2   -1    0    0  501    0  0.00000000000E+00  0.00000000000E+00  0.10703855039E+04  0.10703855039E+04  0.25500000920E-02 0. -1.
       -2   -1    0    0    0  501  0.00000000000E+00  0.00000000000E+00 -0.76457045336E+03  0.76457045337E+03  0.25500000920E-02 0.  1.
    10030    2    1    2    0    0  0.00000000000E+00  0.00000000000E+00  0.30581505056E+03  0.18349559573E+04  0.18092928232E+04 0.  0.
        3    1    3    3  502    0 -0.52024612108E+03 -0.50314350020E+03 -0.39753914876E+03  0.82574014876E+03  0.10100000352E+00 0.  1.
       -3    1    3    3    0  502  0.52024612108E+03  0.50314350020E+03  0.70335419932E+03  0.10092158085E+04  0.10100000352E+00 0. -1.
</event>
<event>
 5   0  0.2697964E-05  0.2315460E+04  0.7818609E-02  0.8471850E-01
       -2   -1    0    0    0  501  0.00000000000E+00  0.00000000000E+00  0.11508835440E+04  0.11508835440E+04  0.25500000920E-02 0. -1.
        2   -1    0    0  501    0  0.00000000000E+00  0.00000000000E+00 -0.11646176284E+04  0.11646176284E+04  0.25500000920E-02 0.  1.
    10030    2    1    2    0    0  0.00000000000E+00  0.00000000000E+00 -0.13734084377E+02  0.23155011724E+04  0.23154604411E+04 0.  0.
        1    1    3    3  502    0 -0.28527489074E+03 -0.96203376220E+03 -0.58432723319E+03  0.11611757138E+04  0.50400001928E-02 0.  1.
       -1    1    3    3    0  502  0.28527489074E+03  0.96203376220E+03  0.57059314882E+03  0.11543254586E+04  0.50400001928E-02 0. -1.
</event>
<event>
 5   0  0.1105862E-05  0.2827533E+04  0.7818609E-02  0.8294771E-01
        1   -1    0    0  501    0  0.00000000000E+00  0.00000000000E+00  0.14428423871E+04  0.14428423871E+04  0.50400001928E-02 0.  1.
       -1   -1    0    0    0  501  0.00000000000E+00  0.00000000000E+00 -0.13852760853E+04  0.13852760853E+04  0.50400001928E-02 0. -1.
    10030    2    1    2    0    0  0.00000000000E+00  0.00000000000E+00  0.57566301802E+02  0.28281184724E+04  0.28275325312E+04 0.  0.
        3    1    3    3  502    0 -0.72368640865E+03 -0.11753354968E+04 -0.27722059434E+03  0.14078305354E+04  0.10100000352E+00 0.  1.
       -3    1    3    3    0  502  0.72368640865E+03  0.11753354968E+04  0.33478689614E+03  0.14202879371E+04  0.10100000352E+00 0. -1.
</event>
<event>
 5   0  0.1105862E-05  0.1556424E+04  0.7818609E-02  0.8847775E-01
        1   -1    0    0  501    0  0.00000000000E+00  0.00000000000E+00  0.12009350820E+04  0.12009350821E+04  0.50400001928E-02 0.  1.
       -1   -1    0    0    0  501  0.00000000000E+00  0.00000000000E+00 -0.50428523210E+03  0.50428523212E+03  0.50400001928E-02 0. -1.
    10030    2    1    2    0    0  0.00000000000E+00  0.00000000000E+00  0.69664984995E+03  0.17052203142E+04  0.15564238839E+04 0.  0.
        3    1    3    3  502    0 -0.22432131558E+01  0.21647835903E+03 -0.47062960129E+03  0.51803488661E+03  0.10100000352E+00 0. -1.
       -3    1    3    3    0  502  0.22432131558E+01 -0.21647835903E+03  0.11672794512E+04  0.11871854276E+04  0.10100000352E+00 0.  1.
</event>
<event>
 5   0  0.2518686E-05  0.2747044E+04  0.7818609E-02  0.8319900E-01
        2   -1    0    0  501    0  0.00000000000E+00  0.00000000000E+00  0.23450621136E+04  0.23450621136E+04  0.25500000920E-02 0.  1.
       -2   -1    0    0    0  501  0.00000000000E+00  0.00000000000E+00 -0.80448277668E+03  0.80448277669E+03  0.25500000920E-02 0. -1.
    10030    2    1    2    0    0  0.00000000000E+00  0.00000000000E+00  0.15405793369E+04  0.31495448903E+04  0.27470435604E+04 0.  0.
        5    1    3    3  502    0 -0.58643245337E+03  0.75734692271E+03  0.18989367800E+04  0.21268428170E+04  0.46999998093E+01 0.  1.
       -5    1    3    3    0  502  0.58643245337E+03 -0.75734692271E+03 -0.35835744310E+03  0.10227020733E+04  0.46999998093E+01 0. -1.
</event>
<event>
 5   0  0.1067434E-05  0.2489253E+04  0.7818609E-02  0.8406824E-01
       -1   -1    0    0    0  501  0.00000000000E+00  0.00000000000E+00  0.83267030362E+03  0.83267030363E+03  0.50400001928E-02 0.  1.
        1   -1    0    0  501    0  0.00000000000E+00  0.00000000000E+00 -0.18603947514E+04  0.18603947514E+04  0.50400001928E-02 0. -1.
    10030    2    1    2    0    0  0.00000000000E+00  0.00000000000E+00 -0.10277244478E+04  0.26930650550E+04  0.24892532716E+04 0.  0.
        4    1    3    3  502    0 -0.47607703535E+03 -0.33812842007E+03 -0.17029985837E+04  0.18003294034E+04  0.12699999809E+01 0. -1.
       -4    1    3    3    0  502  0.47607703535E+03  0.33812842007E+03  0.67527413591E+03  0.89273565156E+03  0.12699999809E+01 0.  1.
</event>
<event>
 5   0  0.2697964E-05  0.2505844E+04  0.7818609E-02  0.8400906E-01
       -2   -1    0    0    0  501  0.00000000000E+00  0.00000000000E+00  0.10319839443E+04  0.10319839443E+04  0.25500000920E-02 0. -1.
        2   -1    0    0  501    0  0.00000000000E+00  0.00000000000E+00 -0.15211610900E+04  0.15211610900E+04  0.25500000920E-02 0.  1.
    10030    2    1    2    0    0  0.00000000000E+00  0.00000000000E+00 -0.48917714569E+03  0.25531450343E+04  0.25058442263E+04 0.  0.
        1    1    3    3  502    0  0.76879538712E+03 -0.68729006326E+03  0.48046182880E+03  0.11376544059E+04  0.50400001928E-02 0. -1.
       -1    1    3    3    0  502 -0.76879538712E+03  0.68729006326E+03 -0.96963897449E+03  0.14154906284E+04  0.50400001928E-02 0.  1.
</event>
<event>
 5   0  0.2651061E-05  0.1483030E+04  0.7818609E-02  0.8895817E-01
        2   -1    0    0  501    0  0.00000000000E+00  0.00000000000E+00  0.14372461326E+04  0.14372461326E+04  0.25500000920E-02 0. -1.
       -2   -1    0    0    0  501  0.00000000000E+00  0.00000000000E+00 -0.38256800822E+03  0.38256800823E+03  0.25500000920E-02 0.  1.
    10030    2    1    2    0    0  0.00000000000E+00  0.00000000000E+00  0.10546781244E+04  0.18198141408E+04  0.14830298585E+04 0.  0.
        3    1    3    3  502    0  0.66200276470E+02  0.18521328739E+03 -0.34997420442E+03  0.40145783389E+03  0.10100000352E+00 0.  1.
       -3    1    3    3    0  502 -0.66200276470E+02 -0.18521328739E+03  0.14046523288E+04  0.14183563069E+04  0.10100000352E+00 0. -1.
</event>
<event>
 5   0  0.1078103E-05  0.2698433E+04  0.7818609E-02  0.8335513E-01
       -1   -1    0    0    0  501  0.00000000000E+00  0.00000000000E+00  0.14999153900E+04  0.14999153901E+04  0.50400001928E-02 0. -1.
        1   -1    0    0  501    0  0.00000000000E+00  0.00000000000E+00 -0.12136590109E+04  0.12136590109E+04  0.50400001928E-02 0.  1.
    10030    2    1    2    0    0  0.00000000000E+00  0.00000000000E+00  0.28625637912E+03  0.27135744010E+04  0.26984334928E+04 0.  0.
        1    1    3    3  502    0 -0.20586702691E+03 -0.68813539787E+02  0.14822416076E+04  0.14980509735E+04  0.50400001928E-02 0. -1.
       -1    1    3    3    0  502  0.20586702691E+03  0.68813539787E+02 -0.11959852285E+04  0.12155234275E+04  0.50400001928E-02 0.  1.
</event>
<event>
 5   0  0.2651061E-05  0.2794116E+04  0.7818609E-02  0.8305097E-01
        2   -1    0    0  501    0  0.00000000000E+00  0.00000000000E+00  0.32503820323E+04  0.32503820323E+04  0.25500000920E-02 0. -1.
       -2   -1    0    0    0  501  0.00000000000E+00  0.00000000000E+00 -0.60047445157E+03  0.60047445157E+03  0.25500000920E-02 0.  1.
    10030    2    1    2    0    0  0.00000000000E+00  0.00000000000E+00  0.26499075807E+04  0.38508564838E+04  0.27941162239E+04 0.  0.
        3    1    3    3  502    0  0.74486774492E+03 -0.10900806613E+04  0.69538915047E+03  0.14922030312E+04  0.10100000352E+00 0. -1.
       -3    1    3    3    0  502 -0.74486774492E+03  0.10900806613E+04  0.19545184302E+04  0.23586534527E+04  0.10100000352E+00 0.  1.
</event>
<event>
 5   0  0.2697964E-05  0.2886790E+04  0.7818609E-02  0.8276819E-01
       -2   -1    0    0    0  501  0.00000000000E+00  0.00000000000E+00  0.18012395226E+04  0.18012395226E+04  0.25500000920E-02 0.  1.
        2   -1    0    0  501    0  0.00000000000E+00  0.00000000000E+00 -0.11566418214E+04  0.11566418214E+04  0.25500000920E-02 0. -1.
    10030    2    1    2    0    0  0.00000000000E+00  0.00000000000E+00  0.64459770128E+03  0.29578813440E+04  0.28867898865E+04 0.  0.
        1    1    3    3  502    0 -0.64302454026E+03 -0.32075927765E+03 -0.96033620225E+03  0.11994218169E+04  0.50400001928E-02 0. -1.
       -1    1    3    3    0  502  0.64302454026E+03  0.32075927765E+03  0.16049339035E+04  0.17584595271E+04  0.50400001928E-02 0.  1.
</event>
<event>
 5   0  0.1075146E-05  0.2817908E+04  0.7818609E-02  0.8297730E-01
       -1   -1    0    0    0  501  0.00000000000E+00  0.00000000000E+00  0.19569864679E+04  0.19569864679E+04  0.50400001928E-02 0. -1.
        1   -1    0    0  501    0  0.00000000000E+00  0.00000000000E+00 -0.10143922833E+04  0.10143922834E+04  0.50400001928E-02 0.  1.
    10030    2    1    2    0    0  0.00000000000E+00  0.00000000000E+00  0.94259418456E+03  0.29713787513E+04  0.28179084241E+04 0.  0.
        2    1    3    3  502    0  0.43298287071E+03  0.44798929395E+03 -0.86124623405E+03  0.10629739646E+04  0.25500000920E-02 0.  1.
       -2    1    3    3    0  502 -0.43298287071E+03 -0.44798929395E+03  0.18038404186E+04  0.19084047866E+04  0.25500000920E-02 0. -1.
</event>
<event>
 5   0  0.2624815E-05  0.2397943E+04  0.7818609E-02  0.8440274E-01
       -2   -1    0    0    0  501  0.00000000000E+00  0.00000000000E+00  0.77091946822E+03  0.77091946822E+03  0.25500000920E-02 0.  1.
        2   -1    0    0  501    0  0.00000000000E+00  0.00000000000E+00 -0.18646984865E+04  0.18646984865E+04  0.25500000920E-02 0. -1.
    10030    2    1    2    0    0  0.00000000000E+00  0.00000000000E+00 -0.10937790183E+04  0.26356179547E+04  0.23979427563E+04 0.  0.
        4    1    3    3  502    0  0.53978707312E+03 -0.96965712132E+03 -0.10456579418E+04  0.15247974165E+04  0.12699999809E+01 0.  1.
       -4    1    3    3    0  502 -0.53978707312E+03  0.96965712132E+03 -0.48121076484E+02  0.11108205382E+04  0.12699999809E+01 0. -1.
</event>
<event>
 5   0  0.2588048E-05  0.2668286E+04  0.7818609E-02  0.8345369E-01
        2   -1    0    0  501    0  0.00000000000E+00  0.00000000000E+00  0.11576286628E+04  0.11576286628E+04  0.25500000920E-02 0.  1.
       -2   -1    0    0    0  501  0.00000000000E+00  0.00000000000E+00 -0.15375719673E+04  0.15375719673E+04  0.25500000920E-02 0. -1.
    10030    2    1    2    0    0  0.00000000000E+00  0.00000000000E+00 -0.37994330455E+03  0.26952006301E+04  0.26682858771E+04 0.  0.
        2    1    3    3  502    0 -0.74920329039E+03 -0.10841692329E+04 -0.39993586066E+03  0.13771990374E+04  0.25500000920E-02 0. -1.
       -2    1    3    3    0  502  0.74920329039E+03  0.10841692329E+04  0.19992556109E+02  0.13180015927E+04  0.25500000920E-02 0.  1.
</event>
<event>
 5   0  0.1105862E-05  0.2832693E+04  0.7818609E-02  0.8293190E-01
       -1   -1    0    0    0  501  0.00000000000E+00  0.00000000000E+00  0.11143973829E+04  0.11143973830E+04  0.50400001928E-02 0. -1.
        1   -1    0    0  501    0  0.00000000000E+00  0.00000000000E+00 -0.18001089925E+04  0.18001089925E+04  0.50400001928E-02 0.  1.
    10030    2    1    2    0    0  0.00000000000E+00  0.00000000000E+00 -0.68571160954E+03  0.29145063755E+04  0.28326925356E+04 0.  0.
        3    1    3    3  502    0  0.65858311657E+03  0.12455647564E+04 -0.49150506625E+03  0.14922267000E+04  0.10100000352E+00 0.  1.
       -3    1    3    3    0  502 -0.65858311657E+03 -0.12455647564E+04 -0.19420654329E+03  0.14222796755E+04  0.10100000352E+00 0. -1.
</event>
<event>
 5   0  0.1067434E-05  0.2080692E+04  0.7818609E-02  0.8569797E-01
        1   -1    0    0  501    0  0.00000000000E+00  0.00000000000E+00  0.13921694967E+04  0.13921694967E+04  0.50400001928E-02 0. -1.
       -1   -1    0    0    0  501  0.00000000000E+00  0.00000000000E+00 -0.77743426912E+03  0.77743426913E+03  0.50400001928E-02 0.  1.
    10030    2    1    2    0    0  0.00000000000E+00  0.00000000000E+00  0.61473522759E+03  0.21696037658E+04  0.20806924570E+04 0.  0.
        4    1    3    3  502    0 -0.54643677222E+03  0.22486357476E+03 -0.58546999158E+03  0.83182540068E+03  0.12699999809E+01 0.  1.
       -4    1    3    3    0  502  0.54643677222E+03 -0.22486357476E+03  0.12002052192E+04  0.13377783652E+04  0.12699999809E+01 0. -1.
</event>
<event>
 5   0  0.1017456E-05  0.2768406E+04  0.7818609E-02  0.8313145E-01
        1   -1    0    0  501    0  0.00000000000E+00  0.00000000000E+00  0.17678658860E+04  0.17678658860E+04  0.50400001928E-02 0.  1.
       -1   -1    0    0    0  501  0.00000000000E+00  0.00000000000E+00 -0.10838023915E+04  0.10838023916E+04  0.50400001928E-02 0. -1.
    10030    2    1    2    0    0  0.00000000000E+00  0.00000000000E+00  0.68406349442E+03  0.28516682775E+04  0.27684055159E+04 0.  0.
        5    1    3    3  502    0  0.76394431242E+02  0.15530062681E+03  0.17566681817E+04  0.17651797598E+04  0.46999998093E+01 0.  1.
       -5    1    3    3    0  502 -0.76394431242E+02 -0.15530062681E+03 -0.10726046873E+04  0.10864885177E+04  0.46999998093E+01 0. -1.
</event>
<event>
 5   0  0.1067434E-05  0.2912873E+04  0.7818609E-02  0.8269058E-01
       -1   -1    0    0    0  501  0.00000000000E+00  0.00000000000E+00  0.23470588087E+04  0.23470588087E+04  0.50400001928E-02 0.  1.
        1   -1    0    0  501    0  0.00000000000E+00  0.00000000000E+00 -0.90377278728E+03  0.90377278730E+03  0.50400001928E-02 0. -1.
    10030    2    1    2    0    0  0.00000000000E+00  0.00000000000E+00  0.14432860214E+04  0.32508315960E+04  0.29128734140E+04 0.  0.
        4    1    3    3  502    0 -0.82620560899E+03 -0.11814740622E+04  0.95228353450E+03  0.17278142872E+04  0.12699999809E+01 0.  1.
       -4    1    3    3    0  502  0.82620560899E+03  0.11814740622E+04  0.49100248690E+03  0.15230173088E+04  0.12699999809E+01 0. -1.
</event>
<event>
 5   0  0.1078103E-05  0.2766910E+04  0.7818609E-02  0.8313616E-01
        1   -1    0    0  501    0  0.00000000000E+00  0.00000000000E+00  0.14191036337E+04  0.14191036337E+04  0.50400001928E-02 0.  1.
       -1   -1    0    0    0  501  0.00000000000E+00  0.00000000000E+00 -0.13487016901E+04  0.13487016901E+04  0.50400001928E-02 0. -1.
    10030    2    1    2    0    0  0.00000000000E+00  0.00000000000E+00  0.70401943655E+02  0.27678053238E+04  0.27669098064E+04 0.  0.
        1    1    3    3  502    0 -0.25223029183E+03 -0.76052353153E+03 -0.10929633637E+04  0.13552066545E+04  0.50400001928E-02 0. -1.
       -1    1    3    3    0  502  0.25223029183E+03  0.76052353153E+03  0.11633653073E+04  0.14125986693E+04  0.50400001928E-02 0.  1.
</event>
<event>
 5   0  0.2518686E-05  0.1749468E+04  0.7818609E-02  0.8733643E-01
       -2   -1    0    0    0  501  0.00000000000E+00  0.00000000000E+00  0.10819289646E+04  0.10819289646E+04  0.25500000920E-02 0. -1.
        2   -1    0    0  501    0  0.00000000000E+00  0.00000000000E+00 -0.70721828492E+03  0.70721828492E+03  0.25500000920E-02 0.  1.
    10030    2    1    2    0    0  0.00000000000E+00  0.00000000000E+00  0.37471067965E+03  0.17891472495E+04  0.17494684298E+04 0.  0.
        5    1    3    3  502    0  0.16923777808E+03 -0.33519003884E+02  0.10643436171E+04  0.10782459712E+04  0.46999998093E+01 0. -1.
       -5    1    3    3    0  502 -0.16923777808E+03  0.33519003884E+02 -0.68963293742E+03  0.71090127832E+03  0.46999998093E+01 0.  1.
</event>
<event>
 5   0  0.1067434E-05  0.2805474E+04  0.7818609E-02  0.8301571E-01
       -1   -1    0    0    0  501  0.00000000000E+00  0.00000000000E+00  0.13134126532E+04  0.13134126532E+04  0.50400001928E-02 0. -1.
        1   -1    0    0  501    0  0.00000000000E+00  0.00000000000E+00 -0.14981364552E+04  0.14981364552E+04  0.50400001928E-02 0.  1.
    10030    2    1    2    0    0  0.00000000000E+00  0.00000000000E+00 -0.18472380199E+03  0.28115491084E+04  0.28054742034E+04 0.  0.
        4    1    3    3  502    0 -0.69335548957E+03  0.92951537341E+03 -0.88332951784E+03  0.14577425405E+04  0.12699999809E+01 0.  1.
       -4    1    3    3    0  502  0.69335548957E+03 -0.92951537341E+03  0.69860571585E+03  0.13538065680E+04  0.12699999809E+01 0. -1.
</event>
<event>
 5   0  0.2518686E-05  0.2743494E+04  0.7818609E-02  0.8321029E-01
       -2   -1    0    0    0  501  0.00000000000E+00  0.00000000000E+00  0.10205869328E+04  0.10205869328E+04  0.25500000920E-02 0.  1.
        2   -1    0    0  501    0  0.00000000000E+00  0.00000000000E+00 -0.18437327469E+04  0.18437327469E+04  0.25500000920E-02 0. -1.
    10030    2    1    2    0    0  0.00000000000E+00  0.00000000000E+00 -0.82314581412E+03  0.28643196797E+04  0.27434937937E+04 0.  0.
        5    1    3    3  502    0  0.83344130057E+03 -0.61876894029E+03  0.52467511590E+03  0.11631016594E+04  0.46999998093E+01 0. -1.
       -5    1    3    3    0  502 -0.83344130057E+03  0.61876894029E+03 -0.13478209300E+04  0.17012180202E+04  0.46999998093E+01 0.  1.
</event>
<event>
 5   0  0.2651061E-05  0.2841699E+04  0.7818609E-02  0.8290438E-01
       -2   -1    0    0    0  501  0.00000000000E+00  0.00000000000E+00  0.87471545983E+03  0.87471545983E+03  0.25500000920E-02 0.  1.
        2   -1    0    0  501    0  0.00000000000E+00  0.00000000000E+00 -0.23079664977E+04  0.23079664977E+04  0.25500000920E-02 0. -1.
    10030    2    1    2    0    0  0.00000000000E+00  0.00000000000E+00 -0.14332510379E+04  0.31826819576E+04  0.28416994749E+04 0.  0.
        3    1    3    3  502    0 -0.12624475313E+04 -0.37807116260E+03 -0.12176043273E+03  0.13234565299E+04  0.10100000352E+00 0.  1.
       -3    1    3    3    0  502  0.12624475313E+04  0.37807116260E+03 -0.13114906052E+04  0.18592254277E+04  0.10100000352E+00 0. -1.
</event>
<event>
 5   0  0.2651061E-05  0.2782978E+04  0.7818609E-02  0.8308572E-01
       -2   -1    0    0    0  501  0.00000000000E+00  0.00000000000E+00  0.95637750969E+03  0.95637750970E+03  0.25500000920E-02 0. -1.
        2   -1    0    0  501    0  0.00000000000E+00  0.00000000000E+00 -0.20245583097E+04  0.20245583097E+04  0.25500000920E-02 0.  1.
    10030    2    1    2    0    0  0.00000000000E+00  0.00000000000E+00 -0.10681808001E+04  0.29809358194E+04  0.27829782856E+04 0.  0.
        3    1    3    3  502    0 -0.10541723793E+03 -0.13249643829E+03  0.94530238549E+03  0.96034614094E+03  0.10100000352E+00 0. -1.
       -3    1    3    3    0  502  0.10541723793E+03  0.13249643829E+03 -0.20134831855E+04  0.20205896785E+04  0.10100000352E+00 0.  1.
</event>
<event>
 5   0  0.1017456E-05  0.2094502E+04  0.7818609E-02  0.8563669E-01
       -1   -1    0    0    0  501  0.00000000000E+00  0.00000000000E+00  0.14987183043E+04  0.14987183043E+04  0.50400001928E-02 0. -1.
        1   -1    0    0  501    0  0.00000000000E+00  0.00000000000E+00 -0.73178148300E+03  0.73178148301E+03  0.50400001928E-02 0.  1.
    10030    2    1    2    0    0  0.00000000000E+00  0.00000000000E+00  0.76693682134E+03  0.22304997874E+04  0.20945016623E+04 0.  0.
        5    1    3    3  502    0 -0.35515026107E+03 -0.81045332778E+03 -0.21303167801E+03  0.91014882865E+03  0.46999998093E+01 0. -1.
       -5    1    3    3    0  502  0.35515026107E+03  0.81045332778E+03  0.97996849935E+03  0.13203509587E+04  0.46999998093E+01 0.  1.
</event>
<event>
 5   0  0.2518686E-05  0.2950439E+04  0.7818609E-02  0.8258027E-01
        2   -1    0    0  501    0  0.00000000000E+00  0.00000000000E+00  0.20575314085E+04  0.20575314085E+04  0.25500000920E-02 0.  1.
       -2   -1    0    0    0  501  0.00000000000E+00  0.00000000000E+00 -0.10577107845E+04  0.10577107845E+04  0.25500000920E-02 0. -1.
    10030    2    1    2    0    0  0.00000000000E+00  0.00000000000E+00  0.99982062397E+03  0.31152421931E+04  0.29504393980E+04 0.  0.
        5    1    3    3  502    0  0.44898524992E+03 -0.35833951979E+03  0.19345772490E+04  0.20180699166E+04  0.46999998093E+01 0.  1.
       -5    1    3    3    0  502 -0.44898524992E+03  0.35833951979E+03 -0.93475662504E+03  0.10971722764E+04  0.46999998093E+01 0. -1.
</event>
<event>
 5   0  0.2651061E-05  0.2743499E+04  0.7818609E-02  0.8321027E-01
       -2   -1    0    0    0  501  0.00000000000E+00  0.00000000000E+00  0.14077617824E+04  0.14077617824E+04  0.25500000920E-02 0. -1.
        2   -1    0    0  501    0  0.00000000000E+00  0.00000000000E+00 -0.13366588179E+04  0.13366588179E+04  0.25500000920E-02 0.  1.
    10030    2    1    2    0    0  0.00000000000E+00  0.00000000000E+00  0.71102964465E+02  0.27444206003E+04  0.27434993712E+04 0.  0.
        3    1    3    3  502    0  0.65113266281E+03 -0.10596920442E+04  0.61434426104E+03  0.13872057722E+04  0.10100000352E+00 0. -1.
       -3    1    3    3    0  502 -0.65113266281E+03  0.10596920442E+04 -0.54324129657E+03  0.13572148281E+04  0.10100000352E+00 0.  1.
</event>
<event>
 5   0  0.1105862E-05  0.2662973E+04  0.7818609E-02  0.8347120E-01
        1   -1    0    0  501    0  0.00000000000E+00  0.00000000000E+00  0.17942371391E+04  0.17942371391E+04  0.50400001928E-02 0. -1.
       -1   -1    0    0    0  501  0.00000000000E+00  0.00000000000E+00 -0.98808378374E+03  0.98808378375E+03  0.50400001928E-02 0.  1.
    10030    2    1    2    0    0  0.00000000000E+00  0.00000000000E+00  0.80615335537E+03  0.27823209229E+04  0.26629732416E+04 0.  0.
        3    1    3    3  502    0 -0.30177735953E+03 -0.62313969228E+03 -0.78520921970E+03  0.10468649291E+04  0.10100000352E+00 0.  1.
       -3    1    3    3    0  502  0.30177735953E+03  0.62313969228E+03  0.15913625751E+04  0.17354559938E+04  0.10100000352E+00 0. -1.
</event>
<event>
 5   0  0.1105862E-05  0.2510021E+04  0.7818609E-02  0.8399424E-01
        1   -1    0    0  501    0  0.00000000000E+00  0.00000000000E+00  0.28055447445E+04  0.28055447445E+04  0.50400001928E-02 0. -1.
       -1   -1    0    0    0  501  0.00000000000E+00  0.00000000000E+00 -0.56140667222E+03  0.56140667224E+03  0.50400001928E-02 0.  1.
    10030    2    1    2    0    0  0.00000000000E+00  0.00000000000E+00  0.22441380723E+04  0.33669514168E+04  0.25100211464E+04 0.  0.
        3    1    3    3  502    0 -0.96509050968E+03 -0.80223455254E+03  0.11334163480E+04  0.16910389106E+04  0.10100000352E+00 0. -1.
       -3    1    3    3    0  502  0.96509050968E+03  0.80223455254E+03  0.11107217243E+04  0.16759125062E+04  0.10100000352E+00 0.  1.
</event>
<event>
 5   0  0.1067434E-05  0.1394584E+04  0.7818609E-02  0.8957748E-01
        1   -1    0    0  501    0  0.00000000000E+00  0.00000000000E+00  0.12084708357E+04  0.12084708357E+04  0.50400001928E-02 0. -1.
       -1   -1    0    0    0  501  0.00000000000E+00  0.00000000000E+00 -0.40234006996E+03  0.40234006999E+03  0.50400001928E-02 0.  1.
    10030    2    1    2    0    0  0.00000000000E+00  0.00000000000E+00  0.80613076571E+03  0.16108109057E+04  0.13945841539E+04 0.  0.
        4    1    3    3  502    0 -0.41790190268E+03 -0.17816623118E+01 -0.24166371480E+03  0.48275059662E+03  0.12699999809E+01 0.  1.
       -4    1    3    3    0  502  0.41790190268E+03  0.17816623118E+01  0.10477944805E+04  0.11280603091E+04  0.12699999809E+01 0. -1.
</event>
<event>
 5   0  0.2697964E-05  0.2785177E+04  0.7818609E-02  0.8307885E-01
       -2   -1    0    0    0  501  0.00000000000E+00  0.00000000000E+00  0.98586296335E+03  0.98586296335E+03  0.25500000920E-02 0.  1.
        2   -1    0    0  501    0  0.00000000000E+00  0.00000000000E+00 -0.19671121326E+04  0.19671121326E+04  0.25500000920E-02 0. -1.
    10030    2    1    2    0    0  0.00000000000E+00  0.00000000000E+00 -0.98124916925E+03  0.29529750960E+04  0.27851771910E+04 0.  0.
        1    1    3    3  502    0  0.77098913578E+03  0.21287478030E+03  0.71803955286E+03  0.10748584647E+04  0.50400001928E-02 0.  1.
       -1    1    3    3    0  502 -0.77098913578E+03 -0.21287478030E+03 -0.16992887221E+04  0.18781166313E+04  0.50400001928E-02 0. -1.
</event>
<event>
 5   0  0.2518686E-05  0.2823707E+04  0.7818609E-02  0.8295946E-01
       -2   -1    0    0    0  501  0.00000000000E+00  0.00000000000E+00  0.21769217210E+04  0.21769217210E+04  0.25500000920E-02 0. -1.
        2   -1    0    0  501    0  0.00000000000E+00  0.00000000000E+00 -0.91566471607E+03  0.91566471607E+03  0.25500000920E-02 0.  1.
    10030    2    1    2    0    0  0.00000000000E+00  0.00000000000E+00  0.12612570050E+04  0.30925864371E+04  0.28237070738E+04 0.  0.
        5    1    3    3  502    0 -0.40694383825E+03 -0.12540427943E+04  0.77479850453E+02  0.13207012662E+04  0.46999998093E+01 0.  1.
       -5    1    3    3    0  502  0.40694383825E+03  0.12540427943E+04  0.11837771545E+04  0.17718851709E+04  0.46999998093E+01 0. -1.
</event>
<event>
 5   0  0.2588048E-05  0.2800323E+04  0.7818609E-02  0.8303168E-01
        2   -1    0    0  501    0  0.00000000000E+00  0.00000000000E+00  0.17060750351E+04  0.17060750351E+04  0.25500000920E-02 0.  1.
       -2   -1    0    0    0  501  0.00000000000E+00  0.00000000000E+00 -0.11491006417E+04  0.11491006417E+04  0.25500000920E-02 0. -1.
    10030    2    1    2    0    0  0.00000000000E+00  0.00000000000E+00  0.55697439344E+03  0.28551756768E+04  0.28003227797E+04 0.  0.
        2    1    3    3  502    0  0.77012719570E+03 -0.11526239736E+04  0.47935897218E+03  0.14667729702E+04  0.25500000920E-02 0.  1.
       -2    1    3    3    0  502 -0.77012719570E+03  0.11526239736E+04  0.77615421256E+02  0.13884027066E+04  0.25500000920E-02 0. -1.
</event>
<event>
 5   0  0.2651061E-05  0.2900100E+04  0.7818609E-02  0.8272848E-01
        2   -1    0    0  501    0  0.00000000000E+00  0.00000000000E+00  0.19214312388E+04  0.19214312388E+04  0.25500000920E-02 0.  1.
       -2   -1    0    0    0  501  0.00000000000E+00  0.00000000000E+00 -0.10943119343E+04  0.10943119343E+04  0.25500000920E-02 0. -1.
    10030    2    1    2    0    0  0.00000000000E+00  0.00000000000E+00  0.82711930452E+03  0.30157431731E+04  0.29001000918E+04 0.  0.
        3    1    3    3  502    0 -0.10966473661E+04  0.61849980697E+03 -0.33447716967E+03  0.13027096545E+04  0.10100000352E+00 0. -1.
       -3    1    3    3    0  502  0.10966473661E+04 -0.61849980697E+03  0.11615964742E+04  0.17130335186E+04  0.10100000352E+00 0.  1.
</event>
<event>
 5   0  0.1075146E-05  0.2818468E+04  0.7818609E-02  0.8297558E-01
        1   -1    0    0  501    0  0.00000000000E+00  0.00000000000E+00  0.11857570600E+04  0.11857570600E+04  0.50400001928E-02 0.  1.
       -1   -1    0    0    0  501  0.00000000000E+00  0.00000000000E+00 -0.16748288334E+04  0.16748288334E+04  0.50400001928E-02 0. -1.
    10030    2    1    2    0    0  0.00000000000E+00  0.00000000000E+00 -0.48907177339E+03  0.28605858935E+04  0.28184677494E+04 0.  0.
        2    1    3    3  502    0 -0.28806665771E+02 -0.14082101622E+04 -0.19853274887E+03  0.14224278320E+04  0.25500000920E-02 0. -1.
       -2    1    3    3    0  502  0.28806665771E+02  0.14082101622E+04 -0.29053902452E+03  0.14381580615E+04  0.25500000920E-02 0.  1.
</event>
<event>
 5   0  0.1078103E-05  0.2774449E+04  0.7818609E-02  0.8311245E-01
       -1   -1    0    0    0  501  0.00000000000E+00  0.00000000000E+00  0.12160093583E+04  0.12160093583E+04  0.50400001928E-02 0.  1.
        1   -1    0    0  501    0  0.00000000000E+00  0.00000000000E+00 -0.15825471043E+04  0.15825471043E+04  0.50400001928E-02 0. -1.
    10030    2    1    2    0    0  0.00000000000E+00  0.00000000000E+00 -0.36653774606E+03  0.27985564626E+04  0.27744491985E+04 0.  0.
        1    1    3    3  502    0 -0.83219706271E+03 -0.50165168543E+03  0.81537693398E+03  0.12684817339E+04  0.50400001928E-02 0.  1.
       -1    1    3    3    0  502  0.83219706271E+03  0.50165168543E+03 -0.11819146800E+04  0.15300747288E+04  0.50400001928E-02 0. -1.
</event>
<event>
 5   0  0.2651061E-05  0.2794446E+04  0.7818609E-02  0.8304995E-01
       -2   -1    0    0    0  501  0.00000000000E+00  0.00000000000E+00  0.13750574570E+04  0.13750574570E+04  0.25500000920E-02 0. -1.
        2   -1    0    0  501    0  0.00000000000E+00  0.00000000000E+00 -0.14197461956E+04  0.14197461956E+04  0.25500000920E-02 0.  1.
    10030    2    1    2    0    0  0.00000000000E+00  0.00000000000E+00 -0.44688738513E+02  0.27948036526E+04  0.27944463447E+04 0.  0.
        3    1    3    3  502    0  0.13925321319E+04 -0.38741270594E+02 -0.12999622348E+03  0.13991231728E+04  0.10100000352E+00 0. -1.
       -3    1    3    3    0  502 -0.13925321319E+04  0.38741270594E+02  0.85307484964E+02  0.13956804798E+04  0.10100000352E+00 0.  1.
</event>
<event>
 5   0  0.2518686E-05  0.2825533E+04  0.7818609E-02  0.8295385E-01
       -2   -1    0    0    0  501  0.00000000000E+00  0.00000000000E+00  0.15310369178E+04  0.15310369178E+04  0.25500000920E-02 0. -1.
        2   -1    0    0  501    0  0.00000000000E+00  0.00000000000E+00 -0.13036324450E+04  0.13036324450E+04  0.25500000920E-02 0.  1.
    10030    2    1    2    0    0  0.00000000000E+00  0.00000000000E+00  0.22740447284E+03  0.28346693628E+04  0.28255331536E+04 0.  0.
        5    1    3    3  502    0 -0.95693080988E+02  0.13104906763E+04 -0.40695981214E+03  0.13755658316E+04  0.46999998093E+01 0.  1.
       -5    1    3    3    0  502  0.95693080988E+02 -0.13104906763E+04  0.63436428498E+03  0.14591035311E+04  0.46999998093E+01 0. -1.
</event>
<event>
 5   0  0.1105862E-05  0.2761714E+04  0.7818609E-02  0.8315254E-01
        1   -1    0    0  501    0  0.00000000000E+00  0.00000000000E+00  0.17612444084E+04  0.17612444084E+04  0.50400001928E-02 0.  1.
       -1   -1    0    0    0  501  0.00000000000E+00  0.00000000000E+00 -0.10826246433E+04  0.10826246433E+04  0.50400001928E-02 0. -1.
    10030    2    1    2    0    0  0.00000000000E+00  0.00000000000E+00  0.67861976516E+03  0.28438690517E+04  0.27617143947E+04 0.  0.
        3    1    3    3  502    0  0.13868060599E+03  0.10837243439E+04 -0.53024838396E+03  0.12144357220E+04  0.10100000352E+00 0. -1.
       -3    1    3    3    0  502 -0.13868060599E+03 -0.10837243439E+04  0.12088681491E+04  0.16294333298E+04  0.10100000352E+00 0.  1.
</event>
<event>
 5   0  0.1075146E-05  0.2747691E+04  0.7818609E-02  0.8319695E-01
       -1   -1    0    0    0  501  0.00000000000E+00  0.00000000000E+00  0.27306879823E+04  0.27306879823E+04  0.50400001928E-02 0.  1.
        1   -1    0    0  501    0  0.00000000000E+00  0.00000000000E+00 -0.69119980099E+03  0.69119980100E+03  0.50400001928E-02 0. -1.
    10030    2    1    2    0    0  0.00000000000E+00  0.00000000000E+00  0.20394881813E+04  0.34218877833E+04  0.27476906594E+04 0.  0.
        2    1    3    3  502    0 -0.69819608483E+03 -0.22666233628E+03 -0.42649163434E+03  0.84896919952E+03  0.25500000920E-02 0. -1.
       -2    1    3    3    0  502  0.69819608483E+03  0.22666233628E+03  0.24659798156E+04  0.25729185838E+04  0.25500000920E-02 0.  1.
</event>
<event>
 5   0  0.1075146E-05  0.2912850E+04  0.7818609E-02  0.8269064E-01
       -1   -1    0    0    0  501  0.00000000000E+00  0.00000000000E+00  0.10517263461E+04  0.10517263461E+04  0.50400001928E-02 0. -1.
        1   -1    0    0  501    0  0.00000000000E+00  0.00000000000E+00 -0.20168497985E+04  0.20168497985E+04  0.50400001928E-02 0.  1.
    10030    2    1    2    0    0  0.00000000000E+00  0.00000000000E+00 -0.96512345239E+03  0.30685761445E+04  0.29128501981E+04 0.  0.
        2    1    3    3  502    0 -0.71767799246E+03  0.12311546175E+04 -0.16587306075E+03  0.14346836813E+04  0.25500000920E-02 0. -1.
       -2    1    3    3    0  502  0.71767799246E+03 -0.12311546175E+04 -0.79925039164E+03  0.16338924633E+04  0.25500000920E-02 0.  1.
</event>
<event>
 5   0  0.2624815E-05  0.2752103E+04  0.7818609E-02  0.8318295E-01
       -2   -1    0    0    0  501  0.00000000000E+00  0.00000000000E+00  0.11210471833E+04  0.11210471833E+04  0.25500000920E-02 0. -1.
        2   -1    0    0  501    0  0.00000000000E+00  0.00000000000E+00 -0.16890614331E+04  0.16890614331E+04  0.25500000920E-02 0.  1.
    10030    2    1    2    0    0  0.00000000000E+00  0.00000000000E+00 -0.56801424978E+03  0.28101086164E+04  0.27521028775E+04 0.  0.
        4    1    3    3  502    0  0.12042777580E+04 -0.23938719676E+03  0.35031489317E+03  0.12768372197E+04  0.12699999809E+01 0.  1.
       -4    1    3    3    0  502 -0.12042777580E+04  0.23938719676E+03 -0.91832914296E+03  0.15332713967E+04  0.12699999809E+01 0. -1.
</event>
<event>
 5   0  0.1017456E-05  0.2779778E+04  0.7818609E-02  0.8309574E-01
        1   -1    0    0  501    0  0.00000000000E+00  0.00000000000E+00  0.83937598283E+03  0.83937598285E+03  0.50400001928E-02 0. -1.
       -1   -1    0    0    0  501  0.00000000000E+00  0.00000000000E+00 -0.23014612231E+04  0.23014612231E+04  0.50400001928E-02 0.  1.
    10030    2    1    2    0    0  0.00000000000E+00  0.00000000000E+00 -0.14620852403E+04  0.31408372060E+04  0.27797778876E+04 0.  0.
        5    1    3    3  502    0  0.35113881978E+03 -0.60558798789E+03 -0.20877240698E+04  0.22019648415E+04  0.46999998093E+01 0.  1.
       -5    1    3    3    0  502 -0.35113881978E+03  0.60558798789E+03  0.62563882946E+03  0.93887236446E+03  0.46999998093E+01 0. -1.
</event>
<event>
 5   0  0.2518686E-05  0.2777035E+04  0.7818609E-02  0.8310434E-01
        2   -1    0    0  501    0  0.00000000000E+00  0.00000000000E+00  0.25742457946E+04  0.25742457946E+04  0.25500000920E-02 0. -1.
       -2   -1    0    0    0  501  0.00000000000E+00  0.00000000000E+00 -0.74894978110E+03  0.74894978110E+03  0.25500000920E-02 0.  1.
    10030    2    1    2    0    0  0.00000000000E+00  0.00000000000E+00  0.18252960135E+04  0.33231955757E+04  0.27770349831E+04 0.  0.
        5    1    3    3  502    0 -0.10679556544E+04  0.81055152558E+03  0.48045995939E+03  0.14242144916E+04  0.46999998093E+01 0.  1.
       -5    1    3    3    0  502  0.10679556544E+04 -0.81055152558E+03  0.13448360541E+04  0.18989810841E+04  0.46999998093E+01 0. -1.
</event>
<event>
 5   0  0.1075146E-05  0.2904524E+04  0.7818609E-02  0.8271533E-01
        1   -1    0    0  501    0  0.00000000000E+00  0.00000000000E+00  0.10905181508E+04  0.10905181508E+04  0.50400001928E-02 0.  1.
       -1   -1    0    0    0  501  0.00000000000E+00  0.00000000000E+00 -0.19340029933E+04  0.19340029933E+04  0.50400001928E-02 0. -1.
    10030    2    1    2    0    0  0.00000000000E+00  0.00000000000E+00 -0.84348484256E+03  0.30245211441E+04  0.29045243107E+04 0.  0.
        2    1    3    3  502    0  0.46953646867E+03 -0.70431506614E+03 -0.16505549465E+04  0.18549544036E+04  0.25500000920E-02 0. -1.
       -2    1    3    3    0  502 -0.46953646867E+03  0.70431506614E+03  0.80707010397E+03  0.11695667405E+04  0.25500000920E-02 0.  1.
</event>
<event>
 5   0  0.2697964E-05  0.2852841E+04  0.7818609E-02  0.8287049E-01
       -2   -1    0    0    0  501  0.00000000000E+00  0.00000000000E+00  0.11122583281E+04  0.11122583281E+04  0.25500000920E-02 0. -1.
        2   -1    0    0  501    0  0.00000000000E+00  0.00000000000E+00 -0.18293190990E+04  0.18293190990E+04  0.25500000920E-02 0.  1.
    10030    2    1    2    0    0  0.00000000000E+00  0.00000000000E+00 -0.71706077089E+03  0.29415774270E+04  0.28528409718E+04 0.  0.
        1    1    3    3  502    0  0.56829059683E+03 -0.13067552568E+04 -0.29241174172E+03  0.14546711416E+04  0.50400001928E-02 0. -1.
       -1    1    3    3    0  502 -0.56829059683E+03  0.13067552568E+04 -0.42464902918E+03  0.14869062854E+04  0.50400001928E-02 0.  1.
</event>
<event>
 5   0  0.1017456E-05  0.2841812E+04  0.7818609E-02  0.8290404E-01
        1   -1    0    0  501    0  0.00000000000E+00  0.00000000000E+00  0.28750323958E+04  0.28750323958E+04  0.50400001928E-02 0. -1.
       -1   -1    0    0    0  501  0.00000000000E+00  0.00000000000E+00 -0.70224390041E+03  0.70224390043E+03  0.50400001928E-02 0.  1.
    10030    2    1    2    0    0  0.00000000000E+00  0.00000000000E+00  0.21727884954E+04  0.35772762962E+04  0.28418120722E+04 0.  0.
        5    1    3    3  502    0  0.53887731513E+03  0.11148976189E+04  0.19635595595E+04  0.23214163124E+04  0.46999998093E+01 0. -1.
       -5    1    3    3    0  502 -0.53887731513E+03 -0.11148976189E+04  0.20922893581E+03  0.12558599838E+04  0.46999998093E+01 0.  1.
</event>
<event>
 5   0  0.1075146E-05  0.2728523E+04  0.7818609E-02  0.8325809E-01
       -1   -1    0    0    0  501  0.00000000000E+00  0.00000000000E+00  0.12369008220E+04  0.12369008220E+04  0.50400001928E-02 0. -1.
        1   -1    0    0  501    0  0.00000000000E+00  0.00000000000E+00 -0.15047359162E+04  0.15047359162E+04  0.50400001928E-02 0.  1.
    10030    2    1    2    0    0  0.00000000000E+00  0.00000000000E+00 -0.26783509420E+03  0.27416367382E+04  0.27285227444E+04 0.  0.
        2    1    3    3  502    0  0.54166678315E+03 -0.44368913421E+03  0.10425840722E+04  0.12558839514E+04  0.25500000920E-02 0. -1.
       -2    1    3    3    0  502 -0.54166678315E+03  0.44368913421E+03 -0.13104191664E+04  0.14857527868E+04  0.25500000920E-02 0.  1.
</event>
<event>
 5   0  0.2588048E-05  0.1481093E+04  0.7818609E-02  0.8897124E-01
       -2   -1    0    0    0  501  0.00000000000E+00  0.00000000000E+00  0.30718284426E+03  0.30718284427E+03  0.25500000920E-02 0.  1.
        2   -1    0    0  501    0  0.00000000000E+00  0.00000000000E+00 -0.17852862278E+04  0.17852862278E+04  0.25500000920E-02 0. -1.
    10030    2    1    2    0    0  0.00000000000E+00  0.00000000000E+00 -0.14781033836E+04  0.20924690721E+04  0.14810932466E+04 0.  0.
        2    1    3    3  502    0  0.20065781167E+03  0.28803544812E+03 -0.16602724938E+04  0.16969775279E+04  0.25500000920E-02 0. -1.
       -2    1    3    3    0  502 -0.20065781167E+03 -0.28803544812E+03  0.18216911023E+03  0.39549154414E+03  0.25500000920E-02 0.  1.
</event>
<event>
 5   0  0.2588048E-05  0.2763577E+04  0.7818609E-02  0.8314666E-01
        2   -1    0    0  501    0  0.00000000000E+00  0.00000000000E+00  0.10630950835E+04  0.10630950835E+04  0.25500000920E-02 0.  1.
       -2   -1    0    0    0  501  0.00000000000E+00  0.00000000000E+00 -0.17960188476E+04  0.17960188476E+04  0.25500000920E-02 0. -1.
    10030    2    1    2    0    0  0.00000000000E+00  0.00000000000E+00 -0.73292376408E+03  0.28591139311E+04  0.27635765282E+04 0.  0.
        2    1    3    3  502    0  0.11405101272E+04  0.64422534162E+03  0.88689240499E+02  0.13128805819E+04  0.25500000920E-02 0.  1.
       -2    1    3    3    0  502 -0.11405101272E+04 -0.64422534162E+03 -0.82161300457E+03  0.15462333492E+04  0.25500000920E-02 0. -1.
</event>
<event>
 5   0  0.2624815E-05  0.2472411E+04  0.7818609E-02  0.8412881E-01
       -2   -1    0    0    0  501  0.00000000000E+00  0.00000000000E+00  0.10115640518E+04  0.10115640518E+04  0.25500000920E-02 0.  1.
        2   -1    0    0  501    0  0.00000000000E+00  0.00000000000E+00 -0.15107338549E+04  0.15107338549E+04  0.25500000920E-02 0. -1.
    10030    2    1    2    0    0  0.00000000000E+00  0.00000000000E+00 -0.49916980305E+03  0.25222979067E+04  0.24724110172E+04 0.  0.
        4    1    3    3  502    0  0.85524810436E+03 -0.79263141973E+03 -0.66834078061E+03  0.13440219118E+04  0.12699999809E+01 0. -1.
       -4    1    3    3    0  502 -0.85524810436E+03  0.79263141973E+03  0.16917097756E+03  0.11782759949E+04  0.12699999809E+01 0.  1.
</event>
<event>
 5   0  0.2588048E-05  0.2626248E+04  0.7818609E-02  0.8359340E-01
       -2   -1    0    0    0  501  0.00000000000E+00  0.00000000000E+00  0.70174436425E+03  0.70174436426E+03  0.25500000920E-02 0. -1.
        2   -1    0    0  501    0  0.00000000000E+00  0.00000000000E+00 -0.24571544408E+04  0.24571544408E+04  0.25500000920E-02 0.  1.
    10030    2    1    2    0    0  0.00000000000E+00  0.00000000000E+00 -0.17554100765E+04  0.31588988050E+04  0.26262477270E+04 0.  0.
        2    1    3    3  502    0 -0.55538315911E+03 -0.74234481248E+03  0.24083061306E+03  0.95787559643E+03  0.25500000920E-02 0. -1.
       -2    1    3    3    0  502  0.55538315911E+03  0.74234481248E+03 -0.19962406896E+04  0.22010232086E+04  0.25500000920E-02 0.  1.
</event>
<event>
 5   0  0.2588048E-05  0.2857726E+04  0.7818609E-02  0.8285568E-01
        2   -1    0    0  501    0  0.00000000000E+00  0.00000000000E+00  0.22645180455E+04  0.22645180455E+04  0.25500000920E-02 0. -1.
       -2   -1    0    0    0  501  0.00000000000E+00  0.00000000000E+00 -0.90158228606E+03  0.90158228607E+03  0.25500000920E-02 0.  1.
    10030    2    1    2    0    0  0.00000000000E+00  0.00000000000E+00  0.13629357594E+04  0.31661003315E+04  0.28577259185E+04 0.  0.
        2    1    3    3  502    0 -0.12225058502E+04  0.42588246986E+03  0.13515036727E+04  0.18714856690E+04  0.25500000920E-02 0. -1.
       -2    1    3    3    0  502  0.12225058502E+04 -0.42588246986E+03  0.11432086698E+02  0.12946146625E+04  0.25500000920E-02 0.  1.
</event>
<event>
 5   0  0.2651061E-05  0.2772413E+04  0.7818609E-02  0.8311885E-01
       -2   -1    0    0    0  501  0.00000000000E+00  0.00000000000E+00  0.10919238782E+04  0.10919238782E+04  0.25500000920E-02 0.  1.
        2   -1    0    0  501    0  0.00000000000E+00  0.00000000000E+00 -0.17598005635E+04  0.17598005635E+04  0.25500000920E-02 0. -1.
    10030    2    1    2    0    0  0.00000000000E+00  0.00000000000E+00 -0.66787668537E+03  0.28517244417E+04  0.27724128525E+04 0.  0.
        3    1    3    3  502    0 -0.38819110582E+03 -0.10795719883E+04 -0.11342717517E+04  0.16133010970E+04  0.10100000352E+00 0. -1.
       -3    1    3    3    0  502  0.38819110582E+03  0.10795719883E+04  0.46639506635E+03  0.12384233447E+04  0.10100000352E+00 0.  1.
</event>
<event>
 5   0  0.1067434E-05  0.2102057E+04  0.7818609E-02  0.8560338E-01
       -1   -1    0    0    0  501  0.00000000000E+00  0.00000000000E+00  0.11247261521E+04  0.11247261522E+04  0.50400001928E-02 0.  1.
        1   -1    0    0  501    0  0.00000000000E+00  0.00000000000E+00 -0.98215978150E+03  0.98215978151E+03  0.50400001928E-02 0. -1.
    10030    2    1    2    0    0  0.00000000000E+00  0.00000000000E+00  0.14256637065E+03  0.21068859337E+04  0.21020568897E+04 0.  0.
        4    1    3    3  502    0 -0.19127286808E+03 -0.99325923927E+03 -0.21487217006E+03  0.10340797304E+04  0.12699999809E+01 0. -1.
       -4    1    3    3    0  502  0.19127286808E+03  0.99325923927E+03  0.35743854071E+03  0.10728062033E+04  0.12699999809E+01 0.  1.
</event>
<event>
 5   0  0.1078103E-05  0.2758946E+04  0.7818609E-02  0.8316129E-01
        1   -1    0    0  501    0  0.00000000000E+00  0.00000000000E+00  0.23301740812E+04  0.23301740812E+04  0.50400001928E-02 0. -1.
       -1   -1    0    0    0  501  0.00000000000E+00  0.00000000000E+00 -0.81665361954E+03  0.81665361955E+03  0.50400001928E-02 0.  1.
    10030    2    1    2    0    0  0.00000000000E+00  0.00000000000E+00  0.15135204617E+04  0.31468277008E+04  0.27589455215E+04 0.  0.
        1    1    3    3  502    0  0.47049439741E+03 -0.12894817419E+04  0.91322066596E+03  0.16486661656E+04  0.50400001928E-02 0. -1.
       -1    1    3    3    0  502 -0.47049439741E+03  0.12894817419E+04  0.60029979570E+03  0.14981615352E+04  0.50400001928E-02 0.  1.
</event>
<event>
 5   0  0.1105862E-05  0.2685568E+04  0.7818609E-02  0.8339703E-01
        1   -1    0    0  501    0  0.00000000000E+00  0.00000000000E+00  0.17936704171E+04  0.17936704171E+04  0.50400001928E-02 0. -1.
       -1   -1    0    0    0  501  0.00000000000E+00  0.00000000000E+00 -0.10052397596E+04  0.10052397596E+04  0.50400001928E-02 0.  1.
    10030    2    1    2    0    0  0.00000000000E+00  0.00000000000E+00  0.78843065744E+03  0.27989101767E+04  0.26855679615E+04 0.  0.
        3    1    3    3  502    0 -0.12898721889E+04  0.15357275983E+03  0.74873935901E+03  0.14993216781E+04  0.10100000352E+00 0.  1.
       -3    1    3    3    0  502  0.12898721889E+04 -0.15357275983E+03  0.39691298424E+02  0.12995884986E+04  0.10100000352E+00 0. -1.
</event>
<event>
 5   0  0.1075146E-05  0.2821624E+04  0.7818609E-02  0.8296586E-01
       -1   -1    0    0    0  501  0.00000000000E+00  0.00000000000E+00  0.12902452023E+04  0.12902452023E+04  0.50400001928E-02 0.  1.
        1   -1    0    0  501    0  0.00000000000E+00  0.00000000000E+00 -0.15426450546E+04  0.15426450546E+04  0.50400001928E-02 0. -1.
    10030    2    1    2    0    0  0.00000000000E+00  0.00000000000E+00 -0.25239985223E+03  0.28328902569E+04  0.28216239158E+04 0.  0.
        2    1    3    3  502    0 -0.83464661456E+03  0.11066425186E+04  0.13771415436E+03  0.13929313779E+04  0.25500000920E-02 0.  1.
       -2    1    3    3    0  502  0.83464661456E+03 -0.11066425186E+04 -0.39011400659E+03  0.14399588790E+04  0.25500000920E-02 0. -1.
</event>
<event>
 5   0  0.1078103E-05  0.2939342E+04  0.7818609E-02  0.8261267E-01
       -1   -1    0    0    0  501  0.00000000000E+00  0.00000000000E+00  0.84852400721E+03  0.84852400723E+03  0.50400001928E-02 0. -1.
        1   -1    0    0  501    0  0.00000000000E+00  0.00000000000E+00 -0.25455183802E+04  0.25455183802E+04  0.50400001928E-02 0.  1.
    10030    2    1    2    0    0  0.00000000000E+00  0.00000000000E+00 -0.16969943730E+04  0.33940423875E+04  0.29393424138E+04 0.  0.
        1    1    3    3  502    0 -0.86559008292E+03 -0.25339034319E+03  0.49138659550E+03  0.10270898909E+04  0.50400001928E-02 0. -1.
       -1    1    3    3    0  502  0.86559008292E+03  0.25339034319E+03 -0.21883809685E+04  0.23669524966E+04  0.50400001928E-02 0.  1.
</event>
<event>
 5   0  0.2624815E-05  0.2911753E+04  0.7818609E-02  0.8269389E-01
        2   -1    0    0  501    0  0.00000000000E+00  0.00000000000E+00  0.18336226573E+04  0.18336226573E+04  0.25500000920E-02 0. -1.
       -2   -1    0    0    0  501  0.00000000000E+00  0.00000000000E+00 -0.11559503610E+04  0.11559503610E+04  0.25500000920E-02 0.  1.
    10030    2    1    2    0    0  0.00000000000E+00  0.00000000000E+00  0.67767229626E+03  0.29895730183E+04  0.29117532674E+04 0.  0.
        4    1    3    3  502    0  0.11863050722E+04 -0.48589700685E+03 -0.36964913938E+03  0.13341880395E+04  0.12699999809E+01 0.  1.
       -4    1    3    3    0  502 -0.11863050722E+04  0.48589700685E+03  0.10473214356E+04  0.16553849788E+04  0.12699999809E+01 0. -1.
</event>
<event>
 5   0  0.2624815E-05  0.2796704E+04  0.7818609E-02  0.8304292E-01
       -2   -1    0    0    0  501  0.00000000000E+00  0.00000000000E+00  0.10879554554E+04  0.10879554554E+04  0.25500000920E-02 0.  1.
        2   -1    0    0  501    0  0.00000000000E+00  0.00000000000E+00 -0.17973056292E+04  0.17973056292E+04  0.25500000920E-02 0. -1.
    10030    2    1    2    0    0  0.00000000000E+00  0.00000000000E+00 -0.70935017384E+03  0.28852610846E+04  0.27967041061E+04 0.  0.
        4    1    3    3  502    0 -0.91032925169E+03 -0.79600897769E+03 -0.10790897895E+04  0.16207300904E+04  0.12699999809E+01 0. -1.
       -4    1    3    3    0  502  0.91032925169E+03  0.79600897769E+03  0.36973961570E+03  0.12645309942E+04  0.12699999809E+01 0.  1.
</event>
<event>
 5   0  0.2588048E-05  0.2858493E+04  0.7818609E-02  0.8285335E-01
        2   -1    0    0  501    0  0.00000000000E+00  0.00000000000E+00  0.25279157423E+04  0.25279157423E+04  0.25500000920E-02 0.  1.
       -2   -1    0    0    0  501  0.00000000000E+00  0.00000000000E+00 -0.80807520327E+03  0.80807520328E+03  0.25500000920E-02 0. -1.
    10030    2    1    2    0    0  0.00000000000E+00  0.00000000000E+00  0.17198405390E+04  0.33359909455E+04  0.28584933285E+04 0.  0.
        2    1    3    3  502    0  0.18232718985E+03  0.55363487924E+03  0.23828991739E+04  0.24531537369E+04  0.25500000920E-02 0.  1.
       -2    1    3    3    0  502 -0.18232718985E+03 -0.55363487924E+03 -0.66305863492E+03  0.88283720868E+03  0.25500000920E-02 0. -1.
</event>
<event>
 5   0  0.8958000E-06  0.2000158E+04  0.7818609E-02  0.8606547E-01
       -3   -1    0    0    0  501  0.00000000000E+00  0.00000000000E+00  0.62835640096E+03  0.62835640908E+03  0.10100000352E+00 0.  1.
        3   -1    0    0  501    0  0.00000000000E+00  0.00000000000E+00 -0.15917050890E+04  0.15917050922E+04  0.10100000352E+00 0. -1.
    10030    2    1    2    0    0  0.00000000000E+00  0.00000000000E+00 -0.96334868807E+03  0.22200615013E+04  0.20001580875E+04 0.  0.
        2    1    3    3  502    0 -0.87557195159E+03  0.46417681549E+03 -0.33246342308E+03  0.10452838304E+04  0.25500000920E-02 0.  1.
       -2    1    3    3    0  502  0.87557195159E+03 -0.46417681549E+03 -0.63088526500E+03  0.11747776709E+04  0.25500000920E-02 0. -1.
</event>
<event>
 5   0  0.1067434E-05  0.2845165E+04  0.7818609E-02  0.8289382E-01
       -1   -1    0    0    0  501  0.00000000000E+00  0.00000000000E+00  0.19634387803E+04  0.19634387803E+04  0.50400001928E-02 0. -1.
        1   -1    0    0  501    0  0.00000000000E+00  0.00000000000E+00 -0.10307127916E+04  0.10307127916E+04  0.50400001928E-02 0.  1.
    10030    2    1    2    0    0  0.00000000000E+00  0.00000000000E+00  0.93272598870E+03  0.29941515720E+04  0.28451653495E+04 0.  0.
        4    1    3    3  502    0  0.11007842976E+04 -0.61776495598E+03  0.11567497225E+04  0.17121422675E+04  0.12699999809E+01 0. -1.
       -4    1    3    3    0  502 -0.11007842976E+04  0.61776495598E+03 -0.22402373384E+03  0.12820093045E+04  0.12699999809E+01 0.  1.
</event>
<event>
 5   0  0.1105862E-05  0.2159914E+04  0.7818609E-02  0.8535301E-01
        1   -1    0    0  501    0  0.00000000000E+00  0.00000000000E+00  0.10290254694E+04  0.10290254694E+04  0.50400001928E-02 0.  1.
       -1   -1    0    0    0  501  0.00000000000E+00  0.00000000000E+00 -0.11334090388E+04  0.11334090389E+04  0.50400001928E-02 0. -1.
    10030    2    1    2    0    0  0.00000000000E+00  0.00000000000E+00 -0.10438356949E+03  0.21624345082E+04  0.21599136725E+04 0.  0.
        3    1    3    3  502    0 -0.21168126492E+03 -0.64625234041E+03 -0.89213202763E+03  0.11217622789E+04  0.10100000352E+00 0. -1.
       -3    1    3    3    0  502  0.21168126492E+03  0.64625234041E+03  0.78774845814E+03  0.10406722293E+04  0.10100000352E+00 0.  1.
</event>
<event>
 5   0  0.1067434E-05  0.2782447E+04  0.7818609E-02  0.8308739E-01
       -1   -1    0    0    0  501  0.00000000000E+00  0.00000000000E+00  0.10011676003E+04  0.10011676003E+04  0.50400001928E-02 0.  1.
        1   -1    0    0  501    0  0.00000000000E+00  0.00000000000E+00 -0.19332459269E+04  0.19332459269E+04  0.50400001928E-02 0. -1.
    10030    2    1    2    0    0  0.00000000000E+00  0.00000000000E+00 -0.93207832663E+03  0.29344135272E+04  0.27824472576E+04 0.  0.
        4    1    3    3  502    0  0.30688418033E+02 -0.94739628757E+03 -0.15399884343E+04  0.18083327944E+04  0.12699999809E+01 0. -1.
       -4    1    3    3    0  502 -0.30688418033E+02  0.94739628757E+03  0.60791010770E+03  0.11260807327E+04  0.12699999809E+01 0.  1.
</event>
<event>
 5   0  0.1067434E-05  0.2531371E+04  0.7818609E-02  0.8391894E-01
        1   -1    0    0  501    0  0.00000000000E+00  0.00000000000E+00  0.14591493886E+04  0.14591493886E+04  0.50400001928E-02 0.  1.
       -1   -1    0    0    0  501  0.00000000000E+00  0.00000000000E+00 -0.10978725858E+04  0.10978725858E+04  0.50400001928E-02 0. -1.
    10030    2    1    2    0    0  0.00000000000E+00  0.00000000000E+00  0.36127680283E+03  0.25570219744E+04  0.25313712587E+04 0.  0.
        4    1    3    3  502    0 -0.12187266677E+04 -0.28705297290E+03  0.36762056387E+03  0.13049293436E+04  0.12699999809E+01 0.  1.
       -4    1    3    3    0  502  0.12187266677E+04  0.28705297290E+03 -0.63437610374E+01  0.12520926308E+04  0.12699999809E+01 0. -1.
</event>
<event>
 5   0  0.2697964E-05  0.2684962E+04  0.7818609E-02  0.8339901E-01
       -2   -1    0    0    0  501  0.00000000000E+00  0.00000000000E+00  0.13394497774E+04  0.13394497774E+04  0.25500000920E-02 0. -1.
        2   -1    0    0  501    0  0.00000000000E+00  0.00000000000E+00 -0.13455188366E+04  0.13455188366E+04  0.25500000920E-02 0.  1.
    10030    2    1    2    0    0  0.00000000000E+00  0.00000000000E+00 -0.60690591777E+01  0.26849686140E+04  0.26849617548E+04 0.  0.
        1    1    3    3  502    0  0.40298296010E+02  0.10880613894E+04 -0.78837300295E+03  0.13442594733E+04  0.50400001928E-02 0.  1.
       -1    1    3    3    0  502 -0.40298296010E+02 -0.10880613894E+04  0.78230394377E+03  0.13407091408E+04  0.50400001928E-02 0. -1.
</event>
<event>
 5   0  0.2588048E-05  0.1931750E+04  0.7818609E-02  0.8639212E-01
       -2   -1    0    0    0  501  0.00000000000E+00  0.00000000000E+00  0.56374474523E+03  0.56374474523E+03  0.25500000920E-02 0.  1.
        2   -1    0    0  501    0  0.00000000000E+00  0.00000000000E+00 -0.16548525025E+04  0.16548525025E+04  0.25500000920E-02 0. -1.
    10030    2    1    2    0    0  0.00000000000E+00  0.00000000000E+00 -0.10911077573E+04  0.22185972478E+04  0.19317498828E+04 0.  0.
        2    1    3    3  502    0  0.65916938896E+03 -0.63011783567E+03 -0.91120286436E+03  0.12891250638E+04  0.25500000920E-02 0. -1.
       -2    1    3    3    0  502 -0.65916938896E+03  0.63011783567E+03 -0.17990489293E+03  0.92947218392E+03  0.25500000920E-02 0.  1.
</event>
<event>
 5   0  0.2651061E-05  0.2675128E+04  0.7818609E-02  0.8343120E-01
       -2   -1    0    0    0  501  0.00000000000E+00  0.00000000000E+00  0.74953917303E+03  0.74953917303E+03  0.25500000920E-02 0.  1.
        2   -1    0    0  501    0  0.00000000000E+00  0.00000000000E+00 -0.23869035652E+04  0.23869035652E+04  0.25500000920E-02 0. -1.
    10030    2    1    2    0    0  0.00000000000E+00  0.00000000000E+00 -0.16373643921E+04  0.31364427382E+04  0.26751282020E+04 0.  0.
        3    1    3    3  502    0  0.15234125381E+03  0.25278816425E+03  0.71088463908E+03  0.76971858097E+03  0.10100000352E+00 0.  1.
       -3    1    3    3    0  502 -0.15234125381E+03 -0.25278816425E+03 -0.23482490312E+04  0.23667241572E+04  0.10100000352E+00 0. -1.
</event>
<event>
 5   0  0.2518686E-05  0.2659683E+04  0.7818609E-02  0.8348206E-01
       -2   -1    0    0    0  501  0.00000000000E+00  0.00000000000E+00  0.25611350078E+04  0.25611350078E+04  0.25500000920E-02 0.  1.
        2   -1    0    0  501    0  0.00000000000E+00  0.00000000000E+00 -0.69050565715E+03  0.69050565715E+03  0.25500000920E-02 0. -1.
    10030    2    1    2    0    0  0.00000000000E+00  0.00000000000E+00  0.18706293506E+04  0.32516406649E+04  0.26596828470E+04 0.  0.
        5    1    3    3  502    0  0.76468155981E+03  0.39337989345E+03  0.21754644946E+04  0.23392634494E+04  0.46999998093E+01 0.  1.
       -5    1    3    3    0  502 -0.76468155981E+03 -0.39337989345E+03 -0.30483514394E+03  0.91237721556E+03  0.46999998093E+01 0. -1.
</event>
<event>
 5   0  0.1017456E-05  0.1487086E+04  0.7818609E-02  0.8893086E-01
        1   -1    0    0  501    0  0.00000000000E+00  0.00000000000E+00  0.13010680812E+04  0.13010680812E+04  0.50400001928E-02 0.  1.
       -1   -1    0    0    0  501  0.00000000000E+00  0.00000000000E+00 -0.42492485737E+03  0.42492485740E+03  0.50400001928E-02 0. -1.
    10030    2    1    2    0    0  0.00000000000E+00  0.00000000000E+00  0.87614322385E+03  0.17259929386E+04  0.14870859678E+04 0.  0.
        5    1    3    3  502    0 -0.27207318597E+03  0.30956127804E+03  0.11563489478E+04  0.12276062001E+04  0.46999998093E+01 0.  1.
       -5    1    3    3    0  502  0.27207318597E+03 -0.30956127804E+03 -0.28020572399E+03  0.49838673852E+03  0.46999998093E+01 0. -1.
</event>
<event>
 5   0  0.1075146E-05  0.2049328E+04  0.7818609E-02  0.8583899E-01
       -1   -1    0    0    0  501  0.00000000000E+00  0.00000000000E+00  0.64964593429E+03  0.64964593431E+03  0.50400001928E-02 0. -1.
        1   -1    0    0  501    0  0.00000000000E+00  0.00000000000E+00 -0.16161670652E+04  0.16161670652E+04  0.50400001928E-02 0.  1.
    10030    2    1    2    0    0  0.00000000000E+00  0.00000000000E+00 -0.96652113094E+03  0.22658129996E+04  0.20493280490E+04 0.  0.
        2    1    3    3  502    0 -0.79760569688E+03  0.26405088620E+03  0.16524871298E+03  0.85627382031E+03  0.25500000920E-02 0. -1.
       -2    1    3    3    0  502  0.79760569688E+03 -0.26405088620E+03 -0.11317698439E+04  0.14095391792E+04  0.25500000920E-02 0.  1.
</event>
<event>
 5   0  0.1017456E-05  0.2498861E+04  0.7818609E-02  0.8403391E-01
        1   -1    0    0  501    0  0.00000000000E+00  0.00000000000E+00  0.87088794901E+03  0.87088794902E+03  0.50400001928E-02 0. -1.
       -1   -1    0    0    0  501  0.00000000000E+00  0.00000000000E+00 -0.17925117915E+04  0.17925117915E+04  0.50400001928E-02 0.  1.
    10030    2    1    2    0    0  0.00000000000E+00  0.00000000000E+00 -0.92162384246E+03  0.26633997405E+04  0.24988612748E+04 0.  0.
        5    1    3    3  502    0 -0.38111386345E+03 -0.49637571671E+03 -0.16134132883E+04  0.17305378233E+04  0.46999998093E+01 0.  1.
       -5    1    3    3    0  502  0.38111386345E+03  0.49637571671E+03  0.69178944587E+03  0.93286191715E+03  0.46999998093E+01 0. -1.
</event>
<event>
 5   0  0.2588048E-05  0.2750303E+04  0.7818609E-02  0.8318865E-01
        2   -1    0    0  501    0  0.00000000000E+00  0.00000000000E+00  0.13842856816E+04  0.13842856816E+04  0.25500000920E-02 0.  1.
       -2   -1    0    0    0  501  0.00000000000E+00  0.00000000000E+00 -0.13660777729E+04  0.13660777729E+04  0.25500000920E-02 0. -1.
    10030    2    1    2    0    0  0.00000000000E+00  0.00000000000E+00  0.18207908645E+02  0.27503634545E+04  0.27503031840E+04 0.  0.
        2    1    3    3  502    0 -0.95812885407E+03  0.95413739691E+03  0.25941490857E+03  0.13768388315E+04  0.25500000920E-02 0. -1.
       -2    1    3    3    0  502  0.95812885407E+03 -0.95413739691E+03 -0.24120699993E+03  0.13735246230E+04  0.25500000920E-02 0.  1.
</event>
<event>
 5   0  0.2697964E-05  0.2822855E+04  0.7818609E-02  0.8296208E-01
       -2   -1    0    0    0  501  0.00000000000E+00  0.00000000000E+00  0.12004449017E+04  0.12004449017E+04  0.25500000920E-02 0. -1.
        2   -1    0    0  501    0  0.00000000000E+00  0.00000000000E+00 -0.16594911194E+04  0.16594911194E+04  0.25500000920E-02 0.  1.
    10030    2    1    2    0    0  0.00000000000E+00  0.00000000000E+00 -0.45904621769E+03  0.28599360212E+04  0.28228550468E+04 0.  0.
        1    1    3    3  502    0 -0.15922974203E+03 -0.47285734845E+03  0.11081154872E+04  0.12152646278E+04  0.50400001928E-02 0. -1.
       -1    1    3    3    0  502  0.15922974203E+03  0.47285734845E+03 -0.15671617049E+04  0.16446713933E+04  0.50400001928E-02 0.  1.
</event>
<event>
 5   0  0.2697964E-05  0.2827643E+04  0.7818609E-02  0.8294737E-01
        2   -1    0    0  501    0  0.00000000000E+00  0.00000000000E+00  0.24029002392E+04  0.24029002392E+04  0.25500000920E-02 0.  1.
       -2   -1    0    0    0  501  0.00000000000E+00  0.00000000000E+00 -0.83186613632E+03  0.83186613633E+03  0.25500000920E-02 0. -1.
    10030    2    1    2    0    0  0.00000000000E+00  0.00000000000E+00  0.15710341029E+04  0.32347663755E+04  0.28276430736E+04 0.  0.
        1    1    3    3  502    0 -0.46144480314E+03 -0.11507218846E+04  0.15629177172E+04  0.19949445989E+04  0.50400001928E-02 0.  1.
       -1    1    3    3    0  502  0.46144480314E+03  0.11507218846E+04  0.81163856440E+01  0.12398217766E+04  0.50400001928E-02 0. -1.
</event>
<event>
 5   0  0.2651061E-05  0.2453662E+04  0.7818609E-02  0.8419682E-01
       -2   -1    0    0    0  501  0.00000000000E+00  0.00000000000E+00  0.71328987115E+03  0.71328987115E+03  0.25500000920E-02 0. -1.
        2   -1    0    0  501    0  0.00000000000E+00  0.00000000000E+00 -0.21101017860E+04  0.21101017860E+04  0.25500000920E-02 0.  1.
    10030    2    1    2    0    0  0.00000000000E+00  0.00000000000E+00 -0.13968119148E+04  0.28233916572E+04  0.24536619417E+04 0.  0.
        3    1    3    3  502    0 -0.81179478521E+03  0.49146361038E+03  0.19629645320E+03  0.96906117524E+03  0.10100000352E+00 0. -1.
       -3    1    3    3    0  502  0.81179478521E+03 -0.49146361038E+03 -0.15931083680E+04  0.18543304819E+04  0.10100000352E+00 0.  1.
</event>
<event>
 5   0  0.1067434E-05  0.2814838E+04  0.7818609E-02  0.8298677E-01
        1   -1    0    0  501    0  0.00000000000E+00  0.00000000000E+00  0.16107100108E+04  0.16107100108E+04  0.50400001928E-02 0. -1.
       -1   -1    0    0    0  501  0.00000000000E+00  0.00000000000E+00 -0.12297854050E+04  0.12297854050E+04  0.50400001928E-02 0.  1.
    10030    2    1    2    0    0  0.00000000000E+00  0.00000000000E+00  0.38092460582E+03  0.28404954158E+04  0.28148375889E+04 0.  0.
        4    1    3    3  502    0 -0.11611805334E+03  0.33740098662E+03 -0.11833817037E+04  0.12360083728E+04  0.12699999809E+01 0.  1.
       -4    1    3    3    0  502  0.11611805334E+03 -0.33740098662E+03  0.15643063096E+04  0.16044870430E+04  0.12699999809E+01 0. -1.
</event>
<event>
 5   0  0.2651061E-05  0.2493979E+04  0.7818609E-02  0.8405134E-01
       -2   -1    0    0    0  501  0.00000000000E+00  0.00000000000E+00  0.85427516844E+03  0.85427516844E+03  0.25500000920E-02 0.  1.
        2   -1    0    0  501    0  0.00000000000E+00  0.00000000000E+00 -0.18202367329E+04  0.18202367329E+04  0.25500000920E-02 0. -1.
    10030    2    1    2    0    0  0.00000000000E+00  0.00000000000E+00 -0.96596156450E+03  0.26745119014E+04  0.24939791833E+04 0.  0.
        3    1    3    3  502    0  0.72344084357E+03  0.75791362126E+03  0.24211753819E+03  0.10753699940E+04  0.10100000352E+00 0. -1.
       -3    1    3    3    0  502 -0.72344084357E+03 -0.75791362126E+03 -0.12080791027E+04  0.15991419074E+04  0.10100000352E+00 0.  1.
</event>
<event>
 5   0  0.1075146E-05  0.2811642E+04  0.7818609E-02  0.8299663E-01
       -1   -1    0    0    0  501  0.00000000000E+00  0.00000000000E+00  0.11315107714E+04  0.11315107714E+04  0.50400001928E-02 0. -1.
        1   -1    0    0  501    0  0.00000000000E+00  0.00000000000E+00 -0.17466315359E+04  0.17466315359E+04  0.50400001928E-02 0.  1.
    10030    2    1    2    0    0  0.00000000000E+00  0.00000000000E+00 -0.61512076453E+03  0.28781423072E+04  0.28116417954E+04 0.  0.
        2    1    3    3  502    0  0.11041095213E+04 -0.60296238125E+03  0.33474418129E+03  0.13017968871E+04  0.25500000920E-02 0. -1.
       -2    1    3    3    0  502 -0.11041095213E+04  0.60296238125E+03 -0.94986494582E+03  0.15763454202E+04  0.25500000920E-02 0.  1.
</event>
<event>
 5   0  0.2518686E-05  0.2782445E+04  0.7818609E-02  0.8308739E-01
        2   -1    0    0  501    0  0.00000000000E+00  0.00000000000E+00  0.20108017462E+04  0.20108017462E+04  0.25500000920E-02 0. -1.
       -2   -1    0    0    0  501  0.00000000000E+00  0.00000000000E+00 -0.96255107565E+03  0.96255107565E+03  0.25500000920E-02 0.  1.
    10030    2    1    2    0    0  0.00000000000E+00  0.00000000000E+00  0.10482506706E+04  0.29733528219E+04  0.27824445251E+04 0.  0.
        5    1    3    3  502    0  0.63488892020E+03 -0.52125539515E+03 -0.67571491101E+03  0.10636746960E+04  0.46999998093E+01 0.  1.
       -5    1    3    3    0  502 -0.63488892020E+03  0.52125539515E+03  0.17239655816E+04  0.19096781259E+04  0.46999998093E+01 0. -1.
</event>
<event>
 5   0  0.2651061E-05  0.2655342E+04  0.7818609E-02  0.8349642E-01
       -2   -1    0    0    0  501  0.00000000000E+00  0.00000000000E+00  0.13018465450E+04  0.13018465450E+04  0.25500000920E-02 0.  1.
        2   -1    0    0  501    0  0.00000000000E+00  0.00000000000E+00 -0.13540079381E+04  0.13540079381E+04  0.25500000920E-02 0. -1.
    10030    2    1    2    0    0  0.00000000000E+00  0.00000000000E+00 -0.52161393174E+02  0.26558544831E+04  0.26553422048E+04 0.  0.
        3    1    3    3  502    0  0.70998075238E+03  0.75743287713E+03 -0.85384734181E+03  0.13441847066E+04  0.10100000352E+00 0. -1.
       -3    1    3    3    0  502 -0.70998075238E+03 -0.75743287713E+03  0.80168594864E+03  0.13116697765E+04  0.10100000352E+00 0.  1.
</event>
<event>
 5   0  0.1075146E-05  0.2777483E+04  0.7818609E-02  0.8310293E-01
       -1   -1    0    0    0  501  0.00000000000E+00  0.00000000000E+00  0.10929266728E+04  0.10929266729E+04  0.50400001928E-02 0.  1.
        1   -1    0    0  501    0  0.00000000000E+00  0.00000000000E+00 -0.17646227315E+04  0.17646227315E+04  0.50400001928E-02 0. -1.
    10030    2    1    2    0    0  0.00000000000E+00  0.00000000000E+00 -0.67169605867E+03  0.28575494044E+04  0.27774832138E+04 0.  0.
        2    1    3    3  502    0  0.12423751026E+04  0.50456090726E+03  0.35849976166E+02  0.13414033045E+04  0.25500000920E-02 0.  1.
       -2    1    3    3    0  502 -0.12423751026E+04 -0.50456090726E+03 -0.70754603484E+03  0.15161460998E+04  0.25500000920E-02 0. -1.
</event>
<event>
 5   0  0.1075146E-05  0.2806990E+04  0.7818609E-02  0.8301102E-01
       -1   -1    0    0    0  501  0.00000000000E+00  0.00000000000E+00  0.96139817561E+03  0.96139817563E+03  0.50400001928E-02 0. -1.
        1   -1    0    0  501    0  0.00000000000E+00  0.00000000000E+00 -0.20488887608E+04  0.20488887608E+04  0.50400001928E-02 0.  1.
    10030    2    1    2    0    0  0.00000000000E+00  0.00000000000E+00 -0.10874905851E+04  0.30102869364E+04  0.28069897874E+04 0.  0.
        2    1    3    3  502    0 -0.59535490527E+03  0.10486328333E+04 -0.13138927650E+04  0.17833654926E+04  0.25500000920E-02 0.  1.
       -2    1    3    3    0  502  0.59535490527E+03 -0.10486328333E+04  0.22640217981E+03  0.12269214438E+04  0.25500000920E-02 0. -1.
</event>
<event>
 5   0  0.1017456E-05  0.2776253E+04  0.7818609E-02  0.8310679E-01
        1   -1    0    0  501    0  0.00000000000E+00  0.00000000000E+00  0.20237805767E+04  0.20237805767E+04  0.50400001928E-02 0.  1.
       -1   -1    0    0    0  501  0.00000000000E+00  0.00000000000E+00 -0.95212657085E+03  0.95212657087E+03  0.50400001928E-02 0. -1.
    10030    2    1    2    0    0  0.00000000000E+00  0.00000000000E+00  0.10716540059E+04  0.29759071476E+04  0.27762530581E+04 0.  0.
        5    1    3    3  502    0  0.97573807749E+03  0.37196573593E+03  0.15161750421E+04  0.18409867335E+04  0.46999998093E+01 0.  1.
       -5    1    3    3    0  502 -0.97573807749E+03 -0.37196573593E+03 -0.44452103628E+03  0.11349204141E+04  0.46999998093E+01 0. -1.
</event>
<event>
 5   0  0.2588048E-05  0.2255318E+04  0.7818609E-02  0.8495750E-01
        2   -1    0    0  501    0  0.00000000000E+00  0.00000000000E+00  0.13717314643E+04  0.13717314643E+04  0.25500000920E-02 0. -1.
       -2   -1    0    0    0  501  0.00000000000E+00  0.00000000000E+00 -0.92701432822E+03  0.92701432822E+03  0.25500000920E-02 0.  1.
    10030    2    1    2    0    0  0.00000000000E+00  0.00000000000E+00  0.44471713611E+03  0.22987457926E+04  0.22553179128E+04 0.  0.
        2    1    3    3  502    0 -0.37672147773E+02  0.53912016803E+03  0.12311360254E+04  0.13445317622E+04  0.25500000920E-02 0. -1.
       -2    1    3    3    0  502  0.37672147773E+02 -0.53912016803E+03 -0.78641888933E+03  0.95421403040E+03  0.25500000920E-02 0.  1.
</event>
<event>
 5   0  0.2588048E-05  0.2804461E+04  0.7818609E-02  0.8301885E-01
       -2   -1    0    0    0  501  0.00000000000E+00  0.00000000000E+00  0.15358828077E+04  0.15358828077E+04  0.25500000920E-02 0.  1.
        2   -1    0    0  501    0  0.00000000000E+00  0.00000000000E+00 -0.12802087271E+04  0.12802087271E+04  0.25500000920E-02 0. -1.
    10030    2    1    2    0    0  0.00000000000E+00  0.00000000000E+00  0.25567408057E+03  0.28160915348E+04  0.28044611420E+04 0.  0.
        2    1    3    3  502    0 -0.11637847516E+04  0.71661519793E+03 -0.18702078095E+03  0.13794596995E+04  0.25500000920E-02 0.  1.
       -2    1    3    3    0  502  0.11637847516E+04 -0.71661519793E+03  0.44269486152E+03  0.14366318353E+04  0.25500000920E-02 0. -1.
</event>
<event>
 5   0  0.1105862E-05  0.2595050E+04  0.7818609E-02  0.8369884E-01
       -1   -1    0    0    0  501  0.00000000000E+00  0.00000000000E+00  0.15643899256E+04  0.15643899256E+04  0.50400001928E-02 0. -1.
        1   -1    0    0  501    0  0.00000000000E+00  0.00000000000E+00 -0.10761840238E+04  0.10761840239E+04  0.50400001928E-02 0.  1.
    10030    2    1    2    0    0  0.00000000000E+00  0.00000000000E+00  0.48820590171E+03  0.26405739494E+04  0.25950502461E+04 0.  0.
        3    1    3    3  502    0  0.65450996931E+03 -0.31352348948E+03 -0.85035432773E+03  0.11179368369E+04  0.10100000352E+00 0.  1.
       -3    1    3    3    0  502 -0.65450996931E+03  0.31352348948E+03  0.13385602294E+04  0.15226371125E+04  0.10100000352E+00 0. -1.
</event>
<event>
 5   0  0.2624815E-05  0.2853365E+04  0.7818609E-02  0.8286889E-01
       -2   -1    0    0    0  501  0.00000000000E+00  0.00000000000E+00  0.15554174027E+04  0.15554174027E+04  0.25500000920E-02 0. -1.
        2   -1    0    0  501    0  0.00000000000E+00  0.00000000000E+00 -0.13086026505E+04  0.13086026505E+04  0.25500000920E-02 0.  1.
    10030    2    1    2    0    0  0.00000000000E+00  0.00000000000E+00  0.24681475219E+03  0.28640200532E+04  0.28533652664E+04 0.  0.
        4    1    3    3  502    0 -0.11570550690E+04 -0.79889995758E+03 -0.11916454675E+03  0.14111057285E+04  0.12699999809E+01 0.  1.
       -4    1    3    3    0  502  0.11570550690E+04  0.79889995758E+03  0.36597929894E+03  0.14529143247E+04  0.12699999809E+01 0. -1.
</event>
<event>
 5   0  0.1078103E-05  0.2626114E+04  0.7818609E-02  0.8359385E-01
        1   -1    0    0  501    0  0.00000000000E+00  0.00000000000E+00  0.21499116654E+04  0.21499116654E+04  0.50400001928E-02 0.  1.
       -1   -1    0    0    0  501  0.00000000000E+00  0.00000000000E+00 -0.80194882008E+03  0.80194882009E+03  0.50400001928E-02 0. -1.
    10030    2    1    2    0    0  0.00000000000E+00  0.00000000000E+00  0.13479628453E+04  0.29518604855E+04  0.26261143337E+04 0.  0.
        1    1    3    3  502    0  0.86909689830E+03  0.61238653790E+03 -0.19216678835E+03  0.10804049079E+04  0.50400001928E-02 0. -1.
       -1    1    3    3    0  502 -0.86909689830E+03 -0.61238653790E+03  0.15401296337E+04  0.18714555776E+04  0.50400001928E-02 0.  1.
</event>
<event>
 5   0  0.2588048E-05  0.2798736E+04  0.7818609E-02  0.8303661E-01
        2   -1    0    0  501    0  0.00000000000E+00  0.00000000000E+00  0.28668145695E+04  0.28668145695E+04  0.25500000920E-02 0.  1.
       -2   -1    0    0    0  501  0.00000000000E+00  0.00000000000E+00 -0.68306837628E+03  0.68306837628E+03  0.25500000920E-02 0. -1.
    10030    2    1    2    0    0  0.00000000000E+00  0.00000000000E+00  0.21837461932E+04  0.35498829457E+04  0.27987356953E+04 0.  0.
        2    1    3    3  502    0 -0.59138552036E+03 -0.19424650019E+03 -0.49779814097E+03  0.79703922469E+03  0.25500000920E-02 0. -1.
       -2    1    3    3    0  502  0.59138552036E+03  0.19424650019E+03  0.26815443342E+04  0.27528437211E+04  0.25500000920E-02 0.  1.
</event>
<event>
 5   0  0.1105862E-05  0.2544371E+04  0.7818609E-02  0.8387346E-01
       -1   -1    0    0    0  501  0.00000000000E+00  0.00000000000E+00  0.14927113667E+04  0.14927113667E+04  0.50400001928E-02 0.  1.
        1   -1    0    0  501    0  0.00000000000E+00  0.00000000000E+00 -0.10842393759E+04  0.10842393759E+04  0.50400001928E-02 0. -1.
    10030    2    1    2    0    0  0.00000000000E+00  0.00000000000E+00  0.40847199082E+03  0.25769507427E+04  0.25443713886E+04 0.  0.
        3    1    3    3  502    0  0.43950853610E+03 -0.11503934025E+04 -0.11904335219E+03  0.12372324211E+04  0.10100000352E+00 0. -1.
       -3    1    3    3    0  502 -0.43950853610E+03  0.11503934025E+04  0.52751534301E+03  0.13397183216E+04  0.10100000352E+00 0.  1.
</event>
<event>
 5   0  0.2697964E-05  0.1521995E+04  0.7818609E-02  0.8869957E-01
        2   -1    0    0  501    0  0.00000000000E+00  0.00000000000E+00  0.12840456508E+04  0.12840456508E+04  0.25500000920E-02 0. -1.
       -2   -1    0    0    0  501  0.00000000000E+00  0.00000000000E+00 -0.45100961927E+03  0.45100961928E+03  0.25500000920E-02 0.  1.
    10030    2    1    2    0    0  0.00000000000E+00  0.00000000000E+00  0.83303603153E+03  0.17350552701E+04  0.15219946650E+04 0.  0.
        1    1    3    3  502    0  0.68607069699E+03 -0.30315010905E+03  0.26997770022E+03  0.79717058935E+03  0.50400001928E-02 0.  1.
       -1    1    3    3    0  502 -0.68607069699E+03  0.30315010905E+03  0.56305833131E+03  0.93788468074E+03  0.50400001928E-02 0. -1.
</event>
<event>
 5   0  0.2518686E-05  0.2036141E+04  0.7818609E-02  0.8589907E-01
       -2   -1    0    0    0  501  0.00000000000E+00  0.00000000000E+00  0.69140596553E+03  0.69140596553E+03  0.25500000920E-02 0.  1.
        2   -1    0    0  501    0  0.00000000000E+00  0.00000000000E+00 -0.14990727176E+04  0.14990727176E+04  0.25500000920E-02 0. -1.
    10030    2    1    2    0    0  0.00000000000E+00  0.00000000000E+00 -0.80766675207E+03  0.21904786831E+04  0.20361412718E+04 0.  0.
        5    1    3    3  502    0 -0.17633696072E+02  0.25002289415E+03 -0.14653495389E+04  0.14866384080E+04  0.46999998093E+01 0. -1.
       -5    1    3    3    0  502  0.17633696072E+02 -0.25002289415E+03  0.65768278684E+03  0.70384027517E+03  0.46999998093E+01 0.  1.
</event>
<event>
 5   0  0.1078103E-05  0.2913350E+04  0.7818609E-02  0.8268917E-01
       -1   -1    0    0    0  501  0.00000000000E+00  0.00000000000E+00  0.17819950322E+04  0.17819950322E+04  0.50400001928E-02 0. -1.
        1   -1    0    0  501    0  0.00000000000E+00  0.00000000000E+00 -0.11907452137E+04  0.11907452137E+04  0.50400001928E-02 0.  1.
    10030    2    1    2    0    0  0.00000000000E+00  0.00000000000E+00  0.59124981852E+03  0.29727402458E+04  0.29133499998E+04 0.  0.
        1    1    3    3  502    0  0.13319464378E+04  0.16885661004E+03  0.87221785876E+03  0.16010489877E+04  0.50400001928E-02 0. -1.
       -1    1    3    3    0  502 -0.13319464378E+04 -0.16885661004E+03 -0.28096804024E+03  0.13716912581E+04  0.50400001928E-02 0.  1.
</event>
<event>
 5   0  0.1067434E-05  0.2490724E+04  0.7818609E-02  0.8406298E-01
       -1   -1    0    0    0  501  0.00000000000E+00  0.00000000000E+00  0.73659431387E+03  0.73659431388E+03  0.50400001928E-02 0. -1.
        1   -1    0    0  501    0  0.00000000000E+00  0.00000000000E+00 -0.21055369627E+04  0.21055369627E+04  0.50400001928E-02 0.  1.
    10030    2    1    2    0    0  0.00000000000E+00  0.00000000000E+00 -0.13689426489E+04  0.28421312766E+04  0.24907240348E+04 0.  0.
        4    1    3    3  502    0  0.75985750305E+03 -0.54674298163E+03 -0.16217011000E+04  0.18724922920E+04  0.12699999809E+01 0.  1.
       -4    1    3    3    0  502 -0.75985750305E+03  0.54674298163E+03  0.25275845118E+03  0.96963898460E+03  0.12699999809E+01 0. -1.
</event>
<event>
 5   0  0.1067434E-05  0.1847261E+04  0.7818609E-02  0.8681563E-01
        1   -1    0    0  501    0  0.00000000000E+00  0.00000000000E+00  0.11367156018E+04  0.11367156018E+04  0.50400001928E-02 0. -1.
       -1   -1    0    0    0  501  0.00000000000E+00  0.00000000000E+00 -0.75048946326E+03  0.75048946328E+03  0.50400001928E-02 0.  1.
    10030    2    1    2    0    0  0.00000000000E+00  0.00000000000E+00  0.38622613852E+03  0.18872050651E+04  0.18472607633E+04 0.  0.
        4    1    3    3  502    0 -0.36580057257E+03 -0.84723492550E+03  0.15388497232E+03  0.93557430249E+03  0.12699999809E+01 0. -1.
       -4    1    3    3    0  502  0.36580057257E+03  0.84723492550E+03  0.23234116620E+03  0.95163076258E+03  0.12699999809E+01 0.  1.
</event>
<event>
 5   0  0.2588048E-05  0.2789581E+04  0.7818609E-02  0.8306510E-01
        2   -1    0    0  501    0  0.00000000000E+00  0.00000000000E+00  0.13446796397E+04  0.13446796397E+04  0.25500000920E-02 0. -1.
       -2   -1    0    0    0  501  0.00000000000E+00  0.00000000000E+00 -0.14467685282E+04  0.14467685282E+04  0.25500000920E-02 0.  1.
    10030    2    1    2    0    0  0.00000000000E+00  0.00000000000E+00 -0.10208888849E+03  0.27914481679E+04  0.27895807450E+04 0.  0.
        2    1    3    3  502    0 -0.21060087665E+03  0.13145198850E+04  0.36531692851E+03  0.13804969089E+04  0.25500000920E-02 0.  1.
       -2    1    3    3    0  502  0.21060087665E+03 -0.13145198850E+04 -0.46740581699E+03  0.14109512589E+04  0.25500000920E-02 0. -1.
</event>
<event>
 5   0  0.2588048E-05  0.2757127E+04  0.7818609E-02  0.8316704E-01
        2   -1    0    0  501    0  0.00000000000E+00  0.00000000000E+00  0.15738243151E+04  0.15738243151E+04  0.25500000920E-02 0. -1.
       -2   -1    0    0    0  501  0.00000000000E+00  0.00000000000E+00 -0.12075282289E+04  0.12075282289E+04  0.25500000920E-02 0.  1.
    10030    2    1    2    0    0  0.00000000000E+00  0.00000000000E+00  0.36629608615E+03  0.27813525440E+04  0.27571269741E+04 0.  0.
        2    1    3    3  502    0 -0.68881279395E+01  0.87713284301E+03 -0.88969432577E+03  0.12493860348E+04  0.25500000920E-02 0.  1.
       -2    1    3    3    0  502  0.68881279395E+01 -0.87713284301E+03  0.12559904119E+04  0.15319665092E+04  0.25500000920E-02 0. -1.
</event>
<event>
 5   0  0.2624815E-05  0.2765568E+04  0.7818609E-02  0.8314038E-01
        2   -1    0    0  501    0  0.00000000000E+00  0.00000000000E+00  0.27530293707E+04  0.27530293707E+04  0.25500000920E-02 0.  1.
       -2   -1    0    0    0  501  0.00000000000E+00  0.00000000000E+00 -0.69454100372E+03  0.69454100372E+03  0.25500000920E-02 0. -1.
    10030    2    1    2    0    0  0.00000000000E+00  0.00000000000E+00  0.20584883670E+04  0.34475703744E+04  0.27655681387E+04 0.  0.
        4    1    3    3  502    0  0.26511945472E+03 -0.34813720999E+03  0.26644372234E+04  0.27001324361E+04  0.12699999809E+01 0.  1.
       -4    1    3    3    0  502 -0.26511945472E+03  0.34813720999E+03 -0.60594885637E+03  0.74743793835E+03  0.12699999809E+01 0. -1.
</event>
<event>
 5   0  0.2518686E-05  0.2815656E+04  0.7818609E-02  0.8298424E-01
       -2   -1    0    0    0  501  0.00000000000E+00  0.00000000000E+00  0.26595097818E+04  0.26595097818E+04  0.25500000920E-02 0.  1.
        2   -1    0    0  501    0  0.00000000000E+00  0.00000000000E+00 -0.74524254082E+03  0.74524254083E+03  0.25500000920E-02 0. -1.
    10030    2    1    2    0    0  0.00000000000E+00  0.00000000000E+00  0.19142672409E+04  0.34047523226E+04  0.28156561062E+04 0.  0.
        5    1    3    3  502    0  0.12247644836E+04 -0.59079027639E+03  0.13979219422E+04  0.19502023068E+04  0.46999998093E+01 0. -1.
       -5    1    3    3    0  502 -0.12247644836E+04  0.59079027639E+03  0.51634529877E+03  0.14545500158E+04  0.46999998093E+01 0.  1.
</event>
<event>
 5   0  0.2588048E-05  0.2789735E+04  0.7818609E-02  0.8306462E-01
        2   -1    0    0  501    0  0.00000000000E+00  0.00000000000E+00  0.21387039494E+04  0.21387039494E+04  0.25500000920E-02 0. -1.
       -2   -1    0    0    0  501  0.00000000000E+00  0.00000000000E+00 -0.90973588789E+03  0.90973588790E+03  0.25500000920E-02 0.  1.
    10030    2    1    2    0    0  0.00000000000E+00  0.00000000000E+00  0.12289680615E+04  0.30484398373E+04  0.27897352823E+04 0.  0.
        2    1    3    3  502    0 -0.12576404609E+04 -0.45937437820E+03  0.18709857644E+03  0.13519209391E+04  0.25500000920E-02 0.  1.
       -2    1    3    3    0  502  0.12576404609E+04  0.45937437820E+03  0.10418694851E+04  0.16965188982E+04  0.25500000920E-02 0. -1.
</event>
<event>
 5   0  0.2697964E-05  0.2788744E+04  0.7818609E-02  0.8306771E-01
        2   -1    0    0  501    0  0.00000000000E+00  0.00000000000E+00  0.28796474878E+04  0.28796474878E+04  0.25500000920E-02 0. -1.
       -2   -1    0    0    0  501  0.00000000000E+00  0.00000000000E+00 -0.67517744817E+03  0.67517744817E+03  0.25500000920E-02 0.  1.
    10030    2    1    2    0    0  0.00000000000E+00  0.00000000000E+00  0.22044700396E+04  0.35548249360E+04  0.27887438337E+04 0.  0.
        1    1    3    3  502    0 -0.46660366856E+03 -0.12459813882E+04  0.57038452039E+03  0.14475935563E+04  0.50400001928E-02 0. -1.
       -1    1    3    3    0  502  0.46660366856E+03  0.12459813882E+04  0.16340855192E+04  0.21072313796E+04  0.50400001928E-02 0.  1.
</event>
<event>
 5   0  0.2624815E-05  0.2879176E+04  0.7818609E-02  0.8279100E-01
        2   -1    0    0  501    0  0.00000000000E+00  0.00000000000E+00  0.18819545030E+04  0.18819545030E+04  0.25500000920E-02 0. -1.
       -2   -1    0    0    0  501  0.00000000000E+00  0.00000000000E+00 -0.11012026550E+04  0.11012026550E+04  0.25500000920E-02 0.  1.
    10030    2    1    2    0    0  0.00000000000E+00  0.00000000000E+00  0.78075184803E+03  0.29831571580E+04  0.28791757816E+04 0.  0.
        4    1    3    3  502    0  0.75950019340E+03 -0.11645842339E+04  0.36472036333E+01  0.13903639439E+04  0.12699999809E+01 0.  1.
       -4    1    3    3    0  502 -0.75950019340E+03  0.11645842339E+04  0.77710464440E+03  0.15927932141E+04  0.12699999809E+01 0. -1.
</event>
<event>
 5   0  0.2624815E-05  0.2722878E+04  0.7818609E-02  0.8327620E-01
       -2   -1    0    0    0  501  0.00000000000E+00  0.00000000000E+00  0.88867504703E+03  0.88867504704E+03  0.25500000920E-02 0.  1.
        2   -1    0    0  501    0  0.00000000000E+00  0.00000000000E+00 -0.20857077954E+04  0.20857077954E+04  0.25500000920E-02 0. -1.
    10030    2    1    2    0    0  0.00000000000E+00  0.00000000000E+00 -0.11970327483E+04  0.29743828424E+04  0.27228782368E+04 0.  0.
        4    1    3    3  502    0 -0.22530213140E+03 -0.12748898675E+04 -0.13841106090E+03  0.13020232176E+04  0.12699999809E+01 0. -1.
       -4    1    3    3    0  502  0.22530213140E+03  0.12748898675E+04 -0.10586216874E+04  0.16723596248E+04  0.12699999809E+01 0.  1.
</event>
<event>
 5   0  0.2518686E-05  0.2789444E+04  0.7818609E-02  0.8306553E-01
       -2   -1    0    0    0  501  0.00000000000E+00  0.00000000000E+00  0.91064550075E+03  0.91064550075E+03  0.25500000920E-02 0.  1.
        2   -1    0    0  501    0  0.00000000000E+00  0.00000000000E+00 -0.21361215640E+04  0.21361215640E+04  0.25500000920E-02 0. -1.
    10030    2    1    2    0    0  0.00000000000E+00  0.00000000000E+00 -0.12254760632E+04  0.30467670647E+04  0.27894440244E+04 0.  0.
        5    1    3    3  502    0  0.12855638563E+04  0.19862199955E+03 -0.11622404712E+04  0.17444053801E+04  0.46999998093E+01 0. -1.
       -5    1    3    3    0  502 -0.12855638563E+04 -0.19862199955E+03 -0.63235592041E+02  0.13023616846E+04  0.46999998093E+01 0.  1.
</event>
<event>
 5   0  0.1067434E-05  0.2799034E+04  0.7818609E-02  0.8303568E-01
       -1   -1    0    0    0  501  0.00000000000E+00  0.00000000000E+00  0.10189943881E+04  0.10189943881E+04  0.50400001928E-02 0. -1.
        1   -1    0    0  501    0  0.00000000000E+00  0.00000000000E+00 -0.19221383137E+04  0.19221383137E+04  0.50400001928E-02 0.  1.
    10030    2    1    2    0    0  0.00000000000E+00  0.00000000000E+00 -0.90314392566E+03  0.29411327018E+04  0.27990342297E+04 0.  0.
        4    1    3    3  502    0 -0.11421448556E+04 -0.10780231460E+03  0.39070171286E+03  0.12119264216E+04  0.12699999809E+01 0. -1.
       -4    1    3    3    0  502  0.11421448556E+04  0.10780231460E+03 -0.12938456385E+04  0.17292062802E+04  0.12699999809E+01 0.  1.
</event>
<event>
 5   0  0.2518686E-05  0.2576922E+04  0.7818609E-02  0.8376083E-01
       -2   -1    0    0    0  501  0.00000000000E+00  0.00000000000E+00  0.12107398871E+04  0.12107398871E+04  0.25500000920E-02 0.  1.
        2   -1    0    0  501    0  0.00000000000E+00  0.00000000000E+00 -0.13711714258E+04  0.13711714258E+04  0.25500000920E-02 0. -1.
    10030    2    1    2    0    0  0.00000000000E+00  0.00000000000E+00 -0.16043153864E+03  0.25819113129E+04  0.25769221465E+04 0.  0.
        5    1    3    3  502    0 -0.29879446189E+03  0.11219943187E+04 -0.63983135642E+03  0.13257283418E+04  0.46999998093E+01 0. -1.
       -5    1    3    3    0  502  0.29879446189E+03 -0.11219943187E+04  0.47939981778E+03  0.12561829711E+04  0.46999998093E+01 0.  1.
</event>
<event>
 5   0  0.2651061E-05  0.1978601E+04  0.7818609E-02  0.8616691E-01
        2   -1    0    0  501    0  0.00000000000E+00  0.00000000000E+00  0.96961992417E+03  0.96961992417E+03  0.25500000920E-02 0. -1.
       -2   -1    0    0    0  501  0.00000000000E+00  0.00000000000E+00 -0.10093807187E+04  0.10093807187E+04  0.25500000920E-02 0.  1.
    10030    2    1    2    0    0  0.00000000000E+00  0.00000000000E+00 -0.39760794504E+02  0.19790006428E+04  0.19786011785E+04 0.  0.
        3    1    3    3  502    0  0.25399196619E+03  0.71020443234E+03 -0.66017633206E+03  0.10023647311E+04  0.10100000352E+00 0.  1.
       -3    1    3    3    0  502 -0.25399196619E+03 -0.71020443234E+03  0.62041553755E+03  0.97663591171E+03  0.10100000352E+00 0. -1.
</event>
<event>
 5   0  0.2518686E-05  0.2797941E+04  0.7818609E-02  0.8303908E-01
        2   -1    0    0  501    0  0.00000000000E+00  0.00000000000E+00  0.22237287678E+04  0.22237287678E+04  0.25500000920E-02 0.  1.
       -2   -1    0    0    0  501  0.00000000000E+00  0.00000000000E+00 -0.88010694342E+03  0.88010694342E+03  0.25500000920E-02 0. -1.
    10030    2    1    2    0    0  0.00000000000E+00  0.00000000000E+00  0.13436218243E+04  0.31038357112E+04  0.27979414782E+04 0.  0.
        5    1    3    3  502    0 -0.38867178519E+03  0.13193681634E+04  0.95528485016E+03  0.16746311063E+04  0.46999998093E+01 0.  1.
       -5    1    3    3    0  502  0.38867178519E+03 -0.13193681634E+04  0.38833697418E+03  0.14292046049E+04  0.46999998093E+01 0. -1.
</event>
<event>
 5   0  0.1078103E-05  0.2883247E+04  0.7818609E-02  0.8277880E-01
       -1   -1    0    0    0  501  0.00000000000E+00  0.00000000000E+00  0.13536919398E+04  0.13536919398E+04  0.50400001928E-02 0.  1.
        1   -1    0    0  501    0  0.00000000000E+00  0.00000000000E+00 -0.15352665166E+04  0.15352665166E+04  0.50400001928E-02 0. -1.
    10030    2    1    2    0    0  0.00000000000E+00  0.00000000000E+00 -0.18157457684E+03  0.28889584564E+04  0.28832467178E+04 0.  0.
        1    1    3    3  502    0  0.74076256129E+03 -0.94565114063E+03  0.70784416062E+03  0.13942842636E+04  0.50400001928E-02 0.  1.
       -1    1    3    3    0  502 -0.74076256129E+03  0.94565114063E+03 -0.88941873746E+03  0.14946741928E+04  0.50400001928E-02 0. -1.
</event>
<event>
 5   0  0.1017456E-05  0.2563036E+04  0.7818609E-02  0.8380867E-01
       -1   -1    0    0    0  501  0.00000000000E+00  0.00000000000E+00  0.89353394039E+03  0.89353394041E+03  0.50400001928E-02 0. -1.
        1   -1    0    0  501    0  0.00000000000E+00  0.00000000000E+00 -0.18379694769E+04  0.18379694769E+04  0.50400001928E-02 0.  1.
    10030    2    1    2    0    0  0.00000000000E+00  0.00000000000E+00 -0.94443553651E+03  0.27315034173E+04  0.25630357852E+04 0.  0.
        5    1    3    3  502    0  0.37198538298E+03 -0.16634303915E+03  0.82264291855E+03  0.91804498434E+03  0.46999998093E+01 0. -1.
       -5    1    3    3    0  502 -0.37198538298E+03  0.16634303915E+03 -0.17670784551E+04  0.18134584330E+04  0.46999998093E+01 0.  1.
</event>
<event>
 5   0  0.1017456E-05  0.2837221E+04  0.7818609E-02  0.8291805E-01
        1   -1    0    0  501    0  0.00000000000E+00  0.00000000000E+00  0.17971994028E+04  0.17971994028E+04  0.50400001928E-02 0.  1.
       -1   -1    0    0    0  501  0.00000000000E+00  0.00000000000E+00 -0.11197728479E+04  0.11197728479E+04  0.50400001928E-02 0. -1.
    10030    2    1    2    0    0  0.00000000000E+00  0.00000000000E+00  0.67742655485E+03  0.29169722507E+04  0.28372205367E+04 0.  0.
        5    1    3    3  502    0  0.10415064455E+04  0.69851619486E+03 -0.34308078373E+03  0.13001488625E+04  0.46999998093E+01 0. -1.
       -5    1    3    3    0  502 -0.10415064455E+04 -0.69851619486E+03  0.10205073386E+04  0.16168233882E+04  0.46999998093E+01 0.  1.
</event>
<event>
 5   0  0.2697964E-05  0.2756489E+04  0.7818609E-02  0.8316906E-01
        2   -1    0    0  501    0  0.00000000000E+00  0.00000000000E+00  0.10584106817E+04  0.10584106817E+04  0.25500000920E-02 0.  1.
       -2   -1    0    0    0  501  0.00000000000E+00  0.00000000000E+00 -0.17947264325E+04  0.17947264325E+04  0.25500000920E-02 0. -1.
    10030    2    1    2    0    0  0.00000000000E+00  0.00000000000E+00 -0.73631575080E+03  0.28531371141E+04  0.27564888005E+04 0.  0.
        1    1    3    3  502    0 -0.10027335133E+04  0.93520845452E+03 -0.22373694317E+03  0.13892975102E+04  0.50400001928E-02 0.  1.
       -1    1    3    3    0  502  0.10027335133E+04 -0.93520845452E+03 -0.51257880763E+03  0.14638396039E+04  0.50400001928E-02 0. -1.
</event>
<event>
 5   0  0.2697964E-05  0.2761980E+04  0.7818609E-02  0.8315170E-01
        2   -1    0    0  501    0  0.00000000000E+00  0.00000000000E+00  0.15446428774E+04  0.15446428774E+04  0.25500000920E-02 0. -1.
       -2   -1    0    0    0  501  0.00000000000E+00  0.00000000000E+00 -0.12346761495E+04  0.12346761495E+04  0.25500000920E-02 0.  1.
    10030    2    1    2    0    0  0.00000000000E+00  0.00000000000E+00  0.30996672781E+03  0.27793190269E+04  0.27619802463E+04 0.  0.
        1    1    3    3  502    0 -0.32890396397E+03  0.10942509089E+04 -0.62549564046E+03  0.13026157014E+04  0.50400001928E-02 0.  1.
       -1    1    3    3    0  502  0.32890396397E+03 -0.10942509089E+04  0.93546236828E+03  0.14767033255E+04  0.50400001928E-02 0. -1.
</event>
<event>
 5   0  0.1067434E-05  0.2790003E+04  0.7818609E-02  0.8306379E-01
       -1   -1    0    0    0  501  0.00000000000E+00  0.00000000000E+00  0.14725179862E+04  0.14725179862E+04  0.50400001928E-02 0. -1.
        1   -1    0    0  501    0  0.00000000000E+00  0.00000000000E+00 -0.13215652103E+04  0.13215652103E+04  0.50400001928E-02 0.  1.
    10030    2    1    2    0    0  0.00000000000E+00  0.00000000000E+00  0.15095277596E+03  0.27940831965E+04  0.27900025392E+04 0.  0.
        4    1    3    3  502    0  0.32579862692E+02 -0.65284741959E+03 -0.11587041666E+04  0.13303639199E+04  0.12699999809E+01 0.  1.
       -4    1    3    3    0  502 -0.32579862692E+02  0.65284741959E+03  0.13096569426E+04  0.14637192766E+04  0.12699999809E+01 0. -1.
</event>
<event>
 5   0  0.2588048E-05  0.2838124E+04  0.7818609E-02  0.8291529E-01
        2   -1    0    0  501    0  0.00000000000E+00  0.00000000000E+00  0.12498686912E+04  0.12498686912E+04  0.25500000920E-02 0. -1.
       -2   -1    0    0    0  501  0.00000000000E+00  0.00000000000E+00 -0.16111586407E+04  0.16111586407E+04  0.25500000920E-02 0.  1.
    10030    2    1    2    0    0  0.00000000000E+00  0.00000000000E+00 -0.36128994954E+03  0.28610273320E+04  0.28381238462E+04 0.  0.
        2    1    3    3  502    0  0.12287740169E+04 -0.38251532678E+03 -0.78341110473E+03  0.15066308503E+04  0.25500000920E-02 0.  1.
       -2    1    3    3    0  502 -0.12287740169E+04  0.38251532678E+03  0.42212115520E+03  0.13543964817E+04  0.25500000920E-02 0. -1.
</event>
<event>
 5   0  0.8958000E-06  0.1776014E+04  0.7818609E-02  0.8719160E-01
       -3   -1    0    0    0  501  0.00000000000E+00  0.00000000000E+00  0.59849601640E+03  0.59849602493E+03  0.10100000352E+00 0. -1.
        3   -1    0    0  501    0  0.00000000000E+00  0.00000000000E+00 -0.13175630931E+04  0.13175630969E+04  0.10100000352E+00 0.  1.
    10030    2    1    2    0    0  0.00000000000E+00  0.00000000000E+00 -0.71906707665E+03  0.19160591219E+04  0.17760138225E+04 0.  0.
        3    1    3    3  502    0  0.83642871998E+03 -0.14867810851E+03 -0.80616818496E+02  0.85335647017E+03  0.10100000352E+00 0. -1.
       -3    1    3    3    0  502 -0.83642871998E+03  0.14867810851E+03 -0.63845025816E+03  0.10627026517E+04  0.10100000352E+00 0.  1.
</event>
<event>
 5   0  0.2518686E-05  0.2647737E+04  0.7818609E-02  0.8352164E-01
        2   -1    0    0  501    0  0.00000000000E+00  0.00000000000E+00  0.17277234391E+04  0.17277234391E+04  0.25500000920E-02 0.  1.
       -2   -1    0    0    0  501  0.00000000000E+00  0.00000000000E+00 -0.10144146458E+04  0.10144146458E+04  0.25500000920E-02 0. -1.
    10030    2    1    2    0    0  0.00000000000E+00  0.00000000000E+00  0.71330879332E+03  0.27421380849E+04  0.26477371173E+04 0.  0.
        5    1    3    3  502    0 -0.63240534501E+03 -0.73477902976E+03 -0.57702560421E+03  0.11281920851E+04  0.46999998093E+01 0. -1.
       -5    1    3    3    0  502  0.63240534501E+03  0.73477902976E+03  0.12903343975E+04  0.16139459998E+04  0.46999998093E+01 0.  1.
</event>
<event>
 5   0  0.2518686E-05  0.2860965E+04  0.7818609E-02  0.8284587E-01
       -2   -1    0    0    0  501  0.00000000000E+00  0.00000000000E+00  0.11561067731E+04  0.11561067731E+04  0.25500000920E-02 0.  1.
        2   -1    0    0  501    0  0.00000000000E+00  0.00000000000E+00 -0.17699744751E+04  0.17699744751E+04  0.25500000920E-02 0. -1.
    10030    2    1    2    0    0  0.00000000000E+00  0.00000000000E+00 -0.61386770201E+03  0.29260812482E+04  0.28609645079E+04 0.  0.
        5    1    3    3  502    0  0.14098694055E+04  0.23241568995E+03 -0.23825950486E+03  0.14486333129E+04  0.46999998093E+01 0. -1.
       -5    1    3    3    0  502 -0.14098694055E+04 -0.23241568995E+03 -0.37560819714E+03  0.14774479353E+04  0.46999998093E+01 0.  1.
</event>
<event>
 5   0  0.1078103E-05  0.2836949E+04  0.7818609E-02  0.8291888E-01
       -1   -1    0    0    0  501  0.00000000000E+00  0.00000000000E+00  0.20127877514E+04  0.20127877514E+04  0.50400001928E-02 0. -1.
        1   -1    0    0  501    0  0.00000000000E+00  0.00000000000E+00 -0.99964300907E+03  0.99964300908E+03  0.50400001928E-02 0.  1.
    10030    2    1    2    0    0  0.00000000000E+00  0.00000000000E+00  0.10131447424E+04  0.30124307605E+04  0.28369485046E+04 0.  0.
        1    1    3    3  502    0 -0.85013891238E+03  0.47516752814E+03 -0.58850383565E+03  0.11379178858E+04  0.50400001928E-02 0.  1.
       -1    1    3    3    0  502  0.85013891238E+03 -0.47516752814E+03  0.16016485780E+04  0.18745128748E+04  0.50400001928E-02 0. -1.
</event>
<event>
 5   0  0.1067434E-05  0.2809746E+04  0.7818609E-02  0.8300249E-01
       -1   -1    0    0    0  501  0.00000000000E+00  0.00000000000E+00  0.10889602684E+04  0.10889602684E+04  0.50400001928E-02 0.  1.
        1   -1    0    0  501    0  0.00000000000E+00  0.00000000000E+00 -0.18124335119E+04  0.18124335119E+04  0.50400001928E-02 0. -1.
    10030    2    1    2    0    0  0.00000000000E+00  0.00000000000E+00 -0.72347324344E+03  0.29013937803E+04  0.28097459555E+04 0.  0.
        4    1    3    3  502    0 -0.70432028120E+03  0.86265394328E+03 -0.12460745289E+04  0.16712098100E+04  0.12699999809E+01 0. -1.
       -4    1    3    3    0  502  0.70432028120E+03 -0.86265394328E+03  0.52260128550E+03  0.12301839703E+04  0.12699999809E+01 0.  1.
</event>
<event>
 5   0  0.2651061E-05  0.2901262E+04  0.7818609E-02  0.8272502E-01
       -2   -1    0    0    0  501  0.00000000000E+00  0.00000000000E+00  0.13997308788E+04  0.13997308789E+04  0.25500000920E-02 0. -1.
        2   -1    0    0  501    0  0.00000000000E+00  0.00000000000E+00 -0.15033817899E+04  0.15033817899E+04  0.25500000920E-02 0.  1.
    10030    2    1    2    0    0  0.00000000000E+00  0.00000000000E+00 -0.10365091104E+03  0.29031126687E+04  0.29012617352E+04 0.  0.
        3    1    3    3  502    0 -0.21269190643E+03  0.45598987734E+03  0.13096179101E+04  0.14029482157E+04  0.10100000352E+00 0. -1.
       -3    1    3    3    0  502  0.21269190643E+03 -0.45598987734E+03 -0.14132688211E+04  0.15001644531E+04  0.10100000352E+00 0.  1.
</event>
<event>
 5   0  0.2697964E-05  0.2085568E+04  0.7818609E-02  0.8567628E-01
        2   -1    0    0  501    0  0.00000000000E+00  0.00000000000E+00  0.90971515579E+03  0.90971515579E+03  0.25500000920E-02 0.  1.
       -2   -1    0    0    0  501  0.00000000000E+00  0.00000000000E+00 -0.11953175450E+04  0.11953175450E+04  0.25500000920E-02 0. -1.
    10030    2    1    2    0    0  0.00000000000E+00  0.00000000000E+00 -0.28560238920E+03  0.21050327008E+04  0.20855680153E+04 0.  0.
        1    1    3    3  502    0 -0.80348253669E+03  0.19841118226E+03  0.49750691087E+03  0.96564191624E+03  0.50400001928E-02 0.  1.
       -1    1    3    3    0  502  0.80348253669E+03 -0.19841118226E+03 -0.78310930007E+03  0.11393907845E+04  0.50400001928E-02 0. -1.
</event>
<event>
 5   0  0.2518686E-05  0.2749982E+04  0.7818609E-02  0.8318967E-01
        2   -1    0    0  501    0  0.00000000000E+00  0.00000000000E+00  0.16635883650E+04  0.16635883650E+04  0.25500000920E-02 0. -1.
       -2   -1    0    0    0  501  0.00000000000E+00  0.00000000000E+00 -0.11364591415E+04  0.11364591415E+04  0.25500000920E-02 0.  1.
    10030    2    1    2    0    0  0.00000000000E+00  0.00000000000E+00  0.52712922348E+03  0.28000475066E+04  0.27499819673E+04 0.  0.
        5    1    3    3  502    0 -0.32467498577E+03 -0.11765191405E+04 -0.38118317349E+03  0.12786453129E+04  0.46999998093E+01 0.  1.
       -5    1    3    3    0  502  0.32467498577E+03  0.11765191405E+04  0.90831239697E+03  0.15214021937E+04  0.46999998093E+01 0. -1.
</event>
<event>
 5   0  0.8958000E-06  0.2861341E+04  0.7818609E-02  0.8284474E-01
       -4   -1    0    0    0  501  0.00000000000E+00  0.00000000000E+00  0.10560372899E+04  0.10560380536E+04  0.12699999809E+01 0.  1.
        4   -1    0    0  501    0  0.00000000000E+00  0.00000000000E+00 -0.19382042902E+04  0.19382047062E+04  0.12699999809E+01 0. -1.
    10030    2    1    2    0    0  0.00000000000E+00  0.00000000000E+00 -0.88216700025E+03  0.29942427598E+04  0.28613407851E+04 0.  0.
        2    1    3    3  502    0  0.15430687970E+03 -0.28211674126E+03 -0.18998992901E+04  0.19269192462E+04  0.25500000920E-02 0. -1.
       -2    1    3    3    0  502 -0.15430687970E+03  0.28211674126E+03  0.10177322899E+04  0.10673235136E+04  0.25500000920E-02 0.  1.
</event>
<event>
 5   0  0.2651061E-05  0.2790599E+04  0.7818609E-02  0.8306193E-01
       -2   -1    0    0    0  501  0.00000000000E+00  0.00000000000E+00  0.85917181602E+03  0.85917181602E+03  0.25500000920E-02 0.  1.
        2   -1    0    0  501    0  0.00000000000E+00  0.00000000000E+00 -0.22659740101E+04  0.22659740101E+04  0.25500000920E-02 0. -1.
    10030    2    1    2    0    0  0.00000000000E+00  0.00000000000E+00 -0.14068021941E+04  0.31251458262E+04  0.27905992226E+04 0.  0.
        3    1    3    3  502    0  0.19624124546E+03 -0.13141805529E+04 -0.22658865805E+03  0.13479330778E+04  0.10100000352E+00 0.  1.
       -3    1    3    3    0  502 -0.19624124546E+03  0.13141805529E+04 -0.11802135361E+04  0.17772127484E+04  0.10100000352E+00 0. -1.
</event>
<event>
 5   0  0.2624815E-05  0.2755860E+04  0.7818609E-02  0.8317105E-01
       -2   -1    0    0    0  501  0.00000000000E+00  0.00000000000E+00  0.17272897385E+04  0.17272897385E+04  0.25500000920E-02 0. -1.
        2   -1    0    0  501    0  0.00000000000E+00  0.00000000000E+00 -0.10992310595E+04  0.10992310595E+04  0.25500000920E-02 0.  1.
    10030    2    1    2    0    0  0.00000000000E+00  0.00000000000E+00  0.62805867908E+03  0.28265207980E+04  0.27558595968E+04 0.  0.
        4    1    3    3  502    0  0.10694205167E+04  0.69962038374E+03 -0.21450891046E+03  0.12958181232E+04  0.12699999809E+01 0.  1.
       -4    1    3    3    0  502 -0.10694205167E+04 -0.69962038374E+03  0.84256758954E+03  0.15307026748E+04  0.12699999809E+01 0. -1.
</event>
<event>
 5   0  0.8958000E-06  0.2796984E+04  0.7818609E-02  0.8304205E-01
        3   -1    0    0  501    0  0.00000000000E+00  0.00000000000E+00  0.17740444702E+04  0.17740444731E+04  0.10100000352E+00 0.  1.
       -3   -1    0    0    0  501  0.00000000000E+00  0.00000000000E+00 -0.11024412197E+04  0.11024412244E+04  0.10100000352E+00 0. -1.
    10030    2    1    2    0    0  0.00000000000E+00  0.00000000000E+00  0.67160325048E+03  0.28764856974E+04  0.27969839187E+04 0.  0.
        2    1    3    3  502    0  0.84510817316E+03 -0.23775604683E+03  0.14553412953E+04  0.16996335040E+04  0.25500000920E-02 0.  1.
       -2    1    3    3    0  502 -0.84510817316E+03  0.23775604683E+03 -0.78373804485E+03  0.11768521934E+04  0.25500000920E-02 0. -1.
</event>
<event>
 5   0  0.2651061E-05  0.2900167E+04  0.7818609E-02  0.8272828E-01
        2   -1    0    0  501    0  0.00000000000E+00  0.00000000000E+00  0.28582716427E+04  0.28582716427E+04  0.25500000920E-02 0. -1.
       -2   -1    0    0    0  501  0.00000000000E+00  0.00000000000E+00 -0.73566930699E+03  0.73566930699E+03  0.25500000920E-02 0.  1.
    10030    2    1    2    0    0  0.00000000000E+00  0.00000000000E+00  0.21226023358E+04  0.35939409497E+04  0.29001673873E+04 0.  0.
        3    1    3    3  502    0 -0.10124335530E+04 -0.74501575420E+03  0.19572077194E+04  0.23260980720E+04  0.10100000352E+00 0. -1.
       -3    1    3    3    0  502  0.10124335530E+04  0.74501575420E+03  0.16539461632E+03  0.12678428777E+04  0.10100000352E+00 0.  1.
</event>
<event>
 5   0  0.2624815E-05  0.2942020E+04  0.7818609E-02  0.8260484E-01
        2   -1    0    0  501    0  0.00000000000E+00  0.00000000000E+00  0.11970635497E+04  0.11970635497E+04  0.25500000920E-02 0.  1.
       -2   -1    0    0    0  501  0.00000000000E+00  0.00000000000E+00 -0.18076491110E+04  0.18076491110E+04  0.25500000920E-02 0. -1.
    10030    2    1    2    0    0  0.00000000000E+00  0.00000000000E+00 -0.61058556135E+03  0.30047126607E+04  0.29420203000E+04 0.  0.
        4    1    3    3  502    0  0.28696633082E+03 -0.14280196801E+04 -0.51529385604E+03  0.15450305022E+04  0.12699999809E+01 0.  1.
       -4    1    3    3    0  502 -0.28696633082E+03  0.14280196801E+04 -0.95291705314E+02  0.14596821585E+04  0.12699999809E+01 0. -1.
</event>
<event>
 5   0  0.2697964E-05  0.2756938E+04  0.7818609E-02  0.8316763E-01
        2   -1    0    0  501    0  0.00000000000E+00  0.00000000000E+00  0.22390099955E+04  0.22390099955E+04  0.25500000920E-02 0.  1.
       -2   -1    0    0    0  501  0.00000000000E+00  0.00000000000E+00 -0.84866854753E+03  0.84866854754E+03  0.25500000920E-02 0. -1.
    10030    2    1    2    0    0  0.00000000000E+00  0.00000000000E+00  0.13903414480E+04  0.30876785431E+04  0.27569384185E+04 0.  0.
        1    1    3    3  502    0 -0.12574791946E+04 -0.51172806923E+03  0.96269463066E+03  0.16643018037E+04  0.50400001928E-02 0. -1.
       -1    1    3    3    0  502  0.12574791946E+04  0.51172806923E+03  0.42764681734E+03  0.14233767394E+04  0.50400001928E-02 0.  1.
</event>
<event>
 5   0  0.1067434E-05  0.2833550E+04  0.7818609E-02  0.8292928E-01
       -1   -1    0    0    0  501  0.00000000000E+00  0.00000000000E+00  0.12185208623E+04  0.12185208623E+04  0.50400001928E-02 0. -1.
        1   -1    0    0  501    0  0.00000000000E+00  0.00000000000E+00 -0.16472849599E+04  0.16472849599E+04  0.50400001928E-02 0.  1.
    10030    2    1    2    0    0  0.00000000000E+00  0.00000000000E+00 -0.42876409764E+03  0.28658058222E+04  0.28335497806E+04 0.  0.
        4    1    3    3  502    0  0.45334980598E+03  0.12795210397E+04  0.19588249433E+03  0.13715216740E+04  0.12699999809E+01 0. -1.
       -4    1    3    3    0  502 -0.45334980598E+03 -0.12795210397E+04 -0.62464659197E+03  0.14942841482E+04  0.12699999809E+01 0.  1.
</event>
<event>
 5   0  0.2651061E-05  0.1393698E+04  0.7818609E-02  0.8958393E-01
        2   -1    0    0  501    0  0.00000000000E+00  0.00000000000E+00  0.89431470479E+03  0.89431470479E+03  0.25500000920E-02 0. -1.
       -2   -1    0    0    0  501  0.00000000000E+00  0.00000000000E+00 -0.54298423232E+03  0.54298423233E+03  0.25500000920E-02 0.  1.
    10030    2    1    2    0    0  0.00000000000E+00  0.00000000000E+00  0.35133047246E+03  0.14372989371E+04  0.13936983654E+04 0.  0.
        3    1    3    3  502    0  0.12116106455E+03  0.47585706474E+03  0.68558158607E+03  0.84329239946E+03  0.10100000352E+00 0. -1.
       -3    1    3    3    0  502 -0.12116106455E+03 -0.47585706474E+03 -0.33425111361E+03  0.59400653766E+03  0.10100000352E+00 0.  1.
</event>
<event>
 5   0  0.2518686E-05  0.1723627E+04  0.7818609E-02  0.8748002E-01
       -2   -1    0    0    0  501  0.00000000000E+00  0.00000000000E+00  0.32534848725E+03  0.32534848726E+03  0.25500000920E-02 0.  1.
        2   -1    0    0  501    0  0.00000000000E+00  0.00000000000E+00 -0.22828528185E+04  0.22828528185E+04  0.25500000920E-02 0. -1.
    10030    2    1    2    0    0  0.00000000000E+00  0.00000000000E+00 -0.19575043313E+04  0.26082013058E+04  0.17236272348E+04 0.  0.
        5    1    3    3  502    0 -0.31343177883E+03  0.17740341756E+03 -0.21634951909E+04  0.21932726652E+04  0.46999998093E+01 0. -1.
       -5    1    3    3    0  502  0.31343177883E+03 -0.17740341756E+03  0.20599085966E+03  0.41492864062E+03  0.46999998093E+01 0.  1.
</event>
<event>
 5   0  0.1105862E-05  0.2796369E+04  0.7818609E-02  0.8304397E-01
        1   -1    0    0  501    0  0.00000000000E+00  0.00000000000E+00  0.16794266185E+04  0.16794266185E+04  0.50400001928E-02 0.  1.
       -1   -1    0    0    0  501  0.00000000000E+00  0.00000000000E+00 -0.11640399153E+04  0.11640399153E+04  0.50400001928E-02 0. -1.
    10030    2    1    2    0    0  0.00000000000E+00  0.00000000000E+00  0.51538670321E+03  0.28434665338E+04  0.27963688016E+04 0.  0.
        3    1    3    3  502    0  0.12840762922E+04  0.23033230135E+03 -0.25378418296E+03  0.13290264539E+04  0.10100000352E+00 0. -1.
       -3    1    3    3    0  502 -0.12840762922E+04 -0.23033230135E+03  0.76917088617E+03  0.15144400799E+04  0.10100000352E+00 0.  1.
</event>
<event>
 5   0  0.1067434E-05  0.2716372E+04  0.7818609E-02  0.8329712E-01
        1   -1    0    0  501    0  0.00000000000E+00  0.00000000000E+00  0.13520719405E+04  0.13520719405E+04  0.50400001928E-02 0.  1.
       -1   -1    0    0    0  501  0.00000000000E+00  0.00000000000E+00 -0.13643279001E+04  0.13643279002E+04  0.50400001928E-02 0. -1.
    10030    2    1    2    0    0  0.00000000000E+00  0.00000000000E+00 -0.12255959663E+02  0.27163998406E+04  0.27163721920E+04 0.  0.
        4    1    3    3  502    0 -0.30568498750E+03  0.98099248848E+03  0.88206926389E+03  0.13541925171E+04  0.12699999809E+01 0.  1.
       -4    1    3    3    0  502  0.30568498750E+03 -0.98099248848E+03 -0.89432522356E+03  0.13622073236E+04  0.12699999809E+01 0. -1.
</event>
<event>
 5   0  0.2624815E-05  0.2693339E+04  0.7818609E-02  0.8337169E-01
       -2   -1    0    0    0  501  0.00000000000E+00  0.00000000000E+00  0.86604902232E+03  0.86604902233E+03  0.25500000920E-02 0. -1.
        2   -1    0    0  501    0  0.00000000000E+00  0.00000000000E+00 -0.20940147086E+04  0.20940147086E+04  0.25500000920E-02 0.  1.
    10030    2    1    2    0    0  0.00000000000E+00  0.00000000000E+00 -0.12279656862E+04  0.29600637309E+04  0.26933394818E+04 0.  0.
        4    1    3    3  502    0  0.54059551093E+03 -0.10817564990E+04 -0.12651781251E+04  0.17501765427E+04  0.12699999809E+01 0.  1.
       -4    1    3    3    0  502 -0.54059551093E+03  0.10817564990E+04  0.37212438901E+02  0.12098871881E+04  0.12699999809E+01 0. -1.
</event>
<event>
 5   0  0.1105862E-05  0.1721739E+04  0.7818609E-02  0.8749062E-01
        1   -1    0    0  501    0  0.00000000000E+00  0.00000000000E+00  0.90624418148E+03  0.90624418150E+03  0.50400001928E-02 0.  1.
       -1   -1    0    0    0  501  0.00000000000E+00  0.00000000000E+00 -0.81776655490E+03  0.81776655491E+03  0.50400001928E-02 0. -1.
    10030    2    1    2    0    0  0.00000000000E+00  0.00000000000E+00  0.88477626586E+02  0.17240107364E+04  0.17217388678E+04 0.  0.
        3    1    3    3  502    0  0.44090352689E+03  0.32038529341E+03  0.71149151188E+03  0.89624931684E+03  0.10100000352E+00 0.  1.
       -3    1    3    3    0  502 -0.44090352689E+03 -0.32038529341E+03 -0.62301388529E+03  0.82776141957E+03  0.10100000352E+00 0. -1.
</event>
<event>
 5   0  0.2518686E-05  0.1770355E+04  0.7818609E-02  0.8722225E-01
        2   -1    0    0  501    0  0.00000000000E+00  0.00000000000E+00  0.12507873400E+04  0.12507873400E+04  0.25500000920E-02 0.  1.
       -2   -1    0    0    0  501  0.00000000000E+00  0.00000000000E+00 -0.62643700990E+03  0.62643700990E+03  0.25500000920E-02 0. -1.
    10030    2    1    2    0    0  0.00000000000E+00  0.00000000000E+00  0.62435033013E+03  0.18772243499E+04  0.17703553104E+04 0.  0.
        5    1    3    3  502    0  0.85284912799E+03 -0.10771477137E+03  0.88331743360E+02  0.86416358056E+03  0.46999998093E+01 0. -1.
       -5    1    3    3    0  502 -0.85284912799E+03  0.10771477137E+03  0.53601858677E+03  0.10130607694E+04  0.46999998093E+01 0.  1.
</event>
<event>
 5   0  0.2588048E-05  0.2837760E+04  0.7818609E-02  0.8291640E-01
        2   -1    0    0  501    0  0.00000000000E+00  0.00000000000E+00  0.31105131409E+04  0.31105131409E+04  0.25500000920E-02 0. -1.
       -2   -1    0    0    0  501  0.00000000000E+00  0.00000000000E+00 -0.64723076802E+03  0.64723076803E+03  0.25500000920E-02 0.  1.
    10030    2    1    2    0    0  0.00000000000E+00  0.00000000000E+00  0.24632823729E+04  0.37577439089E+04  0.28377595452E+04 0.  0.
        2    1    3    3  502    0  0.57441386030E+03  0.82869312018E+03 -0.90257388858E+02  0.10123388596E+04  0.25500000920E-02 0.  1.
       -2    1    3    3    0  502 -0.57441386030E+03 -0.82869312018E+03  0.25535397617E+04  0.27454050494E+04  0.25500000920E-02 0. -1.
</event>
<event>
 5   0  0.2518686E-05  0.2882504E+04  0.7818609E-02  0.8278102E-01
        2   -1    0    0  501    0  0.00000000000E+00  0.00000000000E+00  0.15611568419E+04  0.15611568419E+04  0.25500000920E-02 0. -1.
       -2   -1    0    0    0  501  0.00000000000E+00  0.00000000000E+00 -0.13305562619E+04  0.13305562619E+04  0.25500000920E-02 0.  1.
    10030    2    1    2    0    0  0.00000000000E+00  0.00000000000E+00  0.23060057999E+03  0.28917131037E+04  0.28825037809E+04 0.  0.
        5    1    3    3  502    0 -0.23184889776E+03 -0.11584738559E+04  0.94338851589E+03  0.15118927105E+04  0.46999998093E+01 0. -1.
       -5    1    3    3    0  502  0.23184889776E+03  0.11584738559E+04 -0.71278793590E+03  0.13798203933E+04  0.46999998093E+01 0.  1.
</event>
<event>
 5   0  0.1017456E-05  0.1522727E+04  0.7818609E-02  0.8869479E-01
       -1   -1    0    0    0  501  0.00000000000E+00  0.00000000000E+00  0.11488822958E+04  0.11488822958E+04  0.50400001928E-02 0. -1.
        1   -1    0    0  501    0  0.00000000000E+00  0.00000000000E+00 -0.50455494035E+03  0.50455494038E+03  0.50400001928E-02 0.  1.
    10030    2    1    2    0    0  0.00000000000E+00  0.00000000000E+00  0.64432735541E+03  0.16534372362E+04  0.15227268150E+04 0.  0.
        5    1    3    3  502    0 -0.52850408486E+03 -0.46955325819E+03  0.15319674057E+02  0.70714468986E+03  0.46999998093E+01 0.  1.
       -5    1    3    3    0  502  0.52850408486E+03  0.46955325819E+03  0.62900768136E+03  0.94629254630E+03  0.46999998093E+01 0. -1.
</event>
<event>
 5   0  0.1067434E-05  0.1458539E+04  0.7818609E-02  0.8912502E-01
        1   -1    0    0  501    0  0.00000000000E+00  0.00000000000E+00  0.10392530162E+04  0.10392530162E+04  0.50400001928E-02 0.  1.
       -1   -1    0    0    0  501  0.00000000000E+00  0.00000000000E+00 -0.51174674319E+03  0.51174674322E+03  0.50400001928E-02 0. -1.
    10030    2    1    2    0    0  0.00000000000E+00  0.00000000000E+00  0.52750627304E+03  0.15509997595E+04  0.14585394701E+04 0.  0.
        4    1    3    3  502    0  0.59924578805E+03 -0.12013492433E+03 -0.15934451238E+03  0.63160129913E+03  0.12699999809E+01 0. -1.
       -4    1    3    3    0  502 -0.59924578805E+03  0.12013492433E+03  0.68685078542E+03  0.91939846033E+03  0.12699999809E+01 0.  1.
</event>
<event>
 5   0  0.2651061E-05  0.2714877E+04  0.7818609E-02  0.8330194E-01
        2   -1    0    0  501    0  0.00000000000E+00  0.00000000000E+00  0.18776955078E+04  0.18776955078E+04  0.25500000920E-02 0. -1.
       -2   -1    0    0    0  501  0.00000000000E+00  0.00000000000E+00 -0.98133053411E+03  0.98133053412E+03  0.25500000920E-02 0.  1.
    10030    2    1    2    0    0  0.00000000000E+00  0.00000000000E+00  0.89636497373E+03  0.28590260420E+04  0.27148774820E+04 0.  0.
        3    1    3    3  502    0  0.28077264929E+03 -0.63874323717E+03 -0.77803608169E+03  0.10450676333E+04  0.10100000352E+00 0.  1.
       -3    1    3    3    0  502 -0.28077264929E+03  0.63874323717E+03  0.16744010554E+04  0.18139584086E+04  0.10100000352E+00 0. -1.
</event>
<event>
 5   0  0.1075146E-05  0.2760284E+04  0.7818609E-02  0.8315706E-01
       -1   -1    0    0    0  501  0.00000000000E+00  0.00000000000E+00  0.16557148345E+04  0.16557148345E+04  0.50400001928E-02 0. -1.
        1   -1    0    0  501    0  0.00000000000E+00  0.00000000000E+00 -0.11504347870E+04  0.11504347870E+04  0.50400001928E-02 0.  1.
    10030    2    1    2    0    0  0.00000000000E+00  0.00000000000E+00  0.50528004747E+03  0.28061496215E+04  0.27602840020E+04 0.  0.
        2    1    3    3  502    0  0.68677785003E+03  0.81780185090E+03 -0.63614558510E+03  0.12430385706E+04  0.25500000920E-02 0.  1.
       -2    1    3    3    0  502 -0.68677785003E+03 -0.81780185090E+03  0.11414256326E+04  0.15631110509E+04  0.25500000920E-02 0. -1.
</event>
<event>
 5   0  0.2624815E-05  0.2806817E+04  0.7818609E-02  0.8301155E-01
       -2   -1    0    0    0  501  0.00000000000E+00  0.00000000000E+00  0.22247526188E+04  0.22247526188E+04  0.25500000920E-02 0.  1.
        2   -1    0    0  501    0  0.00000000000E+00  0.00000000000E+00 -0.88529191399E+03  0.88529191399E+03  0.25500000920E-02 0. -1.
    10030    2    1    2    0    0  0.00000000000E+00  0.00000000000E+00  0.13394607048E+04  0.31100445328E+04  0.28068170614E+04 0.  0.
        4    1    3    3  502    0  0.47374189964E+03  0.23415372830E+03  0.21102981212E+04  0.21754583723E+04  0.12699999809E+01 0.  1.
       -4    1    3    3    0  502 -0.47374189964E+03 -0.23415372830E+03 -0.77083741645E+03  0.93458616053E+03  0.12699999809E+01 0. -1.
</event>
<event>
 5   0  0.1067434E-05  0.2791555E+04  0.7818609E-02  0.8305895E-01
        1   -1    0    0  501    0  0.00000000000E+00  0.00000000000E+00  0.10876925259E+04  0.10876925259E+04  0.50400001928E-02 0. -1.
       -1   -1    0    0    0  501  0.00000000000E+00  0.00000000000E+00 -0.17911264273E+04  0.17911264273E+04  0.50400001928E-02 0.  1.
    10030    2    1    2    0    0  0.00000000000E+00  0.00000000000E+00 -0.70343390136E+03  0.28788189532E+04  0.27915549988E+04 0.  0.
        4    1    3    3  502    0 -0.28400407803E+03  0.93303477814E+03 -0.13814190681E+04  0.16910152182E+04  0.12699999809E+01 0.  1.
       -4    1    3    3    0  502  0.28400407803E+03 -0.93303477814E+03  0.67798516675E+03  0.11878037350E+04  0.12699999809E+01 0. -1.
</event>
<event>
 5   0  0.1078103E-05  0.2780167E+04  0.7818609E-02  0.8309452E-01
        1   -1    0    0  501    0  0.00000000000E+00  0.00000000000E+00  0.11495604134E+04  0.11495604134E+04  0.50400001928E-02 0. -1.
       -1   -1    0    0    0  501  0.00000000000E+00  0.00000000000E+00 -0.16809309767E+04  0.16809309767E+04  0.50400001928E-02 0.  1.
    10030    2    1    2    0    0  0.00000000000E+00  0.00000000000E+00 -0.53137056336E+03  0.28304913901E+04  0.27801666918E+04 0.  0.
        1    1    3    3  502    0  0.51204310940E+03  0.93537752438E+03  0.64220336993E+03  0.12448069840E+04  0.50400001928E-02 0. -1.
       -1    1    3    3    0  502 -0.51204310940E+03 -0.93537752438E+03 -0.11735739333E+04  0.15856844062E+04  0.50400001928E-02 0.  1.
</event>
<event>
 5   0  0.1017456E-05  0.2389590E+04  0.7818609E-02  0.8443411E-01
       -1   -1    0    0    0  501  0.00000000000E+00  0.00000000000E+00  0.16240540771E+04  0.16240540771E+04  0.50400001928E-02 0. -1.
        1   -1    0    0  501    0  0.00000000000E+00  0.00000000000E+00 -0.87899470993E+03  0.87899470995E+03  0.50400001928E-02 0.  1.
    10030    2    1    2    0    0  0.00000000000E+00  0.00000000000E+00  0.74505936716E+03  0.25030487870E+04  0.23895898748E+04 0.  0.
        5    1    3    3  502    0 -0.28428890878E+03 -0.22966093600E+03  0.15640582114E+04  0.16061956630E+04  0.46999998093E+01 0. -1.
       -5    1    3    3    0  502  0.28428890878E+03  0.22966093600E+03 -0.81899884426E+03  0.89685312403E+03  0.46999998093E+01 0.  1.
</event>
<event>
 5   0  0.1105862E-05  0.2424646E+04  0.7818609E-02  0.8430334E-01
        1   -1    0    0  501    0  0.00000000000E+00  0.00000000000E+00  0.24176267228E+04  0.24176267229E+04  0.50400001928E-02 0.  1.
       -1   -1    0    0    0  501  0.00000000000E+00  0.00000000000E+00 -0.60792156992E+03  0.60792156994E+03  0.50400001928E-02 0. -1.
    10030    2    1    2    0    0  0.00000000000E+00  0.00000000000E+00  0.18097051529E+04  0.30255482928E+04  0.24246463106E+04 0.  0.
        3    1    3    3  502    0 -0.38156270450E+03 -0.10285879501E+04  0.26110714629E+03  0.11277234682E+04  0.10100000352E+00 0. -1.
       -3    1    3    3    0  502  0.38156270450E+03  0.10285879501E+04  0.15485980066E+04  0.18978248246E+04  0.10100000352E+00 0.  1.
</event>
<event>
 5   0  0.2588048E-05  0.2837212E+04  0.7818609E-02  0.8291808E-01
        2   -1    0    0  501    0  0.00000000000E+00  0.00000000000E+00  0.30706502742E+04  0.30706502742E+04  0.25500000920E-02 0.  1.
       -2   -1    0    0    0  501  0.00000000000E+00  0.00000000000E+00 -0.65538023032E+03  0.65538023033E+03  0.25500000920E-02 0. -1.
    10030    2    1    2    0    0  0.00000000000E+00  0.00000000000E+00  0.24152700438E+04  0.37260305045E+04  0.28372123529E+04 0.  0.
        2    1    3    3  502    0  0.66681584322E+03 -0.11382838290E+03  0.28451974498E+04  0.29245083002E+04  0.25500000920E-02 0.  1.
       -2    1    3    3    0  502 -0.66681584322E+03  0.11382838290E+03 -0.42992740599E+03  0.80152220428E+03  0.25500000920E-02 0. -1.
</event>
<event>
 5   0  0.1067434E-05  0.2842161E+04  0.7818609E-02  0.8290297E-01
       -1   -1    0    0    0  501  0.00000000000E+00  0.00000000000E+00  0.12955580848E+04  0.12955580848E+04  0.50400001928E-02 0. -1.
        1   -1    0    0  501    0  0.00000000000E+00  0.00000000000E+00 -0.15587645967E+04  0.15587645967E+04  0.50400001928E-02 0.  1.
    10030    2    1    2    0    0  0.00000000000E+00  0.00000000000E+00 -0.26320651192E+03  0.28543226815E+04  0.28421612027E+04 0.  0.
        4    1    3    3  502    0 -0.73021557317E+03  0.63204950796E+03 -0.11785452081E+04  0.15237033124E+04  0.12699999809E+01 0.  1.
       -4    1    3    3    0  502  0.73021557317E+03 -0.63204950796E+03  0.91533869618E+03  0.13306193691E+04  0.12699999809E+01 0. -1.
</event>
<event>
 5   0  0.2651061E-05  0.2761416E+04  0.7818609E-02  0.8315348E-01
        2   -1    0    0  501    0  0.00000000000E+00  0.00000000000E+00  0.20224685441E+04  0.20224685441E+04  0.25500000920E-02 0. -1.
       -2   -1    0    0    0  501  0.00000000000E+00  0.00000000000E+00 -0.94258774106E+03  0.94258774106E+03  0.25500000920E-02 0.  1.
    10030    2    1    2    0    0  0.00000000000E+00  0.00000000000E+00  0.10798808031E+04  0.29650562852E+04  0.27614156199E+04 0.  0.
        3    1    3    3  502    0  0.90252770443E+03  0.18283493934E+03  0.16445778339E+04  0.18848398166E+04  0.10100000352E+00 0. -1.
       -3    1    3    3    0  502 -0.90252770443E+03 -0.18283493934E+03 -0.56469703079E+03  0.10802164686E+04  0.10100000352E+00 0.  1.
</event>
<event>
 5   0  0.2624815E-05  0.2854324E+04  0.7818609E-02  0.8286598E-01
        2   -1    0    0  501    0  0.00000000000E+00  0.00000000000E+00  0.21354849756E+04  0.21354849756E+04  0.25500000920E-02 0. -1.
       -2   -1    0    0    0  501  0.00000000000E+00  0.00000000000E+00 -0.95378421461E+03  0.95378421461E+03  0.25500000920E-02 0.  1.
    10030    2    1    2    0    0  0.00000000000E+00  0.00000000000E+00  0.11817007609E+04  0.30892691902E+04  0.28543243405E+04 0.  0.
        4    1    3    3  502    0 -0.45959218323E+03  0.41657214420E+03 -0.80026060717E+03  0.10125097424E+04  0.12699999809E+01 0.  1.
       -4    1    3    3    0  502  0.45959218323E+03 -0.41657214420E+03  0.19819613681E+04  0.20767594477E+04  0.12699999809E+01 0. -1.
</event>
<event>
 5   0  0.1078103E-05  0.2750449E+04  0.7818609E-02  0.8318819E-01
        1   -1    0    0  501    0  0.00000000000E+00  0.00000000000E+00  0.15213102221E+04  0.15213102221E+04  0.50400001928E-02 0. -1.
       -1   -1    0    0    0  501  0.00000000000E+00  0.00000000000E+00 -0.12431667830E+04  0.12431667831E+04  0.50400001928E-02 0.  1.
    10030    2    1    2    0    0  0.00000000000E+00  0.00000000000E+00  0.27814343904E+03  0.27644770052E+04  0.27504489341E+04 0.  0.
        1    1    3    3  502    0  0.80624444346E+03  0.58770740632E+03 -0.81222914418E+03  0.12865248854E+04  0.50400001928E-02 0.  1.
       -1    1    3    3    0  502 -0.80624444346E+03 -0.58770740632E+03  0.10903725832E+04  0.14779521198E+04  0.50400001928E-02 0. -1.
</event>
<event>
 5   0  0.2518686E-05  0.2746892E+04  0.7818609E-02  0.8319948E-01
        2   -1    0    0  501    0  0.00000000000E+00  0.00000000000E+00  0.20695655250E+04  0.20695655250E+04  0.25500000920E-02 0.  1.
       -2   -1    0    0    0  501  0.00000000000E+00  0.00000000000E+00 -0.91147353334E+03  0.91147353335E+03  0.25500000920E-02 0. -1.
    10030    2    1    2    0    0  0.00000000000E+00  0.00000000000E+00  0.11580919917E+04  0.29810390584E+04  0.27468922087E+04 0.  0.
        5    1    3    3  502    0 -0.10778500475E+04 -0.32450522266E+03  0.14330605649E+04  0.18222922480E+04  0.46999998093E+01 0.  1.
       -5    1    3    3    0  502  0.10778500475E+04  0.32450522266E+03 -0.27496857322E+03  0.11587468104E+04  0.46999998093E+01 0. -1.
</event>
<event>
 5   0  0.2697964E-05  0.2682107E+04  0.7818609E-02  0.8340834E-01
       -2   -1    0    0    0  501  0.00000000000E+00  0.00000000000E+00  0.93643136512E+03  0.93643136512E+03  0.25500000920E-02 0.  1.
        2   -1    0    0  501    0  0.00000000000E+00  0.00000000000E+00 -0.19205081384E+04  0.19205081384E+04  0.25500000920E-02 0. -1.
    10030    2    1    2    0    0  0.00000000000E+00  0.00000000000E+00 -0.98407677329E+03  0.28569395035E+04  0.26821066778E+04 0.  0.
        1    1    3    3  502    0  0.31189741299E+03 -0.11894935298E+04  0.77859623463E+02  0.12321675920E+04  0.50400001928E-02 0. -1.
       -1    1    3    3    0  502 -0.31189741299E+03  0.11894935298E+04 -0.10619363968E+04  0.16247719115E+04  0.50400001928E-02 0.  1.
</event>
<event>
 5   0  0.2651061E-05  0.2794054E+04  0.7818609E-02  0.8305117E-01
       -2   -1    0    0    0  501  0.00000000000E+00  0.00000000000E+00  0.93736911313E+03  0.93736911313E+03  0.25500000920E-02 0.  1.
        2   -1    0    0  501    0  0.00000000000E+00  0.00000000000E+00 -0.20820875960E+04  0.20820875960E+04  0.25500000920E-02 0. -1.
    10030    2    1    2    0    0  0.00000000000E+00  0.00000000000E+00 -0.11447184829E+04  0.30194567092E+04  0.27940541178E+04 0.  0.
        3    1    3    3  502    0 -0.68402177165E+03  0.10691825228E+04 -0.12030937948E+04  0.17488486900E+04  0.10100000352E+00 0. -1.
       -3    1    3    3    0  502  0.68402177165E+03 -0.10691825228E+04  0.58375311906E+02  0.12706080192E+04  0.10100000352E+00 0.  1.
</event>
<event>
 5   0  0.1078103E-05  0.2243597E+04  0.7818609E-02  0.8500498E-01
       -1   -1    0    0    0  501  0.00000000000E+00  0.00000000000E+00  0.10667138995E+04  0.10667138995E+04  0.50400001928E-02 0.  1.
        1   -1    0    0  501    0  0.00000000000E+00  0.00000000000E+00 -0.11797281576E+04  0.11797281576E+04  0.50400001928E-02 0. -1.
    10030    2    1    2    0    0  0.00000000000E+00  0.00000000000E+00 -0.11301425818E+03  0.22464420571E+04  0.22435974892E+04 0.  0.
        1    1    3    3  502    0 -0.95260326920E+03 -0.33067932132E+03  0.43567547666E+03  0.10984602510E+04  0.50400001928E-02 0.  1.
       -1    1    3    3    0  502  0.95260326920E+03  0.33067932132E+03 -0.54868973484E+03  0.11479818061E+04  0.50400001928E-02 0. -1.
</event>
<event>
 5   0  0.1075146E-05  0.2805862E+04  0.7818609E-02  0.8301451E-01
       -1   -1    0    0    0  501  0.00000000000E+00  0.00000000000E+00  0.10671874486E+04  0.10671874486E+04  0.50400001928E-02 0.  1.
        1   -1    0    0  501    0  0.00000000000E+00  0.00000000000E+00 -0.18443011856E+04  0.18443011856E+04  0.50400001928E-02 0. -1.
    10030    2    1    2    0    0  0.00000000000E+00  0.00000000000E+00 -0.77711373698E+03  0.29114886343E+04  0.28058617762E+04 0.  0.
        2    1    3    3  502    0 -0.87012462193E+03  0.15454623786E+02 -0.15303717011E+04  0.17605093714E+04  0.25500000920E-02 0. -1.
       -2    1    3    3    0  502  0.87012462193E+03 -0.15454623786E+02  0.75325796413E+03  0.11509792629E+04  0.25500000920E-02 0.  1.
</event>
<event>
 5   0  0.2697964E-05  0.2310265E+04  0.7818609E-02  0.8473885E-01
        2   -1    0    0  501    0  0.00000000000E+00  0.00000000000E+00  0.85882195680E+03  0.85882195681E+03  0.25500000920E-02 0.  1.
       -2   -1    0    0    0  501  0.00000000000E+00  0.00000000000E+00 -0.15536758384E+04  0.15536758384E+04  0.25500000920E-02 0. -1.
    10030    2    1    2    0    0  0.00000000000E+00  0.00000000000E+00 -0.69485388163E+03  0.24124977952E+04  0.23102648539E+04 0.  0.
        1    1    3    3  502    0 -0.78886848390E+03 -0.20204630753E+03 -0.12029454744E+04  0.14526575679E+04  0.50400001928E-02 0. -1.
       -1    1    3    3    0  502  0.78886848390E+03  0.20204630753E+03  0.50809159278E+03  0.95984022730E+03  0.50400001928E-02 0.  1.
</event>
<event>
 5   0  0.2651061E-05  0.2748781E+04  0.7818609E-02  0.8319349E-01
       -2   -1    0    0    0  501  0.00000000000E+00  0.00000000000E+00  0.11646836245E+04  0.11646836245E+04  0.25500000920E-02 0.  1.
        2   -1    0    0  501    0  0.00000000000E+00  0.00000000000E+00 -0.16218556496E+04  0.16218556496E+04  0.25500000920E-02 0. -1.
    10030    2    1    2    0    0  0.00000000000E+00  0.00000000000E+00 -0.45717202512E+03  0.27865392742E+04  0.27487806144E+04 0.  0.
        3    1    3    3  502    0 -0.99303600262E+03 -0.14467417650E+03 -0.11805799138E+04  0.15494579901E+04  0.10100000352E+00 0. -1.
       -3    1    3    3    0  502  0.99303600262E+03  0.14467417650E+03  0.72340788869E+03  0.12370812841E+04  0.10100000352E+00 0.  1.
</event>
<event>
 5   0  0.1017456E-05  0.2936957E+04  0.7818609E-02  0.8261966E-01
       -1   -1    0    0    0  501  0.00000000000E+00  0.00000000000E+00  0.12982372543E+04  0.12982372543E+04  0.50400001928E-02 0.  1.
        1   -1    0    0  501    0  0.00000000000E+00  0.00000000000E+00 -0.16610441328E+04  0.16610441328E+04  0.50400001928E-02 0. -1.
    10030    2    1    2    0    0  0.00000000000E+00  0.00000000000E+00 -0.36280687853E+03  0.29592813871E+04  0.29369571834E+04 0.  0.
        5    1    3    3  502    0 -0.11191492159E+04 -0.67054219975E+03  0.49772680723E+03  0.13963795593E+04  0.46999998093E+01 0.  1.
       -5    1    3    3    0  502  0.11191492159E+04  0.67054219975E+03 -0.86053368576E+03  0.15629018278E+04  0.46999998093E+01 0. -1.
</event>
<event>
 5   0  0.2651061E-05  0.2670191E+04  0.7818609E-02  0.8344742E-01
        2   -1    0    0  501    0  0.00000000000E+00  0.00000000000E+00  0.15201826469E+04  0.15201826469E+04  0.25500000920E-02 0. -1.
       -2   -1    0    0    0  501  0.00000000000E+00  0.00000000000E+00 -0.11725436901E+04  0.11725436901E+04  0.25500000920E-02 0.  1.
    10030    2    1    2    0    0  0.00000000000E+00  0.00000000000E+00  0.34763895679E+03  0.26927263369E+04  0.26701914316E+04 0.  0.
        3    1    3    3  502    0  0.69440520528E+03 -0.64871244730E+03  0.11195260718E+04  0.14684566947E+04  0.10100000352E+00 0. -1.
       -3    1    3    3    0  502 -0.69440520528E+03  0.64871244730E+03 -0.77188711503E+03  0.12242696423E+04  0.10100000352E+00 0.  1.
</event>
<event>
 5   0  0.1067434E-05  0.2786913E+04  0.7818609E-02  0.8307343E-01
       -1   -1    0    0    0  501  0.00000000000E+00  0.00000000000E+00  0.16707384001E+04  0.16707384001E+04  0.50400001928E-02 0.  1.
        1   -1    0    0  501    0  0.00000000000E+00  0.00000000000E+00 -0.11621937115E+04  0.11621937115E+04  0.50400001928E-02 0. -1.
    10030    2    1    2    0    0  0.00000000000E+00  0.00000000000E+00  0.50854468864E+03  0.28329321116E+04  0.27869134627E+04 0.  0.
        4    1    3    3  502    0  0.43893905835E+02 -0.56942082954E+03  0.15463045172E+04  0.16484010522E+04  0.12699999809E+01 0.  1.
       -4    1    3    3    0  502 -0.43893905835E+02  0.56942082954E+03 -0.10377598286E+04  0.11845310594E+04  0.12699999809E+01 0. -1.
</event>
<event>
 5   0  0.1067434E-05  0.2847067E+04  0.7818609E-02  0.8288803E-01
       -1   -1    0    0    0  501  0.00000000000E+00  0.00000000000E+00  0.12476878241E+04  0.12476878241E+04  0.50400001928E-02 0.  1.
        1   -1    0    0  501    0  0.00000000000E+00  0.00000000000E+00 -0.16241621420E+04  0.16241621420E+04  0.50400001928E-02 0. -1.
    10030    2    1    2    0    0  0.00000000000E+00  0.00000000000E+00 -0.37647431788E+03  0.28718499661E+04  0.28470667915E+04 0.  0.
        4    1    3    3  502    0  0.12745032526E+03  0.14174275710E+04 -0.15476378468E+03  0.14315369175E+04  0.12699999809E+01 0.  1.
       -4    1    3    3    0  502 -0.12745032526E+03 -0.14174275710E+04 -0.22171053320E+03  0.14403130485E+04  0.12699999809E+01 0. -1.
</event>
<event>
 5   0  0.2651061E-05  0.2816147E+04  0.7818609E-02  0.8298273E-01
        2   -1    0    0  501    0  0.00000000000E+00  0.00000000000E+00  0.94080668290E+03  0.94080668290E+03  0.25500000920E-02 0.  1.
       -2   -1    0    0    0  501  0.00000000000E+00  0.00000000000E+00 -0.21074158835E+04  0.21074158835E+04  0.25500000920E-02 0. -1.
    10030    2    1    2    0    0  0.00000000000E+00  0.00000000000E+00 -0.11666092006E+04  0.30482225664E+04  0.28161469754E+04 0.  0.
        3    1    3    3  502    0 -0.41202908547E+03  0.13458506072E+04 -0.54015580625E+03  0.15075974693E+04  0.10100000352E+00 0. -1.
       -3    1    3    3    0  502  0.41202908547E+03 -0.13458506072E+04 -0.62645339434E+03  0.15406250971E+04  0.10100000352E+00 0.  1.
</event>
<event>
 5   0  0.1105862E-05  0.2187943E+04  0.7818609E-02  0.8523463E-01
       -1   -1    0    0    0  501  0.00000000000E+00  0.00000000000E+00  0.98656277820E+03  0.98656277822E+03  0.50400001928E-02 0. -1.
        1   -1    0    0  501    0  0.00000000000E+00  0.00000000000E+00 -0.12130741846E+04  0.12130741846E+04  0.50400001928E-02 0.  1.
    10030    2    1    2    0    0  0.00000000000E+00  0.00000000000E+00 -0.22651140641E+03  0.21996369628E+04  0.21879431782E+04 0.  0.
        3    1    3    3  502    0  0.40128469072E+03 -0.88349396716E+03  0.39460042644E+03  0.10475211214E+04  0.10100000352E+00 0. -1.
       -3    1    3    3    0  502 -0.40128469072E+03  0.88349396716E+03 -0.62111183285E+03  0.11521158415E+04  0.10100000352E+00 0.  1.
</event>
<event>
 5   0  0.1078103E-05  0.2876599E+04  0.7818609E-02  0.8279874E-01
       -1   -1    0    0    0  501  0.00000000000E+00  0.00000000000E+00  0.15556211361E+04  0.15556211361E+04  0.50400001928E-02 0.  1.
        1   -1    0    0  501    0  0.00000000000E+00  0.00000000000E+00 -0.13298261739E+04  0.13298261740E+04  0.50400001928E-02 0. -1.
    10030    2    1    2    0    0  0.00000000000E+00  0.00000000000E+00  0.22579496217E+03  0.28854473101E+04  0.28765991751E+04 0.  0.
        1    1    3    3  502    0  0.59131494334E+03  0.11204453416E+04 -0.57011882604E+03  0.13892755672E+04  0.50400001928E-02 0.  1.
       -1    1    3    3    0  502 -0.59131494334E+03 -0.11204453416E+04  0.79591378821E+03  0.14961717429E+04  0.50400001928E-02 0. -1.
</event>
<event>
 5   0  0.1067434E-05  0.2806524E+04  0.7818609E-02  0.8301246E-01
        1   -1    0    0  501    0  0.00000000000E+00  0.00000000000E+00  0.26351668025E+04  0.26351668025E+04  0.50400001928E-02 0. -1.
       -1   -1    0    0    0  501  0.00000000000E+00  0.00000000000E+00 -0.74725590519E+03  0.74725590521E+03  0.50400001928E-02 0.  1.
    10030    2    1    2    0    0  0.00000000000E+00  0.00000000000E+00  0.18879108973E+04  0.33824227077E+04  0.28065237960E+04 0.  0.
        4    1    3    3  502    0 -0.94233206633E+03 -0.41381542914E+03  0.20935858244E+04  0.23328815121E+04  0.12699999809E+01 0. -1.
       -4    1    3    3    0  502  0.94233206633E+03  0.41381542914E+03 -0.20567492712E+03  0.10495411956E+04  0.12699999809E+01 0.  1.
</event>
<event>
 5   0  0.2588048E-05  0.2815305E+04  0.7818609E-02  0.8298532E-01
        2   -1    0    0  501    0  0.00000000000E+00  0.00000000000E+00  0.15781288203E+04  0.15781288203E+04  0.25500000920E-02 0.  1.
       -2   -1    0    0    0  501  0.00000000000E+00  0.00000000000E+00 -0.12555919089E+04  0.12555919089E+04  0.25500000920E-02 0. -1.
    10030    2    1    2    0    0  0.00000000000E+00  0.00000000000E+00  0.32253691131E+03  0.28337207292E+04  0.28153051543E+04 0.  0.
        2    1    3    3  502    0  0.65748227263E+03  0.29230532303E+03  0.13790421098E+04  0.15554685729E+04  0.25500000920E-02 0.  1.
       -2    1    3    3    0  502 -0.65748227263E+03 -0.29230532303E+03 -0.10565051985E+04  0.12782521563E+04  0.25500000920E-02 0. -1.
</event>
<event>
 5   0  0.2588048E-05  0.2767655E+04  0.7818609E-02  0.8313381E-01
        2   -1    0    0  501    0  0.00000000000E+00  0.00000000000E+00  0.19700143041E+04  0.19700143041E+04  0.25500000920E-02 0. -1.
       -2   -1    0    0    0  501  0.00000000000E+00  0.00000000000E+00 -0.97206323263E+03  0.97206323263E+03  0.25500000920E-02 0.  1.
    10030    2    1    2    0    0  0.00000000000E+00  0.00000000000E+00  0.99795107150E+03  0.29420775368E+04  0.27676549444E+04 0.  0.
        2    1    3    3  502    0  0.14240435294E+03 -0.12737534865E+04 -0.55685085589E+02  0.12828981927E+04  0.25500000920E-02 0.  1.
       -2    1    3    3    0  502 -0.14240435294E+03  0.12737534865E+04  0.10536361571E+04  0.16591793440E+04  0.25500000920E-02 0. -1.
</event>
<event>
 5   0  0.2588048E-05  0.2689336E+04  0.7818609E-02  0.8338473E-01
        2   -1    0    0  501    0  0.00000000000E+00  0.00000000000E+00  0.16207435528E+04  0.16207435528E+04  0.25500000920E-02 0.  1.
       -2   -1    0    0    0  501  0.00000000000E+00  0.00000000000E+00 -0.11156189080E+04  0.11156189080E+04  0.25500000920E-02 0. -1.
    10030    2    1    2    0    0  0.00000000000E+00  0.00000000000E+00  0.50512464477E+03  0.27363624608E+04  0.26893360909E+04 0.  0.
        2    1    3    3  502    0 -0.19494574397E+03  0.12290929925E+04 -0.26571556957E+03  0.12725086213E+04  0.25500000920E-02 0. -1.
       -2    1    3    3    0  502  0.19494574397E+03 -0.12290929925E+04  0.77084021434E+03  0.14638538395E+04  0.25500000920E-02 0.  1.
</event>
<event>
 5   0  0.1075146E-05  0.2744528E+04  0.7818609E-02  0.8320700E-01
        1   -1    0    0  501    0  0.00000000000E+00  0.00000000000E+00  0.12806721901E+04  0.12806721901E+04  0.50400001928E-02 0. -1.
       -1   -1    0    0    0  501  0.00000000000E+00  0.00000000000E+00 -0.14704060500E+04  0.14704060500E+04  0.50400001928E-02 0.  1.
    10030    2    1    2    0    0  0.00000000000E+00  0.00000000000E+00 -0.18973385987E+03  0.27510782401E+04  0.27445277454E+04 0.  0.
        2    1    3    3  502    0  0.11607888655E+04  0.50761142362E+03 -0.62339000609E+03  0.14119898185E+04  0.25500000920E-02 0. -1.
       -2    1    3    3    0  502 -0.11607888655E+04 -0.50761142362E+03  0.43365614622E+03  0.13390884216E+04  0.25500000920E-02 0.  1.
</event>
<event>
 5   0  0.1067434E-05  0.2697938E+04  0.7818609E-02  0.8335674E-01
       -1   -1    0    0    0  501  0.00000000000E+00  0.00000000000E+00  0.22181918271E+04  0.22181918271E+04  0.50400001928E-02 0.  1.
        1   -1    0    0  501    0  0.00000000000E+00  0.00000000000E+00 -0.82036092157E+03  0.82036092158E+03  0.50400001928E-02 0. -1.
    10030    2    1    2    0    0  0.00000000000E+00  0.00000000000E+00  0.13978309055E+04  0.30385527486E+04  0.26979383918E+04 0.  0.
        4    1    3    3  502    0 -0.66974337916E+03 -0.74579645968E+03  0.17156313818E+04  0.19869980383E+04  0.12699999809E+01 0.  1.
       -4    1    3    3    0  502  0.66974337916E+03  0.74579645968E+03 -0.31780047629E+03  0.10515547103E+04  0.12699999809E+01 0. -1.
</event>
<event>
 5   0  0.1105862E-05  0.2817255E+04  0.7818609E-02  0.8297931E-01
        1   -1    0    0  501    0  0.00000000000E+00  0.00000000000E+00  0.20348728473E+04  0.20348728473E+04  0.50400001928E-02 0. -1.
       -1   -1    0    0    0  501  0.00000000000E+00  0.00000000000E+00 -0.97511304926E+03  0.97511304927E+03  0.50400001928E-02 0.  1.
    10030    2    1    2    0    0  0.00000000000E+00  0.00000000000E+00  0.10597597980E+04  0.30099858966E+04  0.28172547396E+04 0.  0.
        3    1    3    3  502    0  0.62066318792E+03 -0.12078603419E+04  0.92975925113E+03  0.16457829971E+04  0.10100000352E+00 0. -1.
       -3    1    3    3    0  502 -0.62066318792E+03  0.12078603419E+04  0.13000054688E+03  0.13642028994E+04  0.10100000352E+00 0.  1.
</event>
<event>
 5   0  0.2518686E-05  0.2657856E+04  0.7818609E-02  0.8348810E-01
       -2   -1    0    0    0  501  0.00000000000E+00  0.00000000000E+00  0.14680649497E+04  0.14680649497E+04  0.25500000920E-02 0. -1.
        2   -1    0    0  501    0  0.00000000000E+00  0.00000000000E+00 -0.12029781286E+04  0.12029781286E+04  0.25500000920E-02 0.  1.
    10030    2    1    2    0    0  0.00000000000E+00  0.00000000000E+00  0.26508682108E+03  0.26710430784E+04  0.26578562986E+04 0.  0.
        5    1    3    3  502    0  0.51309488407E+03  0.28728570832E+03 -0.10651026970E+04  0.12166615320E+04  0.46999998093E+01 0.  1.
       -5    1    3    3    0  502 -0.51309488407E+03 -0.28728570832E+03  0.13301895181E+04  0.14543815464E+04  0.46999998093E+01 0. -1.
</event>
<event>
 5   0  0.1067434E-05  0.2780022E+04  0.7818609E-02  0.8309498E-01
        1   -1    0    0  501    0  0.00000000000E+00  0.00000000000E+00  0.14836778557E+04  0.14836778557E+04  0.50400001928E-02 0.  1.
       -1   -1    0    0    0  501  0.00000000000E+00  0.00000000000E+00 -0.13022578615E+04  0.13022578615E+04  0.50400001928E-02 0. -1.
    10030    2    1    2    0    0  0.00000000000E+00  0.00000000000E+00  0.18141999426E+03  0.27859357172E+04  0.27800224111E+04 0.  0.
        4    1    3    3  502    0  0.13142559061E+02  0.11449568566E+04  0.88044119886E+03  0.14443951149E+04  0.12699999809E+01 0.  1.
       -4    1    3    3    0  502 -0.13142559061E+02 -0.11449568566E+04 -0.69902120460E+03  0.13415406023E+04  0.12699999809E+01 0. -1.
</event>
<event>
 5   0  0.2518686E-05  0.2814811E+04  0.7818609E-02  0.8298685E-01
        2   -1    0    0  501    0  0.00000000000E+00  0.00000000000E+00  0.22699896738E+04  0.22699896738E+04  0.25500000920E-02 0. -1.
       -2   -1    0    0    0  501  0.00000000000E+00  0.00000000000E+00 -0.87259907999E+03  0.87259908000E+03  0.25500000920E-02 0.  1.
    10030    2    1    2    0    0  0.00000000000E+00  0.00000000000E+00  0.13973905938E+04  0.31425887538E+04  0.28148114686E+04 0.  0.
        5    1    3    3  502    0  0.56928562701E+03 -0.93534803767E+03  0.16858561933E+04  0.20102475646E+04  0.46999998093E+01 0. -1.
       -5    1    3    3    0  502 -0.56928562701E+03  0.93534803767E+03 -0.28846559944E+03  0.11323411892E+04  0.46999998093E+01 0.  1.
</event>
<event>
 5   0  0.1067434E-05  0.2757763E+04  0.7818609E-02  0.8316502E-01
        1   -1    0    0  501    0  0.00000000000E+00  0.00000000000E+00  0.12180556410E+04  0.12180556411E+04  0.50400001928E-02 0. -1.
       -1   -1    0    0    0  501  0.00000000000E+00  0.00000000000E+00 -0.15609420561E+04  0.15609420561E+04  0.50400001928E-02 0.  1.
    10030    2    1    2    0    0  0.00000000000E+00  0.00000000000E+00 -0.34288641505E+03  0.27789976972E+04  0.27577630622E+04 0.  0.
        4    1    3    3  502    0 -0.12692143093E+04 -0.10879582166E+03  0.36041923153E+03  0.13238750428E+04  0.12699999809E+01 0. -1.
       -4    1    3    3    0  502  0.12692143093E+04  0.10879582166E+03 -0.70330564657E+03  0.14551226543E+04  0.12699999809E+01 0.  1.
</event>
<event>
 5   0  0.1017456E-05  0.1952996E+04  0.7818609E-02  0.8628917E-01
        1   -1    0    0  501    0  0.00000000000E+00  0.00000000000E+00  0.94582076169E+03  0.94582076170E+03  0.50400001928E-02 0. -1.
       -1   -1    0    0    0  501  0.00000000000E+00  0.00000000000E+00 -0.10081705011E+04  0.10081705011E+04  0.50400001928E-02 0.  1.
    10030    2    1    2    0    0  0.00000000000E+00  0.00000000000E+00 -0.62349739418E+02  0.19539912628E+04  0.19529962532E+04 0.  0.
        5    1    3    3  502    0  0.12795942907E+02  0.33445118363E+03  0.88662840273E+03  0.94770952560E+03  0.46999998093E+01 0. -1.
       -5    1    3    3    0  502 -0.12795942907E+02 -0.33445118363E+03 -0.94897814215E+03  0.10062817372E+04  0.46999998093E+01 0.  1.
</event>
<event>
 5   0  0.1105862E-05  0.2703286E+04  0.7818609E-02  0.8333939E-01
       -1   -1    0    0    0  501  0.00000000000E+00  0.00000000000E+00  0.23877085991E+04  0.23877085991E+04  0.50400001928E-02 0. -1.
        1   -1    0    0  501    0  0.00000000000E+00  0.00000000000E+00 -0.76514332932E+03  0.76514332934E+03  0.50400001928E-02 0.  1.
    10030    2    1    2    0    0  0.00000000000E+00  0.00000000000E+00  0.16225652698E+04  0.31528519285E+04  0.27032863755E+04 0.  0.
        3    1    3    3  502    0 -0.10695053572E+04 -0.41660855775E+03  0.16438099396E+04  0.20048729454E+04  0.10100000352E+00 0. -1.
       -3    1    3    3    0  502  0.10695053572E+04  0.41660855775E+03 -0.21244669822E+02  0.11479789831E+04  0.10100000352E+00 0.  1.
</event>
<event>
 5   0  0.1078103E-05  0.2795929E+04  0.7818609E-02  0.8304533E-01
       -1   -1    0    0    0  501  0.00000000000E+00  0.00000000000E+00  0.14384478814E+04  0.14384478814E+04  0.50400001928E-02 0. -1.
        1   -1    0    0  501    0  0.00000000000E+00  0.00000000000E+00 -0.13586209527E+04  0.13586209527E+04  0.50400001928E-02 0.  1.
    10030    2    1    2    0    0  0.00000000000E+00  0.00000000000E+00  0.79826928697E+02  0.27970688342E+04  0.27959294921E+04 0.  0.
        1    1    3    3  502    0  0.98670358770E+03  0.60240868376E+02  0.10287961632E+04  0.14267566288E+04  0.50400001928E-02 0. -1.
       -1    1    3    3    0  502 -0.98670358770E+03 -0.60240868376E+02 -0.94896923454E+03  0.13703122054E+04  0.50400001928E-02 0.  1.
</event>
<event>
 5   0  0.2624815E-05  0.1532140E+04  0.7818609E-02  0.8863357E-01
        2   -1    0    0  501    0  0.00000000000E+00  0.00000000000E+00  0.55355509899E+03  0.55355509900E+03  0.25500000920E-02 0. -1.
       -2   -1    0    0    0  501  0.00000000000E+00  0.00000000000E+00 -0.10601711169E+04  0.10601711169E+04  0.25500000920E-02 0.  1.
    10030    2    1    2    0    0  0.00000000000E+00  0.00000000000E+00 -0.50661601791E+03  0.16137262159E+04  0.15321398468E+04 0.  0.
        4    1    3    3  502    0 -0.15165783199E+02  0.31617397443E+03 -0.98807009915E+03  0.10375355979E+04  0.12699999809E+01 0.  1.
       -4    1    3    3    0  502  0.15165783199E+02 -0.31617397443E+03  0.48145408124E+03  0.57619061805E+03  0.12699999809E+01 0. -1.
</event>
<event>
 5   0  0.2588048E-05  0.2824479E+04  0.7818609E-02  0.8295709E-01
       -2   -1    0    0    0  501  0.00000000000E+00  0.00000000000E+00  0.11958841679E+04  0.11958841679E+04  0.25500000920E-02 0. -1.
        2   -1    0    0  501    0  0.00000000000E+00  0.00000000000E+00 -0.16677367699E+04  0.16677367699E+04  0.25500000920E-02 0.  1.
    10030    2    1    2    0    0  0.00000000000E+00  0.00000000000E+00 -0.47185260193E+03  0.28636209378E+04  0.28244787125E+04 0.  0.
        2    1    3    3  502    0  0.54532493562E+03 -0.73761489707E+03  0.85271618910E+03  0.12524296072E+04  0.25500000920E-02 0. -1.
       -2    1    3    3    0  502 -0.54532493562E+03  0.73761489707E+03 -0.13245687910E+04  0.16111913306E+04  0.25500000920E-02 0.  1.
</event>
<event>
 5   0  0.1105862E-05  0.2585588E+04  0.7818609E-02  0.8373113E-01
       -1   -1    0    0    0  501  0.00000000000E+00  0.00000000000E+00  0.22799841326E+04  0.22799841326E+04  0.50400001928E-02 0. -1.
        1   -1    0    0  501    0  0.00000000000E+00  0.00000000000E+00 -0.73303846024E+03  0.73303846026E+03  0.50400001928E-02 0.  1.
    10030    2    1    2    0    0  0.00000000000E+00  0.00000000000E+00  0.15469456724E+04  0.30130225929E+04  0.25855877924E+04 0.  0.
        3    1    3    3  502    0 -0.87693975750E+02 -0.91891816207E+03  0.18282047994E+04  0.20480316454E+04  0.10100000352E+00 0. -1.
       -3    1    3    3    0  502  0.87693975750E+02  0.91891816207E+03 -0.28125912701E+03  0.96499094746E+03  0.10100000352E+00 0.  1.
</event>
<event>
 5   0  0.2651061E-05  0.2814807E+04  0.7818609E-02  0.8298686E-01
       -2   -1    0    0    0  501  0.00000000000E+00  0.00000000000E+00  0.88160369889E+03  0.88160369890E+03  0.25500000920E-02 0.  1.
        2   -1    0    0  501    0  0.00000000000E+00  0.00000000000E+00 -0.22467976543E+04  0.22467976543E+04  0.25500000920E-02 0. -1.
    10030    2    1    2    0    0  0.00000000000E+00  0.00000000000E+00 -0.13651939554E+04  0.31284013532E+04  0.28148073630E+04 0.  0.
        3    1    3    3  502    0 -0.11196480999E+04 -0.10374339494E+03  0.25811088478E+03  0.11536879122E+04  0.10100000352E+00 0.  1.
       -3    1    3    3    0  502  0.11196480999E+04  0.10374339494E+03 -0.16233048402E+04  0.19747134410E+04  0.10100000352E+00 0. -1.
</event>
<event>
 5   0  0.1078103E-05  0.2763515E+04  0.7818609E-02  0.8314686E-01
        1   -1    0    0  501    0  0.00000000000E+00  0.00000000000E+00  0.20873301228E+04  0.20873301228E+04  0.50400001928E-02 0.  1.
       -1   -1    0    0    0  501  0.00000000000E+00  0.00000000000E+00 -0.91468709699E+03  0.91468709700E+03  0.50400001928E-02 0. -1.
    10030    2    1    2    0    0  0.00000000000E+00  0.00000000000E+00  0.11726430258E+04  0.30020172198E+04  0.27635151026E+04 0.  0.
        1    1    3    3  502    0 -0.13204791515E+04 -0.74272583980E+02  0.10209412676E+04  0.16707790632E+04  0.50400001928E-02 0.  1.
       -1    1    3    3    0  502  0.13204791515E+04  0.74272583980E+02  0.15170175827E+03  0.13312381566E+04  0.50400001928E-02 0. -1.
</event>
<event>
 5   0  0.1067434E-05  0.2775379E+04  0.7818609E-02  0.8310953E-01
       -1   -1    0    0    0  501  0.00000000000E+00  0.00000000000E+00  0.65288192385E+03  0.65288192387E+03  0.50400001928E-02 0.  1.
        1   -1    0    0  501    0  0.00000000000E+00  0.00000000000E+00 -0.29495100667E+04  0.29495100667E+04  0.50400001928E-02 0. -1.
    10030    2    1    2    0    0  0.00000000000E+00  0.00000000000E+00 -0.22966281429E+04  0.36023919906E+04  0.27753787538E+04 0.  0.
        4    1    3    3  502    0  0.89641723060E+03  0.20240374365E+03 -0.24979340483E+04  0.26616174123E+04  0.12699999809E+01 0. -1.
       -4    1    3    3    0  502 -0.89641723060E+03 -0.20240374365E+03  0.20130590543E+03  0.94077457832E+03  0.12699999809E+01 0.  1.
</event>
<event>
 5   0  0.1017456E-05  0.2723575E+04  0.7818609E-02  0.8327396E-01
        1   -1    0    0  501    0  0.00000000000E+00  0.00000000000E+00  0.12553688557E+04  0.12553688557E+04  0.50400001928E-02 0. -1.
       -1   -1    0    0    0  501  0.00000000000E+00  0.00000000000E+00 -0.14772277808E+04  0.14772277808E+04  0.50400001928E-02 0.  1.
    10030    2    1    2    0    0  0.00000000000E+00  0.00000000000E+00 -0.22185892509E+03  0.27325966364E+04  0.27235754065E+04 0.  0.
        5    1    3    3  502    0 -0.10768545649E+04  0.69604638864E+03 -0.57108497281E+03  0.14036582438E+04  0.46999998093E+01 0.  1.
       -5    1    3    3    0  502  0.10768545649E+04 -0.69604638864E+03  0.34922604773E+03  0.13289383927E+04  0.46999998093E+01 0. -1.
</event>
<event>
 5   0  0.2651061E-05  0.2779010E+04  0.7818609E-02  0.8309815E-01
        2   -1    0    0  501    0  0.00000000000E+00  0.00000000000E+00  0.21540819375E+04  0.21540819375E+04  0.25500000920E-02 0. -1.
       -2   -1    0    0    0  501  0.00000000000E+00  0.00000000000E+00 -0.89630967984E+03  0.89630967984E+03  0.25500000920E-02 0.  1.
    10030    2    1    2    0    0  0.00000000000E+00  0.00000000000E+00  0.12577722577E+04  0.30503916174E+04  0.27790102496E+04 0.  0.
        3    1    3    3  502    0  0.12039357892E+04  0.23045644437E+03  0.13471183882E+04  0.18213455244E+04  0.10100000352E+00 0. -1.
       -3    1    3    3    0  502 -0.12039357892E+04 -0.23045644437E+03 -0.89346130527E+02  0.12290460929E+04  0.10100000352E+00 0.  1.
</event>
<event>
 5   0  0.1078103E-05  0.2914212E+04  0.7818609E-02  0.8268661E-01
        1   -1    0    0  501    0  0.00000000000E+00  0.00000000000E+00  0.17790028193E+04  0.17790028193E+04  0.50400001928E-02 0.  1.
       -1   -1    0    0    0  501  0.00000000000E+00  0.00000000000E+00 -0.11934542821E+04  0.11934542822E+04  0.50400001928E-02 0. -1.
    10030    2    1    2    0    0  0.00000000000E+00  0.00000000000E+00  0.58554853718E+03  0.29724571015E+04  0.29142124375E+04 0.  0.
        1    1    3    3  502    0 -0.12645722414E+04 -0.35850819611E+03 -0.34867267884E+03  0.13598690075E+04  0.50400001928E-02 0. -1.
       -1    1    3    3    0  502  0.12645722414E+04  0.35850819611E+03  0.93422121602E+03  0.16125880940E+04  0.50400001928E-02 0.  1.
</event>
<event>
 5   0  0.2697964E-05  0.2522382E+04  0.7818609E-02  0.8395055E-01
        2   -1    0    0  501    0  0.00000000000E+00  0.00000000000E+00  0.13898575509E+04  0.13898575509E+04  0.25500000920E-02 0.  1.
       -2   -1    0    0    0  501  0.00000000000E+00  0.00000000000E+00 -0.11444360748E+04  0.11444360748E+04  0.25500000920E-02 0. -1.
    10030    2    1    2    0    0  0.00000000000E+00  0.00000000000E+00  0.24542147605E+03  0.25342936257E+04  0.25223823026E+04 0.  0.
        1    1    3    3  502    0  0.10342738495E+04 -0.39100768988E+03  0.73220022485E+03  0.13261698905E+04  0.50400001928E-02 0.  1.
       -1    1    3    3    0  502 -0.10342738495E+04  0.39100768988E+03 -0.48677874880E+03  0.12081237352E+04  0.50400001928E-02 0. -1.
</event>
<event>
 5   0  0.1067434E-05  0.1701393E+04  0.7818609E-02  0.8760570E-01
        1   -1    0    0  501    0  0.00000000000E+00  0.00000000000E+00  0.99072301146E+03  0.99072301148E+03  0.50400001928E-02 0.  1.
       -1   -1    0    0    0  501  0.00000000000E+00  0.00000000000E+00 -0.73046118380E+03  0.73046118382E+03  0.50400001928E-02 0. -1.
    10030    2    1    2    0    0  0.00000000000E+00  0.00000000000E+00  0.26026182766E+03  0.17211841953E+04  0.17013931983E+04 0.  0.
        4    1    3    3  502    0 -0.16011503768E+03  0.62704218181E+03 -0.42843700822E+03  0.77613053411E+03  0.12699999809E+01 0. -1.
       -4    1    3    3    0  502  0.16011503768E+03 -0.62704218181E+03  0.68869883589E+03  0.94505366118E+03  0.12699999809E+01 0.  1.
</event>
<event>
 5   0  0.1017456E-05  0.2088526E+04  0.7818609E-02  0.8566315E-01
        1   -1    0    0  501    0  0.00000000000E+00  0.00000000000E+00  0.10407732661E+04  0.10407732661E+04  0.50400001928E-02 0.  1.
       -1   -1    0    0    0  501  0.00000000000E+00  0.00000000000E+00 -0.10477647104E+04  0.10477647104E+04  0.50400001928E-02 0. -1.
    10030    2    1    2    0    0  0.00000000000E+00  0.00000000000E+00 -0.69914442610E+01  0.20885379765E+04  0.20885262744E+04 0.  0.
        5    1    3    3  502    0  0.14980216425E+03 -0.96156457652E+03 -0.38220127222E+03  0.10455367166E+04  0.46999998093E+01 0. -1.
       -5    1    3    3    0  502 -0.14980216425E+03  0.96156457652E+03  0.37520982796E+03  0.10430012599E+04  0.46999998093E+01 0.  1.
</event>
<event>
 5   0  0.1075146E-05  0.2911743E+04  0.7818609E-02  0.8269392E-01
       -1   -1    0    0    0  501  0.00000000000E+00  0.00000000000E+00  0.95692423678E+03  0.95692423679E+03  0.50400001928E-02 0. -1.
        1   -1    0    0  501    0  0.00000000000E+00  0.00000000000E+00 -0.22149740329E+04  0.22149740329E+04  0.50400001928E-02 0.  1.
    10030    2    1    2    0    0  0.00000000000E+00  0.00000000000E+00 -0.12580497961E+04  0.31718982697E+04  0.29117433513E+04 0.  0.
        2    1    3    3  502    0  0.54767675948E+03  0.10106674670E+04  0.34419765366E+03  0.11999460765E+04  0.25500000920E-02 0. -1.
       -2    1    3    3    0  502 -0.54767675948E+03 -0.10106674670E+04 -0.16022474498E+04  0.19719521932E+04  0.25500000920E-02 0.  1.
</event>
<event>
 5   0  0.1075146E-05  0.2841615E+04  0.7818609E-02  0.8290464E-01
        1   -1    0    0  501    0  0.00000000000E+00  0.00000000000E+00  0.26602294081E+04  0.26602294081E+04  0.50400001928E-02 0. -1.
       -1   -1    0    0    0  501  0.00000000000E+00  0.00000000000E+00 -0.75884215319E+03  0.75884215321E+03  0.50400001928E-02 0.  1.
    10030    2    1    2    0    0  0.00000000000E+00  0.00000000000E+00  0.19013872549E+04  0.34190715613E+04  0.28416151830E+04 0.  0.
        2    1    3    3  502    0 -0.12115137241E+04  0.62994580733E+03  0.47836964091E+03  0.14468706705E+04  0.25500000920E-02 0.  1.
       -2    1    3    3    0  502  0.12115137241E+04 -0.62994580733E+03  0.14230176140E+04  0.19722008908E+04  0.25500000920E-02 0. -1.
</event>
<event>
 5   0  0.1017456E-05  0.2704748E+04  0.7818609E-02  0.8333466E-01
       -1   -1    0    0    0  501  0.00000000000E+00  0.00000000000E+00  0.14295735669E+04  0.14295735669E+04  0.50400001928E-02 0. -1.
        1   -1    0    0  501    0  0.00000000000E+00  0.00000000000E+00 -0.12793431445E+04  0.12793431445E+04  0.50400001928E-02 0.  1.
    10030    2    1    2    0    0  0.00000000000E+00  0.00000000000E+00  0.15023042239E+03  0.27089167114E+04  0.27047477830E+04 0.  0.
        5    1    3    3  502    0 -0.97271178991E+03 -0.60571119089E+03  0.79444140138E+03  0.13943505668E+04  0.46999998093E+01 0. -1.
       -5    1    3    3    0  502  0.97271178991E+03  0.60571119089E+03 -0.64421097899E+03  0.13145661446E+04  0.46999998093E+01 0.  1.
</event>
<event>
 5   0  0.2588048E-05  0.2763763E+04  0.7818609E-02  0.8314608E-01
        2   -1    0    0  501    0  0.00000000000E+00  0.00000000000E+00  0.18983175263E+04  0.18983175263E+04  0.25500000920E-02 0. -1.
       -2   -1    0    0    0  501  0.00000000000E+00  0.00000000000E+00 -0.10059417012E+04  0.10059417012E+04  0.25500000920E-02 0.  1.
    10030    2    1    2    0    0  0.00000000000E+00  0.00000000000E+00  0.89237582517E+03  0.29042592275E+04  0.27637632039E+04 0.  0.
        2    1    3    3  502    0 -0.80768308124E+03  0.59481665011E+03  0.14449998252E+04  0.17590290793E+04  0.25500000920E-02 0. -1.
       -2    1    3    3    0  502  0.80768308124E+03 -0.59481665011E+03 -0.55262400002E+03  0.11452301482E+04  0.25500000920E-02 0.  1.
</event>
<event>
 5   0  0.1078103E-05  0.2884258E+04  0.7818609E-02  0.8277576E-01
       -1   -1    0    0    0  501  0.00000000000E+00  0.00000000000E+00  0.88072556889E+03  0.88072556891E+03  0.50400001928E-02 0.  1.
        1   -1    0    0  501    0  0.00000000000E+00  0.00000000000E+00 -0.23613901304E+04  0.23613901304E+04  0.50400001928E-02 0. -1.
    10030    2    1    2    0    0  0.00000000000E+00  0.00000000000E+00 -0.14806645615E+04  0.32421156993E+04  0.28842584253E+04 0.  0.
        1    1    3    3  502    0 -0.12698354478E+04 -0.49075522604E+03 -0.20546517304E+03  0.13767856383E+04  0.50400001928E-02 0. -1.
       -1    1    3    3    0  502  0.12698354478E+04  0.49075522604E+03 -0.12751993885E+04  0.18653300611E+04  0.50400001928E-02 0.  1.
</event>
<event>
 5   0  0.1078103E-05  0.2779074E+04  0.7818609E-02  0.8309795E-01
       -1   -1    0    0    0  501  0.00000000000E+00  0.00000000000E+00  0.10160132803E+04  0.10160132803E+04  0.50400001928E-02 0.  1.
        1   -1    0    0  501    0  0.00000000000E+00  0.00000000000E+00 -0.19003820891E+04  0.19003820891E+04  0.50400001928E-02 0. -1.
    10030    2    1    2    0    0  0.00000000000E+00  0.00000000000E+00 -0.88436880883E+03  0.29163953695E+04  0.27790742633E+04 0.  0.
        1    1    3    3  502    0  0.49085952061E+03 -0.88572036340E+03  0.55634130621E+03  0.11554043795E+04  0.50400001928E-02 0.  1.
       -1    1    3    3    0  502 -0.49085952061E+03  0.88572036340E+03 -0.14407101150E+04  0.17609909900E+04  0.50400001928E-02 0. -1.
</event>
<event>
 5   0  0.1078103E-05  0.2562710E+04  0.7818609E-02  0.8380979E-01
        1   -1    0    0  501    0  0.00000000000E+00  0.00000000000E+00  0.12666203083E+04  0.12666203083E+04  0.50400001928E-02 0.  1.
       -1   -1    0    0    0  501  0.00000000000E+00  0.00000000000E+00 -0.12962607492E+04  0.12962607492E+04  0.50400001928E-02 0. -1.
    10030    2    1    2    0    0  0.00000000000E+00  0.00000000000E+00 -0.29640440876E+02  0.25628810575E+04  0.25627096518E+04 0.  0.
        1    1    3    3  502    0 -0.32222491109E+03 -0.75973655337E+03 -0.99511109626E+03  0.12927778687E+04  0.50400001928E-02 0. -1.
       -1    1    3    3    0  502  0.32222491109E+03  0.75973655337E+03  0.96547065539E+03  0.12701031888E+04  0.50400001928E-02 0.  1.
</event>
<event>
 5   0  0.2624815E-05  0.2824876E+04  0.7818609E-02  0.8295587E-01
       -2   -1    0    0    0  501  0.00000000000E+00  0.00000000000E+00  0.13591401031E+04  0.13591401031E+04  0.25500000920E-02 0. -1.
        2   -1    0    0  501    0  0.00000000000E+00  0.00000000000E+00 -0.14678259146E+04  0.14678259146E+04  0.25500000920E-02 0.  1.
    10030    2    1    2    0    0  0.00000000000E+00  0.00000000000E+00 -0.10868581155E+03  0.28269660177E+04  0.28248759724E+04 0.  0.
        4    1    3    3  502    0  0.66066929608E+02  0.78787235756E+03 -0.12256240714E+04  0.14585141989E+04  0.12699999809E+01 0.  1.
       -4    1    3    3    0  502 -0.66066929608E+02 -0.78787235756E+03  0.11169382599E+04  0.13684518188E+04  0.12699999809E+01 0. -1.
</event>
<event>
 5   0  0.1105862E-05  0.2753721E+04  0.7818609E-02  0.8317782E-01
        1   -1    0    0  501    0  0.00000000000E+00  0.00000000000E+00  0.72758518930E+03  0.72758518931E+03  0.50400001928E-02 0.  1.
       -1   -1    0    0    0  501  0.00000000000E+00  0.00000000000E+00 -0.26055288109E+04  0.26055288109E+04  0.50400001928E-02 0. -1.
    10030    2    1    2    0    0  0.00000000000E+00  0.00000000000E+00 -0.18779436216E+04  0.33331140002E+04  0.27537205182E+04 0.  0.
        3    1    3    3  502    0 -0.69325299019E+03  0.11865992095E+04 -0.10411543511E+04  0.17241287032E+04  0.10100000352E+00 0.  1.
       -3    1    3    3    0  502  0.69325299019E+03 -0.11865992095E+04 -0.83678927057E+03  0.16089852970E+04  0.10100000352E+00 0. -1.
</event>
<event>
 5   0  0.2624815E-05  0.2598943E+04  0.7818609E-02  0.8368560E-01
       -2   -1    0    0    0  501  0.00000000000E+00  0.00000000000E+00  0.69735687186E+03  0.69735687187E+03  0.25500000920E-02 0. -1.
        2   -1    0    0  501    0  0.00000000000E+00  0.00000000000E+00 -0.24214662755E+04  0.24214662755E+04  0.25500000920E-02 0.  1.
    10030    2    1    2    0    0  0.00000000000E+00  0.00000000000E+00 -0.17241094036E+04  0.31188231473E+04  0.25989429753E+04 0.  0.
        4    1    3    3  502    0 -0.73851107292E+03 -0.25592982407E+03 -0.21078541929E+04  0.22480991061E+04  0.12699999809E+01 0.  1.
       -4    1    3    3    0  502  0.73851107292E+03  0.25592982407E+03  0.38374478930E+03  0.87072404118E+03  0.12699999809E+01 0. -1.
</event>
<event>
 5   0  0.2651061E-05  0.2770845E+04  0.7818609E-02  0.8312378E-01
       -2   -1    0    0    0  501  0.00000000000E+00  0.00000000000E+00  0.20493047172E+04  0.20493047172E+04  0.25500000920E-02 0. -1.
        2   -1    0    0  501    0  0.00000000000E+00  0.00000000000E+00 -0.93660784651E+03  0.93660784651E+03  0.25500000920E-02 0.  1.
    10030    2    1    2    0    0  0.00000000000E+00  0.00000000000E+00  0.11126968706E+04  0.29859125637E+04  0.27708445485E+04 0.  0.
        3    1    3    3  502    0 -0.64109074032E+02 -0.20718076711E+03  0.20308991731E+04  0.20424459124E+04  0.10100000352E+00 0. -1.
       -3    1    3    3    0  502  0.64109074032E+02  0.20718076711E+03 -0.91820230245E+03  0.94346665127E+03  0.10100000352E+00 0.  1.
</event>
<event>
 5   0  0.2697964E-05  0.2922998E+04  0.7818609E-02  0.8266068E-01
       -2   -1    0    0    0  501  0.00000000000E+00  0.00000000000E+00  0.13426185055E+04  0.13426185056E+04  0.25500000920E-02 0. -1.
        2   -1    0    0  501    0  0.00000000000E+00  0.00000000000E+00 -0.15909056907E+04  0.15909056907E+04  0.25500000920E-02 0.  1.
    10030    2    1    2    0    0  0.00000000000E+00  0.00000000000E+00 -0.24828718519E+03  0.29335241963E+04  0.29229980643E+04 0.  0.
        1    1    3    3  502    0  0.29507315191E+03  0.84557338623E+03  0.10349687627E+04  0.13686573188E+04  0.50400001928E-02 0. -1.
       -1    1    3    3    0  502 -0.29507315191E+03 -0.84557338623E+03 -0.12832559479E+04  0.15648668775E+04  0.50400001928E-02 0.  1.
</event>
<event>
 5   0  0.2624815E-05  0.1728109E+04  0.7818609E-02  0.8745493E-01
       -2   -1    0    0    0  501  0.00000000000E+00  0.00000000000E+00  0.93429169628E+03  0.93429169628E+03  0.25500000920E-02 0. -1.
        2   -1    0    0  501    0  0.00000000000E+00  0.00000000000E+00 -0.79909768290E+03  0.79909768291E+03  0.25500000920E-02 0.  1.
    10030    2    1    2    0    0  0.00000000000E+00  0.00000000000E+00  0.13519401338E+03  0.17333893792E+04  0.17281091744E+04 0.  0.
        4    1    3    3  502    0 -0.59705713003E+02  0.10286646233E+03  0.92604048270E+03  0.93364815093E+03  0.12699999809E+01 0. -1.
       -4    1    3    3    0  502  0.59705713003E+02 -0.10286646233E+03 -0.79084646932E+03  0.79974122826E+03  0.12699999809E+01 0.  1.
</event>
<event>
 5   0  0.1105862E-05  0.2769235E+04  0.7818609E-02  0.8312884E-01
        1   -1    0    0  501    0  0.00000000000E+00  0.00000000000E+00  0.28116155119E+04  0.28116155119E+04  0.50400001928E-02 0. -1.
       -1   -1    0    0    0  501  0.00000000000E+00  0.00000000000E+00 -0.68187338559E+03  0.68187338561E+03  0.50400001928E-02 0.  1.
    10030    2    1    2    0    0  0.00000000000E+00  0.00000000000E+00  0.21297421264E+04  0.34934888976E+04  0.27692351205E+04 0.  0.
        3    1    3    3  502    0  0.66827307987E+03  0.11856082970E+04  0.13862776611E+04  0.19426841501E+04  0.10100000352E+00 0. -1.
       -3    1    3    3    0  502 -0.66827307987E+03 -0.11856082970E+04  0.74346446525E+03  0.15508047474E+04  0.10100000352E+00 0.  1.
</event>
<event>
 5   0  0.2651061E-05  0.2581020E+04  0.7818609E-02  0.8374677E-01
        2   -1    0    0  501    0  0.00000000000E+00  0.00000000000E+00  0.13719402488E+04  0.13719402488E+04  0.25500000920E-02 0. -1.
       -2   -1    0    0    0  501  0.00000000000E+00  0.00000000000E+00 -0.12139131662E+04  0.12139131662E+04  0.25500000920E-02 0.  1.
    10030    2    1    2    0    0  0.00000000000E+00  0.00000000000E+00  0.15802708263E+03  0.25858534150E+04  0.25810202101E+04 0.  0.
        3    1    3    3  502    0 -0.10008278499E+04  0.44746687426E+03  0.76112128788E+03  0.13346117839E+04  0.10100000352E+00 0. -1.
       -3    1    3    3    0  502  0.10008278499E+04 -0.44746687426E+03 -0.60309420525E+03  0.12512416311E+04  0.10100000352E+00 0.  1.
</event>
<event>
 5   0  0.1105862E-05  0.2820603E+04  0.7818609E-02  0.8296900E-01
       -1   -1    0    0    0  501  0.00000000000E+00  0.00000000000E+00  0.29125762620E+04  0.29125762620E+04  0.50400001928E-02 0. -1.
        1   -1    0    0  501    0  0.00000000000E+00  0.00000000000E+00 -0.68288367665E+03  0.68288367667E+03  0.50400001928E-02 0.  1.
    10030    2    1    2    0    0  0.00000000000E+00  0.00000000000E+00  0.22296925854E+04  0.35954599387E+04  0.28206033301E+04 0.  0.
        3    1    3    3  502    0 -0.12667007673E+04 -0.57026413534E+03  0.14250465033E+04  0.19900978782E+04  0.10100000352E+00 0. -1.
       -3    1    3    3    0  502  0.12667007673E+04  0.57026413534E+03  0.80464608206E+03  0.16053620605E+04  0.10100000352E+00 0.  1.
</event>
<event>
 5   0  0.2624815E-05  0.2523975E+04  0.7818609E-02  0.8394494E-01
       -2   -1    0    0    0  501  0.00000000000E+00  0.00000000000E+00  0.10993904041E+04  0.10993904041E+04  0.25500000920E-02 0.  1.
        2   -1    0    0  501    0  0.00000000000E+00  0.00000000000E+00 -0.14486326340E+04  0.14486326340E+04  0.25500000920E-02 0. -1.
    10030    2    1    2    0    0  0.00000000000E+00  0.00000000000E+00 -0.34924222991E+03  0.25480230381E+04  0.25239752906E+04 0.  0.
        4    1    3    3  502    0 -0.11664155553E+02 -0.11193992425E+04  0.41352776987E+03  0.11933974803E+04  0.12699999809E+01 0. -1.
       -4    1    3    3    0  502  0.11664155553E+02  0.11193992425E+04 -0.76276999979E+03  0.13546255579E+04  0.12699999809E+01 0.  1.
</event>
<event>
 5   0  0.2588048E-05  0.2722523E+04  0.7818609E-02  0.8327734E-01
       -2   -1    0    0    0  501  0.00000000000E+00  0.00000000000E+00  0.10872368743E+04  0.10872368743E+04  0.25500000920E-02 0. -1.
        2   -1    0    0  501    0  0.00000000000E+00  0.00000000000E+00 -0.17043509028E+04  0.17043509028E+04  0.25500000920E-02 0.  1.
    10030    2    1    2    0    0  0.00000000000E+00  0.00000000000E+00 -0.61711402856E+03  0.27915877771E+04  0.27225232034E+04 0.  0.
        2    1    3    3  502    0 -0.36649207814E+03 -0.70941008836E+03 -0.14390007915E+04  0.16456920716E+04  0.25500000920E-02 0.  1.
       -2    1    3    3    0  502  0.36649207814E+03  0.70941008836E+03  0.82188676290E+03  0.11458957055E+04  0.25500000920E-02 0. -1.
</event>
<event>
 5   0  0.2697964E-05  0.2590434E+04  0.7818609E-02  0.8371458E-01
        2   -1    0    0  501    0  0.00000000000E+00  0.00000000000E+00  0.27967703269E+04  0.27967703269E+04  0.25500000920E-02 0. -1.
       -2   -1    0    0    0  501  0.00000000000E+00  0.00000000000E+00 -0.59982991910E+03  0.59982991911E+03  0.25500000920E-02 0.  1.
    10030    2    1    2    0    0  0.00000000000E+00  0.00000000000E+00  0.21969404078E+04  0.33966002460E+04  0.25904335690E+04 0.  0.
        1    1    3    3  502    0  0.75934246404E+03 -0.65215678651E+03  0.20661797003E+02  0.10011674994E+04  0.50400001928E-02 0.  1.
       -1    1    3    3    0  502 -0.75934246404E+03  0.65215678651E+03  0.21762786108E+04  0.23954327466E+04  0.50400001928E-02 0. -1.
</event>
<event>
 5   0  0.2651061E-05  0.1603736E+04  0.7818609E-02  0.8818256E-01
        2   -1    0    0  501    0  0.00000000000E+00  0.00000000000E+00  0.83139506831E+03  0.83139506831E+03  0.25500000920E-02 0. -1.
       -2   -1    0    0    0  501  0.00000000000E+00  0.00000000000E+00 -0.77339004655E+03  0.77339004655E+03  0.25500000920E-02 0.  1.
    10030    2    1    2    0    0  0.00000000000E+00  0.00000000000E+00  0.58005021761E+02  0.16047851149E+04  0.16037364753E+04 0.  0.
        3    1    3    3  502    0 -0.78089107989E+03 -0.16261946169E+03  0.11125536092E+03  0.80536558997E+03  0.10100000352E+00 0. -1.
       -3    1    3    3    0  502  0.78089107989E+03  0.16261946169E+03 -0.53250339164E+02  0.79941952490E+03  0.10100000352E+00 0.  1.
</event>
<event>
 5   0  0.2588048E-05  0.2796386E+04  0.7818609E-02  0.8304391E-01
        2   -1    0    0  501    0  0.00000000000E+00  0.00000000000E+00  0.19207899321E+04  0.19207899321E+04  0.25500000920E-02 0.  1.
       -2   -1    0    0    0  501  0.00000000000E+00  0.00000000000E+00 -0.10177809946E+04  0.10177809946E+04  0.25500000920E-02 0. -1.
    10030    2    1    2    0    0  0.00000000000E+00  0.00000000000E+00  0.90300893743E+03  0.29385709267E+04  0.27963858729E+04 0.  0.
        2    1    3    3  502    0 -0.13726879017E+04 -0.23115406534E+03  0.31353030863E+03  0.14268866570E+04  0.25500000920E-02 0. -1.
       -2    1    3    3    0  502  0.13726879017E+04  0.23115406534E+03  0.58947862880E+03  0.15116842697E+04  0.25500000920E-02 0.  1.
</event>
<event>
 5   0  0.1075146E-05  0.2802198E+04  0.7818609E-02  0.8302586E-01
       -1   -1    0    0    0  501  0.00000000000E+00  0.00000000000E+00  0.16108870882E+04  0.16108870882E+04  0.50400001928E-02 0.  1.
        1   -1    0    0  501    0  0.00000000000E+00  0.00000000000E+00 -0.12186316792E+04  0.12186316792E+04  0.50400001928E-02 0. -1.
    10030    2    1    2    0    0  0.00000000000E+00  0.00000000000E+00  0.39225540901E+03  0.28295187674E+04  0.28021977356E+04 0.  0.
        2    1    3    3  502    0  0.13092668246E+03  0.11216399350E+03  0.16001359485E+04  0.16093966607E+04  0.25500000920E-02 0.  1.
       -2    1    3    3    0  502 -0.13092668246E+03 -0.11216399350E+03 -0.12078805395E+04  0.12201221067E+04  0.25500000920E-02 0. -1.
</event>
<event>
 5   0  0.1075146E-05  0.2781345E+04  0.7818609E-02  0.8309084E-01
       -1   -1    0    0    0  501  0.00000000000E+00  0.00000000000E+00  0.14773044773E+04  0.14773044773E+04  0.50400001928E-02 0. -1.
        1   -1    0    0  501    0  0.00000000000E+00  0.00000000000E+00 -0.13091206338E+04  0.13091206338E+04  0.50400001928E-02 0.  1.
    10030    2    1    2    0    0  0.00000000000E+00  0.00000000000E+00  0.16818384351E+03  0.27864251112E+04  0.27813448357E+04 0.  0.
        2    1    3    3  502    0  0.47326915030E+03 -0.99948468010E+03 -0.76066618026E+03  0.13422244046E+04  0.25500000920E-02 0.  1.
       -2    1    3    3    0  502 -0.47326915030E+03  0.99948468010E+03  0.92885002377E+03  0.14442007066E+04  0.25500000920E-02 0. -1.
</event>
<event>
 5   0  0.1067434E-05  0.1887750E+04  0.7818609E-02  0.8660978E-01
       -1   -1    0    0    0  501  0.00000000000E+00  0.00000000000E+00  0.10560967052E+04  0.10560967052E+04  0.50400001928E-02 0.  1.
        1   -1    0    0  501    0  0.00000000000E+00  0.00000000000E+00 -0.84357830042E+03  0.84357830043E+03  0.50400001928E-02 0. -1.
    10030    2    1    2    0    0  0.00000000000E+00  0.00000000000E+00  0.21251840475E+03  0.18996750056E+04  0.18877502628E+04 0.  0.
        4    1    3    3  502    0  0.55382624466E+03  0.54082703502E+03  0.64974604259E+03  0.10106378797E+04  0.12699999809E+01 0.  1.
       -4    1    3    3    0  502 -0.55382624466E+03 -0.54082703502E+03 -0.43722763784E+03  0.88903712593E+03  0.12699999809E+01 0. -1.
</event>
<event>
 5   0  0.1017456E-05  0.2714715E+04  0.7818609E-02  0.8330246E-01
       -1   -1    0    0    0  501  0.00000000000E+00  0.00000000000E+00  0.12816686844E+04  0.12816686845E+04  0.50400001928E-02 0. -1.
        1   -1    0    0  501    0  0.00000000000E+00  0.00000000000E+00 -0.14375166376E+04  0.14375166376E+04  0.50400001928E-02 0.  1.
    10030    2    1    2    0    0  0.00000000000E+00  0.00000000000E+00 -0.15584795319E+03  0.27191853221E+04  0.27147154973E+04 0.  0.
        5    1    3    3  502    0 -0.71066294612E+03  0.43809273089E+03  0.99408626208E+03  0.12981512432E+04  0.46999998093E+01 0. -1.
       -5    1    3    3    0  502  0.71066294612E+03 -0.43809273089E+03 -0.11499342153E+04  0.14210340789E+04  0.46999998093E+01 0.  1.
</event>
<event>
 5   0  0.1017456E-05  0.2751099E+04  0.7818609E-02  0.8318613E-01
        1   -1    0    0  501    0  0.00000000000E+00  0.00000000000E+00  0.13649248882E+04  0.13649248882E+04  0.50400001928E-02 0.  1.
       -1   -1    0    0    0  501  0.00000000000E+00  0.00000000000E+00 -0.13862567835E+04  0.13862567835E+04  0.50400001928E-02 0. -1.
    10030    2    1    2    0    0  0.00000000000E+00  0.00000000000E+00 -0.21331895287E+02  0.27511816718E+04  0.27510989698E+04 0.  0.
        5    1    3    3  502    0 -0.65378816227E+03 -0.10757354745E+04  0.54384916428E+03  0.13712912804E+04  0.46999998093E+01 0.  1.
       -5    1    3    3    0  502  0.65378816227E+03  0.10757354745E+04 -0.56518105957E+03  0.13798903914E+04  0.46999998093E+01 0. -1.
</event>
<event>
 5   0  0.2651061E-05  0.1976964E+04  0.7818609E-02  0.8617467E-01
       -2   -1    0    0    0  501  0.00000000000E+00  0.00000000000E+00  0.10670914046E+04  0.10670914046E+04  0.25500000920E-02 0. -1.
        2   -1    0    0  501    0  0.00000000000E+00  0.00000000000E+00 -0.91566385850E+03  0.91566385850E+03  0.25500000920E-02 0.  1.
    10030    2    1    2    0    0  0.00000000000E+00  0.00000000000E+00  0.15142754605E+03  0.19827552631E+04  0.19769643728E+04 0.  0.
        3    1    3    3  502    0  0.50819367575E+03  0.63518378509E+03 -0.48751626352E+03  0.94836246779E+03  0.10100000352E+00 0. -1.
       -3    1    3    3    0  502 -0.50819367575E+03 -0.63518378509E+03  0.63894380958E+03  0.10343927953E+04  0.10100000352E+00 0.  1.
</event>
<event>
 5   0  0.2651061E-05  0.2803179E+04  0.7818609E-02  0.8302282E-01
        2   -1    0    0  501    0  0.00000000000E+00  0.00000000000E+00  0.16499741077E+04  0.16499741077E+04  0.25500000920E-02 0. -1.
       -2   -1    0    0    0  501  0.00000000000E+00  0.00000000000E+00 -0.11905965408E+04  0.11905965408E+04  0.25500000920E-02 0.  1.
    10030    2    1    2    0    0  0.00000000000E+00  0.00000000000E+00  0.45937756688E+03  0.28405706485E+04  0.28031792415E+04 0.  0.
        3    1    3    3  502    0  0.81185105584E+03 -0.11289700470E+04  0.51912191005E+02  0.13915352636E+04  0.10100000352E+00 0.  1.
       -3    1    3    3    0  502 -0.81185105584E+03  0.11289700470E+04  0.40746537587E+03  0.14490353849E+04  0.10100000352E+00 0. -1.
</event>
<event>
 5   0  0.1017456E-05  0.2726683E+04  0.7818609E-02  0.8326399E-01
        1   -1    0    0  501    0  0.00000000000E+00  0.00000000000E+00  0.18564876937E+04  0.18564876937E+04  0.50400001928E-02 0. -1.
       -1   -1    0    0    0  501  0.00000000000E+00  0.00000000000E+00 -0.10011917840E+04  0.10011917840E+04  0.50400001928E-02 0.  1.
    10030    2    1    2    0    0  0.00000000000E+00  0.00000000000E+00  0.85529590968E+03  0.28576794777E+04  0.27266831324E+04 0.  0.
        5    1    3    3  502    0 -0.72925856527E+02  0.10795744355E+04  0.12968782775E+04  0.16889980755E+04  0.46999998093E+01 0. -1.
       -5    1    3    3    0  502  0.72925856527E+02 -0.10795744355E+04 -0.44158236787E+03  0.11686814022E+04  0.46999998093E+01 0.  1.
</event>
<event>
 5   0  0.2697964E-05  0.2798262E+04  0.7818609E-02  0.8303808E-01
        2   -1    0    0  501    0  0.00000000000E+00  0.00000000000E+00  0.25054339532E+04  0.25054339532E+04  0.25500000920E-02 0.  1.
       -2   -1    0    0    0  501  0.00000000000E+00  0.00000000000E+00 -0.78132894848E+03  0.78132894849E+03  0.25500000920E-02 0. -1.
    10030    2    1    2    0    0  0.00000000000E+00  0.00000000000E+00  0.17241050047E+04  0.32867629017E+04  0.27982623724E+04 0.  0.
        1    1    3    3  502    0  0.27628531259E+03 -0.41765239302E+02  0.24723272141E+04  0.24880674755E+04  0.50400001928E-02 0.  1.
       -1    1    3    3    0  502 -0.27628531259E+03  0.41765239302E+02 -0.74822220937E+03  0.79869542617E+03  0.50400001928E-02 0. -1.
</event>
<event>
 5   0  0.1075146E-05  0.2912703E+04  0.7818609E-02  0.8269108E-01
        1   -1    0    0  501    0  0.00000000000E+00  0.00000000000E+00  0.13090526767E+04  0.13090526767E+04  0.50400001928E-02 0.  1.
       -1   -1    0    0    0  501  0.00000000000E+00  0.00000000000E+00 -0.16202251851E+04  0.16202251851E+04  0.50400001928E-02 0. -1.
    10030    2    1    2    0    0  0.00000000000E+00  0.00000000000E+00 -0.31117250847E+03  0.29292778618E+04  0.29127032910E+04 0.  0.
        2    1    3    3  502    0 -0.31705827342E+03 -0.49135459554E+03  0.11857970183E+04  0.13221459284E+04  0.25500000920E-02 0.  1.
       -2    1    3    3    0  502  0.31705827342E+03  0.49135459554E+03 -0.14969695268E+04  0.16071319334E+04  0.25500000920E-02 0. -1.
</event>
<event>
 5   0  0.2651061E-05  0.2812721E+04  0.7818609E-02  0.8299330E-01
        2   -1    0    0  501    0  0.00000000000E+00  0.00000000000E+00  0.20159613004E+04  0.20159613004E+04  0.25500000920E-02 0. -1.
       -2   -1    0    0    0  501  0.00000000000E+00  0.00000000000E+00 -0.98109515834E+03  0.98109515835E+03  0.25500000920E-02 0.  1.
    10030    2    1    2    0    0  0.00000000000E+00  0.00000000000E+00  0.10348661420E+04  0.29970564587E+04  0.28127210109E+04 0.  0.
        3    1    3    3  502    0 -0.58474196819E+03 -0.10182580323E+04  0.13421590753E+04  0.17833013159E+04  0.10100000352E+00 0. -1.
       -3    1    3    3    0  502  0.58474196819E+03  0.10182580323E+04 -0.30729293323E+03  0.12137551428E+04  0.10100000352E+00 0.  1.
</event>
<event>
 5   0  0.2624815E-05  0.2812916E+04  0.7818609E-02  0.8299270E-01
       -2   -1    0    0    0  501  0.00000000000E+00  0.00000000000E+00  0.10231576855E+04  0.10231576855E+04  0.25500000920E-02 0.  1.
        2   -1    0    0  501    0  0.00000000000E+00  0.00000000000E+00 -0.19333522289E+04  0.19333522289E+04  0.25500000920E-02 0. -1.
    10030    2    1    2    0    0  0.00000000000E+00  0.00000000000E+00 -0.91019454343E+03  0.29565099143E+04  0.28129160611E+04 0.  0.
        4    1    3    3  502    0  0.11014709931E+04 -0.29246774075E+03  0.41120279957E+03  0.12115548206E+04  0.12699999809E+01 0. -1.
       -4    1    3    3    0  502 -0.11014709931E+04  0.29246774075E+03 -0.13213973430E+04  0.17449550937E+04  0.12699999809E+01 0.  1.
</event>
<event>
 5   0  0.2518686E-05  0.2864368E+04  0.7818609E-02  0.8283559E-01
        2   -1    0    0  501    0  0.00000000000E+00  0.00000000000E+00  0.22066839549E+04  0.22066839549E+04  0.25500000920E-02 0.  1.
       -2   -1    0    0    0  501  0.00000000000E+00  0.00000000000E+00 -0.92951711552E+03  0.92951711552E+03  0.25500000920E-02 0. -1.
    10030    2    1    2    0    0  0.00000000000E+00  0.00000000000E+00  0.12771668394E+04  0.31362010704E+04  0.28643676472E+04 0.  0.
        5    1    3    3  502    0 -0.13232617669E+04 -0.48408882607E+03  0.35779989288E+03  0.14537560141E+04  0.46999998093E+01 0. -1.
       -5    1    3    3    0  502  0.13232617669E+04  0.48408882607E+03  0.91936694651E+03  0.16824450563E+04  0.46999998093E+01 0.  1.
</event>
<event>
 5   0  0.1078103E-05  0.2804241E+04  0.7818609E-02  0.8301953E-01
        1   -1    0    0  501    0  0.00000000000E+00  0.00000000000E+00  0.19430213395E+04  0.19430213395E+04  0.50400001928E-02 0. -1.
       -1   -1    0    0    0  501  0.00000000000E+00  0.00000000000E+00 -0.10117967048E+04  0.10117967048E+04  0.50400001928E-02 0.  1.
    10030    2    1    2    0    0  0.00000000000E+00  0.00000000000E+00  0.93122463475E+03  0.29548180443E+04  0.28042414937E+04 0.  0.
        1    1    3    3  502    0 -0.28719577960E+03  0.25671432232E+02 -0.98021915519E+03  0.10217485163E+04  0.50400001928E-02 0.  1.
       -1    1    3    3    0  502  0.28719577960E+03 -0.25671432232E+02  0.19114437899E+04  0.19330695281E+04  0.50400001928E-02 0. -1.
</event>
<event>
 5   0  0.1105862E-05  0.2806945E+04  0.7818609E-02  0.8301115E-01
       -1   -1    0    0    0  501  0.00000000000E+00  0.00000000000E+00  0.15680878564E+04  0.15680878565E+04  0.50400001928E-02 0.  1.
        1   -1    0    0  501    0  0.00000000000E+00  0.00000000000E+00 -0.12561383231E+04  0.12561383231E+04  0.50400001928E-02 0. -1.
    10030    2    1    2    0    0  0.00000000000E+00  0.00000000000E+00  0.31194953332E+03  0.28242261796E+04  0.28069451370E+04 0.  0.
        3    1    3    3  502    0  0.11962734605E+04 -0.73201099383E+03  0.20945227376E+03  0.14180199408E+04  0.10100000352E+00 0. -1.
       -3    1    3    3    0  502 -0.11962734605E+04  0.73201099383E+03  0.10249725956E+03  0.14062062387E+04  0.10100000352E+00 0.  1.
</event>
<event>
 5   0  0.1067434E-05  0.2877813E+04  0.7818609E-02  0.8279509E-01
       -1   -1    0    0    0  501  0.00000000000E+00  0.00000000000E+00  0.11696199856E+04  0.11696199856E+04  0.50400001928E-02 0. -1.
        1   -1    0    0  501    0  0.00000000000E+00  0.00000000000E+00 -0.17701922897E+04  0.17701922897E+04  0.50400001928E-02 0.  1.
    10030    2    1    2    0    0  0.00000000000E+00  0.00000000000E+00 -0.60057230403E+03  0.29398122753E+04  0.28778132534E+04 0.  0.
        4    1    3    3  502    0  0.83040840907E+03 -0.10305385462E+04  0.27655860541E+03  0.13520629039E+04  0.12699999809E+01 0.  1.
       -4    1    3    3    0  502 -0.83040840907E+03  0.10305385462E+04 -0.87713090944E+03  0.15877493714E+04  0.12699999809E+01 0. -1.
</event>
<event>
 5   0  0.1017456E-05  0.2864911E+04  0.7818609E-02  0.8283395E-01
        1   -1    0    0  501    0  0.00000000000E+00  0.00000000000E+00  0.20954118763E+04  0.20954118763E+04  0.50400001928E-02 0. -1.
       -1   -1    0    0    0  501  0.00000000000E+00  0.00000000000E+00 -0.97924863615E+03  0.97924863616E+03  0.50400001928E-02 0.  1.
    10030    2    1    2    0    0  0.00000000000E+00  0.00000000000E+00  0.11161632401E+04  0.30746605124E+04  0.28649113229E+04 0.  0.
        5    1    3    3  502    0 -0.10791710450E+04  0.84978009602E+03  0.12191483405E+03  0.13789929923E+04  0.46999998093E+01 0.  1.
       -5    1    3    3    0  502  0.10791710450E+04 -0.84978009602E+03  0.99424840605E+03  0.16956675202E+04  0.46999998093E+01 0. -1.
</event>
<event>
 5   0  0.2651061E-05  0.2809402E+04  0.7818609E-02  0.8300355E-01
       -2   -1    0    0    0  501  0.00000000000E+00  0.00000000000E+00  0.17810492773E+04  0.17810492773E+04  0.25500000920E-02 0. -1.
        2   -1    0    0  501    0  0.00000000000E+00  0.00000000000E+00 -0.11078774480E+04  0.11078774480E+04  0.25500000920E-02 0.  1.
    10030    2    1    2    0    0  0.00000000000E+00  0.00000000000E+00  0.67317182937E+03  0.28889267253E+04  0.28094015933E+04 0.  0.
        3    1    3    3  502    0  0.22419808463E+03  0.51660386522E+03  0.16598853014E+04  0.17528158941E+04  0.10100000352E+00 0. -1.
       -3    1    3    3    0  502 -0.22419808463E+03 -0.51660386522E+03 -0.98671347200E+03  0.11361108312E+04  0.10100000352E+00 0.  1.
</event>
<event>
 5   0  0.1075146E-05  0.2718888E+04  0.7818609E-02  0.8328902E-01
        1   -1    0    0  501    0  0.00000000000E+00  0.00000000000E+00  0.25410107141E+04  0.25410107141E+04  0.50400001928E-02 0. -1.
       -1   -1    0    0    0  501  0.00000000000E+00  0.00000000000E+00 -0.72730432545E+03  0.72730432547E+03  0.50400001928E-02 0.  1.
    10030    2    1    2    0    0  0.00000000000E+00  0.00000000000E+00  0.18137063887E+04  0.32683150396E+04  0.27188880694E+04 0.  0.
        2    1    3    3  502    0 -0.73710765926E+03  0.23691321867E+03 -0.43637531943E+03  0.88875136790E+03  0.25500000920E-02 0.  1.
       -2    1    3    3    0  502  0.73710765926E+03 -0.23691321867E+03  0.22500817081E+04  0.23795636717E+04  0.25500000920E-02 0. -1.
</event>
<event>
 5   0  0.1067434E-05  0.2360615E+04  0.7818609E-02  0.8454398E-01
        1   -1    0    0  501    0  0.00000000000E+00  0.00000000000E+00  0.11007519762E+04  0.11007519762E+04  0.50400001928E-02 0.  1.
       -1   -1    0    0    0  501  0.00000000000E+00  0.00000000000E+00 -0.12656129083E+04  0.12656129083E+04  0.50400001928E-02 0. -1.
    10030    2    1    2    0    0  0.00000000000E+00  0.00000000000E+00 -0.16486093213E+03  0.23663648845E+04  0.23606150977E+04 0.  0.
        4    1    3    3  502    0  0.77025668388E+03 -0.71009981351E+03 -0.62743402478E+03  0.12211519859E+04  0.12699999809E+01 0. -1.
       -4    1    3    3    0  502 -0.77025668388E+03  0.71009981351E+03  0.46257309265E+03  0.11452128986E+04  0.12699999809E+01 0.  1.
</event>
<event>
 5   0  0.1105862E-05  0.2846489E+04  0.7818609E-02  0.8288979E-01
       -1   -1    0    0    0  501  0.00000000000E+00  0.00000000000E+00  0.16349275880E+04  0.16349275880E+04  0.50400001928E-02 0.  1.
        1   -1    0    0  501    0  0.00000000000E+00  0.00000000000E+00 -0.12389693272E+04  0.12389693272E+04  0.50400001928E-02 0. -1.
    10030    2    1    2    0    0  0.00000000000E+00  0.00000000000E+00  0.39595826079E+03  0.28738969152E+04  0.28464891594E+04 0.  0.
        3    1    3    3  502    0 -0.85010438864E+03 -0.10652572998E+04 -0.21606036673E+03  0.13799031411E+04  0.10100000352E+00 0. -1.
       -3    1    3    3    0  502  0.85010438864E+03  0.10652572998E+04  0.61201862752E+03  0.14939937741E+04  0.10100000352E+00 0.  1.
</event>
<event>
 5   0  0.1067434E-05  0.2782382E+04  0.7818609E-02  0.8308759E-01
       -1   -1    0    0    0  501  0.00000000000E+00  0.00000000000E+00  0.12071121460E+04  0.12071121460E+04  0.50400001928E-02 0.  1.
        1   -1    0    0  501    0  0.00000000000E+00  0.00000000000E+00 -0.16033408455E+04  0.16033408455E+04  0.50400001928E-02 0. -1.
    10030    2    1    2    0    0  0.00000000000E+00  0.00000000000E+00 -0.39622869952E+03  0.28104529915E+04  0.27823818637E+04 0.  0.
        4    1    3    3  502    0 -0.11289751356E+04 -0.75806960140E+03  0.98370773398E+02  0.13634268588E+04  0.12699999809E+01 0.  1.
       -4    1    3    3    0  502  0.11289751356E+04  0.75806960140E+03 -0.49459947292E+03  0.14470261327E+04  0.12699999809E+01 0. -1.
</event>
<event>
 5   0  0.2588048E-05  0.2748010E+04  0.7818609E-02  0.8319593E-01
        2   -1    0    0  501    0  0.00000000000E+00  0.00000000000E+00  0.18191524414E+04  0.18191524414E+04  0.25500000920E-02 0.  1.
       -2   -1    0    0    0  501  0.00000000000E+00  0.00000000000E+00 -0.10377856515E+04  0.10377856515E+04  0.25500000920E-02 0. -1.
    10030    2    1    2    0    0  0.00000000000E+00  0.00000000000E+00  0.78136678990E+03  0.28569380930E+04  0.27480104088E+04 0.  0.
        2    1    3    3  502    0 -0.68572206287E+01  0.11241296806E+04  0.12120478399E+04  0.16531105609E+04  0.25500000920E-02 0.  1.
       -2    1    3    3    0  502  0.68572206287E+01 -0.11241296806E+04 -0.43068105001E+03  0.12038275321E+04  0.25500000920E-02 0. -1.
</event>
<event>
 5   0  0.2518686E-05  0.3063536E+04  0.7818609E-02  0.8225817E-01
       -2   -1    0    0    0  501  0.00000000000E+00  0.00000000000E+00  0.11886825029E+04  0.11886825029E+04  0.25500000920E-02 0.  1.
        2   -1    0    0  501    0  0.00000000000E+00  0.00000000000E+00 -0.19738768419E+04  0.19738768419E+04  0.25500000920E-02 0. -1.
    10030    2    1    2    0    0  0.00000000000E+00  0.00000000000E+00 -0.78519433895E+03  0.31625593448E+04  0.30635357774E+04 0.  0.
        5    1    3    3  502    0  0.57629171699E+03  0.52929210969E+03 -0.17519864532E+04  0.19187863098E+04  0.46999998093E+01 0. -1.
       -5    1    3    3    0  502 -0.57629171699E+03 -0.52929210969E+03  0.96679211424E+03  0.12437730350E+04  0.46999998093E+01 0.  1.
</event>
<event>
 5   0  0.2651061E-05  0.2025780E+04  0.7818609E-02  0.8594662E-01
        2   -1    0    0  501    0  0.00000000000E+00  0.00000000000E+00  0.11407120313E+04  0.11407120313E+04  0.25500000920E-02 0. -1.
       -2   -1    0    0    0  501  0.00000000000E+00  0.00000000000E+00 -0.89939118518E+03  0.89939118518E+03  0.25500000920E-02 0.  1.
    10030    2    1    2    0    0  0.00000000000E+00  0.00000000000E+00  0.24132084614E+03  0.20401032165E+04  0.20257801912E+04 0.  0.
        3    1    3    3  502    0  0.77183615506E+03  0.59024224930E+03 -0.16742045415E+03  0.98597493973E+03  0.10100000352E+00 0.  1.
       -3    1    3    3    0  502 -0.77183615506E+03 -0.59024224930E+03  0.40874130029E+03  0.10541282768E+04  0.10100000352E+00 0. -1.
</event>
<event>
 5   0  0.2518686E-05  0.2302120E+04  0.7818609E-02  0.8477086E-01
       -2   -1    0    0    0  501  0.00000000000E+00  0.00000000000E+00  0.12637049330E+04  0.12637049330E+04  0.25500000920E-02 0. -1.
        2   -1    0    0  501    0  0.00000000000E+00  0.00000000000E+00 -0.10484562240E+04  0.10484562240E+04  0.25500000920E-02 0.  1.
    10030    2    1    2    0    0  0.00000000000E+00  0.00000000000E+00  0.21524870909E+03  0.23121611570E+04  0.23021201552E+04 0.  0.
        5    1    3    3  502    0  0.47188473513E+03  0.20158333280E+03  0.11424610742E+04  0.12524178374E+04  0.46999998093E+01 0. -1.
       -5    1    3    3    0  502 -0.47188473513E+03 -0.20158333280E+03 -0.92721236515E+03  0.10597433196E+04  0.46999998093E+01 0.  1.
</event>
<event>
 5   0  0.1067434E-05  0.2775943E+04  0.7818609E-02  0.8310776E-01
        1   -1    0    0  501    0  0.00000000000E+00  0.00000000000E+00  0.17953916793E+04  0.17953916793E+04  0.50400001928E-02 0.  1.
       -1   -1    0    0    0  501  0.00000000000E+00  0.00000000000E+00 -0.10730052246E+04  0.10730052246E+04  0.50400001928E-02 0. -1.
    10030    2    1    2    0    0  0.00000000000E+00  0.00000000000E+00  0.72238645471E+03  0.28683969039E+04  0.27759428323E+04 0.  0.
        4    1    3    3  502    0  0.78644709674E+03 -0.10189835425E+04 -0.17536653696E+03  0.12990694866E+04  0.12699999809E+01 0. -1.
       -4    1    3    3    0  502 -0.78644709674E+03  0.10189835425E+04  0.89775299167E+03  0.15693274173E+04  0.12699999809E+01 0.  1.
</event>
<event>
 5   0  0.1017456E-05  0.2845923E+04  0.7818609E-02  0.8289151E-01
       -1   -1    0    0    0  501  0.00000000000E+00  0.00000000000E+00  0.12238393229E+04  0.12238393229E+04  0.50400001928E-02 0. -1.
        1   -1    0    0  501    0  0.00000000000E+00  0.00000000000E+00 -0.16544819057E+04  0.16544819057E+04  0.50400001928E-02 0.  1.
    10030    2    1    2    0    0  0.00000000000E+00  0.00000000000E+00 -0.43064258284E+03  0.28783212286E+04  0.28459234109E+04 0.  0.
        5    1    3    3  502    0  0.42936921305E+03 -0.11814757041E+04  0.45901864811E+03  0.13382686463E+04  0.46999998093E+01 0. -1.
       -5    1    3    3    0  502 -0.42936921305E+03  0.11814757041E+04 -0.88966123095E+03  0.15400525823E+04  0.46999998093E+01 0.  1.
</event>
<event>
 5   0  0.1105862E-05  0.1948297E+04  0.7818609E-02  0.8631183E-01
       -1   -1    0    0    0  501  0.00000000000E+00  0.00000000000E+00  0.97887291952E+03  0.97887291953E+03  0.50400001928E-02 0. -1.
        1   -1    0    0  501    0  0.00000000000E+00  0.00000000000E+00 -0.96944651818E+03  0.96944651819E+03  0.50400001928E-02 0.  1.
    10030    2    1    2    0    0  0.00000000000E+00  0.00000000000E+00  0.94264013359E+01  0.19483194377E+04  0.19482966341E+04 0.  0.
        3    1    3    3  502    0  0.29345468256E+03 -0.17366742553E+03  0.91724177575E+03  0.97857473439E+03  0.10100000352E+00 0. -1.
       -3    1    3    3    0  502 -0.29345468256E+03  0.17366742553E+03 -0.90781537442E+03  0.96974470333E+03  0.10100000352E+00 0.  1.
</event>
<event>
 5   0  0.1017456E-05  0.2795705E+04  0.7818609E-02  0.8304603E-01
        1   -1    0    0  501    0  0.00000000000E+00  0.00000000000E+00  0.18150551997E+04  0.18150551997E+04  0.50400001928E-02 0.  1.
       -1   -1    0    0    0  501  0.00000000000E+00  0.00000000000E+00 -0.10765466844E+04  0.10765466844E+04  0.50400001928E-02 0. -1.
    10030    2    1    2    0    0  0.00000000000E+00  0.00000000000E+00  0.73850851535E+03  0.28916018841E+04  0.27957050325E+04 0.  0.
        5    1    3    3  502    0 -0.54133408137E+03  0.93599536353E+03 -0.54704560406E+03  0.12117800506E+04  0.46999998093E+01 0. -1.
       -5    1    3    3    0  502  0.54133408137E+03 -0.93599536353E+03  0.12855541194E+04  0.16798218334E+04  0.46999998093E+01 0.  1.
</event>
<event>
 5   0  0.2588048E-05  0.2719692E+04  0.7818609E-02  0.8328644E-01
       -2   -1    0    0    0  501  0.00000000000E+00  0.00000000000E+00  0.77902599866E+03  0.77902599866E+03  0.25500000920E-02 0.  1.
        2   -1    0    0  501    0  0.00000000000E+00  0.00000000000E+00 -0.23737086501E+04  0.23737086501E+04  0.25500000920E-02 0. -1.
    10030    2    1    2    0    0  0.00000000000E+00  0.00000000000E+00 -0.15946826514E+04  0.31527346488E+04  0.27196917117E+04 0.  0.
        2    1    3    3  502    0 -0.23657928466E+03  0.21211180393E+01  0.75498453826E+03  0.79118639403E+03  0.25500000920E-02 0.  1.
       -2    1    3    3    0  502  0.23657928466E+03 -0.21211180393E+01 -0.23496671897E+04  0.23615482547E+04  0.25500000920E-02 0. -1.
</event>
<event>
 5   0  0.2651061E-05  0.3018992E+04  0.7818609E-02  0.8238328E-01
       -2   -1    0    0    0  501  0.00000000000E+00  0.00000000000E+00  0.13004312635E+04  0.13004312635E+04  0.25500000920E-02 0.  1.
        2   -1    0    0  501    0  0.00000000000E+00  0.00000000000E+00 -0.17521714950E+04  0.17521714950E+04  0.25500000920E-02 0. -1.
    10030    2    1    2    0    0  0.00000000000E+00  0.00000000000E+00 -0.45174023154E+03  0.30526027585E+04  0.30189922763E+04 0.  0.
        3    1    3    3  502    0  0.10335529107E+04  0.10819888102E+04 -0.24537368224E+02  0.14965070990E+04  0.10100000352E+00 0.  1.
       -3    1    3    3    0  502 -0.10335529107E+04 -0.10819888102E+04 -0.42720286332E+03  0.15560956595E+04  0.10100000352E+00 0. -1.
</event>
<event>
 5   0  0.2651061E-05  0.2801334E+04  0.7818609E-02  0.8302854E-01
        2   -1    0    0  501    0  0.00000000000E+00  0.00000000000E+00  0.95792717614E+03  0.95792717614E+03  0.25500000920E-02 0.  1.
       -2   -1    0    0    0  501  0.00000000000E+00  0.00000000000E+00 -0.20480351294E+04  0.20480351294E+04  0.25500000920E-02 0. -1.
    10030    2    1    2    0    0  0.00000000000E+00  0.00000000000E+00 -0.10901079532E+04  0.30059623055E+04  0.28013343307E+04 0.  0.
        3    1    3    3  502    0 -0.74894811724E+03  0.10669529413E+04  0.47781182289E+01  0.13035853259E+04  0.10100000352E+00 0.  1.
       -3    1    3    3    0  502  0.74894811724E+03 -0.10669529413E+04 -0.10948860714E+04  0.17023769796E+04  0.10100000352E+00 0. -1.
</event>
<event>
 5   0  0.1075146E-05  0.2824962E+04  0.7818609E-02  0.8295560E-01
       -1   -1    0    0    0  501  0.00000000000E+00  0.00000000000E+00  0.11425449015E+04  0.11425449015E+04  0.50400001928E-02 0.  1.
        1   -1    0    0  501    0  0.00000000000E+00  0.00000000000E+00 -0.17461915929E+04  0.17461915929E+04  0.50400001928E-02 0. -1.
    10030    2    1    2    0    0  0.00000000000E+00  0.00000000000E+00 -0.60364669137E+03  0.28887364945E+04  0.28249618062E+04 0.  0.
        2    1    3    3  502    0  0.60535646954E+03  0.12214512487E+04  0.76256810046E+02  0.13653624828E+04  0.25500000920E-02 0.  1.
       -2    1    3    3    0  502 -0.60535646954E+03 -0.12214512487E+04 -0.67990350142E+03  0.15233740117E+04  0.25500000920E-02 0. -1.
</event>
<event>
 5   0  0.2624815E-05  0.2742412E+04  0.7818609E-02  0.8321374E-01
        2   -1    0    0  501    0  0.00000000000E+00  0.00000000000E+00  0.14074347331E+04  0.14074347331E+04  0.25500000920E-02 0. -1.
       -2   -1    0    0    0  501  0.00000000000E+00  0.00000000000E+00 -0.13359095229E+04  0.13359095229E+04  0.25500000920E-02 0.  1.
    10030    2    1    2    0    0  0.00000000000E+00  0.00000000000E+00  0.71525210235E+02  0.27433442560E+04  0.27424116852E+04 0.  0.
        4    1    3    3  502    0 -0.22391070754E+03 -0.42282626541E+03  0.13212232390E+04  0.14051870038E+04  0.12699999809E+01 0. -1.
       -4    1    3    3    0  502  0.22391070754E+03  0.42282626541E+03 -0.12496980287E+04  0.13381572522E+04  0.12699999809E+01 0.  1.
</event>
<event>
 5   0  0.2651061E-05  0.2798524E+04  0.7818609E-02  0.8303727E-01
       -2   -1    0    0    0  501  0.00000000000E+00  0.00000000000E+00  0.94070584678E+03  0.94070584678E+03  0.25500000920E-02 0.  1.
        2   -1    0    0  501    0  0.00000000000E+00  0.00000000000E+00 -0.20813452082E+04  0.20813452082E+04  0.25500000920E-02 0. -1.
    10030    2    1    2    0    0  0.00000000000E+00  0.00000000000E+00 -0.11406393614E+04  0.30220510550E+04  0.27985236154E+04 0.  0.
        3    1    3    3  502    0 -0.71196991821E+03  0.23844490804E+03 -0.18453828274E+04  0.19922838474E+04  0.10100000352E+00 0. -1.
       -3    1    3    3    0  502  0.71196991821E+03 -0.23844490804E+03  0.70474346605E+03  0.10297672075E+04  0.10100000352E+00 0.  1.
</event>
<event>
 5   0  0.2651061E-05  0.2738817E+04  0.7818609E-02  0.8322519E-01
        2   -1    0    0  501    0  0.00000000000E+00  0.00000000000E+00  0.12346622160E+04  0.12346622160E+04  0.25500000920E-02 0. -1.
       -2   -1    0    0    0  501  0.00000000000E+00  0.00000000000E+00 -0.15188601758E+04  0.15188601758E+04  0.25500000920E-02 0.  1.
    10030    2    1    2    0    0  0.00000000000E+00  0.00000000000E+00 -0.28419795978E+03  0.27535223918E+04  0.27388167302E+04 0.  0.
        3    1    3    3  502    0 -0.56858326881E+03  0.11517722043E+04  0.33522717463E+03  0.13274951650E+04  0.10100000352E+00 0. -1.
       -3    1    3    3    0  502  0.56858326881E+03 -0.11517722043E+04 -0.61942513441E+03  0.14260272268E+04  0.10100000352E+00 0.  1.
</event>
<event>
 5   0  0.2651061E-05  0.2815718E+04  0.7818609E-02  0.8298405E-01
       -2   -1    0    0    0  501  0.00000000000E+00  0.00000000000E+00  0.17338037521E+04  0.17338037521E+04  0.25500000920E-02 0.  1.
        2   -1    0    0  501    0  0.00000000000E+00  0.00000000000E+00 -0.11431896684E+04  0.11431896684E+04  0.25500000920E-02 0. -1.
    10030    2    1    2    0    0  0.00000000000E+00  0.00000000000E+00  0.59061408368E+03  0.28769934206E+04  0.28157176965E+04 0.  0.
        3    1    3    3  502    0 -0.98140293693E+03 -0.26006641545E+03  0.12918683030E+04  0.16430794222E+04  0.10100000352E+00 0.  1.
       -3    1    3    3    0  502  0.98140293693E+03  0.26006641545E+03 -0.70125421935E+03  0.12339139984E+04  0.10100000352E+00 0. -1.
</event>
<event>
 5   0  0.2518686E-05  0.2847856E+04  0.7818609E-02  0.8288563E-01
       -2   -1    0    0    0  501  0.00000000000E+00  0.00000000000E+00  0.16198277456E+04  0.16198277456E+04  0.25500000920E-02 0.  1.
        2   -1    0    0  501    0  0.00000000000E+00  0.00000000000E+00 -0.12517201284E+04  0.12517201284E+04  0.25500000920E-02 0. -1.
    10030    2    1    2    0    0  0.00000000000E+00  0.00000000000E+00  0.36810761720E+03  0.28715478739E+04  0.28478560312E+04 0.  0.
        5    1    3    3  502    0 -0.95309341027E+02  0.49020918391E+03  0.15286239032E+04  0.16081362013E+04  0.46999998093E+01 0.  1.
       -5    1    3    3    0  502  0.95309341027E+02 -0.49020918391E+03 -0.11605162860E+04  0.12634116726E+04  0.46999998093E+01 0. -1.
</event>
<event>
 5   0  0.1105862E-05  0.2966566E+04  0.7818609E-02  0.8253343E-01
       -1   -1    0    0    0  501  0.00000000000E+00  0.00000000000E+00  0.18925604911E+04  0.18925604911E+04  0.50400001928E-02 0. -1.
        1   -1    0    0  501    0  0.00000000000E+00  0.00000000000E+00 -0.11625140526E+04  0.11625140526E+04  0.50400001928E-02 0.  1.
    10030    2    1    2    0    0  0.00000000000E+00  0.00000000000E+00  0.73004643849E+03  0.30550745437E+04  0.29665658033E+04 0.  0.
        3    1    3    3  502    0 -0.11192227860E+04 -0.75654447954E+03  0.99575765923E+03  0.16782587764E+04  0.10100000352E+00 0. -1.
       -3    1    3    3    0  502  0.11192227860E+04  0.75654447954E+03 -0.26571122074E+03  0.13768157674E+04  0.10100000352E+00 0.  1.
</event>
<event>
 5   0  0.1075146E-05  0.2736329E+04  0.7818609E-02  0.8323313E-01
        1   -1    0    0  501    0  0.00000000000E+00  0.00000000000E+00  0.13800310871E+04  0.13800310871E+04  0.50400001928E-02 0. -1.
       -1   -1    0    0    0  501  0.00000000000E+00  0.00000000000E+00 -0.13564002119E+04  0.13564002119E+04  0.50400001928E-02 0.  1.
    10030    2    1    2    0    0  0.00000000000E+00  0.00000000000E+00  0.23630875171E+02  0.27364312990E+04  0.27363292630E+04 0.  0.
        2    1    3    3  502    0  0.11210287548E+04 -0.58549862122E+03  0.53371645025E+03  0.13727226063E+04  0.25500000920E-02 0. -1.
       -2    1    3    3    0  502 -0.11210287548E+04  0.58549862122E+03 -0.51008557508E+03  0.13637086927E+04  0.25500000920E-02 0.  1.
</event>
<event>
 5   0  0.1067434E-05  0.2721983E+04  0.7818609E-02  0.8327907E-01
        1   -1    0    0  501    0  0.00000000000E+00  0.00000000000E+00  0.24940952736E+04  0.24940952736E+04  0.50400001928E-02 0.  1.
       -1   -1    0    0    0  501  0.00000000000E+00  0.00000000000E+00 -0.74267348916E+03  0.74267348917E+03  0.50400001928E-02 0. -1.
    10030    2    1    2    0    0  0.00000000000E+00  0.00000000000E+00  0.17514217844E+04  0.32367687628E+04  0.27219834233E+04 0.  0.
        4    1    3    3  502    0 -0.11240263065E+04 -0.73733963130E+03  0.11284990766E+04  0.17551685527E+04  0.12699999809E+01 0. -1.
       -4    1    3    3    0  502  0.11240263065E+04  0.73733963130E+03  0.62292270786E+03  0.14816002101E+04  0.12699999809E+01 0.  1.
</event>
<event>
 5   0  0.2651061E-05  0.2809110E+04  0.7818609E-02  0.8300446E-01
        2   -1    0    0  501    0  0.00000000000E+00  0.00000000000E+00  0.18786178600E+04  0.18786178600E+04  0.25500000920E-02 0.  1.
       -2   -1    0    0    0  501  0.00000000000E+00  0.00000000000E+00 -0.10501200710E+04  0.10501200710E+04  0.25500000920E-02 0. -1.
    10030    2    1    2    0    0  0.00000000000E+00  0.00000000000E+00  0.82849778898E+03  0.29287379310E+04  0.28091096956E+04 0.  0.
        3    1    3    3  502    0 -0.29359830008E+03  0.31278598120E+03  0.18086423476E+04  0.18588227951E+04  0.10100000352E+00 0.  1.
       -3    1    3    3    0  502  0.29359830008E+03 -0.31278598120E+03 -0.98014455864E+03  0.10699151358E+04  0.10100000352E+00 0. -1.
</event>
<event>
 5   0  0.2651061E-05  0.2772372E+04  0.7818609E-02  0.8311897E-01
       -2   -1    0    0    0  501  0.00000000000E+00  0.00000000000E+00  0.11758238382E+04  0.11758238382E+04  0.25500000920E-02 0. -1.
        2   -1    0    0  501    0  0.00000000000E+00  0.00000000000E+00 -0.16341832187E+04  0.16341832187E+04  0.25500000920E-02 0.  1.
    10030    2    1    2    0    0  0.00000000000E+00  0.00000000000E+00 -0.45835938050E+03  0.28100070569E+04  0.27723719696E+04 0.  0.
        3    1    3    3  502    0  0.49740085317E+03 -0.54308410484E+03  0.96114052088E+03  0.12108422956E+04  0.10100000352E+00 0. -1.
       -3    1    3    3    0  502 -0.49740085317E+03  0.54308410484E+03 -0.14194999014E+04  0.15991647613E+04  0.10100000352E+00 0.  1.
</event>
<event>
 5   0  0.2697964E-05  0.2827632E+04  0.7818609E-02  0.8294741E-01
        2   -1    0    0  501    0  0.00000000000E+00  0.00000000000E+00  0.19204487062E+04  0.19204487062E+04  0.25500000920E-02 0.  1.
       -2   -1    0    0    0  501  0.00000000000E+00  0.00000000000E+00 -0.10408377894E+04  0.10408377894E+04  0.25500000920E-02 0. -1.
    10030    2    1    2    0    0  0.00000000000E+00  0.00000000000E+00  0.87961091681E+03  0.29612864955E+04  0.28276319322E+04 0.  0.
        1    1    3    3  502    0 -0.98210999294E+03 -0.66210042445E+03  0.12482785789E+04  0.17207894760E+04  0.50400001928E-02 0.  1.
       -1    1    3    3    0  502  0.98210999294E+03  0.66210042445E+03 -0.36866766209E+03  0.12404970195E+04  0.50400001928E-02 0. -1.
</event>
<event>
 5   0  0.1078103E-05  0.1778828E+04  0.7818609E-02  0.8717640E-01
       -1   -1    0    0    0  501  0.00000000000E+00  0.00000000000E+00  0.14467272247E+04  0.14467272247E+04  0.50400001928E-02 0. -1.
        1   -1    0    0  501    0  0.00000000000E+00  0.00000000000E+00 -0.54679060900E+03  0.54679060903E+03  0.50400001928E-02 0.  1.
    10030    2    1    2    0    0  0.00000000000E+00  0.00000000000E+00  0.89993661571E+03  0.19935178338E+04  0.17788275468E+04 0.  0.
        1    1    3    3  502    0  0.70676937212E+03  0.15583649022E+03 -0.12938600546E+03  0.73522016804E+03  0.50400001928E-02 0.  1.
       -1    1    3    3    0  502 -0.70676937212E+03 -0.15583649022E+03  0.10293226212E+04  0.12582976657E+04  0.50400001928E-02 0. -1.
</event>
<event>
 5   0  0.2588048E-05  0.2942843E+04  0.7818609E-02  0.8260243E-01
        2   -1    0    0  501    0  0.00000000000E+00  0.00000000000E+00  0.13983858382E+04  0.13983858382E+04  0.25500000920E-02 0.  1.
       -2   -1    0    0    0  501  0.00000000000E+00  0.00000000000E+00 -0.15482717355E+04  0.15482717355E+04  0.25500000920E-02 0. -1.
    10030    2    1    2    0    0  0.00000000000E+00  0.00000000000E+00 -0.14988589732E+03  0.29466575737E+04  0.29428430257E+04 0.  0.
        2    1    3    3  502    0 -0.10465270712E+04  0.55712028636E+03  0.79766779646E+03  0.14289422094E+04  0.25500000920E-02 0.  1.
       -2    1    3    3    0  502  0.10465270712E+04 -0.55712028636E+03 -0.94755369377E+03  0.15177153643E+04  0.25500000920E-02 0. -1.
</event>
<event>
 5   0  0.2651061E-05  0.2550203E+04  0.7818609E-02  0.8385315E-01
        2   -1    0    0  501    0  0.00000000000E+00  0.00000000000E+00  0.23636265486E+04  0.23636265486E+04  0.25500000920E-02 0.  1.
       -2   -1    0    0    0  501  0.00000000000E+00  0.00000000000E+00 -0.68787697294E+03  0.68787697295E+03  0.25500000920E-02 0. -1.
    10030    2    1    2    0    0  0.00000000000E+00  0.00000000000E+00  0.16757495757E+04  0.30515035216E+04  0.25502033452E+04 0.  0.
        3    1    3    3  502    0 -0.80303698765E+03 -0.16258336076E+03  0.20069590156E+04  0.21677606540E+04  0.10100000352E+00 0.  1.
       -3    1    3    3    0  502  0.80303698765E+03  0.16258336076E+03 -0.33120943987E+03  0.88374286757E+03  0.10100000352E+00 0. -1.
</event>
<event>
 5   0  0.1078103E-05  0.1635593E+04  0.7818609E-02  0.8798975E-01
        1   -1    0    0  501    0  0.00000000000E+00  0.00000000000E+00  0.11643826285E+04  0.11643826285E+04  0.50400001928E-02 0.  1.
       -1   -1    0    0    0  501  0.00000000000E+00  0.00000000000E+00 -0.57437430151E+03  0.57437430153E+03  0.50400001928E-02 0. -1.
    10030    2    1    2    0    0  0.00000000000E+00  0.00000000000E+00  0.59000832700E+03  0.17387569300E+04  0.16355934201E+04 0.  0.
        1    1    3    3  502    0 -0.77593366793E+03  0.15810255701E+03  0.51214724269E+03  0.94306111879E+03  0.50400001928E-02 0.  1.
       -1    1    3    3    0  502  0.77593366793E+03 -0.15810255701E+03  0.77861084312E+02  0.79569581125E+03  0.50400001928E-02 0. -1.
</event>
<event>
 5   0  0.2624815E-05  0.2839118E+04  0.7818609E-02  0.8291226E-01
       -2   -1    0    0    0  501  0.00000000000E+00  0.00000000000E+00  0.17115565764E+04  0.17115565764E+04  0.25500000920E-02 0.  1.
        2   -1    0    0  501    0  0.00000000000E+00  0.00000000000E+00 -0.11773769689E+04  0.11773769689E+04  0.25500000920E-02 0. -1.
    10030    2    1    2    0    0  0.00000000000E+00  0.00000000000E+00  0.53417960754E+03  0.28889335453E+04  0.28391176756E+04 0.  0.
        4    1    3    3  502    0 -0.85125755879E+02 -0.24271742171E+03 -0.11534672783E+04  0.11817980014E+04  0.12699999809E+01 0. -1.
       -4    1    3    3    0  502  0.85125755879E+02  0.24271742171E+03  0.16876468858E+04  0.17071355439E+04  0.12699999809E+01 0.  1.
</event>
<event>
 5   0  0.1017456E-05  0.2740557E+04  0.7818609E-02  0.8321964E-01
        1   -1    0    0  501    0  0.00000000000E+00  0.00000000000E+00  0.99575857696E+03  0.99575857698E+03  0.50400001928E-02 0. -1.
       -1   -1    0    0    0  501  0.00000000000E+00  0.00000000000E+00 -0.18856608832E+04  0.18856608832E+04  0.50400001928E-02 0.  1.
    10030    2    1    2    0    0  0.00000000000E+00  0.00000000000E+00 -0.88990230627E+03  0.28814194602E+04  0.27405568761E+04 0.  0.
        5    1    3    3  502    0 -0.18167942811E+03 -0.12055742992E+04  0.21267710520E+03  0.12376067415E+04  0.46999998093E+01 0. -1.
       -5    1    3    3    0  502  0.18167942811E+03  0.12055742992E+04 -0.11025794115E+04  0.16438127187E+04  0.46999998093E+01 0.  1.
</event>
<event>
 5   0  0.2518686E-05  0.2726035E+04  0.7818609E-02  0.8326607E-01
       -2   -1    0    0    0  501  0.00000000000E+00  0.00000000000E+00  0.12057946830E+04  0.12057946830E+04  0.25500000920E-02 0.  1.
        2   -1    0    0  501    0  0.00000000000E+00  0.00000000000E+00 -0.15407400497E+04  0.15407400497E+04  0.25500000920E-02 0. -1.
    10030    2    1    2    0    0  0.00000000000E+00  0.00000000000E+00 -0.33494536665E+03  0.27465347327E+04  0.27260345998E+04 0.  0.
        5    1    3    3  502    0 -0.33092103846E+03 -0.51468786125E+02  0.11636884045E+04  0.12109296273E+04  0.46999998093E+01 0.  1.
       -5    1    3    3    0  502  0.33092103846E+03  0.51468786125E+02 -0.14986337711E+04  0.15356051054E+04  0.46999998093E+01 0. -1.
</event>
<event>
 5   0  0.2624815E-05  0.2837370E+04  0.7818609E-02  0.8291759E-01
       -2   -1    0    0    0  501  0.00000000000E+00  0.00000000000E+00  0.18525482012E+04  0.18525482012E+04  0.25500000920E-02 0.  1.
        2   -1    0    0  501    0  0.00000000000E+00  0.00000000000E+00 -0.10864320985E+04  0.10864320985E+04  0.25500000920E-02 0. -1.
    10030    2    1    2    0    0  0.00000000000E+00  0.00000000000E+00  0.76611610275E+03  0.29389802997E+04  0.28373704938E+04 0.  0.
        4    1    3    3  502    0 -0.84304882498E+03  0.10565134309E+04  0.82943654245E+03  0.15858494701E+04  0.12699999809E+01 0.  1.
       -4    1    3    3    0  502  0.84304882498E+03 -0.10565134309E+04 -0.63320439706E+02  0.13531308296E+04  0.12699999809E+01 0. -1.
</event>
<event>
 5   0  0.2651061E-05  0.2270808E+04  0.7818609E-02  0.8489521E-01
        2   -1    0    0  501    0  0.00000000000E+00  0.00000000000E+00  0.14647347682E+04  0.14647347682E+04  0.25500000920E-02 0. -1.
       -2   -1    0    0    0  501  0.00000000000E+00  0.00000000000E+00 -0.88011996949E+03  0.88011996949E+03  0.25500000920E-02 0.  1.
    10030    2    1    2    0    0  0.00000000000E+00  0.00000000000E+00  0.58461479876E+03  0.23448547377E+04  0.22708080672E+04 0.  0.
        3    1    3    3  502    0  0.51471970888E+03 -0.37361732149E+03  0.12635168887E+04  0.14145675028E+04  0.10100000352E+00 0. -1.
       -3    1    3    3    0  502 -0.51471970888E+03  0.37361732149E+03 -0.67890208995E+03  0.93028723498E+03  0.10100000352E+00 0.  1.
</event>
<event>
 5   0  0.2651061E-05  0.2555359E+04  0.7818609E-02  0.8383525E-01
       -2   -1    0    0    0  501  0.00000000000E+00  0.00000000000E+00  0.13095460496E+04  0.13095460496E+04  0.25500000920E-02 0. -1.
        2   -1    0    0  501    0  0.00000000000E+00  0.00000000000E+00 -0.12465888304E+04  0.12465888304E+04  0.25500000920E-02 0.  1.
    10030    2    1    2    0    0  0.00000000000E+00  0.00000000000E+00  0.62957219223E+02  0.25561348800E+04  0.25553594490E+04 0.  0.
        3    1    3    3  502    0 -0.10032248457E+04  0.74943017506E+03 -0.22229068749E+03  0.12718171402E+04  0.10100000352E+00 0. -1.
       -3    1    3    3    0  502  0.10032248457E+04 -0.74943017506E+03  0.28524790672E+03  0.12843177398E+04  0.10100000352E+00 0.  1.
</event>
<event>
 5   0  0.2624815E-05  0.2691413E+04  0.7818609E-02  0.8337797E-01
       -2   -1    0    0    0  501  0.00000000000E+00  0.00000000000E+00  0.10412962015E+04  0.10412962015E+04  0.25500000920E-02 0. -1.
        2   -1    0    0  501    0  0.00000000000E+00  0.00000000000E+00 -0.17391070752E+04  0.17391070752E+04  0.25500000920E-02 0.  1.
    10030    2    1    2    0    0  0.00000000000E+00  0.00000000000E+00 -0.69781087376E+03  0.27804032767E+04  0.26914127082E+04 0.  0.
        4    1    3    3  502    0 -0.58131817951E+03 -0.23017283084E+02  0.90466788480E+03  0.10755864521E+04  0.12699999809E+01 0. -1.
       -4    1    3    3    0  502  0.58131817951E+03  0.23017283084E+02 -0.16024787586E+04  0.17048168247E+04  0.12699999809E+01 0.  1.
</event>
<event>
 5   0  0.2651061E-05  0.2832500E+04  0.7818609E-02  0.8293249E-01
       -2   -1    0    0    0  501  0.00000000000E+00  0.00000000000E+00  0.10604328889E+04  0.10604328889E+04  0.25500000920E-02 0. -1.
        2   -1    0    0  501    0  0.00000000000E+00  0.00000000000E+00 -0.18914579459E+04  0.18914579459E+04  0.25500000920E-02 0.  1.
    10030    2    1    2    0    0  0.00000000000E+00  0.00000000000E+00 -0.83102505702E+03  0.29518908349E+04  0.28325001069E+04 0.  0.
        3    1    3    3  502    0  0.86319693067E+03 -0.32361014090E+03 -0.15359727736E+04  0.17913807066E+04  0.10100000352E+00 0.  1.
       -3    1    3    3    0  502 -0.86319693067E+03  0.32361014090E+03  0.70494771663E+03  0.11605101283E+04  0.10100000352E+00 0. -1.
</event>
<event>
 5   0  0.1017456E-05  0.1514986E+04  0.7818609E-02  0.8874548E-01
       -1   -1    0    0    0  501  0.00000000000E+00  0.00000000000E+00  0.43885467751E+03  0.43885467754E+03  0.50400001928E-02 0. -1.
        1   -1    0    0  501    0  0.00000000000E+00  0.00000000000E+00 -0.13074837845E+04  0.13074837845E+04  0.50400001928E-02 0.  1.
    10030    2    1    2    0    0  0.00000000000E+00  0.00000000000E+00 -0.86862910702E+03  0.17463384621E+04  0.15149856430E+04 0.  0.
        5    1    3    3  502    0  0.30792289572E+03 -0.35331871693E+03  0.25164223810E+03  0.53197418306E+03  0.46999998093E+01 0. -1.
       -5    1    3    3    0  502 -0.30792289572E+03  0.35331871693E+03 -0.11202713451E+04  0.12143642790E+04  0.46999998093E+01 0.  1.
</event>
<event>
 5   0  0.2697964E-05  0.2831959E+04  0.7818609E-02  0.8293415E-01
       -2   -1    0    0    0  501  0.00000000000E+00  0.00000000000E+00  0.89584089852E+03  0.89584089852E+03  0.25500000920E-02 0.  1.
        2   -1    0    0  501    0  0.00000000000E+00  0.00000000000E+00 -0.22381179211E+04  0.22381179211E+04  0.25500000920E-02 0. -1.
    10030    2    1    2    0    0  0.00000000000E+00  0.00000000000E+00 -0.13422770226E+04  0.31339588197E+04  0.28319587352E+04 0.  0.
        1    1    3    3  502    0 -0.11912508075E+03  0.13947837989E+04 -0.90689423294E+03  0.16679537705E+04  0.50400001928E-02 0. -1.
       -1    1    3    3    0  502  0.11912508075E+03 -0.13947837989E+04 -0.43538278967E+03  0.14660050492E+04  0.50400001928E-02 0.  1.
</event>
<event>
 5   0  0.1105862E-05  0.1935900E+04  0.7818609E-02  0.8637190E-01
        1   -1    0    0  501    0  0.00000000000E+00  0.00000000000E+00  0.72665440108E+03  0.72665440110E+03  0.50400001928E-02 0. -1.
       -1   -1    0    0    0  501  0.00000000000E+00  0.00000000000E+00 -0.12893710604E+04  0.12893710604E+04  0.50400001928E-02 0.  1.
    10030    2    1    2    0    0  0.00000000000E+00  0.00000000000E+00 -0.56271665930E+03  0.20160254615E+04  0.19358999516E+04 0.  0.
        3    1    3    3  502    0  0.15166065418E+03  0.39113672524E+03  0.62706402408E+03  0.75445224657E+03  0.10100000352E+00 0. -1.
       -3    1    3    3    0  502 -0.15166065418E+03 -0.39113672524E+03 -0.11897806834E+04  0.12615732149E+04  0.10100000352E+00 0.  1.
</event>
<event>
 5   0  0.2624815E-05  0.2683670E+04  0.7818609E-02  0.8340323E-01
       -2   -1    0    0    0  501  0.00000000000E+00  0.00000000000E+00  0.12053711788E+04  0.12053711788E+04  0.25500000920E-02 0.  1.
        2   -1    0    0  501    0  0.00000000000E+00  0.00000000000E+00 -0.14937480304E+04  0.14937480304E+04  0.25500000920E-02 0. -1.
    10030    2    1    2    0    0  0.00000000000E+00  0.00000000000E+00 -0.28837685162E+03  0.26991192091E+04  0.26836697443E+04 0.  0.
        4    1    3    3  502    0 -0.95468664870E+03  0.91893497268E+03  0.68336181944E+02  0.13268532428E+04  0.12699999809E+01 0. -1.
       -4    1    3    3    0  502  0.95468664870E+03 -0.91893497268E+03 -0.35671303356E+03  0.13722659664E+04  0.12699999809E+01 0.  1.
</event>
<event>
 5   0  0.2624815E-05  0.2798023E+04  0.7818609E-02  0.8303882E-01
       -2   -1    0    0    0  501  0.00000000000E+00  0.00000000000E+00  0.10386607703E+04  0.10386607703E+04  0.25500000920E-02 0.  1.
        2   -1    0    0  501    0  0.00000000000E+00  0.00000000000E+00 -0.18843821515E+04  0.18843821515E+04  0.25500000920E-02 0. -1.
    10030    2    1    2    0    0  0.00000000000E+00  0.00000000000E+00 -0.84572138119E+03  0.29230429217E+04  0.27980234573E+04 0.  0.
        4    1    3    3  502    0 -0.73065032764E+03 -0.27614355150E+03 -0.16353784785E+04  0.18123381426E+04  0.12699999809E+01 0. -1.
       -4    1    3    3    0  502  0.73065032764E+03  0.27614355150E+03  0.78965709726E+03  0.11107047792E+04  0.12699999809E+01 0.  1.
</event>
<event>
 5   0  0.8958000E-06  0.1879857E+04  0.7818609E-02  0.8664948E-01
       -3   -1    0    0    0  501  0.00000000000E+00  0.00000000000E+00  0.55203801242E+03  0.55203802165E+03  0.10100000352E+00 0.  1.
        3   -1    0    0  501    0  0.00000000000E+00  0.00000000000E+00 -0.16003709719E+04  0.16003709751E+04  0.10100000352E+00 0. -1.
    10030    2    1    2    0    0  0.00000000000E+00  0.00000000000E+00 -0.10483329595E+04  0.21524089968E+04  0.18798570412E+04 0.  0.
        3    1    3    3  502    0  0.22941447339E+03 -0.89728368168E+03 -0.70778091219E+03  0.11656340918E+04  0.10100000352E+00 0. -1.
       -3    1    3    3    0  502 -0.22941447339E+03  0.89728368168E+03 -0.34055204731E+03  0.98677490500E+03  0.10100000352E+00 0.  1.
</event>
<event>
 5   0  0.2624815E-05  0.2856902E+04  0.7818609E-02  0.8285817E-01
        2   -1    0    0  501    0  0.00000000000E+00  0.00000000000E+00  0.20334896641E+04  0.20334896641E+04  0.25500000920E-02 0.  1.
       -2   -1    0    0    0  501  0.00000000000E+00  0.00000000000E+00 -0.10034335598E+04  0.10034335598E+04  0.25500000920E-02 0. -1.
    10030    2    1    2    0    0  0.00000000000E+00  0.00000000000E+00  0.10300561043E+04  0.30369232239E+04  0.28569016591E+04 0.  0.
        4    1    3    3  502    0  0.50359560484E+03 -0.96690512419E+03  0.14962045380E+04  0.18512546245E+04  0.12699999809E+01 0.  1.
       -4    1    3    3    0  502 -0.50359560484E+03  0.96690512419E+03 -0.46614843368E+03  0.11856685994E+04  0.12699999809E+01 0. -1.
</event>
<event>
 5   0  0.2697964E-05  0.2583745E+04  0.7818609E-02  0.8373744E-01
       -2   -1    0    0    0  501  0.00000000000E+00  0.00000000000E+00  0.95236198407E+03  0.95236198407E+03  0.25500000920E-02 0. -1.
        2   -1    0    0  501    0  0.00000000000E+00  0.00000000000E+00 -0.17524160644E+04  0.17524160644E+04  0.25500000920E-02 0.  1.
    10030    2    1    2    0    0  0.00000000000E+00  0.00000000000E+00 -0.80005408030E+03  0.27047780484E+04  0.25837449100E+04 0.  0.
        1    1    3    3  502    0 -0.63026258526E+03 -0.44876135980E+02 -0.15796162413E+04  0.17013031076E+04  0.50400001928E-02 0.  1.
       -1    1    3    3    0  502  0.63026258526E+03  0.44876135980E+02  0.77956216105E+03  0.10034749409E+04  0.50400001928E-02 0. -1.
</event>
<event>
 5   0  0.1067434E-05  0.2699198E+04  0.7818609E-02  0.8335265E-01
        1   -1    0    0  501    0  0.00000000000E+00  0.00000000000E+00  0.11775343487E+04  0.11775343487E+04  0.50400001928E-02 0. -1.
       -1   -1    0    0    0  501  0.00000000000E+00  0.00000000000E+00 -0.15468060339E+04  0.15468060339E+04  0.50400001928E-02 0.  1.
    10030    2    1    2    0    0  0.00000000000E+00  0.00000000000E+00 -0.36927168521E+03  0.27243403825E+04  0.26991978331E+04 0.  0.
        4    1    3    3  502    0 -0.73324105708E+03 -0.11166075163E+04 -0.37867863073E+03  0.13884717899E+04  0.12699999809E+01 0. -1.
       -4    1    3    3    0  502  0.73324105708E+03  0.11166075163E+04  0.94069455176E+01  0.13358685926E+04  0.12699999809E+01 0.  1.
</event>
<event>
 5   0  0.8958000E-06  0.2821808E+04  0.7818609E-02  0.8296530E-01
        3   -1    0    0  501    0  0.00000000000E+00  0.00000000000E+00  0.13693723151E+04  0.13693723188E+04  0.10100000352E+00 0. -1.
       -3   -1    0    0    0  501  0.00000000000E+00  0.00000000000E+00 -0.14536955101E+04  0.14536955137E+04  0.10100000352E+00 0.  1.
    10030    2    1    2    0    0  0.00000000000E+00  0.00000000000E+00 -0.84323195077E+02  0.28230678325E+04  0.28218082120E+04 0.  0.
        5    1    3    3  502    0 -0.10251188788E+03  0.12097192407E+04  0.67697703795E+03  0.13900537142E+04  0.46999998093E+01 0. -1.
       -5    1    3    3    0  502  0.10251188788E+03 -0.12097192407E+04 -0.76130023303E+03  0.14330141183E+04  0.46999998093E+01 0.  1.
</event>
<event>
 5   0  0.1017456E-05  0.3104902E+04  0.7818609E-02  0.8214394E-01
        1   -1    0    0  501    0  0.00000000000E+00  0.00000000000E+00  0.88268509629E+03  0.88268509630E+03  0.50400001928E-02 0. -1.
       -1   -1    0    0    0  501  0.00000000000E+00  0.00000000000E+00 -0.27304226767E+04  0.27304226767E+04  0.50400001928E-02 0.  1.
    10030    2    1    2    0    0  0.00000000000E+00  0.00000000000E+00 -0.18477375804E+04  0.36131077730E+04  0.31049015465E+04 0.  0.
        5    1    3    3  502    0  0.72202169984E+03  0.13527193828E+04 -0.12063246761E+04  0.19510013782E+04  0.46999998093E+01 0. -1.
       -5    1    3    3    0  502 -0.72202169984E+03 -0.13527193828E+04 -0.64141290439E+03  0.16621063948E+04  0.46999998093E+01 0.  1.
</event>
<event>
 5   0  0.2624815E-05  0.2776644E+04  0.7818609E-02  0.8310556E-01
        2   -1    0    0  501    0  0.00000000000E+00  0.00000000000E+00  0.13503061871E+04  0.13503061871E+04  0.25500000920E-02 0.  1.
       -2   -1    0    0    0  501  0.00000000000E+00  0.00000000000E+00 -0.14274076219E+04  0.14274076219E+04  0.25500000920E-02 0. -1.
    10030    2    1    2    0    0  0.00000000000E+00  0.00000000000E+00 -0.77101434771E+02  0.27777138090E+04  0.27766435445E+04 0.  0.
        4    1    3    3  502    0 -0.55479051013E+03  0.12500071854E+04  0.20055031454E+03  0.13822201399E+04  0.12699999809E+01 0.  1.
       -4    1    3    3    0  502  0.55479051013E+03 -0.12500071854E+04 -0.27765174931E+03  0.13954936691E+04  0.12699999809E+01 0. -1.
</event>
<event>
 5   0  0.2697964E-05  0.2726698E+04  0.7818609E-02  0.8326394E-01
        2   -1    0    0  501    0  0.00000000000E+00  0.00000000000E+00  0.15757205481E+04  0.15757205481E+04  0.25500000920E-02 0.  1.
       -2   -1    0    0    0  501  0.00000000000E+00  0.00000000000E+00 -0.11796002130E+04  0.11796002130E+04  0.25500000920E-02 0. -1.
    10030    2    1    2    0    0  0.00000000000E+00  0.00000000000E+00  0.39612033520E+03  0.27553207611E+04  0.27266978521E+04 0.  0.
        1    1    3    3  502    0 -0.52676322856E+03  0.18733431999E+03 -0.10584340379E+04  0.11970197405E+04  0.50400001928E-02 0. -1.
       -1    1    3    3    0  502  0.52676322856E+03 -0.18733431999E+03  0.14545543731E+04  0.15583010206E+04  0.50400001928E-02 0.  1.
</event>
<event>
 5   0  0.2588048E-05  0.2783110E+04  0.7818609E-02  0.8308531E-01
        2   -1    0    0  501    0  0.00000000000E+00  0.00000000000E+00  0.26590932705E+04  0.26590932706E+04  0.25500000920E-02 0.  1.
       -2   -1    0    0    0  501  0.00000000000E+00  0.00000000000E+00 -0.72822742559E+03  0.72822742560E+03  0.25500000920E-02 0. -1.
    10030    2    1    2    0    0  0.00000000000E+00  0.00000000000E+00  0.19308658450E+04  0.33873206961E+04  0.27831095177E+04 0.  0.
        2    1    3    3  502    0  0.10586540785E+03  0.28692279659E+02 -0.72295799260E+03  0.73123114715E+03  0.25500000920E-02 0. -1.
       -2    1    3    3    0  502 -0.10586540785E+03 -0.28692279659E+02  0.26538238376E+04  0.26560895490E+04  0.25500000920E-02 0.  1.
</event>
<event>
 5   0  0.2518686E-05  0.2828674E+04  0.7818609E-02  0.8294421E-01
        2   -1    0    0  501    0  0.00000000000E+00  0.00000000000E+00  0.13259152992E+04  0.13259152992E+04  0.25500000920E-02 0. -1.
       -2   -1    0    0    0  501  0.00000000000E+00  0.00000000000E+00 -0.15086556022E+04  0.15086556022E+04  0.25500000920E-02 0.  1.
    10030    2    1    2    0    0  0.00000000000E+00  0.00000000000E+00 -0.18274030303E+03  0.28345709014E+04  0.28286742790E+04 0.  0.
        5    1    3    3  502    0  0.30547331333E+03 -0.84485048368E+03  0.10032627497E+04  0.13467161987E+04  0.46999998093E+01 0. -1.
       -5    1    3    3    0  502 -0.30547331333E+03  0.84485048368E+03 -0.11860030528E+04  0.14878547026E+04  0.46999998093E+01 0.  1.
</event>
<event>
 5   0  0.2588048E-05  0.2805199E+04  0.7818609E-02  0.8301656E-01
        2   -1    0    0  501    0  0.00000000000E+00  0.00000000000E+00  0.84922288072E+03  0.84922288073E+03  0.25500000920E-02 0.  1.
       -2   -1    0    0    0  501  0.00000000000E+00  0.00000000000E+00 -0.23165718481E+04  0.23165718481E+04  0.25500000920E-02 0. -1.
    10030    2    1    2    0    0  0.00000000000E+00  0.00000000000E+00 -0.14673489674E+04  0.31657947288E+04  0.28051993286E+04 0.  0.
        2    1    3    3  502    0  0.28702426512E+03  0.80858941982E+03  0.51849532614E+03  0.10025154272E+04  0.25500000920E-02 0.  1.
       -2    1    3    3    0  502 -0.28702426512E+03 -0.80858941982E+03 -0.19858442935E+04  0.21632793016E+04  0.25500000920E-02 0. -1.
</event>
<event>
 5   0  0.1105862E-05  0.2770892E+04  0.7818609E-02  0.8312363E-01
       -1   -1    0    0    0  501  0.00000000000E+00  0.00000000000E+00  0.10367033126E+04  0.10367033126E+04  0.50400001928E-02 0.  1.
        1   -1    0    0  501    0  0.00000000000E+00  0.00000000000E+00 -0.18515040895E+04  0.18515040895E+04  0.50400001928E-02 0. -1.
    10030    2    1    2    0    0  0.00000000000E+00  0.00000000000E+00 -0.81480077694E+03  0.28882074021E+04  0.27708918585E+04 0.  0.
        3    1    3    3  502    0  0.31823486819E+03 -0.12362250131E+04 -0.96865367439E+03  0.16024405342E+04  0.10100000352E+00 0. -1.
       -3    1    3    3    0  502 -0.31823486819E+03  0.12362250131E+04  0.15385289745E+03  0.12857668679E+04  0.10100000352E+00 0.  1.
</event>
<event>
 5   0  0.2697964E-05  0.2853993E+04  0.7818609E-02  0.8286699E-01
        2   -1    0    0  501    0  0.00000000000E+00  0.00000000000E+00  0.15485694999E+04  0.15485694999E+04  0.25500000920E-02 0. -1.
       -2   -1    0    0    0  501  0.00000000000E+00  0.00000000000E+00 -0.13149679583E+04  0.13149679583E+04  0.25500000920E-02 0.  1.
    10030    2    1    2    0    0  0.00000000000E+00  0.00000000000E+00  0.23360154157E+03  0.28635374583E+04  0.28539931841E+04 0.  0.
        1    1    3    3  502    0 -0.28524405479E+03 -0.12982200207E+04  0.63774793142E+03  0.14742665353E+04  0.50400001928E-02 0. -1.
       -1    1    3    3    0  502  0.28524405479E+03  0.12982200207E+04 -0.40414638985E+03  0.13892709230E+04  0.50400001928E-02 0.  1.
</event>
<event>
 5   0  0.1075146E-05  0.2836415E+04  0.7818609E-02  0.8292051E-01
       -1   -1    0    0    0  501  0.00000000000E+00  0.00000000000E+00  0.13349456998E+04  0.13349456998E+04  0.50400001928E-02 0.  1.
        1   -1    0    0  501    0  0.00000000000E+00  0.00000000000E+00 -0.15066620969E+04  0.15066620969E+04  0.50400001928E-02 0. -1.
    10030    2    1    2    0    0  0.00000000000E+00  0.00000000000E+00 -0.17171639707E+03  0.28416077967E+04  0.28364146998E+04 0.  0.
        2    1    3    3  502    0 -0.23888982763E+03  0.10160414273E+04  0.87605781165E+03  0.13626759780E+04  0.25500000920E-02 0.  1.
       -2    1    3    3    0  502  0.23888982763E+03 -0.10160414273E+04 -0.10477742087E+04  0.14789318186E+04  0.25500000920E-02 0. -1.
</event>
<event>
 5   0  0.1067434E-05  0.2781036E+04  0.7818609E-02  0.8309180E-01
        1   -1    0    0  501    0  0.00000000000E+00  0.00000000000E+00  0.19119739955E+04  0.19119739955E+04  0.50400001928E-02 0. -1.
       -1   -1    0    0    0  501  0.00000000000E+00  0.00000000000E+00 -0.10112797634E+04  0.10112797634E+04  0.50400001928E-02 0.  1.
    10030    2    1    2    0    0  0.00000000000E+00  0.00000000000E+00  0.90069423206E+03  0.29232537589E+04  0.27810362168E+04 0.  0.
        4    1    3    3  502    0  0.44110764231E+03  0.12586371884E+04  0.86390756652E+03  0.15890504776E+04  0.12699999809E+01 0. -1.
       -4    1    3    3    0  502 -0.44110764231E+03 -0.12586371884E+04  0.36786665543E+02  0.13342032813E+04  0.12699999809E+01 0.  1.
</event>
<event>
 5   0  0.2651061E-05  0.2714324E+04  0.7818609E-02  0.8330372E-01
        2   -1    0    0  501    0  0.00000000000E+00  0.00000000000E+00  0.17331822429E+04  0.17331822429E+04  0.25500000920E-02 0. -1.
       -2   -1    0    0    0  501  0.00000000000E+00  0.00000000000E+00 -0.10627203400E+04  0.10627203400E+04  0.25500000920E-02 0.  1.
    10030    2    1    2    0    0  0.00000000000E+00  0.00000000000E+00  0.67046190286E+03  0.27959025830E+04  0.27143235051E+04 0.  0.
        3    1    3    3  502    0 -0.55150235870E+03 -0.11980032915E+04  0.54182131300E+01  0.13188616703E+04  0.10100000352E+00 0.  1.
       -3    1    3    3    0  502  0.55150235870E+03  0.11980032915E+04  0.66504368973E+03  0.14770409126E+04  0.10100000352E+00 0. -1.
</event>
<event>
 5   0  0.2518686E-05  0.2772345E+04  0.7818609E-02  0.8311906E-01
       -2   -1    0    0    0  501  0.00000000000E+00  0.00000000000E+00  0.78109554252E+03  0.78109554252E+03  0.25500000920E-02 0. -1.
        2   -1    0    0  501    0  0.00000000000E+00  0.00000000000E+00 -0.24599728929E+04  0.24599728929E+04  0.25500000920E-02 0.  1.
    10030    2    1    2    0    0  0.00000000000E+00  0.00000000000E+00 -0.16788773504E+04  0.32410684354E+04  0.27723447559E+04 0.  0.
        5    1    3    3  502    0  0.39518958316E+03 -0.86328129805E+03 -0.20201556644E+04  0.22321470392E+04  0.46999998093E+01 0.  1.
       -5    1    3    3    0  502 -0.39518958316E+03  0.86328129805E+03  0.34127831399E+03  0.10089213962E+04  0.46999998093E+01 0. -1.
</event>
<event>
 5   0  0.8958000E-06  0.3060601E+04  0.7818609E-02  0.8226635E-01
        3   -1    0    0  501    0  0.00000000000E+00  0.00000000000E+00  0.19723153495E+04  0.19723153521E+04  0.10100000352E+00 0. -1.
       -3   -1    0    0    0  501  0.00000000000E+00  0.00000000000E+00 -0.11873451071E+04  0.11873451114E+04  0.10100000352E+00 0.  1.
    10030    2    1    2    0    0  0.00000000000E+00  0.00000000000E+00  0.78497024246E+03  0.31596604635E+04  0.30606005886E+04 0.  0.
        5    1    3    3  502    0 -0.66831118416E+03 -0.77586788381E+03 -0.78150453524E+03  0.12881701132E+04  0.46999998093E+01 0.  1.
       -5    1    3    3    0  502  0.66831118416E+03  0.77586788381E+03  0.15664747777E+04  0.18714903503E+04  0.46999998093E+01 0. -1.
</event>
<event>
 5   0  0.2518686E-05  0.2731054E+04  0.7818609E-02  0.8324999E-01
        2   -1    0    0  501    0  0.00000000000E+00  0.00000000000E+00  0.20192854358E+04  0.20192854358E+04  0.25500000920E-02 0.  1.
       -2   -1    0    0    0  501  0.00000000000E+00  0.00000000000E+00 -0.92342734546E+03  0.92342734546E+03  0.25500000920E-02 0. -1.
    10030    2    1    2    0    0  0.00000000000E+00  0.00000000000E+00  0.10958580903E+04  0.29427127812E+04  0.27310535620E+04 0.  0.
        5    1    3    3  502    0  0.12815550595E+04  0.26982485193E+03  0.96448103989E+03  0.16264791999E+04  0.46999998093E+01 0. -1.
       -5    1    3    3    0  502 -0.12815550595E+04 -0.26982485193E+03  0.13137705040E+03  0.13162335813E+04  0.46999998093E+01 0.  1.
</event>
<event>
 5   0  0.2697964E-05  0.2789435E+04  0.7818609E-02  0.8306556E-01
        2   -1    0    0  501    0  0.00000000000E+00  0.00000000000E+00  0.14188275872E+04  0.14188275872E+04  0.25500000920E-02 0.  1.
       -2   -1    0    0    0  501  0.00000000000E+00  0.00000000000E+00 -0.13710167549E+04  0.13710167549E+04  0.25500000920E-02 0. -1.
    10030    2    1    2    0    0  0.00000000000E+00  0.00000000000E+00  0.47810832232E+02  0.27898443421E+04  0.27894346340E+04 0.  0.
        1    1    3    3  502    0  0.12899900730E+04 -0.21683383823E+03  0.50786190093E+03  0.14032159536E+04  0.50400001928E-02 0. -1.
       -1    1    3    3    0  502 -0.12899900730E+04  0.21683383823E+03 -0.46005106869E+03  0.13866283885E+04  0.50400001928E-02 0.  1.
</event>
<event>
 5   0  0.1067434E-05  0.2793643E+04  0.7818609E-02  0.8305245E-01
        1   -1    0    0  501    0  0.00000000000E+00  0.00000000000E+00  0.13363332431E+04  0.13363332431E+04  0.50400001928E-02 0. -1.
       -1   -1    0    0    0  501  0.00000000000E+00  0.00000000000E+00 -0.14600476419E+04  0.14600476419E+04  0.50400001928E-02 0.  1.
    10030    2    1    2    0    0  0.00000000000E+00  0.00000000000E+00 -0.12371439880E+03  0.27963808850E+04  0.27936429266E+04 0.  0.
        4    1    3    3  502    0 -0.34648129771E+02 -0.53550215656E+02  0.13348742712E+04  0.13363977893E+04  0.12699999809E+01 0. -1.
       -4    1    3    3    0  502  0.34648129771E+02  0.53550215656E+02 -0.14585886700E+04  0.14599830957E+04  0.12699999809E+01 0.  1.
</event>
<event>
 5   0  0.1017456E-05  0.2899681E+04  0.7818609E-02  0.8272972E-01
       -1   -1    0    0    0  501  0.00000000000E+00  0.00000000000E+00  0.89630317640E+03  0.89630317641E+03  0.50400001928E-02 0. -1.
        1   -1    0    0  501    0  0.00000000000E+00  0.00000000000E+00 -0.23452300950E+04  0.23452300950E+04  0.50400001928E-02 0.  1.
    10030    2    1    2    0    0  0.00000000000E+00  0.00000000000E+00 -0.14489269186E+04  0.32415332714E+04  0.28996807987E+04 0.  0.
        5    1    3    3  502    0  0.12147680329E+04  0.15891599596E+03  0.14224582250E+03  0.12333578684E+04  0.46999998093E+01 0. -1.
       -5    1    3    3    0  502 -0.12147680329E+04 -0.15891599596E+03 -0.15911727411E+04  0.20081754030E+04  0.46999998093E+01 0.  1.
</event>
<event>
 5   0  0.2518686E-05  0.1952554E+04  0.7818609E-02  0.8629130E-01
       -2   -1    0    0    0  501  0.00000000000E+00  0.00000000000E+00  0.47426385378E+03  0.47426385379E+03  0.25500000920E-02 0. -1.
        2   -1    0    0  501    0  0.00000000000E+00  0.00000000000E+00 -0.20096759996E+04  0.20096759996E+04  0.25500000920E-02 0.  1.
    10030    2    1    2    0    0  0.00000000000E+00  0.00000000000E+00 -0.15354121458E+04  0.24839398534E+04  0.19525539014E+04 0.  0.
        5    1    3    3  502    0 -0.44327097727E+03  0.75762501884E+03 -0.22408029287E+03  0.90593537082E+03  0.46999998093E+01 0. -1.
       -5    1    3    3    0  502  0.44327097727E+03 -0.75762501884E+03 -0.13113318529E+04  0.15780044825E+04  0.46999998093E+01 0.  1.
</event>
<event>
 5   0  0.2588048E-05  0.2782001E+04  0.7818609E-02  0.8308878E-01
       -2   -1    0    0    0  501  0.00000000000E+00  0.00000000000E+00  0.79289713614E+03  0.79289713614E+03  0.25500000920E-02 0.  1.
        2   -1    0    0  501    0  0.00000000000E+00  0.00000000000E+00 -0.24402695992E+04  0.24402695992E+04  0.25500000920E-02 0. -1.
    10030    2    1    2    0    0  0.00000000000E+00  0.00000000000E+00 -0.16473724630E+04  0.32331667353E+04  0.27820012772E+04 0.  0.
        2    1    3    3  502    0 -0.63463664609E+03 -0.10773060793E+04 -0.15320692453E+04  0.19775207290E+04  0.25500000920E-02 0. -1.
       -2    1    3    3    0  502  0.63463664609E+03  0.10773060793E+04 -0.11530321769E+03  0.12556460063E+04  0.25500000920E-02 0.  1.
</event>
<event>
 5   0  0.2651061E-05  0.3048147E+04  0.7818609E-02  0.8230114E-01
       -2   -1    0    0    0  501  0.00000000000E+00  0.00000000000E+00  0.12316239230E+04  0.12316239230E+04  0.25500000920E-02 0.  1.
        2   -1    0    0  501    0  0.00000000000E+00  0.00000000000E+00 -0.18859651387E+04  0.18859651387E+04  0.25500000920E-02 0. -1.
    10030    2    1    2    0    0  0.00000000000E+00  0.00000000000E+00 -0.65434121569E+03  0.31175890618E+04  0.30481468356E+04 0.  0.
        3    1    3    3  502    0 -0.14799566147E+04 -0.35512704358E+03 -0.24526516990E+03  0.15416036495E+04  0.10100000352E+00 0. -1.
       -3    1    3    3    0  502  0.14799566147E+04  0.35512704358E+03 -0.40907604579E+03  0.15759854123E+04  0.10100000352E+00 0.  1.
</event>
<event>
 5   0  0.1078103E-05  0.2262956E+04  0.7818609E-02  0.8492672E-01
       -1   -1    0    0    0  501  0.00000000000E+00  0.00000000000E+00  0.10754622986E+04  0.10754622986E+04  0.50400001928E-02 0. -1.
        1   -1    0    0  501    0  0.00000000000E+00  0.00000000000E+00 -0.11904108786E+04  0.11904108786E+04  0.50400001928E-02 0.  1.
    10030    2    1    2    0    0  0.00000000000E+00  0.00000000000E+00 -0.11494858002E+03  0.22658731772E+04  0.22629556070E+04 0.  0.
        1    1    3    3  502    0 -0.30926512397E+03  0.65879044901E+03 -0.92495854533E+03  0.11769443841E+04  0.50400001928E-02 0.  1.
       -1    1    3    3    0  502  0.30926512397E+03 -0.65879044901E+03  0.81000996531E+03  0.10889287931E+04  0.50400001928E-02 0. -1.
</event>
<event>
 5   0  0.2651061E-05  0.2821485E+04  0.7818609E-02  0.8296629E-01
        2   -1    0    0  501    0  0.00000000000E+00  0.00000000000E+00  0.15902792371E+04  0.15902792371E+04  0.25500000920E-02 0. -1.
       -2   -1    0    0    0  501  0.00000000000E+00  0.00000000000E+00 -0.12514750595E+04  0.12514750595E+04  0.25500000920E-02 0.  1.
    10030    2    1    2    0    0  0.00000000000E+00  0.00000000000E+00  0.33880417760E+03  0.28417542966E+04  0.28214852846E+04 0.  0.
        3    1    3    3  502    0 -0.35309444317E+03  0.13200560343E+04  0.52259371130E+03  0.14629859250E+04  0.10100000352E+00 0. -1.
       -3    1    3    3    0  502  0.35309444317E+03 -0.13200560343E+04 -0.18378953370E+03  0.13787683716E+04  0.10100000352E+00 0.  1.
</event>
<event>
 5   0  0.2518686E-05  0.2709511E+04  0.7818609E-02  0.8331926E-01
       -2   -1    0    0    0  501  0.00000000000E+00  0.00000000000E+00  0.16478728122E+04  0.16478728122E+04  0.25500000920E-02 0.  1.
        2   -1    0    0  501    0  0.00000000000E+00  0.00000000000E+00 -0.11137769430E+04  0.11137769430E+04  0.25500000920E-02 0. -1.
    10030    2    1    2    0    0  0.00000000000E+00  0.00000000000E+00  0.53409586928E+03  0.27616497552E+04  0.27095112055E+04 0.  0.
        5    1    3    3  502    0  0.58145063772E+03  0.71659525558E+03  0.12779739395E+04  0.15763353337E+04  0.46999998093E+01 0.  1.
       -5    1    3    3    0  502 -0.58145063772E+03 -0.71659525558E+03 -0.74387807019E+03  0.11853144215E+04  0.46999998093E+01 0. -1.
</event>
<event>
 5   0  0.1078103E-05  0.2707778E+04  0.7818609E-02  0.8332486E-01
        1   -1    0    0  501    0  0.00000000000E+00  0.00000000000E+00  0.18356009014E+04  0.18356009014E+04  0.50400001928E-02 0.  1.
       -1   -1    0    0    0  501  0.00000000000E+00  0.00000000000E+00 -0.99859180519E+03  0.99859180520E+03  0.50400001928E-02 0. -1.
    10030    2    1    2    0    0  0.00000000000E+00  0.00000000000E+00  0.83700909618E+03  0.28341927066E+04  0.27077784383E+04 0.  0.
        1    1    3    3  502    0  0.71911984464E+03 -0.11082283504E+04  0.72849421558E+03  0.15086441760E+04  0.50400001928E-02 0.  1.
       -1    1    3    3    0  502 -0.71911984464E+03  0.11082283504E+04  0.10851488059E+03  0.13255485306E+04  0.50400001928E-02 0. -1.
</event>
<event>
 5   0  0.1075146E-05  0.2799736E+04  0.7818609E-02  0.8303350E-01
        1   -1    0    0  501    0  0.00000000000E+00  0.00000000000E+00  0.11954230334E+04  0.11954230334E+04  0.50400001928E-02 0. -1.
       -1   -1    0    0    0  501  0.00000000000E+00  0.00000000000E+00 -0.16392777720E+04  0.16392777721E+04  0.50400001928E-02 0.  1.
    10030    2    1    2    0    0  0.00000000000E+00  0.00000000000E+00 -0.44385473861E+03  0.28347008055E+04  0.27997359925E+04 0.  0.
        2    1    3    3  502    0 -0.64286466960E+02  0.96119268807E+03 -0.12502920064E+04  0.15783707532E+04  0.25500000920E-02 0.  1.
       -2    1    3    3    0  502  0.64286466960E+02 -0.96119268807E+03  0.80643726776E+03  0.12563300523E+04  0.25500000920E-02 0. -1.
</event>
<event>
 5   0  0.2624815E-05  0.3190941E+04  0.7818609E-02  0.8191214E-01
        2   -1    0    0  501    0  0.00000000000E+00  0.00000000000E+00  0.24347310663E+04  0.24347310663E+04  0.25500000920E-02 0. -1.
       -2   -1    0    0    0  501  0.00000000000E+00  0.00000000000E+00 -0.10455062394E+04  0.10455062394E+04  0.25500000920E-02 0.  1.
    10030    2    1    2    0    0  0.00000000000E+00  0.00000000000E+00  0.13892248270E+04  0.34802373057E+04  0.31909412536E+04 0.  0.
        4    1    3    3  502    0  0.94881506529E+03 -0.60220973052E+03  0.19298166392E+04  0.22331816902E+04  0.12699999809E+01 0. -1.
       -4    1    3    3    0  502 -0.94881506529E+03  0.60220973052E+03 -0.54059181226E+03  0.12470556155E+04  0.12699999809E+01 0.  1.
</event>
<event>
 5   0  0.2624815E-05  0.2795035E+04  0.7818609E-02  0.8304812E-01
       -2   -1    0    0    0  501  0.00000000000E+00  0.00000000000E+00  0.86034785216E+03  0.86034785216E+03  0.25500000920E-02 0.  1.
        2   -1    0    0  501    0  0.00000000000E+00  0.00000000000E+00 -0.22700755764E+04  0.22700755764E+04  0.25500000920E-02 0. -1.
    10030    2    1    2    0    0  0.00000000000E+00  0.00000000000E+00 -0.14097277243E+04  0.31304234286E+04  0.27950346305E+04 0.  0.
        4    1    3    3  502    0  0.67903136049E+03 -0.11280326946E+04 -0.18012320625E+03  0.13289045605E+04  0.12699999809E+01 0.  1.
       -4    1    3    3    0  502 -0.67903136049E+03  0.11280326946E+04 -0.12296045180E+04  0.18015188681E+04  0.12699999809E+01 0. -1.
</event>
<event>
 5   0  0.2588048E-05  0.2943129E+04  0.7818609E-02  0.8260160E-01
        2   -1    0    0  501    0  0.00000000000E+00  0.00000000000E+00  0.11605703024E+04  0.11605703024E+04  0.25500000920E-02 0.  1.
       -2   -1    0    0    0  501  0.00000000000E+00  0.00000000000E+00 -0.18658948306E+04  0.18658948306E+04  0.25500000920E-02 0. -1.
    10030    2    1    2    0    0  0.00000000000E+00  0.00000000000E+00 -0.70532452829E+03  0.30264651330E+04  0.29431290341E+04 0.  0.
        2    1    3    3  502    0 -0.14267307665E+04  0.26023899865E+03 -0.96165853026E+02  0.14534554991E+04  0.25500000920E-02 0.  1.
       -2    1    3    3    0  502  0.14267307665E+04 -0.26023899865E+03 -0.60915867526E+03  0.15730096339E+04  0.25500000920E-02 0. -1.
</event>
<event>
 5   0  0.2697964E-05  0.2780743E+04  0.7818609E-02  0.8309272E-01
        2   -1    0    0  501    0  0.00000000000E+00  0.00000000000E+00  0.25596417231E+04  0.25596417231E+04  0.25500000920E-02 0. -1.
       -2   -1    0    0    0  501  0.00000000000E+00  0.00000000000E+00 -0.75523590709E+03  0.75523590710E+03  0.25500000920E-02 0.  1.
    10030    2    1    2    0    0  0.00000000000E+00  0.00000000000E+00  0.18044058160E+04  0.33148776302E+04  0.27807433097E+04 0.  0.
        1    1    3    3  502    0  0.53196960979E+03  0.93787221073E+02  0.24294405566E+04  0.24887685965E+04  0.50400001928E-02 0. -1.
       -1    1    3    3    0  502 -0.53196960979E+03 -0.93787221073E+02 -0.62503474063E+03  0.82610903372E+03  0.50400001928E-02 0.  1.
</event>
<event>
 5   0  0.2624815E-05  0.2832532E+04  0.7818609E-02  0.8293239E-01
       -2   -1    0    0    0  501  0.00000000000E+00  0.00000000000E+00  0.14747186320E+04  0.14747186320E+04  0.25500000920E-02 0.  1.
        2   -1    0    0  501    0  0.00000000000E+00  0.00000000000E+00 -0.13601301367E+04  0.13601301367E+04  0.25500000920E-02 0. -1.
    10030    2    1    2    0    0  0.00000000000E+00  0.00000000000E+00  0.11458849530E+03  0.28348487687E+04  0.28325319094E+04 0.  0.
        4    1    3    3  502    0 -0.48664126685E+03  0.61373260272E+03 -0.11236370922E+04  0.13696895116E+04  0.12699999809E+01 0. -1.
       -4    1    3    3    0  502  0.48664126685E+03 -0.61373260272E+03  0.12382255875E+04  0.14651592571E+04  0.12699999809E+01 0.  1.
</event>
<event>
 5   0  0.2651061E-05  0.2762630E+04  0.7818609E-02  0.8314965E-01
       -2   -1    0    0    0  501  0.00000000000E+00  0.00000000000E+00  0.11215408158E+04  0.11215408158E+04  0.25500000920E-02 0. -1.
        2   -1    0    0  501    0  0.00000000000E+00  0.00000000000E+00 -0.17012582982E+04  0.17012582982E+04  0.25500000920E-02 0.  1.
    10030    2    1    2    0    0  0.00000000000E+00  0.00000000000E+00 -0.57971748240E+03  0.28227991139E+04  0.27626296310E+04 0.  0.
        3    1    3    3  502    0 -0.11332787122E+04 -0.64327295812E+03 -0.75799657151E+03  0.15075408952E+04  0.10100000352E+00 0. -1.
       -3    1    3    3    0  502  0.11332787122E+04  0.64327295812E+03  0.17827908912E+03  0.13152582187E+04  0.10100000352E+00 0.  1.
</event>
<event>
 5   0  0.1105862E-05  0.2809109E+04  0.7818609E-02  0.8300446E-01
        1   -1    0    0  501    0  0.00000000000E+00  0.00000000000E+00  0.17807575319E+04  0.17807575319E+04  0.50400001928E-02 0.  1.
       -1   -1    0    0    0  501  0.00000000000E+00  0.00000000000E+00 -0.11078281064E+04  0.11078281064E+04  0.50400001928E-02 0. -1.
    10030    2    1    2    0    0  0.00000000000E+00  0.00000000000E+00  0.67292942542E+03  0.28885856383E+04  0.28091089296E+04 0.  0.
        3    1    3    3  502    0  0.86146184009E+03  0.33022466519E+02 -0.80376573579E+03  0.11786629516E+04  0.10100000352E+00 0. -1.
       -3    1    3    3    0  502 -0.86146184009E+03 -0.33022466519E+02  0.14766951612E+04  0.17099226867E+04  0.10100000352E+00 0.  1.
</event>
<event>
 5   0  0.1105862E-05  0.2802985E+04  0.7818609E-02  0.8302342E-01
       -1   -1    0    0    0  501  0.00000000000E+00  0.00000000000E+00  0.32891914221E+04  0.32891914221E+04  0.50400001928E-02 0. -1.
        1   -1    0    0  501    0  0.00000000000E+00  0.00000000000E+00 -0.59716246481E+03  0.59716246483E+03  0.50400001928E-02 0.  1.
    10030    2    1    2    0    0  0.00000000000E+00  0.00000000000E+00  0.26920289573E+04  0.38863538869E+04  0.28029853063E+04 0.  0.
        3    1    3    3  502    0 -0.70827957314E+03 -0.58950537119E+03  0.28100781090E+04  0.29573155945E+04  0.10100000352E+00 0. -1.
       -3    1    3    3    0  502  0.70827957314E+03  0.58950537119E+03 -0.11804915173E+03  0.92903829244E+03  0.10100000352E+00 0.  1.
</event>
<event>
 5   0  0.1067434E-05  0.2814577E+04  0.7818609E-02  0.8298757E-01
       -1   -1    0    0    0  501  0.00000000000E+00  0.00000000000E+00  0.11869714503E+04  0.11869714503E+04  0.50400001928E-02 0. -1.
        1   -1    0    0  501    0  0.00000000000E+00  0.00000000000E+00 -0.16684996929E+04  0.16684996929E+04  0.50400001928E-02 0.  1.
    10030    2    1    2    0    0  0.00000000000E+00  0.00000000000E+00 -0.48152824258E+03  0.28554711431E+04  0.28145774107E+04 0.  0.
        4    1    3    3  502    0  0.93135434543E+03  0.47789081923E+02  0.82847231645E+03  0.12474264327E+04  0.12699999809E+01 0. -1.
       -4    1    3    3    0  502 -0.93135434543E+03 -0.47789081923E+02 -0.13100005590E+04  0.16080447104E+04  0.12699999809E+01 0.  1.
</event>
<event>
 5   0  0.1078103E-05  0.2791463E+04  0.7818609E-02  0.8305924E-01
        1   -1    0    0  501    0  0.00000000000E+00  0.00000000000E+00  0.18876552560E+04  0.18876552560E+04  0.50400001928E-02 0. -1.
       -1   -1    0    0    0  501  0.00000000000E+00  0.00000000000E+00 -0.10320029765E+04  0.10320029765E+04  0.50400001928E-02 0.  1.
    10030    2    1    2    0    0  0.00000000000E+00  0.00000000000E+00  0.85565227946E+03  0.29196582325E+04  0.27914625864E+04 0.  0.
        1    1    3    3  502    0  0.43206244584E+03 -0.41345972342E+03  0.17468683886E+04  0.18463954254E+04  0.50400001928E-02 0. -1.
       -1    1    3    3    0  502 -0.43206244584E+03  0.41345972342E+03 -0.89121610909E+03  0.10732628071E+04  0.50400001928E-02 0.  1.
</event>
<event>
 5   0  0.2697964E-05  0.2731760E+04  0.7818609E-02  0.8324773E-01
        2   -1    0    0  501    0  0.00000000000E+00  0.00000000000E+00  0.10729941341E+04  0.10729941341E+04  0.25500000920E-02 0.  1.
       -2   -1    0    0    0  501  0.00000000000E+00  0.00000000000E+00 -0.17387126734E+04  0.17387126734E+04  0.25500000920E-02 0. -1.
    10030    2    1    2    0    0  0.00000000000E+00  0.00000000000E+00 -0.66571853925E+03  0.28117068075E+04  0.27317602380E+04 0.  0.
        1    1    3    3  502    0 -0.22358917520E+03  0.12905273374E+04  0.66006805699E+02  0.13114151998E+04  0.50400001928E-02 0. -1.
       -1    1    3    3    0  502  0.22358917520E+03 -0.12905273374E+04 -0.73172534494E+03  0.15002916077E+04  0.50400001928E-02 0.  1.
</event>
<event>
 5   0  0.2624815E-05  0.2776288E+04  0.7818609E-02  0.8310668E-01
       -2   -1    0    0    0  501  0.00000000000E+00  0.00000000000E+00  0.14626298562E+04  0.14626298563E+04  0.25500000920E-02 0. -1.
        2   -1    0    0  501    0  0.00000000000E+00  0.00000000000E+00 -0.13174513808E+04  0.13174513808E+04  0.25500000920E-02 0.  1.
    10030    2    1    2    0    0  0.00000000000E+00  0.00000000000E+00  0.14517847543E+03  0.27800812371E+04  0.27762879705E+04 0.  0.
        4    1    3    3  502    0 -0.41339483044E+03 -0.21235840612E+03 -0.12372310936E+04  0.13216405602E+04  0.12699999809E+01 0.  1.
       -4    1    3    3    0  502  0.41339483044E+03  0.21235840612E+03  0.13824095690E+04  0.14584406769E+04  0.12699999809E+01 0. -1.
</event>
<event>
 5   0  0.2588048E-05  0.1945310E+04  0.7818609E-02  0.8632626E-01
       -2   -1    0    0    0  501  0.00000000000E+00  0.00000000000E+00  0.50055404657E+03  0.50055404658E+03  0.25500000920E-02 0. -1.
        2   -1    0    0  501    0  0.00000000000E+00  0.00000000000E+00 -0.18900214152E+04  0.18900214152E+04  0.25500000920E-02 0.  1.
    10030    2    1    2    0    0  0.00000000000E+00  0.00000000000E+00 -0.13894673686E+04  0.23905754618E+04  0.19453101218E+04 0.  0.
        2    1    3    3  502    0  0.73774145484E+03 -0.32965547631E+02 -0.14726412388E+04  0.16474287238E+04  0.25500000920E-02 0.  1.
       -2    1    3    3    0  502 -0.73774145484E+03  0.32965547631E+02  0.83173870229E+02  0.74314673801E+03  0.25500000920E-02 0. -1.
</event>
<event>
 5   0  0.1017456E-05  0.2727598E+04  0.7818609E-02  0.8326106E-01
        1   -1    0    0  501    0  0.00000000000E+00  0.00000000000E+00  0.15108321010E+04  0.15108321010E+04  0.50400001928E-02 0. -1.
       -1   -1    0    0    0  501  0.00000000000E+00  0.00000000000E+00 -0.12310748030E+04  0.12310748030E+04  0.50400001928E-02 0.  1.
    10030    2    1    2    0    0  0.00000000000E+00  0.00000000000E+00  0.27975729798E+03  0.27419069039E+04  0.27275977204E+04 0.  0.
        5    1    3    3  502    0  0.12474540747E+04 -0.26254880511E+03  0.62703597505E+03  0.14206582093E+04  0.46999998093E+01 0. -1.
       -5    1    3    3    0  502 -0.12474540747E+04  0.26254880511E+03 -0.34727867706E+03  0.13212486947E+04  0.46999998093E+01 0.  1.
</event>
<event>
 5   0  0.1105862E-05  0.2809541E+04  0.7818609E-02  0.8300312E-01
       -1   -1    0    0    0  501  0.00000000000E+00  0.00000000000E+00  0.13826866400E+04  0.13826866400E+04  0.50400001928E-02 0.  1.
        1   -1    0    0  501    0  0.00000000000E+00  0.00000000000E+00 -0.14272073027E+04  0.14272073028E+04  0.50400001928E-02 0. -1.
    10030    2    1    2    0    0  0.00000000000E+00  0.00000000000E+00 -0.44520662791E+02  0.28098939427E+04  0.28095412223E+04 0.  0.
        3    1    3    3  502    0  0.12331071966E+04  0.58847707996E+03  0.30415746206E+03  0.13997751262E+04  0.10100000352E+00 0. -1.
       -3    1    3    3    0  502 -0.12331071966E+04 -0.58847707996E+03 -0.34867812485E+03  0.14101188166E+04  0.10100000352E+00 0.  1.
</event>
<event>
 5   0  0.2697964E-05  0.2698993E+04  0.7818609E-02  0.8335332E-01
        2   -1    0    0  501    0  0.00000000000E+00  0.00000000000E+00  0.17546887427E+04  0.17546887427E+04  0.25500000920E-02 0.  1.
       -2   -1    0    0    0  501  0.00000000000E+00  0.00000000000E+00 -0.10378713455E+04  0.10378713455E+04  0.25500000920E-02 0. -1.
    10030    2    1    2    0    0  0.00000000000E+00  0.00000000000E+00  0.71681739728E+03  0.27925600882E+04  0.26989932688E+04 0.  0.
        1    1    3    3  502    0 -0.47523515034E+03 -0.66517021760E+03 -0.75251821555E+03  0.11111181446E+04  0.50400001928E-02 0. -1.
       -1    1    3    3    0  502  0.47523515034E+03  0.66517021760E+03  0.14693356128E+04  0.16814419436E+04  0.50400001928E-02 0.  1.
</event>
<event>
 5   0  0.1067434E-05  0.2789206E+04  0.7818609E-02  0.8306627E-01
       -1   -1    0    0    0  501  0.00000000000E+00  0.00000000000E+00  0.12249065518E+04  0.12249065518E+04  0.50400001928E-02 0.  1.
        1   -1    0    0  501    0  0.00000000000E+00  0.00000000000E+00 -0.15878086378E+04  0.15878086378E+04  0.50400001928E-02 0. -1.
    10030    2    1    2    0    0  0.00000000000E+00  0.00000000000E+00 -0.36290208603E+03  0.28127151896E+04  0.27892057676E+04 0.  0.
        4    1    3    3  502    0 -0.11087926094E+04  0.67610347315E+03  0.33114293822E+03  0.13402217038E+04  0.12699999809E+01 0.  1.
       -4    1    3    3    0  502  0.11087926094E+04 -0.67610347315E+03 -0.69404502425E+03  0.14724934858E+04  0.12699999809E+01 0. -1.
</event>
<event>
 5   0  0.1105862E-05  0.2776744E+04  0.7818609E-02  0.8310525E-01
        1   -1    0    0  501    0  0.00000000000E+00  0.00000000000E+00  0.23320237457E+04  0.23320237457E+04  0.50400001928E-02 0.  1.
       -1   -1    0    0    0  501  0.00000000000E+00  0.00000000000E+00 -0.82656852885E+03  0.82656852886E+03  0.50400001928E-02 0. -1.
    10030    2    1    2    0    0  0.00000000000E+00  0.00000000000E+00  0.15054552168E+04  0.31585922746E+04  0.27767444511E+04 0.  0.
        3    1    3    3  502    0  0.11047135634E+04 -0.78938348187E+03  0.42292810854E+03  0.14221063722E+04  0.10100000352E+00 0. -1.
       -3    1    3    3    0  502 -0.11047135634E+04  0.78938348187E+03  0.10825271083E+04  0.17364859024E+04  0.10100000352E+00 0.  1.
</event>
<event>
 5   0  0.1078103E-05  0.2721299E+04  0.7818609E-02  0.8328127E-01
       -1   -1    0    0    0  501  0.00000000000E+00  0.00000000000E+00  0.12803142701E+04  0.12803142701E+04  0.50400001928E-02 0. -1.
        1   -1    0    0  501    0  0.00000000000E+00  0.00000000000E+00 -0.14460249594E+04  0.14460249594E+04  0.50400001928E-02 0.  1.
    10030    2    1    2    0    0  0.00000000000E+00  0.00000000000E+00 -0.16571068925E+03  0.27263392295E+04  0.27212985066E+04 0.  0.
        1    1    3    3  502    0 -0.58234037629E+03  0.24301936551E+03 -0.12905706238E+04  0.14365762287E+04  0.50400001928E-02 0.  1.
       -1    1    3    3    0  502  0.58234037629E+03 -0.24301936551E+03  0.11248599345E+04  0.12897630008E+04  0.50400001928E-02 0. -1.
</event>
<event>
 5   0  0.1017456E-05  0.2623762E+04  0.7818609E-02  0.8360174E-01
       -1   -1    0    0    0  501  0.00000000000E+00  0.00000000000E+00  0.80847479488E+03  0.80847479490E+03  0.50400001928E-02 0. -1.
        1   -1    0    0  501    0  0.00000000000E+00  0.00000000000E+00 -0.21287383332E+04  0.21287383333E+04  0.50400001928E-02 0.  1.
    10030    2    1    2    0    0  0.00000000000E+00  0.00000000000E+00 -0.13202635384E+04  0.29372131281E+04  0.26237616411E+04 0.  0.
        5    1    3    3  502    0  0.70724424840E+03  0.10155168097E+04 -0.11475053183E+04  0.16876786908E+04  0.46999998093E+01 0.  1.
       -5    1    3    3    0  502 -0.70724424840E+03 -0.10155168097E+04 -0.17275822005E+03  0.12495344374E+04  0.46999998093E+01 0. -1.
</event>
<event>
 5   0  0.1105862E-05  0.2790255E+04  0.7818609E-02  0.8306300E-01
        1   -1    0    0  501    0  0.00000000000E+00  0.00000000000E+00  0.17641807201E+04  0.17641807201E+04  0.50400001928E-02 0. -1.
       -1   -1    0    0    0  501  0.00000000000E+00  0.00000000000E+00 -0.11032774724E+04  0.11032774724E+04  0.50400001928E-02 0.  1.
    10030    2    1    2    0    0  0.00000000000E+00  0.00000000000E+00  0.66090324776E+03  0.28674581925E+04  0.27902550749E+04 0.  0.
        3    1    3    3  502    0 -0.23101749513E+03  0.13532131358E+04  0.58597970155E+03  0.14926242309E+04  0.10100000352E+00 0.  1.
       -3    1    3    3    0  502  0.23101749513E+03 -0.13532131358E+04  0.74923546210E+02  0.13748339616E+04  0.10100000352E+00 0. -1.
</event>
<event>
 5   0  0.2624815E-05  0.2786614E+04  0.7818609E-02  0.8307436E-01
        2   -1    0    0  501    0  0.00000000000E+00  0.00000000000E+00  0.19844314511E+04  0.19844314511E+04  0.25500000920E-02 0. -1.
       -2   -1    0    0    0  501  0.00000000000E+00  0.00000000000E+00 -0.97826720415E+03  0.97826720415E+03  0.25500000920E-02 0.  1.
    10030    2    1    2    0    0  0.00000000000E+00  0.00000000000E+00  0.10061642470E+04  0.29626986553E+04  0.27866138645E+04 0.  0.
        4    1    3    3  502    0  0.76148443099E+02  0.10788940131E+04 -0.43076615139E+03  0.11642044352E+04  0.12699999809E+01 0.  1.
       -4    1    3    3    0  502 -0.76148443099E+02 -0.10788940131E+04  0.14369303984E+04  0.17984942200E+04  0.12699999809E+01 0. -1.
</event>
<event>
 5   0  0.2697964E-05  0.2893534E+04  0.7818609E-02  0.8274804E-01
        2   -1    0    0  501    0  0.00000000000E+00  0.00000000000E+00  0.19371322948E+04  0.19371322948E+04  0.25500000920E-02 0. -1.
       -2   -1    0    0    0  501  0.00000000000E+00  0.00000000000E+00 -0.10805324057E+04  0.10805324057E+04  0.25500000920E-02 0.  1.
    10030    2    1    2    0    0  0.00000000000E+00  0.00000000000E+00  0.85659988919E+03  0.30176647005E+04  0.28935336311E+04 0.  0.
        1    1    3    3  502    0  0.77576962217E+02 -0.50327194470E+03  0.18405850713E+04  0.19097262212E+04  0.50400001928E-02 0. -1.
       -1    1    3    3    0  502 -0.77576962217E+02  0.50327194470E+03 -0.98398518206E+03  0.11079384793E+04  0.50400001928E-02 0.  1.
</event>
<event>
 5   0  0.1067434E-05  0.2799979E+04  0.7818609E-02  0.8303275E-01
       -1   -1    0    0    0  501  0.00000000000E+00  0.00000000000E+00  0.12334509080E+04  0.12334509080E+04  0.50400001928E-02 0. -1.
        1   -1    0    0  501    0  0.00000000000E+00  0.00000000000E+00 -0.15890138286E+04  0.15890138286E+04  0.50400001928E-02 0.  1.
    10030    2    1    2    0    0  0.00000000000E+00  0.00000000000E+00 -0.35556292064E+03  0.28224647366E+04  0.27999789640E+04 0.  0.
        4    1    3    3  502    0 -0.17496046874E+03 -0.20873924882E+03 -0.15620486487E+04  0.15856168621E+04  0.12699999809E+01 0.  1.
       -4    1    3    3    0  502  0.17496046874E+03  0.20873924882E+03  0.12064857281E+04  0.12368478745E+04  0.12699999809E+01 0. -1.
</event>
<event>
 5   0  0.2518686E-05  0.2844792E+04  0.7818609E-02  0.8289495E-01
        2   -1    0    0  501    0  0.00000000000E+00  0.00000000000E+00  0.26937139700E+04  0.26937139700E+04  0.25500000920E-02 0.  1.
       -2   -1    0    0    0  501  0.00000000000E+00  0.00000000000E+00 -0.75108607457E+03  0.75108607457E+03  0.25500000920E-02 0. -1.
    10030    2    1    2    0    0  0.00000000000E+00  0.00000000000E+00  0.19426278954E+04  0.34448000446E+04  0.28447924717E+04 0.  0.
        5    1    3    3  502    0  0.20858248938E+03  0.20220289174E+03 -0.71477126257E+03  0.77156510555E+03  0.46999998093E+01 0. -1.
       -5    1    3    3    0  502 -0.20858248938E+03 -0.20220289174E+03  0.26573991580E+04  0.26732349390E+04  0.46999998093E+01 0.  1.
</event>
<event>
 5   0  0.1067434E-05  0.2796634E+04  0.7818609E-02  0.8304314E-01
        1   -1    0    0  501    0  0.00000000000E+00  0.00000000000E+00  0.20893210398E+04  0.20893210398E+04  0.50400001928E-02 0. -1.
       -1   -1    0    0    0  501  0.00000000000E+00  0.00000000000E+00 -0.93584952385E+03  0.93584952386E+03  0.50400001928E-02 0.  1.
    10030    2    1    2    0    0  0.00000000000E+00  0.00000000000E+00  0.11534715159E+04  0.30251705636E+04  0.27966337624E+04 0.  0.
        4    1    3    3  502    0 -0.13295239117E+04  0.22379155692E+03  0.17551879478E+03  0.13596047047E+04  0.12699999809E+01 0. -1.
       -4    1    3    3    0  502  0.13295239117E+04 -0.22379155692E+03  0.97795272113E+03  0.16655658589E+04  0.12699999809E+01 0.  1.
</event>
<event>
 5   0  0.1078103E-05  0.2810843E+04  0.7818609E-02  0.8299910E-01
       -1   -1    0    0    0  501  0.00000000000E+00  0.00000000000E+00  0.96597276846E+03  0.96597276847E+03  0.50400001928E-02 0. -1.
        1   -1    0    0  501    0  0.00000000000E+00  0.00000000000E+00 -0.20447878058E+04  0.20447878058E+04  0.50400001928E-02 0.  1.
    10030    2    1    2    0    0  0.00000000000E+00  0.00000000000E+00 -0.10788150373E+04  0.30107605743E+04  0.28108428186E+04 0.  0.
        1    1    3    3  502    0 -0.12036786371E+03 -0.13995773739E+04 -0.58614693948E+03  0.15221279457E+04  0.50400001928E-02 0. -1.
       -1    1    3    3    0  502  0.12036786371E+03  0.13995773739E+04 -0.49266809784E+03  0.14886326286E+04  0.50400001928E-02 0.  1.
</event>
<event>
 5   0  0.1078103E-05  0.1576198E+04  0.7818609E-02  0.8835306E-01
       -1   -1    0    0    0  501  0.00000000000E+00  0.00000000000E+00  0.50315722055E+03  0.50315722058E+03  0.50400001928E-02 0. -1.
        1   -1    0    0  501    0  0.00000000000E+00  0.00000000000E+00 -0.12344048904E+04  0.12344048905E+04  0.50400001928E-02 0.  1.
    10030    2    1    2    0    0  0.00000000000E+00  0.00000000000E+00 -0.73124766989E+03  0.17375621110E+04  0.15761976193E+04 0.  0.
        1    1    3    3  502    0  0.11125416262E+03 -0.68181235245E+02 -0.12224142232E+04  0.12293586550E+04  0.50400001928E-02 0.  1.
       -1    1    3    3    0  502 -0.11125416262E+03  0.68181235245E+02  0.49116655334E+03  0.50820345599E+03  0.50400001928E-02 0. -1.
</event>
<event>
 5   0  0.1105862E-05  0.2753816E+04  0.7818609E-02  0.8317752E-01
       -1   -1    0    0    0  501  0.00000000000E+00  0.00000000000E+00  0.12221051398E+04  0.12221051398E+04  0.50400001928E-02 0.  1.
        1   -1    0    0  501    0  0.00000000000E+00  0.00000000000E+00 -0.15513199448E+04  0.15513199448E+04  0.50400001928E-02 0. -1.
    10030    2    1    2    0    0  0.00000000000E+00  0.00000000000E+00 -0.32921480506E+03  0.27734250846E+04  0.27538163178E+04 0.  0.
        3    1    3    3  502    0 -0.39283917987E+03 -0.47731745545E+03  0.10744871823E+04  0.12396278835E+04  0.10100000352E+00 0.  1.
       -3    1    3    3    0  502  0.39283917987E+03  0.47731745545E+03 -0.14037019873E+04  0.15337972011E+04  0.10100000352E+00 0. -1.
</event>
<event>
 5   0  0.2518686E-05  0.2753762E+04  0.7818609E-02  0.8317769E-01
        2   -1    0    0  501    0  0.00000000000E+00  0.00000000000E+00  0.12327778129E+04  0.12327778129E+04  0.25500000920E-02 0.  1.
       -2   -1    0    0    0  501  0.00000000000E+00  0.00000000000E+00 -0.15378283173E+04  0.15378283173E+04  0.25500000920E-02 0. -1.
    10030    2    1    2    0    0  0.00000000000E+00  0.00000000000E+00 -0.30505050441E+03  0.27706061302E+04  0.27537615218E+04 0.  0.
        5    1    3    3  502    0  0.21619381255E+03  0.68335591603E+03 -0.13353283605E+04  0.15155325773E+04  0.46999998093E+01 0. -1.
       -5    1    3    3    0  502 -0.21619381255E+03 -0.68335591603E+03  0.10302778561E+04  0.12550735529E+04  0.46999998093E+01 0.  1.
</event>
<event>
 5   0  0.2697964E-05  0.2789064E+04  0.7818609E-02  0.8306672E-01
        2   -1    0    0  501    0  0.00000000000E+00  0.00000000000E+00  0.24380141186E+04  0.24380141186E+04  0.25500000920E-02 0.  1.
       -2   -1    0    0    0  501  0.00000000000E+00  0.00000000000E+00 -0.79766522466E+03  0.79766522467E+03  0.25500000920E-02 0. -1.
    10030    2    1    2    0    0  0.00000000000E+00  0.00000000000E+00  0.16403488939E+04  0.32356793433E+04  0.27890636993E+04 0.  0.
        1    1    3    3  502    0  0.83256528526E+03  0.59168321235E+03 -0.28131794659E+03  0.10594308685E+04  0.50400001928E-02 0. -1.
       -1    1    3    3    0  502 -0.83256528526E+03 -0.59168321235E+03  0.19216668405E+04  0.21762484748E+04  0.50400001928E-02 0.  1.
</event>
<event>
 5   0  0.1067434E-05  0.2823086E+04  0.7818609E-02  0.8296137E-01
       -1   -1    0    0    0  501  0.00000000000E+00  0.00000000000E+00  0.70578835003E+03  0.70578835005E+03  0.50400001928E-02 0.  1.
        1   -1    0    0  501    0  0.00000000000E+00  0.00000000000E+00 -0.28230191441E+04  0.28230191442E+04  0.50400001928E-02 0. -1.
    10030    2    1    2    0    0  0.00000000000E+00  0.00000000000E+00 -0.21172307941E+04  0.35288074942E+04  0.28230862714E+04 0.  0.
        4    1    3    3  502    0  0.71686025153E+02 -0.54692466981E+02 -0.28194149491E+04  0.28208566820E+04  0.12699999809E+01 0. -1.
       -4    1    3    3    0  502 -0.71686025153E+02  0.54692466981E+02  0.70218415498E+03  0.70795081224E+03  0.12699999809E+01 0.  1.
</event>
<event>
 5   0  0.1105862E-05  0.1532070E+04  0.7818609E-02  0.8863402E-01
        1   -1    0    0  501    0  0.00000000000E+00  0.00000000000E+00  0.24577876101E+04  0.24577876101E+04  0.50400001928E-02 0.  1.
       -1   -1    0    0    0  501  0.00000000000E+00  0.00000000000E+00 -0.23875522966E+03  0.23875522972E+03  0.50400001928E-02 0. -1.
    10030    2    1    2    0    0  0.00000000000E+00  0.00000000000E+00  0.22190323805E+04  0.26965428399E+04  0.15320700316E+04 0.  0.
        3    1    3    3  502    0 -0.52842244800E+03 -0.11497202269E+03  0.20644399152E+04  0.21340948955E+04  0.10100000352E+00 0.  1.
       -3    1    3    3    0  502  0.52842244800E+03  0.11497202269E+03  0.15459246529E+03  0.56244794432E+03  0.10100000352E+00 0. -1.
</event>
<event>
 5   0  0.2518686E-05  0.1785940E+04  0.7818609E-02  0.8713812E-01
        2   -1    0    0  501    0  0.00000000000E+00  0.00000000000E+00  0.12414781892E+04  0.12414781892E+04  0.25500000920E-02 0.  1.
       -2   -1    0    0    0  501  0.00000000000E+00  0.00000000000E+00 -0.64229546103E+03  0.64229546103E+03  0.25500000920E-02 0. -1.
    10030    2    1    2    0    0  0.00000000000E+00  0.00000000000E+00  0.59918272819E+03  0.18837736503E+04  0.17859404312E+04 0.  0.
        5    1    3    3  502    0 -0.73725852963E+03  0.13953643510E+03  0.81021058103E+03  0.11043024187E+04  0.46999998093E+01 0.  1.
       -5    1    3    3    0  502  0.73725852963E+03 -0.13953643510E+03 -0.21102785283E+03  0.77947123160E+03  0.46999998093E+01 0. -1.
</event>
<event>
 5   0  0.1105862E-05  0.2905273E+04  0.7818609E-02  0.8271310E-01
        1   -1    0    0  501    0  0.00000000000E+00  0.00000000000E+00  0.12575781299E+04  0.12575781299E+04  0.50400001928E-02 0.  1.
       -1   -1    0    0    0  501  0.00000000000E+00  0.00000000000E+00 -0.16779497531E+04  0.16779497531E+04  0.50400001928E-02 0. -1.
    10030    2    1    2    0    0  0.00000000000E+00  0.00000000000E+00 -0.42037162317E+03  0.29355278830E+04  0.29052730768E+04 0.  0.
        3    1    3    3  502    0  0.10979171280E+04  0.69875950750E+03 -0.86224803949E+03  0.15611401478E+04  0.10100000352E+00 0. -1.
       -3    1    3    3    0  502 -0.10979171280E+04 -0.69875950750E+03  0.44187641633E+03  0.13743877352E+04  0.10100000352E+00 0.  1.
</event>
<event>
 5   0  0.1105862E-05  0.2805007E+04  0.7818609E-02  0.8301716E-01
       -1   -1    0    0    0  501  0.00000000000E+00  0.00000000000E+00  0.15134497962E+04  0.15134497963E+04  0.50400001928E-02 0. -1.
        1   -1    0    0  501    0  0.00000000000E+00  0.00000000000E+00 -0.12996905348E+04  0.12996905348E+04  0.50400001928E-02 0.  1.
    10030    2    1    2    0    0  0.00000000000E+00  0.00000000000E+00  0.21375926148E+03  0.28131403310E+04  0.28050072193E+04 0.  0.
        3    1    3    3  502    0 -0.44135120893E+02 -0.10334143199E+04 -0.84303260486E+03  0.13343901410E+04  0.10100000352E+00 0.  1.
       -3    1    3    3    0  502  0.44135120893E+02  0.10334143199E+04  0.10567918663E+04  0.14787501900E+04  0.10100000352E+00 0. -1.
</event>
<event>
 5   0  0.2624815E-05  0.2029795E+04  0.7818609E-02  0.8592816E-01
       -2   -1    0    0    0  501  0.00000000000E+00  0.00000000000E+00  0.14889776219E+04  0.14889776219E+04  0.25500000920E-02 0.  1.
        2   -1    0    0  501    0  0.00000000000E+00  0.00000000000E+00 -0.69176121657E+03  0.69176121658E+03  0.25500000920E-02 0. -1.
    10030    2    1    2    0    0  0.00000000000E+00  0.00000000000E+00  0.79721640538E+03  0.21807388385E+04  0.20297950352E+04 0.  0.
        4    1    3    3  502    0 -0.85529610600E+02 -0.10090160695E+04  0.47136903128E+03  0.11169687191E+04  0.12699999809E+01 0.  1.
       -4    1    3    3    0  502  0.85529610600E+02  0.10090160695E+04  0.32584737409E+03  0.10637701194E+04  0.12699999809E+01 0. -1.
</event>
<event>
 5   0  0.2588048E-05  0.1736496E+04  0.7818609E-02  0.8740819E-01
        2   -1    0    0  501    0  0.00000000000E+00  0.00000000000E+00  0.14506515475E+04  0.14506515475E+04  0.25500000920E-02 0. -1.
       -2   -1    0    0    0  501  0.00000000000E+00  0.00000000000E+00 -0.51966650683E+03  0.51966650683E+03  0.25500000920E-02 0.  1.
    10030    2    1    2    0    0  0.00000000000E+00  0.00000000000E+00  0.93098504068E+03  0.19703180543E+04  0.17364964985E+04 0.  0.
        2    1    3    3  502    0 -0.75851837844E+03  0.29683298923E+03  0.80663420812E+03  0.11463501645E+04  0.25500000920E-02 0. -1.
       -2    1    3    3    0  502  0.75851837844E+03 -0.29683298923E+03  0.12435083256E+03  0.82396788984E+03  0.25500000920E-02 0.  1.
</event>
<event>
 5   0  0.1075146E-05  0.2357554E+04  0.7818609E-02  0.8455568E-01
       -1   -1    0    0    0  501  0.00000000000E+00  0.00000000000E+00  0.85098354047E+03  0.85098354048E+03  0.50400001928E-02 0.  1.
        1   -1    0    0  501    0  0.00000000000E+00  0.00000000000E+00 -0.16328346709E+04  0.16328346709E+04  0.50400001928E-02 0. -1.
    10030    2    1    2    0    0  0.00000000000E+00  0.00000000000E+00 -0.78185113044E+03  0.24838182114E+04  0.23575541812E+04 0.  0.
        2    1    3    3  502    0 -0.11361573185E+04 -0.24221950919E+03 -0.60161510900E+03  0.13082295221E+04  0.25500000920E-02 0. -1.
       -2    1    3    3    0  502  0.11361573185E+04  0.24221950919E+03 -0.18023602143E+03  0.11755886893E+04  0.25500000920E-02 0.  1.
</event>
<event>
 5   0  0.2588048E-05  0.2734326E+04  0.7818609E-02  0.8323953E-01
       -2   -1    0    0    0  501  0.00000000000E+00  0.00000000000E+00  0.80506275430E+03  0.80506275431E+03  0.25500000920E-02 0. -1.
        2   -1    0    0  501    0  0.00000000000E+00  0.00000000000E+00 -0.23217255272E+04  0.23217255272E+04  0.25500000920E-02 0.  1.
    10030    2    1    2    0    0  0.00000000000E+00  0.00000000000E+00 -0.15166627729E+04  0.31267882815E+04  0.27343260579E+04 0.  0.
        2    1    3    3  502    0  0.29484511253E+03  0.43077428378E+02 -0.22841408808E+04  0.23034949248E+04  0.25500000920E-02 0.  1.
       -2    1    3    3    0  502 -0.29484511253E+03 -0.43077428378E+02  0.76747810786E+03  0.82329335675E+03  0.25500000920E-02 0. -1.
</event>
<event>
 5   0  0.1075146E-05  0.2686769E+04  0.7818609E-02  0.8339311E-01
        1   -1    0    0  501    0  0.00000000000E+00  0.00000000000E+00  0.10651418742E+04  0.10651418742E+04  0.50400001928E-02 0.  1.
       -1   -1    0    0    0  501  0.00000000000E+00  0.00000000000E+00 -0.16943109425E+04  0.16943109425E+04  0.50400001928E-02 0. -1.
    10030    2    1    2    0    0  0.00000000000E+00  0.00000000000E+00 -0.62916906830E+03  0.27594528167E+04  0.26867687156E+04 0.  0.
        2    1    3    3  502    0 -0.79105897920E+03  0.10563868522E+04 -0.57227864987E+03  0.14384819579E+04  0.25500000920E-02 0.  1.
       -2    1    3    3    0  502  0.79105897920E+03 -0.10563868522E+04 -0.56890418424E+02  0.13209708588E+04  0.25500000920E-02 0. -1.
</event>
<event>
 5   0  0.8958000E-06  0.2815104E+04  0.7818609E-02  0.8298594E-01
        3   -1    0    0  501    0  0.00000000000E+00  0.00000000000E+00  0.14986265012E+04  0.14986265046E+04  0.10100000352E+00 0. -1.
       -3   -1    0    0    0  501  0.00000000000E+00  0.00000000000E+00 -0.13220122228E+04  0.13220122267E+04  0.10100000352E+00 0.  1.
    10030    2    1    2    0    0  0.00000000000E+00  0.00000000000E+00  0.17661427842E+03  0.28206387313E+04  0.28151039500E+04 0.  0.
        3    1    3    3  502    0  0.37102836353E+03  0.41765024878E+03 -0.12061728735E+04  0.13292655069E+04  0.10100000352E+00 0.  1.
       -3    1    3    3    0  502 -0.37102836353E+03 -0.41765024878E+03  0.13827871519E+04  0.14913732244E+04  0.10100000352E+00 0. -1.
</event>
<event>
 5   0  0.1078103E-05  0.2687985E+04  0.7818609E-02  0.8338914E-01
        1   -1    0    0  501    0  0.00000000000E+00  0.00000000000E+00  0.17843250619E+04  0.17843250619E+04  0.50400001928E-02 0. -1.
       -1   -1    0    0    0  501  0.00000000000E+00  0.00000000000E+00 -0.10123247479E+04  0.10123247479E+04  0.50400001928E-02 0.  1.
    10030    2    1    2    0    0  0.00000000000E+00  0.00000000000E+00  0.77200031399E+03  0.27966498098E+04  0.26879854304E+04 0.  0.
        1    1    3    3  502    0  0.93676833381E+03 -0.94107150959E+03  0.16983699521E+03  0.13386542131E+04  0.50400001928E-02 0.  1.
       -1    1    3    3    0  502 -0.93676833381E+03  0.94107150959E+03  0.60216331878E+03  0.14579955967E+04  0.50400001928E-02 0. -1.
</event>
<event>
 5   0  0.2588048E-05  0.2645050E+04  0.7818609E-02  0.8353058E-01
        2   -1    0    0  501    0  0.00000000000E+00  0.00000000000E+00  0.24814702937E+04  0.24814702937E+04  0.25500000920E-02 0.  1.
       -2   -1    0    0    0  501  0.00000000000E+00  0.00000000000E+00 -0.70485341092E+03  0.70485341093E+03  0.25500000920E-02 0. -1.
    10030    2    1    2    0    0  0.00000000000E+00  0.00000000000E+00  0.17766168828E+04  0.31863237046E+04  0.26450503213E+04 0.  0.
        2    1    3    3  502    0  0.20790136140E+03  0.10842375585E+04  0.17655275110E+04  0.20822779477E+04  0.25500000920E-02 0.  1.
       -2    1    3    3    0  502 -0.20790136140E+03 -0.10842375585E+04  0.11089371757E+02  0.11040457569E+04  0.25500000920E-02 0. -1.
</event>
<event>
 5   0  0.2624815E-05  0.2915764E+04  0.7818609E-02  0.8268203E-01
       -2   -1    0    0    0  501  0.00000000000E+00  0.00000000000E+00  0.14987004624E+04  0.14987004624E+04  0.25500000920E-02 0.  1.
        2   -1    0    0  501    0  0.00000000000E+00  0.00000000000E+00 -0.14181754047E+04  0.14181754047E+04  0.25500000920E-02 0. -1.
    10030    2    1    2    0    0  0.00000000000E+00  0.00000000000E+00  0.80525057720E+02  0.29168758670E+04  0.29157641432E+04 0.  0.
        4    1    3    3  502    0 -0.71865565324E+03  0.79655848586E+02  0.13066865646E+04  0.14933996094E+04  0.12699999809E+01 0.  1.
       -4    1    3    3    0  502  0.71865565324E+03 -0.79655848586E+02 -0.12261615069E+04  0.14234762577E+04  0.12699999809E+01 0. -1.
</event>
<event>
 5   0  0.2697964E-05  0.1889166E+04  0.7818609E-02  0.8660268E-01
       -2   -1    0    0    0  501  0.00000000000E+00  0.00000000000E+00  0.63545144114E+03  0.63545144114E+03  0.25500000920E-02 0. -1.
        2   -1    0    0  501    0  0.00000000000E+00  0.00000000000E+00 -0.14040993023E+04  0.14040993023E+04  0.25500000920E-02 0.  1.
    10030    2    1    2    0    0  0.00000000000E+00  0.00000000000E+00 -0.76864786118E+03  0.20395507435E+04  0.18891658743E+04 0.  0.
        1    1    3    3  502    0  0.39286813088E+03 -0.21708082889E+03 -0.12816088359E+04  0.13579361778E+04  0.50400001928E-02 0.  1.
       -1    1    3    3    0  502 -0.39286813088E+03  0.21708082889E+03  0.51296097475E+03  0.68161456570E+03  0.50400001928E-02 0. -1.
</event>
<event>
 5   0  0.2697964E-05  0.2818272E+04  0.7818609E-02  0.8297618E-01
        2   -1    0    0  501    0  0.00000000000E+00  0.00000000000E+00  0.10097254669E+04  0.10097254669E+04  0.25500000920E-02 0. -1.
       -2   -1    0    0    0  501  0.00000000000E+00  0.00000000000E+00 -0.19665391303E+04  0.19665391303E+04  0.25500000920E-02 0.  1.
    10030    2    1    2    0    0  0.00000000000E+00  0.00000000000E+00 -0.95681366341E+03  0.29762645972E+04  0.28182722661E+04 0.  0.
        1    1    3    3  502    0  0.26914562698E+03  0.93189941118E+03 -0.15578575943E+04  0.18351556243E+04  0.50400001928E-02 0.  1.
       -1    1    3    3    0  502 -0.26914562698E+03 -0.93189941118E+03  0.60104393092E+03  0.11411089729E+04  0.50400001928E-02 0. -1.
</event>
<event>
 5   0  0.1075146E-05  0.2824623E+04  0.7818609E-02  0.8295664E-01
       -1   -1    0    0    0  501  0.00000000000E+00  0.00000000000E+00  0.10114076147E+04  0.10114076147E+04  0.50400001928E-02 0.  1.
        1   -1    0    0  501    0  0.00000000000E+00  0.00000000000E+00 -0.19721271216E+04  0.19721271216E+04  0.50400001928E-02 0. -1.
    10030    2    1    2    0    0  0.00000000000E+00  0.00000000000E+00 -0.96071950691E+03  0.29835347363E+04  0.28246234354E+04 0.  0.
        2    1    3    3  502    0 -0.56133046881E+03 -0.31082341802E+03  0.84856442000E+03  0.10638442872E+04  0.25500000920E-02 0.  1.
       -2    1    3    3    0  502  0.56133046881E+03  0.31082341802E+03 -0.18092839269E+04  0.19196904492E+04  0.25500000920E-02 0. -1.
</event>
<event>
 5   0  0.8958000E-06  0.2657099E+04  0.7818609E-02  0.8349060E-01
       -4   -1    0    0    0  501  0.00000000000E+00  0.00000000000E+00  0.11699584319E+04  0.11699591212E+04  0.12699999809E+01 0. -1.
        4   -1    0    0  501    0  0.00000000000E+00  0.00000000000E+00 -0.15086371070E+04  0.15086376416E+04  0.12699999809E+01 0.  1.
    10030    2    1    2    0    0  0.00000000000E+00  0.00000000000E+00 -0.33867867510E+03  0.26785967628E+04  0.26570994285E+04 0.  0.
        2    1    3    3  502    0 -0.69278581765E+03 -0.76975537749E+03  0.66960085058E+03  0.12332237548E+04  0.25500000920E-02 0. -1.
       -2    1    3    3    0  502  0.69278581765E+03  0.76975537749E+03 -0.10082795257E+04  0.14453730080E+04  0.25500000920E-02 0.  1.
</event>
<event>
 5   0  0.2697964E-05  0.2786334E+04  0.7818609E-02  0.8307524E-01
        2   -1    0    0  501    0  0.00000000000E+00  0.00000000000E+00  0.27440011235E+04  0.27440011235E+04  0.25500000920E-02 0.  1.
       -2   -1    0    0    0  501  0.00000000000E+00  0.00000000000E+00 -0.70732992479E+03  0.70732992479E+03  0.25500000920E-02 0. -1.
    10030    2    1    2    0    0  0.00000000000E+00  0.00000000000E+00  0.20366711987E+04  0.34513310483E+04  0.27863338697E+04 0.  0.
        1    1    3    3  502    0 -0.30023797836E+03 -0.11539379626E+04  0.12581108175E+03  0.11989762690E+04  0.50400001928E-02 0. -1.
       -1    1    3    3    0  502  0.30023797836E+03  0.11539379626E+04  0.19108601170E+04  0.22523547793E+04  0.50400001928E-02 0.  1.
</event>
<event>
 5   0  0.2518686E-05  0.2785736E+04  0.7818609E-02  0.8307711E-01
       -2   -1    0    0    0  501  0.00000000000E+00  0.00000000000E+00  0.15541249924E+04  0.15541249924E+04  0.25500000920E-02 0.  1.
        2   -1    0    0  501    0  0.00000000000E+00  0.00000000000E+00 -0.12483428399E+04  0.12483428399E+04  0.25500000920E-02 0. -1.
    10030    2    1    2    0    0  0.00000000000E+00  0.00000000000E+00  0.30578215253E+03  0.28024678323E+04  0.27857356706E+04 0.  0.
        5    1    3    3  502    0  0.81840395192E+02 -0.12517444792E+04 -0.45613476591E+03  0.13347820444E+04  0.46999998093E+01 0. -1.
       -5    1    3    3    0  502 -0.81840395192E+02  0.12517444792E+04  0.76191691844E+03  0.14676857879E+04  0.46999998093E+01 0.  1.
</event>
<event>
 5   0  0.2624815E-05  0.2808300E+04  0.7818609E-02  0.8300696E-01
       -2   -1    0    0    0  501  0.00000000000E+00  0.00000000000E+00  0.14902382979E+04  0.14902382979E+04  0.25500000920E-02 0. -1.
        2   -1    0    0  501    0  0.00000000000E+00  0.00000000000E+00 -0.13230344576E+04  0.13230344576E+04  0.25500000920E-02 0.  1.
    10030    2    1    2    0    0  0.00000000000E+00  0.00000000000E+00  0.16720384030E+03  0.28132727554E+04  0.28082995695E+04 0.  0.
        4    1    3    3  502    0  0.41707864843E+03  0.52655067606E+03  0.13188405877E+04  0.14800514593E+04  0.12699999809E+01 0. -1.
       -4    1    3    3    0  502 -0.41707864843E+03 -0.52655067606E+03 -0.11516367474E+04  0.13332212961E+04  0.12699999809E+01 0.  1.
</event>
<event>
 5   0  0.1078103E-05  0.2582279E+04  0.7818609E-02  0.8374246E-01
       -1   -1    0    0    0  501  0.00000000000E+00  0.00000000000E+00  0.10480900175E+04  0.10480900175E+04  0.50400001928E-02 0. -1.
        1   -1    0    0  501    0  0.00000000000E+00  0.00000000000E+00 -0.15905517016E+04  0.15905517016E+04  0.50400001928E-02 0.  1.
    10030    2    1    2    0    0  0.00000000000E+00  0.00000000000E+00 -0.54246168410E+03  0.26386417191E+04  0.25822791180E+04 0.  0.
        1    1    3    3  502    0  0.68705353130E+03  0.85473960556E+03 -0.96758830902E+03  0.14624805927E+04  0.50400001928E-02 0.  1.
       -1    1    3    3    0  502 -0.68705353130E+03 -0.85473960556E+03  0.42512662492E+03  0.11761611265E+04  0.50400001928E-02 0. -1.
</event>
<event>
 5   0  0.2651061E-05  0.2770673E+04  0.7818609E-02  0.8312431E-01
       -2   -1    0    0    0  501  0.00000000000E+00  0.00000000000E+00  0.16685697398E+04  0.16685697398E+04  0.25500000920E-02 0.  1.
        2   -1    0    0  501    0  0.00000000000E+00  0.00000000000E+00 -0.11501809189E+04  0.11501809189E+04  0.25500000920E-02 0. -1.
    10030    2    1    2    0    0  0.00000000000E+00  0.00000000000E+00  0.51838882087E+03  0.28187506587E+04  0.27706728977E+04 0.  0.
        3    1    3    3  502    0  0.16664887822E+03  0.40660574178E+03 -0.10773979344E+04  0.11635662410E+04  0.10100000352E+00 0. -1.
       -3    1    3    3    0  502 -0.16664887822E+03 -0.40660574178E+03  0.15957867553E+04  0.16551844177E+04  0.10100000352E+00 0.  1.
</event>
<event>
 5   0  0.2697964E-05  0.2823995E+04  0.7818609E-02  0.8295857E-01
        2   -1    0    0  501    0  0.00000000000E+00  0.00000000000E+00  0.13760801297E+04  0.13760801297E+04  0.25500000920E-02 0.  1.
       -2   -1    0    0    0  501  0.00000000000E+00  0.00000000000E+00 -0.14488527346E+04  0.14488527346E+04  0.25500000920E-02 0. -1.
    10030    2    1    2    0    0  0.00000000000E+00  0.00000000000E+00 -0.72772604843E+02  0.28249328643E+04  0.28239953675E+04 0.  0.
        1    1    3    3  502    0  0.13919575552E+04  0.22646329844E+03 -0.10645238399E+03  0.14142713923E+04  0.50400001928E-02 0. -1.
       -1    1    3    3    0  502 -0.13919575552E+04 -0.22646329844E+03  0.33679779144E+02  0.14106614720E+04  0.50400001928E-02 0.  1.
</event>
<event>
 5   0  0.1067434E-05  0.2819569E+04  0.7818609E-02  0.8297219E-01
       -1   -1    0    0    0  501  0.00000000000E+00  0.00000000000E+00  0.10014386197E+04  0.10014386197E+04  0.50400001928E-02 0. -1.
        1   -1    0    0  501    0  0.00000000000E+00  0.00000000000E+00 -0.19846369523E+04  0.19846369523E+04  0.50400001928E-02 0.  1.
    10030    2    1    2    0    0  0.00000000000E+00  0.00000000000E+00 -0.98319833262E+03  0.29860755719E+04  0.28195688252E+04 0.  0.
        4    1    3    3  502    0 -0.69017129849E+03  0.45684718137E+03  0.71704300252E+03  0.10950790148E+04  0.12699999809E+01 0. -1.
       -4    1    3    3    0  502  0.69017129849E+03 -0.45684718137E+03 -0.17002413351E+04  0.18909965571E+04  0.12699999809E+01 0.  1.
</event>
<event>
 5   0  0.2651061E-05  0.2879861E+04  0.7818609E-02  0.8278895E-01
       -2   -1    0    0    0  501  0.00000000000E+00  0.00000000000E+00  0.12876431777E+04  0.12876431777E+04  0.25500000920E-02 0.  1.
        2   -1    0    0  501    0  0.00000000000E+00  0.00000000000E+00 -0.16102285036E+04  0.16102285036E+04  0.25500000920E-02 0. -1.
    10030    2    1    2    0    0  0.00000000000E+00  0.00000000000E+00 -0.32258532590E+03  0.28978716814E+04  0.28798609323E+04 0.  0.
        3    1    3    3  502    0 -0.30001637781E+03  0.66133451305E+03  0.10898767293E+04  0.13096581464E+04  0.10100000352E+00 0.  1.
       -3    1    3    3    0  502  0.30001637781E+03 -0.66133451305E+03 -0.14124620552E+04  0.15882135350E+04  0.10100000352E+00 0. -1.
</event>
<event>
 5   0  0.2697964E-05  0.2815803E+04  0.7818609E-02  0.8298379E-01
       -2   -1    0    0    0  501  0.00000000000E+00  0.00000000000E+00  0.94622124199E+03  0.94622124199E+03  0.25500000920E-02 0. -1.
        2   -1    0    0  501    0  0.00000000000E+00  0.00000000000E+00 -0.20948449397E+04  0.20948449397E+04  0.25500000920E-02 0.  1.
    10030    2    1    2    0    0  0.00000000000E+00  0.00000000000E+00 -0.11486236977E+04  0.30410661817E+04  0.28158031044E+04 0.  0.
        1    1    3    3  502    0  0.33334027062E+03  0.17088395225E+03 -0.20400386946E+04  0.20741443866E+04  0.50400001928E-02 0.  1.
       -1    1    3    3    0  502 -0.33334027062E+03 -0.17088395225E+03  0.89141499686E+03  0.96692179508E+03  0.50400001928E-02 0. -1.
</event>
<event>
 5   0  0.1075146E-05  0.2541950E+04  0.7818609E-02  0.8388191E-01
       -1   -1    0    0    0  501  0.00000000000E+00  0.00000000000E+00  0.92028353019E+03  0.92028353020E+03  0.50400001928E-02 0. -1.
        1   -1    0    0  501    0  0.00000000000E+00  0.00000000000E+00 -0.17553039434E+04  0.17553039434E+04  0.50400001928E-02 0.  1.
    10030    2    1    2    0    0  0.00000000000E+00  0.00000000000E+00 -0.83502041324E+03  0.26755874736E+04  0.25419498891E+04 0.  0.
        2    1    3    3  502    0  0.72112093244E+03 -0.10411288847E+04 -0.30506430637E+03  0.13027006505E+04  0.25500000920E-02 0.  1.
       -2    1    3    3    0  502 -0.72112093244E+03  0.10411288847E+04 -0.52995610687E+03  0.13728868231E+04  0.25500000920E-02 0. -1.
</event>
<event>
 5   0  0.2518686E-05  0.2715246E+04  0.7818609E-02  0.8330075E-01
       -2   -1    0    0    0  501  0.00000000000E+00  0.00000000000E+00  0.12442322229E+04  0.12442322229E+04  0.25500000920E-02 0. -1.
        2   -1    0    0  501    0  0.00000000000E+00  0.00000000000E+00 -0.14813470373E+04  0.14813470373E+04  0.25500000920E-02 0.  1.
    10030    2    1    2    0    0  0.00000000000E+00  0.00000000000E+00 -0.23711481445E+03  0.27255792602E+04  0.27152456369E+04 0.  0.
        5    1    3    3  502    0  0.11055494164E+04 -0.71139360385E+03  0.22154949367E+03  0.13332016501E+04  0.46999998093E+01 0. -1.
       -5    1    3    3    0  502 -0.11055494164E+04  0.71139360385E+03 -0.45866430812E+03  0.13923776101E+04  0.46999998093E+01 0.  1.
</event>
<event>
 5   0  0.1078103E-05  0.2770496E+04  0.7818609E-02  0.8312487E-01
       -1   -1    0    0    0  501  0.00000000000E+00  0.00000000000E+00  0.13406493770E+04  0.13406493770E+04  0.50400001928E-02 0. -1.
        1   -1    0    0  501    0  0.00000000000E+00  0.00000000000E+00 -0.14313300752E+04  0.14313300752E+04  0.50400001928E-02 0.  1.
    10030    2    1    2    0    0  0.00000000000E+00  0.00000000000E+00 -0.90680698193E+02  0.27719794522E+04  0.27704958210E+04 0.  0.
        1    1    3    3  502    0  0.38994647993E+03 -0.10505820342E+04 -0.86010493097E+03  0.14126433945E+04  0.50400001928E-02 0.  1.
       -1    1    3    3    0  502 -0.38994647993E+03  0.10505820342E+04  0.76942423277E+03  0.13593360577E+04  0.50400001928E-02 0. -1.
</event>
<event>
 5   0  0.2697964E-05  0.2877166E+04  0.7818609E-02  0.8279704E-01
       -2   -1    0    0    0  501  0.00000000000E+00  0.00000000000E+00  0.14819904788E+04  0.14819904788E+04  0.25500000920E-02 0. -1.
        2   -1    0    0  501    0  0.00000000000E+00  0.00000000000E+00 -0.13964465660E+04  0.13964465660E+04  0.25500000920E-02 0.  1.
    10030    2    1    2    0    0  0.00000000000E+00  0.00000000000E+00  0.85543912821E+02  0.28784370448E+04  0.28771656296E+04 0.  0.
        1    1    3    3  502    0  0.78471279716E+03 -0.62534423466E+03 -0.98855259954E+03  0.14085687161E+04  0.50400001928E-02 0.  1.
       -1    1    3    3    0  502 -0.78471279716E+03  0.62534423466E+03  0.10740965124E+04  0.14698683287E+04  0.50400001928E-02 0. -1.
</event>
<event>
 5   0  0.2588048E-05  0.2561726E+04  0.7818609E-02  0.8381320E-01
       -2   -1    0    0    0  501  0.00000000000E+00  0.00000000000E+00  0.13910484401E+04  0.13910484402E+04  0.25500000920E-02 0. -1.
        2   -1    0    0  501    0  0.00000000000E+00  0.00000000000E+00 -0.11794051453E+04  0.11794051453E+04  0.25500000920E-02 0.  1.
    10030    2    1    2    0    0  0.00000000000E+00  0.00000000000E+00  0.21164329489E+03  0.25704535854E+04  0.25617257368E+04 0.  0.
        2    1    3    3  502    0 -0.89961930911E+03  0.91157477264E+03  0.87698544704E+02  0.12837345918E+04  0.25500000920E-02 0.  1.
       -2    1    3    3    0  502  0.89961930911E+03 -0.91157477264E+03  0.12394475018E+03  0.12867189936E+04  0.25500000920E-02 0. -1.
</event>
<event>
 5   0  0.1017456E-05  0.2803187E+04  0.7818609E-02  0.8302280E-01
       -1   -1    0    0    0  501  0.00000000000E+00  0.00000000000E+00  0.10298464381E+04  0.10298464381E+04  0.50400001928E-02 0. -1.
        1   -1    0    0  501    0  0.00000000000E+00  0.00000000000E+00 -0.19075307689E+04  0.19075307689E+04  0.50400001928E-02 0.  1.
    10030    2    1    2    0    0  0.00000000000E+00  0.00000000000E+00 -0.87768433076E+03  0.29373772070E+04  0.28031865924E+04 0.  0.
        5    1    3    3  502    0 -0.28745784521E+03 -0.66295827645E+03 -0.16972891114E+04  0.18447108464E+04  0.46999998093E+01 0.  1.
       -5    1    3    3    0  502  0.28745784521E+03  0.66295827645E+03  0.81960478069E+03  0.10926663606E+04  0.46999998093E+01 0. -1.
</event>
<event>
 5   0  0.1105862E-05  0.2780419E+04  0.7818609E-02  0.8309374E-01
       -1   -1    0    0    0  501  0.00000000000E+00  0.00000000000E+00  0.25300763221E+04  0.25300763221E+04  0.50400001928E-02 0.  1.
        1   -1    0    0  501    0  0.00000000000E+00  0.00000000000E+00 -0.76388280952E+03  0.76388280954E+03  0.50400001928E-02 0. -1.
    10030    2    1    2    0    0  0.00000000000E+00  0.00000000000E+00  0.17661935126E+04  0.32939591317E+04  0.27804185363E+04 0.  0.
        3    1    3    3  502    0  0.12285801781E+03  0.37722508668E+03  0.24615893741E+04  0.24933541898E+04  0.10100000352E+00 0.  1.
       -3    1    3    3    0  502 -0.12285801781E+03 -0.37722508668E+03 -0.69539586153E+03  0.80060494191E+03  0.10100000352E+00 0. -1.
</event>
<event>
 5   0  0.2651061E-05  0.2674326E+04  0.7818609E-02  0.8343384E-01
        2   -1    0    0  501    0  0.00000000000E+00  0.00000000000E+00  0.18875906993E+04  0.18875906993E+04  0.25500000920E-02 0. -1.
       -2   -1    0    0    0  501  0.00000000000E+00  0.00000000000E+00 -0.94724172098E+03  0.94724172098E+03  0.25500000920E-02 0.  1.
    10030    2    1    2    0    0  0.00000000000E+00  0.00000000000E+00  0.94034897836E+03  0.28348324203E+04  0.26743258310E+04 0.  0.
        3    1    3    3  502    0 -0.11887568467E+03 -0.12218765838E+04  0.10319746491E+04  0.16037722722E+04  0.10100000352E+00 0. -1.
       -3    1    3    3    0  502  0.11887568467E+03  0.12218765838E+04 -0.91625670707E+02  0.12310601481E+04  0.10100000352E+00 0.  1.
</event>
<event>
 5   0  0.2518686E-05  0.2390168E+04  0.7818609E-02  0.8443194E-01
       -2   -1    0    0    0  501  0.00000000000E+00  0.00000000000E+00  0.12086657339E+04  0.12086657339E+04  0.25500000920E-02 0. -1.
        2   -1    0    0  501    0  0.00000000000E+00  0.00000000000E+00 -0.11816546485E+04  0.11816546485E+04  0.25500000920E-02 0.  1.
    10030    2    1    2    0    0  0.00000000000E+00  0.00000000000E+00  0.27011085428E+02  0.23903203824E+04  0.23901677623E+04 0.  0.
        5    1    3    3  502    0  0.60480981772E+03 -0.73853740622E+03  0.73255839173E+03  0.12032856283E+04  0.46999998093E+01 0.  1.
       -5    1    3    3    0  502 -0.60480981772E+03  0.73853740622E+03 -0.70554730631E+03  0.11870347541E+04  0.46999998093E+01 0. -1.
</event>
<event>
 5   0  0.1017456E-05  0.2916704E+04  0.7818609E-02  0.8267925E-01
       -1   -1    0    0    0  501  0.00000000000E+00  0.00000000000E+00  0.16985351016E+04  0.16985351016E+04  0.50400001928E-02 0.  1.
        1   -1    0    0  501    0  0.00000000000E+00  0.00000000000E+00 -0.12521321412E+04  0.12521321412E+04  0.50400001928E-02 0. -1.
    10030    2    1    2    0    0  0.00000000000E+00  0.00000000000E+00  0.44640296048E+03  0.29506672428E+04  0.29167038888E+04 0.  0.
        5    1    3    3  502    0 -0.25592098476E+03 -0.21704500456E+02 -0.12290639290E+04  0.12556221037E+04  0.46999998093E+01 0. -1.
       -5    1    3    3    0  502  0.25592098476E+03  0.21704500456E+02  0.16754668895E+04  0.16950451391E+04  0.46999998093E+01 0.  1.
</event>
<event>
 5   0  0.2697964E-05  0.2838715E+04  0.7818609E-02  0.8291349E-01
        2   -1    0    0  501    0  0.00000000000E+00  0.00000000000E+00  0.16211948863E+04  0.16211948863E+04  0.25500000920E-02 0. -1.
       -2   -1    0    0    0  501  0.00000000000E+00  0.00000000000E+00 -0.12426490549E+04  0.12426490549E+04  0.25500000920E-02 0.  1.
    10030    2    1    2    0    0  0.00000000000E+00  0.00000000000E+00  0.37854583139E+03  0.28638439412E+04  0.28387154090E+04 0.  0.
        1    1    3    3  502    0  0.69790250736E+03  0.46017282821E+02 -0.10567271166E+04  0.12672244075E+04  0.50400001928E-02 0.  1.
       -1    1    3    3    0  502 -0.69790250736E+03 -0.46017282821E+02  0.14352729480E+04  0.15966195337E+04  0.50400001928E-02 0. -1.
</event>
<event>
 5   0  0.1078103E-05  0.2424706E+04  0.7818609E-02  0.8430311E-01
        1   -1    0    0  501    0  0.00000000000E+00  0.00000000000E+00  0.24485608018E+04  0.24485608018E+04  0.50400001928E-02 0. -1.
       -1   -1    0    0    0  501  0.00000000000E+00  0.00000000000E+00 -0.60027098917E+03  0.60027098919E+03  0.50400001928E-02 0.  1.
    10030    2    1    2    0    0  0.00000000000E+00  0.00000000000E+00  0.18482898126E+04  0.30488317910E+04  0.24247061798E+04 0.  0.
        1    1    3    3  502    0 -0.43666095557E+03  0.26157698152E+03 -0.45940063916E+03  0.68567066050E+03  0.50400001928E-02 0.  1.
       -1    1    3    3    0  502  0.43666095557E+03 -0.26157698152E+03  0.23076904518E+04  0.23631611305E+04  0.50400001928E-02 0. -1.
</event>
<event>
 5   0  0.2651061E-05  0.2185079E+04  0.7818609E-02  0.8524664E-01
       -2   -1    0    0    0  501  0.00000000000E+00  0.00000000000E+00  0.71612932657E+03  0.71612932657E+03  0.25500000920E-02 0. -1.
        2   -1    0    0  501    0  0.00000000000E+00  0.00000000000E+00 -0.16667973730E+04  0.16667973730E+04  0.25500000920E-02 0.  1.
    10030    2    1    2    0    0  0.00000000000E+00  0.00000000000E+00 -0.95066804644E+03  0.23829266996E+04  0.21850789279E+04 0.  0.
        3    1    3    3  502    0  0.86222886707E+03 -0.20853957654E+03 -0.11708205172E+04  0.14689275230E+04  0.10100000352E+00 0.  1.
       -3    1    3    3    0  502 -0.86222886707E+03  0.20853957654E+03  0.22015247075E+03  0.91399917657E+03  0.10100000352E+00 0. -1.
</event>
<event>
 5   0  0.2624815E-05  0.1418511E+04  0.7818609E-02  0.8940527E-01
        2   -1    0    0  501    0  0.00000000000E+00  0.00000000000E+00  0.84248442807E+03  0.84248442808E+03  0.25500000920E-02 0.  1.
       -2   -1    0    0    0  501  0.00000000000E+00  0.00000000000E+00 -0.59709508848E+03  0.59709508849E+03  0.25500000920E-02 0. -1.
    10030    2    1    2    0    0  0.00000000000E+00  0.00000000000E+00  0.24538933959E+03  0.14395795166E+04  0.14185109293E+04 0.  0.
        4    1    3    3  502    0  0.24856235213E+02  0.60349369812E+03 -0.25460567253E+03  0.65547550487E+03  0.12699999809E+01 0. -1.
       -4    1    3    3    0  502 -0.24856235213E+02 -0.60349369812E+03  0.49999501212E+03  0.78410401169E+03  0.12699999809E+01 0.  1.
</event>
<event>
 5   0  0.2588048E-05  0.2439045E+04  0.7818609E-02  0.8425029E-01
       -2   -1    0    0    0  501  0.00000000000E+00  0.00000000000E+00  0.69585872232E+03  0.69585872233E+03  0.25500000920E-02 0.  1.
        2   -1    0    0  501    0  0.00000000000E+00  0.00000000000E+00 -0.21372661715E+04  0.21372661715E+04  0.25500000920E-02 0. -1.
    10030    2    1    2    0    0  0.00000000000E+00  0.00000000000E+00 -0.14414074492E+04  0.28331248938E+04  0.24390451471E+04 0.  0.
        2    1    3    3  502    0 -0.35250389432E+03 -0.29333689708E+03  0.59188717252E+03  0.74875627256E+03  0.25500000920E-02 0.  1.
       -2    1    3    3    0  502  0.35250389432E+03  0.29333689708E+03 -0.20332946217E+04  0.20843686213E+04  0.25500000920E-02 0. -1.
</event>
<event>
 5   0  0.2588048E-05  0.2052136E+04  0.7818609E-02  0.8582626E-01
       -2   -1    0    0    0  501  0.00000000000E+00  0.00000000000E+00  0.12365629868E+04  0.12365629868E+04  0.25500000920E-02 0. -1.
        2   -1    0    0  501    0  0.00000000000E+00  0.00000000000E+00 -0.85140432277E+03  0.85140432278E+03  0.25500000920E-02 0.  1.
    10030    2    1    2    0    0  0.00000000000E+00  0.00000000000E+00  0.38515866405E+03  0.20879673096E+04  0.20521355436E+04 0.  0.
        2    1    3    3  502    0  0.46904284957E+03  0.45130851353E+03  0.99960882075E+03  0.11928530352E+04  0.25500000920E-02 0. -1.
       -2    1    3    3    0  502 -0.46904284957E+03 -0.45130851353E+03 -0.61445015670E+03  0.89511427438E+03  0.25500000920E-02 0.  1.
</event>
<event>
 5   0  0.2697964E-05  0.2788619E+04  0.7818609E-02  0.8306811E-01
        2   -1    0    0  501    0  0.00000000000E+00  0.00000000000E+00  0.19779347785E+04  0.19779347785E+04  0.25500000920E-02 0.  1.
       -2   -1    0    0    0  501  0.00000000000E+00  0.00000000000E+00 -0.98289319753E+03  0.98289319753E+03  0.25500000920E-02 0. -1.
    10030    2    1    2    0    0  0.00000000000E+00  0.00000000000E+00  0.99504158100E+03  0.29608279761E+04  0.27886187541E+04 0.  0.
        1    1    3    3  502    0 -0.65061828318E+03  0.96173914874E+02  0.18028936592E+04  0.19191089388E+04  0.50400001928E-02 0.  1.
       -1    1    3    3    0  502  0.65061828318E+03 -0.96173914874E+02 -0.80785207824E+03  0.10417190373E+04  0.50400001928E-02 0. -1.
</event>
<event>
 5   0  0.1017456E-05  0.2635349E+04  0.7818609E-02  0.8356292E-01
       -1   -1    0    0    0  501  0.00000000000E+00  0.00000000000E+00  0.92482988038E+03  0.92482988040E+03  0.50400001928E-02 0. -1.
        1   -1    0    0  501    0  0.00000000000E+00  0.00000000000E+00 -0.18773897237E+04  0.18773897237E+04  0.50400001928E-02 0.  1.
    10030    2    1    2    0    0  0.00000000000E+00  0.00000000000E+00 -0.95255984330E+03  0.28022196041E+04  0.26353490195E+04 0.  0.
        5    1    3    3  502    0 -0.67900651503E+03 -0.87466343625E+03 -0.12357600209E+04  0.16592802335E+04  0.46999998093E+01 0.  1.
       -5    1    3    3    0  502  0.67900651503E+03  0.87466343625E+03  0.28320017759E+03  0.11429393706E+04  0.46999998093E+01 0. -1.
</event>
<event>
 5   0  0.1078103E-05  0.2542115E+04  0.7818609E-02  0.8388134E-01
       -1   -1    0    0    0  501  0.00000000000E+00  0.00000000000E+00  0.11172363801E+04  0.11172363801E+04  0.50400001928E-02 0. -1.
        1   -1    0    0  501    0  0.00000000000E+00  0.00000000000E+00 -0.14460569105E+04  0.14460569105E+04  0.50400001928E-02 0.  1.
    10030    2    1    2    0    0  0.00000000000E+00  0.00000000000E+00 -0.32882053040E+03  0.25632932905E+04  0.25421151729E+04 0.  0.
        1    1    3    3  502    0  0.30682738930E+03  0.27687264494E+03  0.10475958811E+04  0.11261698977E+04  0.50400001928E-02 0. -1.
       -1    1    3    3    0  502 -0.30682738930E+03 -0.27687264494E+03 -0.13764164115E+04  0.14371233928E+04  0.50400001928E-02 0.  1.
</event>
<event>
 5   0  0.2697964E-05  0.2814750E+04  0.7818609E-02  0.8298704E-01
       -2   -1    0    0    0  501  0.00000000000E+00  0.00000000000E+00  0.10567225677E+04  0.10567225677E+04  0.25500000920E-02 0. -1.
        2   -1    0    0  501    0  0.00000000000E+00  0.00000000000E+00 -0.18743840534E+04  0.18743840534E+04  0.25500000920E-02 0.  1.
    10030    2    1    2    0    0  0.00000000000E+00  0.00000000000E+00 -0.81766148571E+03  0.29311066211E+04  0.28147496726E+04 0.  0.
        1    1    3    3  502    0  0.10934160750E+04  0.86324031657E+03 -0.20066366875E+03  0.14074830248E+04  0.50400001928E-02 0.  1.
       -1    1    3    3    0  502 -0.10934160750E+04 -0.86324031657E+03 -0.61699781696E+03  0.15236235963E+04  0.50400001928E-02 0. -1.
</event>
<event>
 5   0  0.1075146E-05  0.1765667E+04  0.7818609E-02  0.8724774E-01
       -1   -1    0    0    0  501  0.00000000000E+00  0.00000000000E+00  0.92584785521E+03  0.92584785523E+03  0.50400001928E-02 0. -1.
        1   -1    0    0  501    0  0.00000000000E+00  0.00000000000E+00 -0.84181747113E+03  0.84181747114E+03  0.50400001928E-02 0.  1.
    10030    2    1    2    0    0  0.00000000000E+00  0.00000000000E+00  0.84030384087E+02  0.17676653264E+04  0.17656668997E+04 0.  0.
        2    1    3    3  502    0  0.30400490400E+03 -0.44759649757E+03  0.74039580826E+03  0.91703192921E+03  0.25500000920E-02 0. -1.
       -2    1    3    3    0  502 -0.30400490400E+03  0.44759649757E+03 -0.65636542418E+03  0.85063339715E+03  0.25500000920E-02 0.  1.
</event>
<event>
 5   0  0.1105862E-05  0.2720880E+04  0.7818609E-02  0.8328262E-01
       -1   -1    0    0    0  501  0.00000000000E+00  0.00000000000E+00  0.18084898716E+04  0.18084898716E+04  0.50400001928E-02 0.  1.
        1   -1    0    0  501    0  0.00000000000E+00  0.00000000000E+00 -0.10233938081E+04  0.10233938081E+04  0.50400001928E-02 0. -1.
    10030    2    1    2    0    0  0.00000000000E+00  0.00000000000E+00  0.78509606353E+03  0.28318836797E+04  0.27208802521E+04 0.  0.
        3    1    3    3  502    0 -0.16206924108E+03  0.10019164843E+04  0.13354285801E+04  0.16773409263E+04  0.10100000352E+00 0.  1.
       -3    1    3    3    0  502  0.16206924108E+03 -0.10019164843E+04 -0.55033251656E+03  0.11545427534E+04  0.10100000352E+00 0. -1.
</event>
<event>
 5   0  0.1067434E-05  0.2790717E+04  0.7818609E-02  0.8306156E-01
       -1   -1    0    0    0  501  0.00000000000E+00  0.00000000000E+00  0.12100486282E+04  0.12100486282E+04  0.50400001928E-02 0.  1.
        1   -1    0    0  501    0  0.00000000000E+00  0.00000000000E+00 -0.16090467641E+04  0.16090467641E+04  0.50400001928E-02 0. -1.
    10030    2    1    2    0    0  0.00000000000E+00  0.00000000000E+00 -0.39899813588E+03  0.28190953923E+04  0.27907166317E+04 0.  0.
        4    1    3    3  502    0  0.13367631735E+03  0.12005788712E+04 -0.90500229828E+03  0.15094004626E+04  0.12699999809E+01 0. -1.
       -4    1    3    3    0  502 -0.13367631735E+03 -0.12005788712E+04  0.50600416240E+03  0.13096949297E+04  0.12699999809E+01 0.  1.
</event>
<event>
 5   0  0.2697964E-05  0.2136966E+04  0.7818609E-02  0.8545132E-01
        2   -1    0    0  501    0  0.00000000000E+00  0.00000000000E+00  0.16446009734E+04  0.16446009734E+04  0.25500000920E-02 0. -1.
       -2   -1    0    0    0  501  0.00000000000E+00  0.00000000000E+00 -0.69418443727E+03  0.69418443727E+03  0.25500000920E-02 0.  1.
    10030    2    1    2    0    0  0.00000000000E+00  0.00000000000E+00  0.95041653612E+03  0.23387854107E+04  0.21369664492E+04 0.  0.
        1    1    3    3  502    0  0.48475977041E+03 -0.74918754536E+03 -0.16798688993E+03  0.90801630401E+03  0.50400001928E-02 0.  1.
       -1    1    3    3    0  502 -0.48475977041E+03  0.74918754536E+03  0.11184034261E+04  0.14307691067E+04  0.50400001928E-02 0. -1.
</event>
<event>
 5   0  0.1075146E-05  0.2232377E+04  0.7818609E-02  0.8505072E-01
       -1   -1    0    0    0  501  0.00000000000E+00  0.00000000000E+00  0.90333433316E+03  0.90333433318E+03  0.50400001928E-02 0. -1.
        1   -1    0    0  501    0  0.00000000000E+00  0.00000000000E+00 -0.13791978818E+04  0.13791978818E+04  0.50400001928E-02 0.  1.
    10030    2    1    2    0    0  0.00000000000E+00  0.00000000000E+00 -0.47586354861E+03  0.22825322150E+04  0.22323770281E+04 0.  0.
        2    1    3    3  502    0  0.72703808102E+03 -0.72118514758E+03 -0.69196293409E+03  0.12359227688E+04  0.25500000920E-02 0.  1.
       -2    1    3    3    0  502 -0.72703808102E+03  0.72118514758E+03  0.21609938548E+03  0.10466094461E+04  0.25500000920E-02 0. -1.
</event>
<event>
 5   0  0.1017456E-05  0.2629403E+04  0.7818609E-02  0.8358282E-01
        1   -1    0    0  501    0  0.00000000000E+00  0.00000000000E+00  0.18251281894E+04  0.18251281894E+04  0.50400001928E-02 0. -1.
       -1   -1    0    0    0  501  0.00000000000E+00  0.00000000000E+00 -0.94702387304E+03  0.94702387305E+03  0.50400001928E-02 0.  1.
    10030    2    1    2    0    0  0.00000000000E+00  0.00000000000E+00  0.87810431636E+03  0.27721520625E+04  0.26294029488E+04 0.  0.
        5    1    3    3  502    0  0.10646277356E+04 -0.75137234101E+03  0.62295019782E+03  0.14443274037E+04  0.46999998093E+01 0. -1.
       -5    1    3    3    0  502 -0.10646277356E+04  0.75137234101E+03  0.25515411854E+03  0.13278246587E+04  0.46999998093E+01 0.  1.
</event>
<event>
 5   0  0.1017456E-05  0.2843393E+04  0.7818609E-02  0.8289922E-01
        1   -1    0    0  501    0  0.00000000000E+00  0.00000000000E+00  0.18673647331E+04  0.18673647331E+04  0.50400001928E-02 0. -1.
       -1   -1    0    0    0  501  0.00000000000E+00  0.00000000000E+00 -0.10823919600E+04  0.10823919600E+04  0.50400001928E-02 0.  1.
    10030    2    1    2    0    0  0.00000000000E+00  0.00000000000E+00  0.78497277313E+03  0.29497566931E+04  0.28433927435E+04 0.  0.
        5    1    3    3  502    0 -0.33960060568E+03 -0.35328165936E+03 -0.99200054625E+03  0.11064464180E+04  0.46999998093E+01 0.  1.
       -5    1    3    3    0  502  0.33960060568E+03  0.35328165936E+03  0.17769733194E+04  0.18433102750E+04  0.46999998093E+01 0. -1.
</event>
<event>
 5   0  0.2697964E-05  0.2832004E+04  0.7818609E-02  0.8293401E-01
        2   -1    0    0  501    0  0.00000000000E+00  0.00000000000E+00  0.14393449952E+04  0.14393449952E+04  0.25500000920E-02 0.  1.
       -2   -1    0    0    0  501  0.00000000000E+00  0.00000000000E+00 -0.13930371168E+04  0.13930371168E+04  0.25500000920E-02 0. -1.
    10030    2    1    2    0    0  0.00000000000E+00  0.00000000000E+00  0.46307878438E+02  0.28323821120E+04  0.28320035326E+04 0.  0.
        1    1    3    3  502    0  0.41677422472E+02 -0.96185921665E+03 -0.10153252919E+04  0.13992124959E+04  0.50400001928E-02 0. -1.
       -1    1    3    3    0  502 -0.41677422472E+02  0.96185921665E+03  0.10616331703E+04  0.14331696161E+04  0.50400001928E-02 0.  1.
</event>
<event>
 5   0  0.1017456E-05  0.2439735E+04  0.7818609E-02  0.8424775E-01
       -1   -1    0    0    0  501  0.00000000000E+00  0.00000000000E+00  0.21456104990E+04  0.21456104990E+04  0.50400001928E-02 0. -1.
        1   -1    0    0  501    0  0.00000000000E+00  0.00000000000E+00 -0.69354458632E+03  0.69354458634E+03  0.50400001928E-02 0.  1.
    10030    2    1    2    0    0  0.00000000000E+00  0.00000000000E+00  0.14520659127E+04  0.28391550854E+04  0.24397348593E+04 0.  0.
        5    1    3    3  502    0  0.11692262046E+03 -0.73192483298E+03  0.18534974138E+04  0.19962113148E+04  0.46999998093E+01 0. -1.
       -5    1    3    3    0  502 -0.11692262046E+03  0.73192483298E+03 -0.40143150109E+03  0.84294377059E+03  0.46999998093E+01 0.  1.
</event>
<event>
 5   0  0.2588048E-05  0.2867501E+04  0.7818609E-02  0.8282613E-01
        2   -1    0    0  501    0  0.00000000000E+00  0.00000000000E+00  0.17304899319E+04  0.17304899319E+04  0.25500000920E-02 0.  1.
       -2   -1    0    0    0  501  0.00000000000E+00  0.00000000000E+00 -0.11878953313E+04  0.11878953313E+04  0.25500000920E-02 0. -1.
    10030    2    1    2    0    0  0.00000000000E+00  0.00000000000E+00  0.54259460053E+03  0.29183852632E+04  0.28675012893E+04 0.  0.
        2    1    3    3  502    0  0.11233716378E+04  0.77741606825E+03 -0.17151108449E+03  0.13768644203E+04  0.25500000920E-02 0. -1.
       -2    1    3    3    0  502 -0.11233716378E+04 -0.77741606825E+03  0.71410568503E+03  0.15415208429E+04  0.25500000920E-02 0.  1.
</event>
<event>
 5   0  0.1075146E-05  0.2715503E+04  0.7818609E-02  0.8329992E-01
        1   -1    0    0  501    0  0.00000000000E+00  0.00000000000E+00  0.23582163114E+04  0.23582163115E+04  0.50400001928E-02 0. -1.
       -1   -1    0    0    0  501  0.00000000000E+00  0.00000000000E+00 -0.78173039805E+03  0.78173039807E+03  0.50400001928E-02 0.  1.
    10030    2    1    2    0    0  0.00000000000E+00  0.00000000000E+00  0.15764859134E+04  0.31399467095E+04  0.27155031769E+04 0.  0.
        2    1    3    3  502    0 -0.98942700920E+03  0.57307444407E+03 -0.58396711330E+02  0.11448975067E+04  0.25500000920E-02 0.  1.
       -2    1    3    3    0  502  0.98942700920E+03 -0.57307444407E+03  0.16348826247E+04  0.19950492028E+04  0.25500000920E-02 0. -1.
</event>
<event>
 5   0  0.2518686E-05  0.2666232E+04  0.7818609E-02  0.8346045E-01
       -2   -1    0    0    0  501  0.00000000000E+00  0.00000000000E+00  0.14533593688E+04  0.14533593688E+04  0.25500000920E-02 0.  1.
        2   -1    0    0  501    0  0.00000000000E+00  0.00000000000E+00 -0.12228208627E+04  0.12228208627E+04  0.25500000920E-02 0. -1.
    10030    2    1    2    0    0  0.00000000000E+00  0.00000000000E+00  0.23053850607E+03  0.26761802314E+04  0.26662319157E+04 0.  0.
        5    1    3    3  502    0 -0.80697825097E+03  0.98092063195E+03  0.52144802070E+03  0.13730802278E+04  0.46999998093E+01 0.  1.
       -5    1    3    3    0  502  0.80697825097E+03 -0.98092063195E+03 -0.29090951463E+03  0.13031000036E+04  0.46999998093E+01 0. -1.
</event>
<event>
 5   0  0.2624815E-05  0.1713666E+04  0.7818609E-02  0.8753608E-01
        2   -1    0    0  501    0  0.00000000000E+00  0.00000000000E+00  0.97254397308E+03  0.97254397309E+03  0.25500000920E-02 0.  1.
       -2   -1    0    0    0  501  0.00000000000E+00  0.00000000000E+00 -0.75488940218E+03  0.75488940218E+03  0.25500000920E-02 0. -1.
    10030    2    1    2    0    0  0.00000000000E+00  0.00000000000E+00  0.21765457091E+03  0.17274333753E+04  0.17136664068E+04 0.  0.
        4    1    3    3  502    0  0.65278922206E+03 -0.11809878090E+03 -0.43782112429E+03  0.79483963179E+03  0.12699999809E+01 0. -1.
       -4    1    3    3    0  502 -0.65278922206E+03  0.11809878090E+03  0.65547569519E+03  0.93259374348E+03  0.12699999809E+01 0.  1.
</event>
<event>
 5   0  0.2624815E-05  0.2652776E+04  0.7818609E-02  0.8350492E-01
       -2   -1    0    0    0  501  0.00000000000E+00  0.00000000000E+00  0.17147191335E+04  0.17147191335E+04  0.25500000920E-02 0.  1.
        2   -1    0    0  501    0  0.00000000000E+00  0.00000000000E+00 -0.10260017566E+04  0.10260017566E+04  0.25500000920E-02 0. -1.
    10030    2    1    2    0    0  0.00000000000E+00  0.00000000000E+00  0.68871737693E+03  0.27407208901E+04  0.26527757863E+04 0.  0.
        4    1    3    3  502    0 -0.33940331430E+03  0.64673332200E+03 -0.79952529697E+03  0.10829131604E+04  0.12699999809E+01 0. -1.
       -4    1    3    3    0  502  0.33940331430E+03 -0.64673332200E+03  0.14882426739E+04  0.16578077298E+04  0.12699999809E+01 0.  1.
</event>
<event>
 5   0  0.1017456E-05  0.2453941E+04  0.7818609E-02  0.8419580E-01
       -1   -1    0    0    0  501  0.00000000000E+00  0.00000000000E+00  0.15870637384E+04  0.15870637384E+04  0.50400001928E-02 0.  1.
        1   -1    0    0  501    0  0.00000000000E+00  0.00000000000E+00 -0.94858012797E+03  0.94858012799E+03  0.50400001928E-02 0. -1.
    10030    2    1    2    0    0  0.00000000000E+00  0.00000000000E+00  0.63848361043E+03  0.25356438664E+04  0.24539414207E+04 0.  0.
        5    1    3    3  502    0  0.35010471930E+02  0.36954176088E+03  0.15276433238E+04  0.15721014792E+04  0.46999998093E+01 0.  1.
       -5    1    3    3    0  502 -0.35010471930E+02 -0.36954176088E+03 -0.88915971333E+03  0.96354238723E+03  0.46999998093E+01 0. -1.
</event>
<event>
 5   0  0.8958000E-06  0.2801529E+04  0.7818609E-02  0.8302794E-01
       -3   -1    0    0    0  501  0.00000000000E+00  0.00000000000E+00  0.19214541173E+04  0.19214541200E+04  0.10100000352E+00 0.  1.
        3   -1    0    0  501    0  0.00000000000E+00  0.00000000000E+00 -0.10211749480E+04  0.10211749530E+04  0.10100000352E+00 0. -1.
    10030    2    1    2    0    0  0.00000000000E+00  0.00000000000E+00  0.90027916934E+03  0.29426290729E+04  0.28015287395E+04 0.  0.
        2    1    3    3  502    0  0.86390389880E+03 -0.91910938218E+03  0.10899568642E+04  0.16670626769E+04  0.25500000920E-02 0.  1.
       -2    1    3    3    0  502 -0.86390389880E+03  0.91910938218E+03 -0.18967769490E+03  0.12755663960E+04  0.25500000920E-02 0. -1.
</event>
<event>
 5   0  0.1017456E-05  0.2681301E+04  0.7818609E-02  0.8341098E-01
       -1   -1    0    0    0  501  0.00000000000E+00  0.00000000000E+00  0.12798398539E+04  0.12798398539E+04  0.50400001928E-02 0.  1.
        1   -1    0    0  501    0  0.00000000000E+00  0.00000000000E+00 -0.14043507738E+04  0.14043507738E+04  0.50400001928E-02 0. -1.
    10030    2    1    2    0    0  0.00000000000E+00  0.00000000000E+00 -0.12451091996E+03  0.26841906277E+04  0.26813012432E+04 0.  0.
        5    1    3    3  502    0 -0.74234869099E+03  0.10061683608E+04  0.42186224383E+03  0.13196386597E+04  0.46999998093E+01 0.  1.
       -5    1    3    3    0  502  0.74234869099E+03 -0.10061683608E+04 -0.54637316378E+03  0.13645519680E+04  0.46999998093E+01 0. -1.
</event>
<event>
 5   0  0.2624815E-05  0.2739653E+04  0.7818609E-02  0.8322253E-01
       -2   -1    0    0    0  501  0.00000000000E+00  0.00000000000E+00  0.15319157578E+04  0.15319157578E+04  0.25500000920E-02 0.  1.
        2   -1    0    0  501    0  0.00000000000E+00  0.00000000000E+00 -0.12248874523E+04  0.12248874523E+04  0.25500000920E-02 0. -1.
    10030    2    1    2    0    0  0.00000000000E+00  0.00000000000E+00  0.30702830552E+03  0.27568032100E+04  0.27396528172E+04 0.  0.
        4    1    3    3  502    0  0.81539647710E+03 -0.76279064325E+03  0.95201926629E+03  0.14673320267E+04  0.12699999809E+01 0.  1.
       -4    1    3    3    0  502 -0.81539647710E+03  0.76279064325E+03 -0.64499096077E+03  0.12894711833E+04  0.12699999809E+01 0. -1.
</event>
<event>
 5   0  0.2518686E-05  0.2557424E+04  0.7818609E-02  0.8382809E-01
       -2   -1    0    0    0  501  0.00000000000E+00  0.00000000000E+00  0.14040627773E+04  0.14040627774E+04  0.25500000920E-02 0.  1.
        2   -1    0    0  501    0  0.00000000000E+00  0.00000000000E+00 -0.11645518720E+04  0.11645518720E+04  0.25500000920E-02 0. -1.
    10030    2    1    2    0    0  0.00000000000E+00  0.00000000000E+00  0.23951090538E+03  0.25686146493E+04  0.25574236534E+04 0.  0.
        5    1    3    3  502    0  0.87309268239E+03  0.88204612992E+03 -0.18946452692E+03  0.12554740556E+04  0.46999998093E+01 0. -1.
       -5    1    3    3    0  502 -0.87309268239E+03 -0.88204612992E+03  0.42897543230E+03  0.13131405937E+04  0.46999998093E+01 0.  1.
</event>
<event>
 5   0  0.1105862E-05  0.2908084E+04  0.7818609E-02  0.8270476E-01
        1   -1    0    0  501    0  0.00000000000E+00  0.00000000000E+00  0.14791587562E+04  0.14791587562E+04  0.50400001928E-02 0.  1.
       -1   -1    0    0    0  501  0.00000000000E+00  0.00000000000E+00 -0.14293513577E+04  0.14293513577E+04  0.50400001928E-02 0. -1.
    10030    2    1    2    0    0  0.00000000000E+00  0.00000000000E+00  0.49807398502E+02  0.29085101138E+04  0.29080836139E+04 0.  0.
        3    1    3    3  502    0 -0.99964858433E+03  0.60845974023E+03 -0.83819274677E+03  0.14394747787E+04  0.10100000352E+00 0. -1.
       -3    1    3    3    0  502  0.99964858433E+03 -0.60845974023E+03  0.88800014527E+03  0.14690353351E+04  0.10100000352E+00 0.  1.
</event>
<event>
 5   0  0.2624815E-05  0.2809568E+04  0.7818609E-02  0.8300304E-01
       -2   -1    0    0    0  501  0.00000000000E+00  0.00000000000E+00  0.10026205587E+04  0.10026205587E+04  0.25500000920E-02 0. -1.
        2   -1    0    0  501    0  0.00000000000E+00  0.00000000000E+00 -0.19682599324E+04  0.19682599324E+04  0.25500000920E-02 0.  1.
    10030    2    1    2    0    0  0.00000000000E+00  0.00000000000E+00 -0.96563937371E+03  0.29708804911E+04  0.28095678480E+04 0.  0.
        4    1    3    3  502    0 -0.42471351309E+03 -0.13037968114E+04 -0.80554553113E+03  0.15903373571E+04  0.12699999809E+01 0. -1.
       -4    1    3    3    0  502  0.42471351309E+03  0.13037968114E+04 -0.16009384258E+03  0.13805431341E+04  0.12699999809E+01 0.  1.
</event>
<event>
 5   0  0.2697964E-05  0.1415737E+04  0.7818609E-02  0.8942506E-01
        2   -1    0    0  501    0  0.00000000000E+00  0.00000000000E+00  0.12586975094E+04  0.12586975094E+04  0.25500000920E-02 0.  1.
       -2   -1    0    0    0  501  0.00000000000E+00  0.00000000000E+00 -0.39809220601E+03  0.39809220601E+03  0.25500000920E-02 0. -1.
    10030    2    1    2    0    0  0.00000000000E+00  0.00000000000E+00  0.86060530341E+03  0.16567897154E+04  0.14157367951E+04 0.  0.
        1    1    3    3  502    0 -0.13251312049E+03  0.31534651752E+03  0.11555607984E+04  0.12051240235E+04  0.50400001928E-02 0.  1.
       -1    1    3    3    0  502  0.13251312049E+03 -0.31534651752E+03 -0.29495549499E+03  0.45166569193E+03  0.50400001928E-02 0. -1.
</event>
<event>
 5   0  0.1105862E-05  0.2763692E+04  0.7818609E-02  0.8314630E-01
        1   -1    0    0  501    0  0.00000000000E+00  0.00000000000E+00  0.27843674311E+04  0.27843674311E+04  0.50400001928E-02 0. -1.
       -1   -1    0    0    0  501  0.00000000000E+00  0.00000000000E+00 -0.68579233778E+03  0.68579233780E+03  0.50400001928E-02 0.  1.
    10030    2    1    2    0    0  0.00000000000E+00  0.00000000000E+00  0.20985750934E+04  0.34701597689E+04  0.27636916253E+04 0.  0.
        3    1    3    3  502    0  0.27562830172E+03  0.11046313013E+04  0.65950873927E+02  0.11404081727E+04  0.10100000352E+00 0.  1.
       -3    1    3    3    0  502 -0.27562830172E+03 -0.11046313013E+04  0.20326242194E+04  0.23297515962E+04  0.10100000352E+00 0. -1.
</event>
<event>
 5   0  0.2651061E-05  0.2301747E+04  0.7818609E-02  0.8477233E-01
        2   -1    0    0  501    0  0.00000000000E+00  0.00000000000E+00  0.12059103696E+04  0.12059103696E+04  0.25500000920E-02 0.  1.
       -2   -1    0    0    0  501  0.00000000000E+00  0.00000000000E+00 -0.10983484845E+04  0.10983484845E+04  0.25500000920E-02 0. -1.
    10030    2    1    2    0    0  0.00000000000E+00  0.00000000000E+00  0.10756188511E+03  0.23042588541E+04  0.23017470121E+04 0.  0.
        3    1    3    3  502    0 -0.66565460142E+03 -0.24766161548E+03  0.96035048287E+03  0.11944477319E+04  0.10100000352E+00 0.  1.
       -3    1    3    3    0  502  0.66565460142E+03  0.24766161548E+03 -0.85278859776E+03  0.11098111222E+04  0.10100000352E+00 0. -1.
</event>
<event>
 5   0  0.1105862E-05  0.2744836E+04  0.7818609E-02  0.8320602E-01
       -1   -1    0    0    0  501  0.00000000000E+00  0.00000000000E+00  0.72421090914E+03  0.72421090916E+03  0.50400001928E-02 0.  1.
        1   -1    0    0  501    0  0.00000000000E+00  0.00000000000E+00 -0.26008050788E+04  0.26008050788E+04  0.50400001928E-02 0. -1.
    10030    2    1    2    0    0  0.00000000000E+00  0.00000000000E+00 -0.18765941697E+04  0.33250159880E+04  0.27448361777E+04 0.  0.
        3    1    3    3  502    0  0.85546023068E+03  0.10711502291E+04 -0.85834307828E+03  0.16173830312E+04  0.10100000352E+00 0.  1.
       -3    1    3    3    0  502 -0.85546023068E+03 -0.10711502291E+04 -0.10182510914E+04  0.17076329567E+04  0.10100000352E+00 0. -1.
</event>
<event>
 5   0  0.1017456E-05  0.2693403E+04  0.7818609E-02  0.8337149E-01
        1   -1    0    0  501    0  0.00000000000E+00  0.00000000000E+00  0.82687977265E+03  0.82687977267E+03  0.50400001928E-02 0.  1.
       -1   -1    0    0    0  501  0.00000000000E+00  0.00000000000E+00 -0.21933120411E+04  0.21933120411E+04  0.50400001928E-02 0. -1.
    10030    2    1    2    0    0  0.00000000000E+00  0.00000000000E+00 -0.13664322684E+04  0.30201918138E+04  0.26934033207E+04 0.  0.
        5    1    3    3  502    0  0.25133489524E+03  0.68555841947E+03  0.58563299571E+03  0.93602760201E+03  0.46999998093E+01 0.  1.
       -5    1    3    3    0  502 -0.25133489524E+03 -0.68555841947E+03 -0.19520652641E+04  0.20841642117E+04  0.46999998093E+01 0. -1.
</event>
<event>
 5   0  0.1078103E-05  0.2755729E+04  0.7818609E-02  0.8317146E-01
        1   -1    0    0  501    0  0.00000000000E+00  0.00000000000E+00  0.13200568500E+04  0.13200568500E+04  0.50400001928E-02 0.  1.
       -1   -1    0    0    0  501  0.00000000000E+00  0.00000000000E+00 -0.14382038628E+04  0.14382038628E+04  0.50400001928E-02 0. -1.
    10030    2    1    2    0    0  0.00000000000E+00  0.00000000000E+00 -0.11814701277E+03  0.27582607128E+04  0.27557292036E+04 0.  0.
        1    1    3    3  502    0  0.10766808317E+04  0.45611796465E+03 -0.78859533817E+03  0.14103786082E+04  0.50400001928E-02 0. -1.
       -1    1    3    3    0  502 -0.10766808317E+04 -0.45611796465E+03  0.67044832540E+03  0.13478821047E+04  0.50400001928E-02 0.  1.
</event>
<event>
 5   0  0.1078103E-05  0.2812319E+04  0.7818609E-02  0.8299454E-01
        1   -1    0    0  501    0  0.00000000000E+00  0.00000000000E+00  0.30243691860E+04  0.30243691860E+04  0.50400001928E-02 0.  1.
       -1   -1    0    0    0  501  0.00000000000E+00  0.00000000000E+00 -0.65378397744E+03  0.65378397746E+03  0.50400001928E-02 0. -1.
    10030    2    1    2    0    0  0.00000000000E+00  0.00000000000E+00  0.23705852085E+04  0.36781531634E+04  0.28123186987E+04 0.  0.
        1    1    3    3  502    0 -0.77334808264E+03  0.94000152730E+03  0.21060326935E+04  0.24324974480E+04  0.50400001928E-02 0.  1.
       -1    1    3    3    0  502  0.77334808264E+03 -0.94000152730E+03  0.26455251502E+03  0.12456557155E+04  0.50400001928E-02 0. -1.
</event>
<event>
 5   0  0.2651061E-05  0.2773421E+04  0.7818609E-02  0.8311568E-01
       -2   -1    0    0    0  501  0.00000000000E+00  0.00000000000E+00  0.15025029742E+04  0.15025029742E+04  0.25500000920E-02 0.  1.
        2   -1    0    0  501    0  0.00000000000E+00  0.00000000000E+00 -0.12798418748E+04  0.12798418748E+04  0.25500000920E-02 0. -1.
    10030    2    1    2    0    0  0.00000000000E+00  0.00000000000E+00  0.22266109938E+03  0.27823448490E+04  0.27734211533E+04 0.  0.
        3    1    3    3  502    0 -0.91862549632E+02 -0.10765767444E+02 -0.12767439929E+04  0.12800897872E+04  0.10100000352E+00 0. -1.
       -3    1    3    3    0  502  0.91862549632E+02  0.10765767444E+02  0.14994050923E+04  0.15022550618E+04  0.10100000352E+00 0.  1.
</event>
<event>
 5   0  0.1078103E-05  0.2041181E+04  0.7818609E-02  0.8587606E-01
       -1   -1    0    0    0  501  0.00000000000E+00  0.00000000000E+00  0.17229105452E+04  0.17229105453E+04  0.50400001928E-02 0.  1.
        1   -1    0    0  501    0  0.00000000000E+00  0.00000000000E+00 -0.60456096962E+03  0.60456096965E+03  0.50400001928E-02 0. -1.
    10030    2    1    2    0    0  0.00000000000E+00  0.00000000000E+00  0.11183495756E+04  0.23274715149E+04  0.20411805112E+04 0.  0.
        1    1    3    3  502    0  0.52114124379E+03 -0.78145310059E+03  0.10400298474E+03  0.94502580137E+03  0.50400001928E-02 0. -1.
       -1    1    3    3    0  502 -0.52114124379E+03  0.78145310059E+03  0.10143465909E+04  0.13824457135E+04  0.50400001928E-02 0.  1.
</event>
<event>
 5   0  0.1075146E-05  0.2103437E+04  0.7818609E-02  0.8559731E-01
       -1   -1    0    0    0  501  0.00000000000E+00  0.00000000000E+00  0.73788911475E+03  0.73788911477E+03  0.50400001928E-02 0.  1.
        1   -1    0    0  501    0  0.00000000000E+00  0.00000000000E+00 -0.14990220973E+04  0.14990220973E+04  0.50400001928E-02 0. -1.
    10030    2    1    2    0    0  0.00000000000E+00  0.00000000000E+00 -0.76113298250E+03  0.22369112120E+04  0.21034372711E+04 0.  0.
        2    1    3    3  502    0 -0.95133689684E+00  0.10674355653E+03  0.73211307316E+03  0.73985447475E+03  0.25500000920E-02 0.  1.
       -2    1    3    3    0  502  0.95133689684E+00 -0.10674355653E+03 -0.14932460557E+04  0.14970567373E+04  0.25500000920E-02 0. -1.
</event>
<event>
 5   0  0.1017456E-05  0.2751663E+04  0.7818609E-02  0.8318434E-01
       -1   -1    0    0    0  501  0.00000000000E+00  0.00000000000E+00  0.12420814825E+04  0.12420814825E+04  0.50400001928E-02 0.  1.
        1   -1    0    0  501    0  0.00000000000E+00  0.00000000000E+00 -0.15239837203E+04  0.15239837204E+04  0.50400001928E-02 0. -1.
    10030    2    1    2    0    0  0.00000000000E+00  0.00000000000E+00 -0.28190223784E+03  0.27660652029E+04  0.27516627400E+04 0.  0.
        5    1    3    3  502    0 -0.44721699685E+03 -0.11276680906E+04  0.51148491982E+03  0.13165398885E+04  0.46999998093E+01 0.  1.
       -5    1    3    3    0  502  0.44721699685E+03  0.11276680906E+04 -0.79338715766E+03  0.14495253143E+04  0.46999998093E+01 0. -1.
</event>
<event>
 5   0  0.2624815E-05  0.2725292E+04  0.7818609E-02  0.8326845E-01
       -2   -1    0    0    0  501  0.00000000000E+00  0.00000000000E+00  0.14168637830E+04  0.14168637830E+04  0.25500000920E-02 0. -1.
        2   -1    0    0  501    0  0.00000000000E+00  0.00000000000E+00 -0.13105027886E+04  0.13105027886E+04  0.25500000920E-02 0.  1.
    10030    2    1    2    0    0  0.00000000000E+00  0.00000000000E+00  0.10636099440E+03  0.27273665715E+04  0.27252918659E+04 0.  0.
        4    1    3    3  502    0  0.60142417073E+02  0.91182219043E+03  0.10647741886E+04  0.14031331023E+04  0.12699999809E+01 0. -1.
       -4    1    3    3    0  502 -0.60142417073E+02 -0.91182219043E+03 -0.95841319418E+03  0.13242334692E+04  0.12699999809E+01 0.  1.
</event>
<event>
 5   0  0.2651061E-05  0.2802662E+04  0.7818609E-02  0.8302442E-01
        2   -1    0    0  501    0  0.00000000000E+00  0.00000000000E+00  0.15684213267E+04  0.15684213267E+04  0.25500000920E-02 0.  1.
       -2   -1    0    0    0  501  0.00000000000E+00  0.00000000000E+00 -0.12520417399E+04  0.12520417399E+04  0.25500000920E-02 0. -1.
    10030    2    1    2    0    0  0.00000000000E+00  0.00000000000E+00  0.31637958674E+03  0.28204630666E+04  0.28026622820E+04 0.  0.
        3    1    3    3  502    0  0.80207138690E+03  0.73583525432E+03 -0.73000120962E+03  0.13106005522E+04  0.10100000352E+00 0. -1.
       -3    1    3    3    0  502 -0.80207138690E+03 -0.73583525432E+03  0.10463807964E+04  0.15098625144E+04  0.10100000352E+00 0.  1.
</event>
<event>
 5   0  0.1067434E-05  0.2610660E+04  0.7818609E-02  0.8364589E-01
        1   -1    0    0  501    0  0.00000000000E+00  0.00000000000E+00  0.18183224810E+04  0.18183224810E+04  0.50400001928E-02 0.  1.
       -1   -1    0    0    0  501  0.00000000000E+00  0.00000000000E+00 -0.93706485608E+03  0.93706485609E+03  0.50400001928E-02 0. -1.
    10030    2    1    2    0    0  0.00000000000E+00  0.00000000000E+00  0.88125762490E+03  0.27553873371E+04  0.26106597587E+04 0.  0.
        4    1    3    3  502    0 -0.13568412123E+03 -0.92889326479E+03  0.13979001998E+04  0.16838585035E+04  0.12699999809E+01 0.  1.
       -4    1    3    3    0  502  0.13568412123E+03  0.92889326479E+03 -0.51664257493E+03  0.10715288336E+04  0.12699999809E+01 0. -1.
</event>
<event>
 5   0  0.1075146E-05  0.2628508E+04  0.7818609E-02  0.8358582E-01
        1   -1    0    0  501    0  0.00000000000E+00  0.00000000000E+00  0.16152219738E+04  0.16152219738E+04  0.50400001928E-02 0. -1.
       -1   -1    0    0    0  501  0.00000000000E+00  0.00000000000E+00 -0.10693663915E+04  0.10693663915E+04  0.50400001928E-02 0.  1.
    10030    2    1    2    0    0  0.00000000000E+00  0.00000000000E+00  0.54585558231E+03  0.26845883653E+04  0.26285083934E+04 0.  0.
        2    1    3    3  502    0  0.53484736695E+03  0.69133867125E+03  0.12753220540E+04  0.15461103472E+04  0.25500000920E-02 0.  1.
       -2    1    3    3    0  502 -0.53484736695E+03 -0.69133867125E+03 -0.72946647170E+03  0.11384780181E+04  0.25500000920E-02 0. -1.
</event>
<event>
 5   0  0.1067434E-05  0.2001039E+04  0.7818609E-02  0.8606135E-01
        1   -1    0    0  501    0  0.00000000000E+00  0.00000000000E+00  0.12072068046E+04  0.12072068046E+04  0.50400001928E-02 0. -1.
       -1   -1    0    0    0  501  0.00000000000E+00  0.00000000000E+00 -0.82921950941E+03  0.82921950942E+03  0.50400001928E-02 0.  1.
    10030    2    1    2    0    0  0.00000000000E+00  0.00000000000E+00  0.37798729523E+03  0.20364263141E+04  0.20010391644E+04 0.  0.
        4    1    3    3  502    0 -0.26247903603E+03 -0.35856101506E+03  0.11012706896E+04  0.11875436794E+04  0.12699999809E+01 0. -1.
       -4    1    3    3    0  502  0.26247903603E+03  0.35856101506E+03 -0.72328339439E+03  0.84888263463E+03  0.12699999809E+01 0.  1.
</event>
<event>
 5   0  0.1078103E-05  0.2734752E+04  0.7818609E-02  0.8323817E-01
        1   -1    0    0  501    0  0.00000000000E+00  0.00000000000E+00  0.15890886040E+04  0.15890886040E+04  0.50400001928E-02 0. -1.
       -1   -1    0    0    0  501  0.00000000000E+00  0.00000000000E+00 -0.11765969063E+04  0.11765969063E+04  0.50400001928E-02 0.  1.
    10030    2    1    2    0    0  0.00000000000E+00  0.00000000000E+00  0.41249169769E+03  0.27656855103E+04  0.27347517148E+04 0.  0.
        1    1    3    3  502    0 -0.74086176669E+03  0.69060297973E+03  0.11352816910E+04  0.15214049924E+04  0.50400001928E-02 0. -1.
       -1    1    3    3    0  502  0.74086176669E+03 -0.69060297973E+03 -0.72278999327E+03  0.12442805180E+04  0.50400001928E-02 0.  1.
</event>
<event>
 5   0  0.8958000E-06  0.2830155E+04  0.7818609E-02  0.8293967E-01
       -3   -1    0    0    0  501  0.00000000000E+00  0.00000000000E+00  0.10987603691E+04  0.10987603738E+04  0.10100000352E+00 0.  1.
        3   -1    0    0  501    0  0.00000000000E+00  0.00000000000E+00 -0.18224575667E+04  0.18224575695E+04  0.10100000352E+00 0. -1.
    10030    2    1    2    0    0  0.00000000000E+00  0.00000000000E+00 -0.72369719751E+03  0.29212179432E+04  0.28301548788E+04 0.  0.
        3    1    3    3  502    0  0.80439269090E+01 -0.14126389701E+04 -0.44715521235E+03  0.14817426763E+04  0.10100000352E+00 0.  1.
       -3    1    3    3    0  502 -0.80439269090E+01  0.14126389701E+04 -0.27654198516E+03  0.14394752670E+04  0.10100000352E+00 0. -1.
</event>
<event>
 5   0  0.1067434E-05  0.2603359E+04  0.7818609E-02  0.8367061E-01
       -1   -1    0    0    0  501  0.00000000000E+00  0.00000000000E+00  0.21313683133E+04  0.21313683133E+04  0.50400001928E-02 0. -1.
        1   -1    0    0  501    0  0.00000000000E+00  0.00000000000E+00 -0.79496789763E+03  0.79496789765E+03  0.50400001928E-02 0.  1.
    10030    2    1    2    0    0  0.00000000000E+00  0.00000000000E+00  0.13364004157E+04  0.29263362109E+04  0.26033588974E+04 0.  0.
        4    1    3    3  502    0  0.48724810984E+03 -0.50906838504E+02  0.20237858695E+04  0.20822375189E+04  0.12699999809E+01 0. -1.
       -4    1    3    3    0  502 -0.48724810984E+03  0.50906838504E+02 -0.68738545386E+03  0.84409869199E+03  0.12699999809E+01 0.  1.
</event>
<event>
 5   0  0.2624815E-05  0.2868729E+04  0.7818609E-02  0.8282243E-01
        2   -1    0    0  501    0  0.00000000000E+00  0.00000000000E+00  0.22234598176E+04  0.22234598176E+04  0.25500000920E-02 0. -1.
       -2   -1    0    0    0  501  0.00000000000E+00  0.00000000000E+00 -0.92531560319E+03  0.92531560320E+03  0.25500000920E-02 0.  1.
    10030    2    1    2    0    0  0.00000000000E+00  0.00000000000E+00  0.12981442144E+04  0.31487754208E+04  0.28687293789E+04 0.  0.
        4    1    3    3  502    0 -0.11465764702E+04 -0.54369445095E+03  0.13830503506E+04  0.18769845879E+04  0.12699999809E+01 0. -1.
       -4    1    3    3    0  502  0.11465764702E+04  0.54369445095E+03 -0.84906136149E+02  0.12717908330E+04  0.12699999809E+01 0.  1.
</event>
<event>
 5   0  0.2624815E-05  0.2573786E+04  0.7818609E-02  0.8377160E-01
       -2   -1    0    0    0  501  0.00000000000E+00  0.00000000000E+00  0.17009669392E+04  0.17009669392E+04  0.25500000920E-02 0.  1.
        2   -1    0    0  501    0  0.00000000000E+00  0.00000000000E+00 -0.97361888464E+03  0.97361888464E+03  0.25500000920E-02 0. -1.
    10030    2    1    2    0    0  0.00000000000E+00  0.00000000000E+00  0.72734805456E+03  0.26745858238E+04  0.25737859539E+04 0.  0.
        4    1    3    3  502    0  0.80012126037E+03 -0.98394563710E+03  0.59074712026E+03  0.13990449675E+04  0.12699999809E+01 0. -1.
       -4    1    3    3    0  502 -0.80012126037E+03  0.98394563710E+03  0.13660093431E+03  0.12755408563E+04  0.12699999809E+01 0.  1.
</event>
<event>
 5   0  0.1078103E-05  0.2816713E+04  0.7818609E-02  0.8298098E-01
        1   -1    0    0  501    0  0.00000000000E+00  0.00000000000E+00  0.17018918682E+04  0.17018918682E+04  0.50400001928E-02 0. -1.
       -1   -1    0    0    0  501  0.00000000000E+00  0.00000000000E+00 -0.11654487800E+04  0.11654487800E+04  0.50400001928E-02 0.  1.
    10030    2    1    2    0    0  0.00000000000E+00  0.00000000000E+00  0.53644308821E+03  0.28673406482E+04  0.28167128370E+04 0.  0.
        1    1    3    3  502    0 -0.72056515083E+03 -0.11395864754E+04  0.68247111954E+03  0.15111711685E+04  0.50400001928E-02 0. -1.
       -1    1    3    3    0  502  0.72056515083E+03  0.11395864754E+04 -0.14602803134E+03  0.13561694797E+04  0.50400001928E-02 0.  1.
</event>
<event>
 5   0  0.1067434E-05  0.2568101E+04  0.7818609E-02  0.8379118E-01
        1   -1    0    0  501    0  0.00000000000E+00  0.00000000000E+00  0.11897706224E+04  0.11897706224E+04  0.50400001928E-02 0. -1.
       -1   -1    0    0    0  501  0.00000000000E+00  0.00000000000E+00 -0.13858013210E+04  0.13858013210E+04  0.50400001928E-02 0.  1.
    10030    2    1    2    0    0  0.00000000000E+00  0.00000000000E+00 -0.19603069865E+03  0.25755719434E+04  0.25681010106E+04 0.  0.
        4    1    3    3  502    0  0.79762251481E+03 -0.77818952633E+03  0.54180881913E+03  0.12390879809E+04  0.12699999809E+01 0. -1.
       -4    1    3    3    0  502 -0.79762251481E+03  0.77818952633E+03 -0.73783951779E+03  0.13364839625E+04  0.12699999809E+01 0.  1.
</event>
<event>
 5   0  0.2624815E-05  0.2874606E+04  0.7818609E-02  0.8280473E-01
        2   -1    0    0  501    0  0.00000000000E+00  0.00000000000E+00  0.22653347283E+04  0.22653347283E+04  0.25500000920E-02 0. -1.
       -2   -1    0    0    0  501  0.00000000000E+00  0.00000000000E+00 -0.91193611547E+03  0.91193611547E+03  0.25500000920E-02 0.  1.
    10030    2    1    2    0    0  0.00000000000E+00  0.00000000000E+00  0.13533986128E+04  0.31772708437E+04  0.28746064443E+04 0.  0.
        4    1    3    3  502    0 -0.13205475350E+04  0.96089011330E+02  0.12948316650E+04  0.18519367008E+04  0.12699999809E+01 0. -1.
       -4    1    3    3    0  502  0.13205475350E+04 -0.96089011330E+02  0.58566947785E+02  0.13253341429E+04  0.12699999809E+01 0.  1.
</event>
<event>
 5   0  0.2624815E-05  0.2752438E+04  0.7818609E-02  0.8318189E-01
       -2   -1    0    0    0  501  0.00000000000E+00  0.00000000000E+00  0.20231953311E+04  0.20231953311E+04  0.25500000920E-02 0. -1.
        2   -1    0    0  501    0  0.00000000000E+00  0.00000000000E+00 -0.93613210308E+03  0.93613210309E+03  0.25500000920E-02 0.  1.
    10030    2    1    2    0    0  0.00000000000E+00  0.00000000000E+00  0.10870632280E+04  0.29593274342E+04  0.27524375381E+04 0.  0.
        4    1    3    3  502    0 -0.67183631950E+03  0.75391191931E+03  0.15488143360E+04  0.18489387991E+04  0.12699999809E+01 0. -1.
       -4    1    3    3    0  502  0.67183631950E+03 -0.75391191931E+03 -0.46175110805E+03  0.11103886351E+04  0.12699999809E+01 0.  1.
</event>
<event>
 5   0  0.2518686E-05  0.2796290E+04  0.7818609E-02  0.8304421E-01
        2   -1    0    0  501    0  0.00000000000E+00  0.00000000000E+00  0.11789004488E+04  0.11789004488E+04  0.25500000920E-02 0.  1.
       -2   -1    0    0    0  501  0.00000000000E+00  0.00000000000E+00 -0.16581637682E+04  0.16581637682E+04  0.25500000920E-02 0. -1.
    10030    2    1    2    0    0  0.00000000000E+00  0.00000000000E+00 -0.47926331934E+03  0.28370642170E+04  0.27962904073E+04 0.  0.
        5    1    3    3  502    0 -0.10183213552E+04 -0.59371250177E+03  0.52320604222E+03  0.12896664568E+04  0.46999998093E+01 0.  1.
       -5    1    3    3    0  502  0.10183213552E+04  0.59371250177E+03 -0.10024693616E+04  0.15473977602E+04  0.46999998093E+01 0. -1.
</event>
<event>
 5   0  0.2697964E-05  0.1548921E+04  0.7818609E-02  0.8852557E-01
        2   -1    0    0  501    0  0.00000000000E+00  0.00000000000E+00  0.11880470042E+04  0.11880470042E+04  0.25500000920E-02 0.  1.
       -2   -1    0    0    0  501  0.00000000000E+00  0.00000000000E+00 -0.50485305423E+03  0.50485305424E+03  0.25500000920E-02 0. -1.
    10030    2    1    2    0    0  0.00000000000E+00  0.00000000000E+00  0.68319395000E+03  0.16929000585E+04  0.15489211196E+04 0.  0.
        1    1    3    3  502    0  0.42980522362E+00 -0.39929891027E+03  0.10668686228E+04  0.11391437411E+04  0.50400001928E-02 0.  1.
       -1    1    3    3    0  502 -0.42980522362E+00  0.39929891027E+03 -0.38367467281E+03  0.55375631740E+03  0.50400001928E-02 0. -1.
</event>
<event>
 5   0  0.1017456E-05  0.2819587E+04  0.7818609E-02  0.8297213E-01
        1   -1    0    0  501    0  0.00000000000E+00  0.00000000000E+00  0.12919163245E+04  0.12919163245E+04  0.50400001928E-02 0. -1.
       -1   -1    0    0    0  501  0.00000000000E+00  0.00000000000E+00 -0.15384263155E+04  0.15384263155E+04  0.50400001928E-02 0.  1.
    10030    2    1    2    0    0  0.00000000000E+00  0.00000000000E+00 -0.24650999101E+03  0.28303426399E+04  0.28195872542E+04 0.  0.
        5    1    3    3  502    0  0.13066624754E+03  0.66811576874E+03 -0.13624857298E+04  0.15231026894E+04  0.46999998093E+01 0.  1.
       -5    1    3    3    0  502 -0.13066624754E+03 -0.66811576874E+03  0.11159757388E+04  0.13072399505E+04  0.46999998093E+01 0. -1.
</event>
<event>
 5   0  0.2518686E-05  0.2783643E+04  0.7818609E-02  0.8308364E-01
        2   -1    0    0  501    0  0.00000000000E+00  0.00000000000E+00  0.14796852996E+04  0.14796852996E+04  0.25500000920E-02 0. -1.
       -2   -1    0    0    0  501  0.00000000000E+00  0.00000000000E+00 -0.13091754229E+04  0.13091754229E+04  0.25500000920E-02 0.  1.
    10030    2    1    2    0    0  0.00000000000E+00  0.00000000000E+00  0.17050987669E+03  0.27888607225E+04  0.27836433880E+04 0.  0.
        5    1    3    3  502    0 -0.71930386498E+03 -0.79440512976E+03  0.97498923661E+03  0.14488283756E+04  0.46999998093E+01 0. -1.
       -5    1    3    3    0  502  0.71930386498E+03  0.79440512976E+03 -0.80447935991E+03  0.13400323470E+04  0.46999998093E+01 0.  1.
</event>
<event>
 5   0  0.1075146E-05  0.2767814E+04  0.7818609E-02  0.8313331E-01
        1   -1    0    0  501    0  0.00000000000E+00  0.00000000000E+00  0.23050388555E+04  0.23050388555E+04  0.50400001928E-02 0.  1.
       -1   -1    0    0    0  501  0.00000000000E+00  0.00000000000E+00 -0.83087487588E+03  0.83087487590E+03  0.50400001928E-02 0. -1.
    10030    2    1    2    0    0  0.00000000000E+00  0.00000000000E+00  0.14741639796E+04  0.31359137314E+04  0.27678142084E+04 0.  0.
        2    1    3    3  502    0  0.11207022547E+04 -0.79769193684E+03  0.90858321710E+03  0.16485780031E+04  0.25500000920E-02 0.  1.
       -2    1    3    3    0  502 -0.11207022547E+04  0.79769193684E+03  0.56558076251E+03  0.14873357283E+04  0.25500000920E-02 0. -1.
</event>
<event>
 5   0  0.2518686E-05  0.2788896E+04  0.7818609E-02  0.8306724E-01
       -2   -1    0    0    0  501  0.00000000000E+00  0.00000000000E+00  0.14688313290E+04  0.14688313290E+04  0.25500000920E-02 0.  1.
        2   -1    0    0  501    0  0.00000000000E+00  0.00000000000E+00 -0.13238315547E+04  0.13238315547E+04  0.25500000920E-02 0. -1.
    10030    2    1    2    0    0  0.00000000000E+00  0.00000000000E+00  0.14499977434E+03  0.27926628837E+04  0.27888960267E+04 0.  0.
        5    1    3    3  502    0 -0.96458897943E+03  0.98878239029E+03  0.26338962365E+03  0.14062427594E+04  0.46999998093E+01 0.  1.
       -5    1    3    3    0  502  0.96458897943E+03 -0.98878239029E+03 -0.11838984932E+03  0.13864201243E+04  0.46999998093E+01 0. -1.
</event>
<event>
 5   0  0.1105862E-05  0.2714996E+04  0.7818609E-02  0.8330156E-01
       -1   -1    0    0    0  501  0.00000000000E+00  0.00000000000E+00  0.77176441985E+03  0.77176441987E+03  0.50400001928E-02 0.  1.
        1   -1    0    0  501    0  0.00000000000E+00  0.00000000000E+00 -0.23877761531E+04  0.23877761531E+04  0.50400001928E-02 0. -1.
    10030    2    1    2    0    0  0.00000000000E+00  0.00000000000E+00 -0.16160117333E+04  0.31595405730E+04  0.27149958951E+04 0.  0.
        3    1    3    3  502    0  0.13377709165E+04 -0.15276066584E+03 -0.10090119502E+04  0.16825789645E+04  0.10100000352E+00 0. -1.
       -3    1    3    3    0  502 -0.13377709165E+04  0.15276066584E+03 -0.60699978312E+03  0.14769616085E+04  0.10100000352E+00 0.  1.
</event>
<event>
 5   0  0.1067434E-05  0.2799445E+04  0.7818609E-02  0.8303441E-01
        1   -1    0    0  501    0  0.00000000000E+00  0.00000000000E+00  0.20706360294E+04  0.20706360294E+04  0.50400001928E-02 0.  1.
       -1   -1    0    0    0  501  0.00000000000E+00  0.00000000000E+00 -0.94619367584E+03  0.94619367586E+03  0.50400001928E-02 0. -1.
    10030    2    1    2    0    0  0.00000000000E+00  0.00000000000E+00  0.11244423536E+04  0.30168297053E+04  0.27994447421E+04 0.  0.
        4    1    3    3  502    0  0.93847922183E+03 -0.29369239600E+03  0.16356752301E+04  0.19085160582E+04  0.12699999809E+01 0.  1.
       -4    1    3    3    0  502 -0.93847922183E+03  0.29369239600E+03 -0.51123287653E+03  0.11083136470E+04  0.12699999809E+01 0. -1.
</event>
<event>
 5   0  0.1105862E-05  0.2842983E+04  0.7818609E-02  0.8290047E-01
        1   -1    0    0  501    0  0.00000000000E+00  0.00000000000E+00  0.15327694274E+04  0.15327694274E+04  0.50400001928E-02 0.  1.
       -1   -1    0    0    0  501  0.00000000000E+00  0.00000000000E+00 -0.13182919440E+04  0.13182919440E+04  0.50400001928E-02 0. -1.
    10030    2    1    2    0    0  0.00000000000E+00  0.00000000000E+00  0.21447748340E+03  0.28510613713E+04  0.28429826507E+04 0.  0.
        3    1    3    3  502    0 -0.12368633929E+04 -0.70410986812E+02 -0.59177052284E+03  0.13729461466E+04  0.10100000352E+00 0. -1.
       -3    1    3    3    0  502  0.12368633929E+04  0.70410986812E+02  0.80624800624E+03  0.14781152247E+04  0.10100000352E+00 0.  1.
</event>
<event>
 5   0  0.1105862E-05  0.2877112E+04  0.7818609E-02  0.8279720E-01
       -1   -1    0    0    0  501  0.00000000000E+00  0.00000000000E+00  0.85583672722E+03  0.85583672723E+03  0.50400001928E-02 0.  1.
        1   -1    0    0  501    0  0.00000000000E+00  0.00000000000E+00 -0.24180351941E+04  0.24180351941E+04  0.50400001928E-02 0. -1.
    10030    2    1    2    0    0  0.00000000000E+00  0.00000000000E+00 -0.15621984669E+04  0.32738719213E+04  0.28771119734E+04 0.  0.
        3    1    3    3  502    0  0.56087667000E+03  0.69958318095E+03  0.49894917796E+03  0.10261333044E+04  0.10100000352E+00 0.  1.
       -3    1    3    3    0  502 -0.56087667000E+03 -0.69958318095E+03 -0.20611476448E+04  0.22477386169E+04  0.10100000352E+00 0. -1.
</event>
<event>
 5   0  0.2588048E-05  0.2124977E+04  0.7818609E-02  0.8550320E-01
        2   -1    0    0  501    0  0.00000000000E+00  0.00000000000E+00  0.12660565666E+04  0.12660565667E+04  0.25500000920E-02 0. -1.
       -2   -1    0    0    0  501  0.00000000000E+00  0.00000000000E+00 -0.89165225492E+03  0.89165225493E+03  0.25500000920E-02 0.  1.
    10030    2    1    2    0    0  0.00000000000E+00  0.00000000000E+00  0.37440431172E+03  0.21577088216E+04  0.21249773575E+04 0.  0.
        2    1    3    3  502    0  0.93310713662E+02 -0.72639992722E+03  0.96881100730E+03  0.12144786994E+04  0.25500000920E-02 0. -1.
       -2    1    3    3    0  502 -0.93310713662E+02  0.72639992722E+03 -0.59440669557E+03  0.94323012213E+03  0.25500000920E-02 0.  1.
</event>
<event>
 5   0  0.1017456E-05  0.1461491E+04  0.7818609E-02  0.8910473E-01
       -1   -1    0    0    0  501  0.00000000000E+00  0.00000000000E+00  0.20968753625E+03  0.20968753631E+03  0.50400001928E-02 0. -1.
        1   -1    0    0  501    0  0.00000000000E+00  0.00000000000E+00 -0.25465937512E+04  0.25465937512E+04  0.50400001928E-02 0.  1.
    10030    2    1    2    0    0  0.00000000000E+00  0.00000000000E+00 -0.23369062150E+04  0.27562812875E+04  0.14614909779E+04 0.  0.
        5    1    3    3  502    0 -0.58534796234E+03 -0.29652097871E+03 -0.56198416446E+03  0.86394746306E+03  0.46999998093E+01 0.  1.
       -5    1    3    3    0  502  0.58534796234E+03  0.29652097871E+03 -0.17749220505E+04  0.18923338245E+04  0.46999998093E+01 0. -1.
</event>
<event>
 5   0  0.1075146E-05  0.2846827E+04  0.7818609E-02  0.8288876E-01
       -1   -1    0    0    0  501  0.00000000000E+00  0.00000000000E+00  0.29367989717E+04  0.29367989717E+04  0.50400001928E-02 0. -1.
        1   -1    0    0  501    0  0.00000000000E+00  0.00000000000E+00 -0.68990308673E+03  0.68990308675E+03  0.50400001928E-02 0.  1.
    10030    2    1    2    0    0  0.00000000000E+00  0.00000000000E+00  0.22468958850E+04  0.36267020584E+04  0.28468274803E+04 0.  0.
        2    1    3    3  502    0 -0.62963031362E+03  0.75181163373E+03 -0.19091011311E+03  0.99905041702E+03  0.25500000920E-02 0.  1.
       -2    1    3    3    0  502  0.62963031362E+03 -0.75181163373E+03  0.24378059981E+04  0.26276516414E+04  0.25500000920E-02 0. -1.
</event>
<event>
 5   0  0.1105862E-05  0.2668556E+04  0.7818609E-02  0.8345280E-01
       -1   -1    0    0    0  501  0.00000000000E+00  0.00000000000E+00  0.12796762141E+04  0.12796762141E+04  0.50400001928E-02 0.  1.
        1   -1    0    0  501    0  0.00000000000E+00  0.00000000000E+00 -0.13912092492E+04  0.13912092492E+04  0.50400001928E-02 0. -1.
    10030    2    1    2    0    0  0.00000000000E+00  0.00000000000E+00 -0.11153303511E+03  0.26708854634E+04  0.26685557031E+04 0.  0.
        3    1    3    3  502    0  0.47684276372E+03  0.11587614062E+04  0.40309896073E+03  0.13162810491E+04  0.10100000352E+00 0.  1.
       -3    1    3    3    0  502 -0.47684276372E+03 -0.11587614062E+04 -0.51463199584E+03  0.13546044143E+04  0.10100000352E+00 0. -1.
</event>
<event>
 5   0  0.2697964E-05  0.1954395E+04  0.7818609E-02  0.8628244E-01
        2   -1    0    0  501    0  0.00000000000E+00  0.00000000000E+00  0.15331322809E+04  0.15331322809E+04  0.25500000920E-02 0. -1.
       -2   -1    0    0    0  501  0.00000000000E+00  0.00000000000E+00 -0.62285235409E+03  0.62285235410E+03  0.25500000920E-02 0.  1.
    10030    2    1    2    0    0  0.00000000000E+00  0.00000000000E+00  0.91027992680E+03  0.21559846350E+04  0.19543950985E+04 0.  0.
        1    1    3    3  502    0 -0.86960715292E+03 -0.10060108829E+03  0.93418755457E+03  0.12802513685E+04  0.50400001928E-02 0. -1.
       -1    1    3    3    0  502  0.86960715292E+03  0.10060108829E+03 -0.23907627776E+02  0.87573326651E+03  0.50400001928E-02 0.  1.
</event>
<event>
 5   0  0.2588048E-05  0.2626286E+04  0.7818609E-02  0.8359327E-01
        2   -1    0    0  501    0  0.00000000000E+00  0.00000000000E+00  0.12816920387E+04  0.12816920387E+04  0.25500000920E-02 0.  1.
       -2   -1    0    0    0  501  0.00000000000E+00  0.00000000000E+00 -0.13453657969E+04  0.13453657969E+04  0.25500000920E-02 0. -1.
    10030    2    1    2    0    0  0.00000000000E+00  0.00000000000E+00 -0.63673758220E+02  0.26270578355E+04  0.26262860704E+04 0.  0.
        2    1    3    3  502    0  0.32205714551E+03 -0.11300362764E+04  0.55454510906E+03  0.12993163852E+04  0.25500000920E-02 0.  1.
       -2    1    3    3    0  502 -0.32205714551E+03  0.11300362764E+04 -0.61821886728E+03  0.13277414503E+04  0.25500000920E-02 0. -1.
</event>
<event>
 5   0  0.1105862E-05  0.2699595E+04  0.7818609E-02  0.8335136E-01
       -1   -1    0    0    0  501  0.00000000000E+00  0.00000000000E+00  0.10574839847E+04  0.10574839848E+04  0.50400001928E-02 0. -1.
        1   -1    0    0  501    0  0.00000000000E+00  0.00000000000E+00 -0.17229131436E+04  0.17229131436E+04  0.50400001928E-02 0.  1.
    10030    2    1    2    0    0  0.00000000000E+00  0.00000000000E+00 -0.66542915886E+03  0.27803971284E+04  0.26995948263E+04 0.  0.
        3    1    3    3  502    0 -0.92258605564E+03 -0.91880912384E+03 -0.69914121342E+03  0.14778950175E+04  0.10100000352E+00 0.  1.
       -3    1    3    3    0  502  0.92258605564E+03  0.91880912384E+03  0.33712054562E+02  0.13025021109E+04  0.10100000352E+00 0. -1.
</event>
<event>
 5   0  0.2697964E-05  0.2736685E+04  0.7818609E-02  0.8323199E-01
       -2   -1    0    0    0  501  0.00000000000E+00  0.00000000000E+00  0.15673063284E+04  0.15673063284E+04  0.25500000920E-02 0. -1.
        2   -1    0    0  501    0  0.00000000000E+00  0.00000000000E+00 -0.11946363945E+04  0.11946363945E+04  0.25500000920E-02 0.  1.
    10030    2    1    2    0    0  0.00000000000E+00  0.00000000000E+00  0.37266993388E+03  0.27619427230E+04  0.27366849883E+04 0.  0.
        1    1    3    3  502    0  0.11303089371E+04  0.70348763720E+03 -0.13260071098E+03  0.13379372547E+04  0.50400001928E-02 0.  1.
       -1    1    3    3    0  502 -0.11303089371E+04 -0.70348763720E+03  0.50527064487E+03  0.14240054682E+04  0.50400001928E-02 0. -1.
</event>
<event>
 5   0  0.1078103E-05  0.1935803E+04  0.7818609E-02  0.8637237E-01
        1   -1    0    0  501    0  0.00000000000E+00  0.00000000000E+00  0.13471134921E+04  0.13471134921E+04  0.50400001928E-02 0.  1.
       -1   -1    0    0    0  501  0.00000000000E+00  0.00000000000E+00 -0.69543737059E+03  0.69543737061E+03  0.50400001928E-02 0. -1.
    10030    2    1    2    0    0  0.00000000000E+00  0.00000000000E+00  0.65167612147E+03  0.20425508627E+04  0.19358027429E+04 0.  0.
        1    1    3    3  502    0 -0.71461910352E+03  0.65061857377E+03  0.38214829704E+03  0.10392412196E+04  0.50400001928E-02 0. -1.
       -1    1    3    3    0  502  0.71461910352E+03 -0.65061857377E+03  0.26952782444E+03  0.10033096430E+04  0.50400001928E-02 0.  1.
</event>
<event>
 5   0  0.1105862E-05  0.2842701E+04  0.7818609E-02  0.8290133E-01
        1   -1    0    0  501    0  0.00000000000E+00  0.00000000000E+00  0.24771493608E+04  0.24771493608E+04  0.50400001928E-02 0. -1.
       -1   -1    0    0    0  501  0.00000000000E+00  0.00000000000E+00 -0.81554908774E+03  0.81554908776E+03  0.50400001928E-02 0.  1.
    10030    2    1    2    0    0  0.00000000000E+00  0.00000000000E+00  0.16616002730E+04  0.32926984485E+04  0.28427007591E+04 0.  0.
        3    1    3    3  502    0 -0.52176697888E+02  0.62370882966E+03  0.23089379672E+04  0.23922645461E+04  0.10100000352E+00 0. -1.
       -3    1    3    3    0  502  0.52176697888E+02 -0.62370882966E+03 -0.64733769422E+03  0.90043390238E+03  0.10100000352E+00 0.  1.
</event>
<event>
 5   0  0.2624815E-05  0.2726416E+04  0.7818609E-02  0.8326485E-01
        2   -1    0    0  501    0  0.00000000000E+00  0.00000000000E+00  0.10795054592E+04  0.10795054592E+04  0.25500000920E-02 0.  1.
       -2   -1    0    0    0  501  0.00000000000E+00  0.00000000000E+00 -0.17214694774E+04  0.17214694774E+04  0.25500000920E-02 0. -1.
    10030    2    1    2    0    0  0.00000000000E+00  0.00000000000E+00 -0.64196401827E+03  0.28009749366E+04  0.27264157414E+04 0.  0.
        4    1    3    3  502    0  0.82162384917E+02  0.72264510022E+03 -0.15054945651E+04  0.16719695263E+04  0.12699999809E+01 0. -1.
       -4    1    3    3    0  502 -0.82162384917E+02 -0.72264510022E+03  0.86353054682E+03  0.11290054103E+04  0.12699999809E+01 0.  1.
</event>
<event>
 5   0  0.2518686E-05  0.2891806E+04  0.7818609E-02  0.8275320E-01
       -2   -1    0    0    0  501  0.00000000000E+00  0.00000000000E+00  0.99991143720E+03  0.99991143721E+03  0.25500000920E-02 0.  1.
        2   -1    0    0  501    0  0.00000000000E+00  0.00000000000E+00 -0.20908202687E+04  0.20908202687E+04  0.25500000920E-02 0. -1.
    10030    2    1    2    0    0  0.00000000000E+00  0.00000000000E+00 -0.10909088315E+04  0.30907317059E+04  0.28918057333E+04 0.  0.
        5    1    3    3  502    0 -0.13077413003E+04 -0.45547262522E+03 -0.10094795876E+03  0.13884722544E+04  0.46999998093E+01 0.  1.
       -5    1    3    3    0  502  0.13077413003E+04  0.45547262522E+03 -0.98996087271E+03  0.17022594515E+04  0.46999998093E+01 0. -1.
</event>
<event>
 5   0  0.2697964E-05  0.2813103E+04  0.7818609E-02  0.8299212E-01
       -2   -1    0    0    0  501  0.00000000000E+00  0.00000000000E+00  0.82565619480E+03  0.82565619480E+03  0.25500000920E-02 0. -1.
        2   -1    0    0  501    0  0.00000000000E+00  0.00000000000E+00 -0.23961396867E+04  0.23961396867E+04  0.25500000920E-02 0.  1.
    10030    2    1    2    0    0  0.00000000000E+00  0.00000000000E+00 -0.15704834919E+04  0.32217958815E+04  0.28131033226E+04 0.  0.
        1    1    3    3  502    0 -0.10711135463E+03  0.95341996212E+03  0.39273222901E+03  0.10366875470E+04  0.50400001928E-02 0. -1.
       -1    1    3    3    0  502  0.10711135463E+03 -0.95341996212E+03 -0.19632157209E+04  0.21851083345E+04  0.50400001928E-02 0.  1.
</event>
<event>
 5   0  0.2518686E-05  0.2796204E+04  0.7818609E-02  0.8304448E-01
        2   -1    0    0  501    0  0.00000000000E+00  0.00000000000E+00  0.14157243504E+04  0.14157243504E+04  0.25500000920E-02 0. -1.
       -2   -1    0    0    0  501  0.00000000000E+00  0.00000000000E+00 -0.13806986795E+04  0.13806986795E+04  0.25500000920E-02 0.  1.
    10030    2    1    2    0    0  0.00000000000E+00  0.00000000000E+00  0.35025670893E+02  0.27964230299E+04  0.27962036701E+04 0.  0.
        5    1    3    3  502    0  0.94185006140E+03  0.14514014607E+03  0.10405884214E+04  0.14110257095E+04  0.46999998093E+01 0. -1.
       -5    1    3    3    0  502 -0.94185006140E+03 -0.14514014607E+03 -0.10055627505E+04  0.13853973204E+04  0.46999998093E+01 0.  1.
</event>
<event>
 5   0  0.2624815E-05  0.2784639E+04  0.7818609E-02  0.8308053E-01
       -2   -1    0    0    0  501  0.00000000000E+00  0.00000000000E+00  0.82653203857E+03  0.82653203858E+03  0.25500000920E-02 0.  1.
        2   -1    0    0  501    0  0.00000000000E+00  0.00000000000E+00 -0.23454058102E+04  0.23454058102E+04  0.25500000920E-02 0. -1.
    10030    2    1    2    0    0  0.00000000000E+00  0.00000000000E+00 -0.15188737716E+04  0.31719378488E+04  0.27846386089E+04 0.  0.
        4    1    3    3  502    0 -0.23818073640E+03  0.13710748128E+04 -0.70881196479E+03  0.15617273193E+04  0.12699999809E+01 0.  1.
       -4    1    3    3    0  502  0.23818073640E+03 -0.13710748128E+04 -0.81006180683E+03  0.16102105295E+04  0.12699999809E+01 0. -1.
</event>
<event>
 5   0  0.1105862E-05  0.2771458E+04  0.7818609E-02  0.8312185E-01
        1   -1    0    0  501    0  0.00000000000E+00  0.00000000000E+00  0.11057553776E+04  0.11057553776E+04  0.50400001928E-02 0. -1.
       -1   -1    0    0    0  501  0.00000000000E+00  0.00000000000E+00 -0.17365912275E+04  0.17365912275E+04  0.50400001928E-02 0.  1.
    10030    2    1    2    0    0  0.00000000000E+00  0.00000000000E+00 -0.63083584987E+03  0.28423466051E+04  0.27714581638E+04 0.  0.
        3    1    3    3  502    0  0.27812710875E+03  0.10342206355E+04 -0.12172725877E+04  0.16213326538E+04  0.10100000352E+00 0.  1.
       -3    1    3    3    0  502 -0.27812710875E+03 -0.10342206355E+04  0.58643673779E+03  0.12210139512E+04  0.10100000352E+00 0. -1.
</event>
<event>
 5   0  0.1105862E-05  0.2906889E+04  0.7818609E-02  0.8270831E-01
       -1   -1    0    0    0  501  0.00000000000E+00  0.00000000000E+00  0.17734810692E+04  0.17734810692E+04  0.50400001928E-02 0. -1.
        1   -1    0    0  501    0  0.00000000000E+00  0.00000000000E+00 -0.11911610090E+04  0.11911610090E+04  0.50400001928E-02 0.  1.
    10030    2    1    2    0    0  0.00000000000E+00  0.00000000000E+00  0.58232006027E+03  0.29646420782E+04  0.29068894027E+04 0.  0.
        3    1    3    3  502    0  0.10411905329E+04  0.26979596342E+03  0.12881471184E+04  0.16781509457E+04  0.10100000352E+00 0. -1.
       -3    1    3    3    0  502 -0.10411905329E+04 -0.26979596342E+03 -0.70582705817E+03  0.12864911325E+04  0.10100000352E+00 0.  1.
</event>
<event>
 5   0  0.2651061E-05  0.2852665E+04  0.7818609E-02  0.8287102E-01
        2   -1    0    0  501    0  0.00000000000E+00  0.00000000000E+00  0.22966588437E+04  0.22966588437E+04  0.25500000920E-02 0. -1.
       -2   -1    0    0    0  501  0.00000000000E+00  0.00000000000E+00 -0.88581892627E+03  0.88581892627E+03  0.25500000920E-02 0.  1.
    10030    2    1    2    0    0  0.00000000000E+00  0.00000000000E+00  0.14108399175E+04  0.31824777700E+04  0.28526646287E+04 0.  0.
        3    1    3    3  502    0 -0.12360149746E+04 -0.65183654111E+03  0.10244938185E+04  0.17326890916E+04  0.10100000352E+00 0. -1.
       -3    1    3    3    0  502  0.12360149746E+04  0.65183654111E+03  0.38634609901E+03  0.14497886785E+04  0.10100000352E+00 0.  1.
</event>
<event>
 5   0  0.2624815E-05  0.2616361E+04  0.7818609E-02  0.8362665E-01
       -2   -1    0    0    0  501  0.00000000000E+00  0.00000000000E+00  0.12523281017E+04  0.12523281017E+04  0.25500000920E-02 0.  1.
        2   -1    0    0  501    0  0.00000000000E+00  0.00000000000E+00 -0.13665238708E+04  0.13665238708E+04  0.25500000920E-02 0. -1.
    10030    2    1    2    0    0  0.00000000000E+00  0.00000000000E+00 -0.11419576916E+03  0.26188519725E+04  0.26163610187E+04 0.  0.
        4    1    3    3  502    0 -0.14246685011E+03  0.54363616877E+03  0.11253385945E+04  0.12578655145E+04  0.12699999809E+01 0.  1.
       -4    1    3    3    0  502  0.14246685011E+03 -0.54363616877E+03 -0.12395343636E+04  0.13609864580E+04  0.12699999809E+01 0. -1.
</event>
<event>
 5   0  0.1075146E-05  0.2797533E+04  0.7818609E-02  0.8304035E-01
        1   -1    0    0  501    0  0.00000000000E+00  0.00000000000E+00  0.18578756221E+04  0.18578756221E+04  0.50400001928E-02 0. -1.
       -1   -1    0    0    0  501  0.00000000000E+00  0.00000000000E+00 -0.10531100905E+04  0.10531100905E+04  0.50400001928E-02 0.  1.
    10030    2    1    2    0    0  0.00000000000E+00  0.00000000000E+00  0.80476553157E+03  0.29109857127E+04  0.27975328878E+04 0.  0.
        2    1    3    3  502    0 -0.53817635043E+03 -0.88930957129E+03 -0.57154647089E+03  0.11862422460E+04  0.25500000920E-02 0.  1.
       -2    1    3    3    0  502  0.53817635043E+03  0.88930957129E+03  0.13763120025E+04  0.17247434667E+04  0.25500000920E-02 0. -1.
</event>
<event>
 5   0  0.1078103E-05  0.2697172E+04  0.7818609E-02  0.8335923E-01
       -1   -1    0    0    0  501  0.00000000000E+00  0.00000000000E+00  0.15810801685E+04  0.15810801685E+04  0.50400001928E-02 0. -1.
        1   -1    0    0  501    0  0.00000000000E+00  0.00000000000E+00 -0.11502794426E+04  0.11502794427E+04  0.50400001928E-02 0.  1.
    10030    2    1    2    0    0  0.00000000000E+00  0.00000000000E+00  0.43080072586E+03  0.27313596112E+04  0.26971718633E+04 0.  0.
        1    1    3    3  502    0  0.97303719483E+03  0.82121395562E+03  0.66543207316E+03  0.14366605679E+04  0.50400001928E-02 0. -1.
       -1    1    3    3    0  502 -0.97303719483E+03 -0.82121395562E+03 -0.23463134730E+03  0.12946990432E+04  0.50400001928E-02 0.  1.
</event>
<event>
 5   0  0.1075146E-05  0.2882710E+04  0.7818609E-02  0.8278040E-01
        1   -1    0    0  501    0  0.00000000000E+00  0.00000000000E+00  0.99437133596E+03  0.99437133598E+03  0.50400001928E-02 0.  1.
       -1   -1    0    0    0  501  0.00000000000E+00  0.00000000000E+00 -0.20892638269E+04  0.20892638269E+04  0.50400001928E-02 0. -1.
    10030    2    1    2    0    0  0.00000000000E+00  0.00000000000E+00 -0.10948924909E+04  0.30836351629E+04  0.28827098798E+04 0.  0.
        2    1    3    3  502    0  0.62442014326E+03 -0.23114284498E+03 -0.19148965036E+04  0.20273520044E+04  0.25500000920E-02 0. -1.
       -2    1    3    3    0  502 -0.62442014326E+03  0.23114284498E+03  0.82000401269E+03  0.10562831585E+04  0.25500000920E-02 0.  1.
</event>
<event>
 5   0  0.2624815E-05  0.2738390E+04  0.7818609E-02  0.8322655E-01
        2   -1    0    0  501    0  0.00000000000E+00  0.00000000000E+00  0.27740537094E+04  0.27740537094E+04  0.25500000920E-02 0. -1.
       -2   -1    0    0    0  501  0.00000000000E+00  0.00000000000E+00 -0.67579617604E+03  0.67579617605E+03  0.25500000920E-02 0.  1.
    10030    2    1    2    0    0  0.00000000000E+00  0.00000000000E+00  0.20982575333E+04  0.34498498854E+04  0.27383899568E+04 0.  0.
        4    1    3    3  502    0  0.42865186458E+03 -0.62018834164E+03 -0.39076098192E+03  0.84915944204E+03  0.12699999809E+01 0.  1.
       -4    1    3    3    0  502 -0.42865186458E+03  0.62018834164E+03  0.24890185152E+04  0.26006904434E+04  0.12699999809E+01 0. -1.
</event>
<event>
 5   0  0.2624815E-05  0.2795076E+04  0.7818609E-02  0.8304799E-01
        2   -1    0    0  501    0  0.00000000000E+00  0.00000000000E+00  0.12468570008E+04  0.12468570008E+04  0.25500000920E-02 0.  1.
       -2   -1    0    0    0  501  0.00000000000E+00  0.00000000000E+00 -0.15664286837E+04  0.15664286837E+04  0.25500000920E-02 0. -1.
    10030    2    1    2    0    0  0.00000000000E+00  0.00000000000E+00 -0.31957168285E+03  0.28132856845E+04  0.27950760781E+04 0.  0.
        4    1    3    3  502    0  0.10684023523E+04 -0.88772917698E+03 -0.31429253108E+03  0.14241938372E+04  0.12699999809E+01 0.  1.
       -4    1    3    3    0  502 -0.10684023523E+04  0.88772917698E+03 -0.52791517658E+01  0.13890918473E+04  0.12699999809E+01 0. -1.
</event>
<event>
 5   0  0.2518686E-05  0.1920966E+04  0.7818609E-02  0.8644490E-01
       -2   -1    0    0    0  501  0.00000000000E+00  0.00000000000E+00  0.66643590120E+03  0.66643590120E+03  0.25500000920E-02 0.  1.
        2   -1    0    0  501    0  0.00000000000E+00  0.00000000000E+00 -0.13842701569E+04  0.13842701569E+04  0.25500000920E-02 0. -1.
    10030    2    1    2    0    0  0.00000000000E+00  0.00000000000E+00 -0.71783425568E+03  0.20507060581E+04  0.19209657254E+04 0.  0.
        5    1    3    3  502    0 -0.21071016419E+03 -0.37776359579E+03  0.55655672611E+03  0.70489828129E+03  0.46999998093E+01 0.  1.
       -5    1    3    3    0  502  0.21071016419E+03  0.37776359579E+03 -0.12743909818E+04  0.13458077768E+04  0.46999998093E+01 0. -1.
</event>
<event>
 5   0  0.1105862E-05  0.2761582E+04  0.7818609E-02  0.8315296E-01
        1   -1    0    0  501    0  0.00000000000E+00  0.00000000000E+00  0.17393333745E+04  0.17393333745E+04  0.50400001928E-02 0. -1.
       -1   -1    0    0    0  501  0.00000000000E+00  0.00000000000E+00 -0.10961577647E+04  0.10961577647E+04  0.50400001928E-02 0.  1.
    10030    2    1    2    0    0  0.00000000000E+00  0.00000000000E+00  0.64317560980E+03  0.28354911391E+04  0.27615819986E+04 0.  0.
        3    1    3    3  502    0 -0.33249466343E+03 -0.98585605158E+03 -0.61051817284E+03  0.12063155910E+04  0.10100000352E+00 0.  1.
       -3    1    3    3    0  502  0.33249466343E+03  0.98585605158E+03  0.12536937826E+04  0.16291755481E+04  0.10100000352E+00 0. -1.
</event>
<event>
 5   0  0.1075146E-05  0.2765884E+04  0.7818609E-02  0.8313939E-01
       -1   -1    0    0    0  501  0.00000000000E+00  0.00000000000E+00  0.12745275122E+04  0.12745275122E+04  0.50400001928E-02 0.  1.
        1   -1    0    0  501    0  0.00000000000E+00  0.00000000000E+00 -0.15005787457E+04  0.15005787457E+04  0.50400001928E-02 0. -1.
    10030    2    1    2    0    0  0.00000000000E+00  0.00000000000E+00 -0.22605123351E+03  0.27751062578E+04  0.27658842315E+04 0.  0.
        2    1    3    3  502    0  0.98160438156E+03  0.48060987418E+03 -0.96319722060E+03  0.14568053744E+04  0.25500000920E-02 0. -1.
       -2    1    3    3    0  502 -0.98160438156E+03 -0.48060987418E+03  0.73714598709E+03  0.13183008835E+04  0.25500000920E-02 0.  1.
</event>
<event>
 5   0  0.2697964E-05  0.2622338E+04  0.7818609E-02  0.8360653E-01
       -2   -1    0    0    0  501  0.00000000000E+00  0.00000000000E+00  0.11745368712E+04  0.11745368712E+04  0.25500000920E-02 0.  1.
        2   -1    0    0  501    0  0.00000000000E+00  0.00000000000E+00 -0.14636950761E+04  0.14636950761E+04  0.25500000920E-02 0. -1.
    10030    2    1    2    0    0  0.00000000000E+00  0.00000000000E+00 -0.28915820490E+03  0.26382319473E+04  0.26223377625E+04 0.  0.
        1    1    3    3  502    0 -0.93151883938E+03 -0.86757265102E+03 -0.46073558743E+03  0.13537676811E+04  0.50400001928E-02 0.  1.
       -1    1    3    3    0  502  0.93151883938E+03  0.86757265102E+03  0.17157738253E+03  0.12844642662E+04  0.50400001928E-02 0. -1.
</event>
<event>
 5   0  0.1067434E-05  0.2632119E+04  0.7818609E-02  0.8357372E-01
       -1   -1    0    0    0  501  0.00000000000E+00  0.00000000000E+00  0.16619555138E+04  0.16619555138E+04  0.50400001928E-02 0.  1.
        1   -1    0    0  501    0  0.00000000000E+00  0.00000000000E+00 -0.10421530742E+04  0.10421530742E+04  0.50400001928E-02 0. -1.
    10030    2    1    2    0    0  0.00000000000E+00  0.00000000000E+00  0.61980243962E+03  0.27041085880E+04  0.26321185747E+04 0.  0.
        4    1    3    3  502    0  0.84474886377E+03  0.10082039309E+04  0.35508860123E+03  0.13624115886E+04  0.12699999809E+01 0. -1.
       -4    1    3    3    0  502 -0.84474886377E+03 -0.10082039309E+04  0.26471383839E+03  0.13416969994E+04  0.12699999809E+01 0.  1.
</event>
<event>
 5   0  0.2624815E-05  0.2736120E+04  0.7818609E-02  0.8323379E-01
        2   -1    0    0  501    0  0.00000000000E+00  0.00000000000E+00  0.12583200715E+04  0.12583200715E+04  0.25500000920E-02 0. -1.
       -2   -1    0    0    0  501  0.00000000000E+00  0.00000000000E+00 -0.14873710478E+04  0.14873710478E+04  0.25500000920E-02 0.  1.
    10030    2    1    2    0    0  0.00000000000E+00  0.00000000000E+00 -0.22905097636E+03  0.27456911193E+04  0.27361204968E+04 0.  0.
        4    1    3    3  502    0  0.45311202737E+03  0.98052894379E+03  0.72795847330E+03  0.13025638835E+04  0.12699999809E+01 0. -1.
       -4    1    3    3    0  502 -0.45311202737E+03 -0.98052894379E+03 -0.95700944965E+03  0.14431272358E+04  0.12699999809E+01 0.  1.
</event>
<event>
 5   0  0.8958000E-06  0.2689280E+04  0.7818609E-02  0.8338492E-01
        3   -1    0    0  501    0  0.00000000000E+00  0.00000000000E+00  0.13415807407E+04  0.13415807445E+04  0.10100000352E+00 0. -1.
       -3   -1    0    0    0  501  0.00000000000E+00  0.00000000000E+00 -0.13477057652E+04  0.13477057690E+04  0.10100000352E+00 0.  1.
    10030    2    1    2    0    0  0.00000000000E+00  0.00000000000E+00 -0.61250245453E+01  0.26892865134E+04  0.26892795384E+04 0.  0.
        5    1    3    3  502    0 -0.62240690505E+03 -0.11906306696E+04  0.52094424868E+02  0.13445176332E+04  0.46999998093E+01 0. -1.
       -5    1    3    3    0  502  0.62240690505E+03  0.11906306696E+04 -0.58219449413E+02  0.13447688802E+04  0.46999998093E+01 0.  1.
</event>
<event>
 5   0  0.2588048E-05  0.2785554E+04  0.7818609E-02  0.8307767E-01
        2   -1    0    0  501    0  0.00000000000E+00  0.00000000000E+00  0.14682111440E+04  0.14682111440E+04  0.25500000920E-02 0.  1.
       -2   -1    0    0    0  501  0.00000000000E+00  0.00000000000E+00 -0.13212189704E+04  0.13212189704E+04  0.25500000920E-02 0. -1.
    10030    2    1    2    0    0  0.00000000000E+00  0.00000000000E+00  0.14699217362E+03  0.27894301144E+04  0.27855544626E+04 0.  0.
        2    1    3    3  502    0 -0.37521056885E+03 -0.13227689291E+04 -0.14891156612E+03  0.13829950345E+04  0.25500000920E-02 0. -1.
       -2    1    3    3    0  502  0.37521056885E+03  0.13227689291E+04  0.29590373974E+03  0.14064350799E+04  0.25500000920E-02 0.  1.
</event>
<event>
 5   0  0.1067434E-05  0.2017127E+04  0.7818609E-02  0.8598655E-01
       -1   -1    0    0    0  501  0.00000000000E+00  0.00000000000E+00  0.13127999702E+04  0.13127999702E+04  0.50400001928E-02 0.  1.
        1   -1    0    0  501    0  0.00000000000E+00  0.00000000000E+00 -0.77483303066E+03  0.77483303068E+03  0.50400001928E-02 0. -1.
    10030    2    1    2    0    0  0.00000000000E+00  0.00000000000E+00  0.53796693955E+03  0.20876330009E+04  0.20171274423E+04 0.  0.
        4    1    3    3  502    0  0.43463048321E+02  0.49642465931E+03  0.11764863930E+04  0.12776730116E+04  0.12699999809E+01 0.  1.
       -4    1    3    3    0  502 -0.43463048321E+02 -0.49642465931E+03 -0.63851945340E+03  0.80995998927E+03  0.12699999809E+01 0. -1.
</event>
<event>
 5   0  0.2624815E-05  0.2815374E+04  0.7818609E-02  0.8298511E-01
        2   -1    0    0  501    0  0.00000000000E+00  0.00000000000E+00  0.20039927920E+04  0.20039927920E+04  0.25500000920E-02 0. -1.
       -2   -1    0    0    0  501  0.00000000000E+00  0.00000000000E+00 -0.98881721810E+03  0.98881721810E+03  0.25500000920E-02 0.  1.
    10030    2    1    2    0    0  0.00000000000E+00  0.00000000000E+00  0.10151755739E+04  0.29928100101E+04  0.28153739203E+04 0.  0.
        4    1    3    3  502    0 -0.69162417370E+03 -0.70233543538E+02 -0.79360924914E+03  0.10550327016E+04  0.12699999809E+01 0.  1.
       -4    1    3    3    0  502  0.69162417370E+03  0.70233543538E+02  0.18087848231E+04  0.19377773085E+04  0.12699999809E+01 0. -1.
</event>
<event>
 5   0  0.1105862E-05  0.2357902E+04  0.7818609E-02  0.8455435E-01
        1   -1    0    0  501    0  0.00000000000E+00  0.00000000000E+00  0.20790473523E+04  0.20790473523E+04  0.50400001928E-02 0. -1.
       -1   -1    0    0    0  501  0.00000000000E+00  0.00000000000E+00 -0.66853985539E+03  0.66853985541E+03  0.50400001928E-02 0.  1.
    10030    2    1    2    0    0  0.00000000000E+00  0.00000000000E+00  0.14105074969E+04  0.27475872078E+04  0.23579024715E+04 0.  0.
        3    1    3    3  502    0  0.25994766731E+03 -0.64012445501E+03 -0.40792377414E+03  0.80233030813E+03  0.10100000352E+00 0.  1.
       -3    1    3    3    0  502 -0.25994766731E+03  0.64012445501E+03  0.18184312711E+04  0.19452568996E+04  0.10100000352E+00 0. -1.
</event>
<event>
 5   0  0.2518686E-05  0.2833818E+04  0.7818609E-02  0.8292845E-01
        2   -1    0    0  501    0  0.00000000000E+00  0.00000000000E+00  0.19900814488E+04  0.19900814488E+04  0.25500000920E-02 0.  1.
       -2   -1    0    0    0  501  0.00000000000E+00  0.00000000000E+00 -0.10088187577E+04  0.10088187577E+04  0.25500000920E-02 0. -1.
    10030    2    1    2    0    0  0.00000000000E+00  0.00000000000E+00  0.98126269112E+03  0.29989002065E+04  0.28338182686E+04 0.  0.
        5    1    3    3  502    0  0.65077191488E+03 -0.11342949819E+04  0.10678216946E+04  0.16883111243E+04  0.46999998093E+01 0.  1.
       -5    1    3    3    0  502 -0.65077191488E+03  0.11342949819E+04 -0.86559003505E+02  0.13105890821E+04  0.46999998093E+01 0. -1.
</event>
<event>
 5   0  0.2518686E-05  0.2785373E+04  0.7818609E-02  0.8307824E-01
       -2   -1    0    0    0  501  0.00000000000E+00  0.00000000000E+00  0.15537154314E+04  0.15537154314E+04  0.25500000920E-02 0. -1.
        2   -1    0    0  501    0  0.00000000000E+00  0.00000000000E+00 -0.12483468409E+04  0.12483468409E+04  0.25500000920E-02 0.  1.
    10030    2    1    2    0    0  0.00000000000E+00  0.00000000000E+00  0.30536859048E+03  0.28020622723E+04  0.27853730454E+04 0.  0.
        5    1    3    3  502    0 -0.72102125919E+03  0.10200743283E+04 -0.46674066397E+03  0.13335262386E+04  0.46999998093E+01 0.  1.
       -5    1    3    3    0  502  0.72102125919E+03 -0.10200743283E+04  0.77210925445E+03  0.14685360337E+04  0.46999998093E+01 0. -1.
</event>
<event>
 5   0  0.2697964E-05  0.2530189E+04  0.7818609E-02  0.8392309E-01
       -2   -1    0    0    0  501  0.00000000000E+00  0.00000000000E+00  0.55080742551E+03  0.55080742551E+03  0.25500000920E-02 0.  1.
        2   -1    0    0  501    0  0.00000000000E+00  0.00000000000E+00 -0.29056696026E+04  0.29056696026E+04  0.25500000920E-02 0. -1.
    10030    2    1    2    0    0  0.00000000000E+00  0.00000000000E+00 -0.23548621771E+04  0.34564770281E+04  0.25301892365E+04 0.  0.
        1    1    3    3  502    0 -0.23331344715E+03  0.29580321786E+03  0.47239553367E+03  0.60422863932E+03  0.50400001928E-02 0.  1.
       -1    1    3    3    0  502  0.23331344715E+03 -0.29580321786E+03 -0.28272577107E+04  0.28522483888E+04  0.50400001928E-02 0. -1.
</event>
<event>
 5   0  0.1075146E-05  0.2794282E+04  0.7818609E-02  0.8305046E-01
       -1   -1    0    0    0  501  0.00000000000E+00  0.00000000000E+00  0.95949644796E+03  0.95949644797E+03  0.50400001928E-02 0. -1.
        1   -1    0    0  501    0  0.00000000000E+00  0.00000000000E+00 -0.20344035291E+04  0.20344035291E+04  0.50400001928E-02 0.  1.
    10030    2    1    2    0    0  0.00000000000E+00  0.00000000000E+00 -0.10749070812E+04  0.29938999771E+04  0.27942819900E+04 0.  0.
        2    1    3    3  502    0 -0.48618309745E+02  0.10815522623E+04  0.40874448919E+03  0.11572342431E+04  0.25500000920E-02 0. -1.
       -2    1    3    3    0  502  0.48618309745E+02 -0.10815522623E+04 -0.14836515704E+04  0.18366657340E+04  0.25500000920E-02 0.  1.
</event>
<event>
 5   0  0.1105862E-05  0.1815477E+04  0.7818609E-02  0.8698112E-01
        1   -1    0    0  501    0  0.00000000000E+00  0.00000000000E+00  0.11301198214E+04  0.11301198214E+04  0.50400001928E-02 0.  1.
       -1   -1    0    0    0  501  0.00000000000E+00  0.00000000000E+00 -0.72911668374E+03  0.72911668375E+03  0.50400001928E-02 0. -1.
    10030    2    1    2    0    0  0.00000000000E+00  0.00000000000E+00  0.40100313770E+03  0.18592365052E+04  0.18154770353E+04 0.  0.
        3    1    3    3  502    0  0.55788086961E+03  0.57780360244E+03 -0.23266051117E+03  0.83619315432E+03  0.10100000352E+00 0. -1.
       -3    1    3    3    0  502 -0.55788086961E+03 -0.57780360244E+03  0.63366364887E+03  0.10230433509E+04  0.10100000352E+00 0.  1.
</event>
<event>
 5   0  0.1105862E-05  0.2599502E+04  0.7818609E-02  0.8368370E-01
       -1   -1    0    0    0  501  0.00000000000E+00  0.00000000000E+00  0.10289429082E+04  0.10289429082E+04  0.50400001928E-02 0.  1.
        1   -1    0    0  501    0  0.00000000000E+00  0.00000000000E+00 -0.16418329537E+04  0.16418329537E+04  0.50400001928E-02 0. -1.
    10030    2    1    2    0    0  0.00000000000E+00  0.00000000000E+00 -0.61289004549E+03  0.26707758619E+04  0.25995017786E+04 0.  0.
        3    1    3    3  502    0 -0.46524774974E+02 -0.10444555105E+04  0.48693253020E+03  0.11533235311E+04  0.10100000352E+00 0.  1.
       -3    1    3    3    0  502  0.46524774974E+02  0.10444555105E+04 -0.10998225757E+04  0.15174523308E+04  0.10100000352E+00 0. -1.
</event>
<event>
 5   0  0.2624815E-05  0.2030457E+04  0.7818609E-02  0.8592512E-01
       -2   -1    0    0    0  501  0.00000000000E+00  0.00000000000E+00  0.57540462505E+03  0.57540462506E+03  0.25500000920E-02 0.  1.
        2   -1    0    0  501    0  0.00000000000E+00  0.00000000000E+00 -0.17912419260E+04  0.17912419260E+04  0.25500000920E-02 0. -1.
    10030    2    1    2    0    0  0.00000000000E+00  0.00000000000E+00 -0.12158373010E+04  0.23666465511E+04  0.20304569819E+04 0.  0.
        4    1    3    3  502    0  0.34736486958E+02  0.73815788607E+03 -0.14193147626E+04  0.16001686463E+04  0.12699999809E+01 0. -1.
       -4    1    3    3    0  502 -0.34736486958E+02 -0.73815788607E+03  0.20347746160E+03  0.76647790482E+03  0.12699999809E+01 0.  1.
</event>
<event>
 5   0  0.1017456E-05  0.2759385E+04  0.7818609E-02  0.8315990E-01
       -1   -1    0    0    0  501  0.00000000000E+00  0.00000000000E+00  0.11737070652E+04  0.11737070653E+04  0.50400001928E-02 0. -1.
        1   -1    0    0  501    0  0.00000000000E+00  0.00000000000E+00 -0.16218281178E+04  0.16218281178E+04  0.50400001928E-02 0.  1.
    10030    2    1    2    0    0  0.00000000000E+00  0.00000000000E+00 -0.44812105255E+03  0.27955351831E+04  0.27593848014E+04 0.  0.
        5    1    3    3  502    0  0.80364729746E+02  0.20415866134E+03  0.11559114744E+04  0.11765596778E+04  0.46999998093E+01 0. -1.
       -5    1    3    3    0  502 -0.80364729746E+02 -0.20415866134E+03 -0.16040325270E+04  0.16189755052E+04  0.46999998093E+01 0.  1.
</event>
<event>
 5   0  0.1067434E-05  0.1923554E+04  0.7818609E-02  0.8643220E-01
        1   -1    0    0  501    0  0.00000000000E+00  0.00000000000E+00  0.88580306510E+03  0.88580306511E+03  0.50400001928E-02 0. -1.
       -1   -1    0    0    0  501  0.00000000000E+00  0.00000000000E+00 -0.10442667585E+04  0.10442667585E+04  0.50400001928E-02 0.  1.
    10030    2    1    2    0    0  0.00000000000E+00  0.00000000000E+00 -0.15846369339E+03  0.19300698236E+04  0.19235536857E+04 0.  0.
        4    1    3    3  502    0 -0.54309101292E+03  0.66659327517E+03  0.35317887707E+03  0.92953287996E+03  0.12699999809E+01 0.  1.
       -4    1    3    3    0  502  0.54309101292E+03 -0.66659327517E+03 -0.51164257046E+03  0.10005369437E+04  0.12699999809E+01 0. -1.
</event>
<event>
 5   0  0.1075146E-05  0.2801236E+04  0.7818609E-02  0.8302885E-01
       -1   -1    0    0    0  501  0.00000000000E+00  0.00000000000E+00  0.13350271983E+04  0.13350271984E+04  0.50400001928E-02 0.  1.
        1   -1    0    0  501    0  0.00000000000E+00  0.00000000000E+00 -0.14694311699E+04  0.14694311699E+04  0.50400001928E-02 0. -1.
    10030    2    1    2    0    0  0.00000000000E+00  0.00000000000E+00 -0.13440397152E+03  0.28044583682E+04  0.28012358543E+04 0.  0.
        2    1    3    3  502    0  0.12816963667E+04  0.53598730352E+03 -0.24545908872E+03  0.14107721751E+04  0.25500000920E-02 0. -1.
       -2    1    3    3    0  502 -0.12816963667E+04 -0.53598730352E+03  0.11105511720E+03  0.13936861931E+04  0.25500000920E-02 0.  1.
</event>
<event>
 5   0  0.2651061E-05  0.2713684E+04  0.7818609E-02  0.8330579E-01
        2   -1    0    0  501    0  0.00000000000E+00  0.00000000000E+00  0.13081044520E+04  0.13081044520E+04  0.25500000920E-02 0.  1.
       -2   -1    0    0    0  501  0.00000000000E+00  0.00000000000E+00 -0.14073952678E+04  0.14073952678E+04  0.25500000920E-02 0. -1.
    10030    2    1    2    0    0  0.00000000000E+00  0.00000000000E+00 -0.99290815811E+02  0.27154997197E+04  0.27136838544E+04 0.  0.
        3    1    3    3  502    0 -0.58833449340E+03 -0.50235719633E+03 -0.11650750114E+04  0.13985349553E+04  0.10100000352E+00 0. -1.
       -3    1    3    3    0  502  0.58833449340E+03  0.50235719633E+03  0.10657841956E+04  0.13169647644E+04  0.10100000352E+00 0.  1.
</event>
<event>
 5   0  0.2624815E-05  0.2965591E+04  0.7818609E-02  0.8253625E-01
       -2   -1    0    0    0  501  0.00000000000E+00  0.00000000000E+00  0.10369256051E+04  0.10369256051E+04  0.25500000920E-02 0.  1.
        2   -1    0    0  501    0  0.00000000000E+00  0.00000000000E+00 -0.21203854426E+04  0.21203854426E+04  0.25500000920E-02 0. -1.
    10030    2    1    2    0    0  0.00000000000E+00  0.00000000000E+00 -0.10834598375E+04  0.31573110478E+04  0.29655906381E+04 0.  0.
        4    1    3    3  502    0 -0.94347566200E+03 -0.10651747711E+03 -0.17543022004E+04  0.19947606676E+04  0.12699999809E+01 0. -1.
       -4    1    3    3    0  502  0.94347566200E+03  0.10651747711E+03  0.67084236289E+03  0.11625503802E+04  0.12699999809E+01 0.  1.
</event>
<event>
 5   0  0.2697964E-05  0.2793581E+04  0.7818609E-02  0.8305264E-01
       -2   -1    0    0    0  501  0.00000000000E+00  0.00000000000E+00  0.14660723476E+04  0.14660723476E+04  0.25500000920E-02 0.  1.
        2   -1    0    0  501    0  0.00000000000E+00  0.00000000000E+00 -0.13307825134E+04  0.13307825134E+04  0.25500000920E-02 0. -1.
    10030    2    1    2    0    0  0.00000000000E+00  0.00000000000E+00  0.13528983428E+03  0.27968548610E+04  0.27935808158E+04 0.  0.
        1    1    3    3  502    0 -0.67023149420E+03 -0.54276314548E+03  0.11676688775E+04  0.14516379354E+04  0.50400001928E-02 0.  1.
       -1    1    3    3    0  502  0.67023149420E+03  0.54276314548E+03 -0.10323790433E+04  0.13452169256E+04  0.50400001928E-02 0. -1.
</event>
<event>
 5   0  0.2651061E-05  0.2765641E+04  0.7818609E-02  0.8314016E-01
       -2   -1    0    0    0  501  0.00000000000E+00  0.00000000000E+00  0.20342836878E+04  0.20342836878E+04  0.25500000920E-02 0.  1.
        2   -1    0    0  501    0  0.00000000000E+00  0.00000000000E+00 -0.93998289338E+03  0.93998289338E+03  0.25500000920E-02 0. -1.
    10030    2    1    2    0    0  0.00000000000E+00  0.00000000000E+00  0.10943007944E+04  0.29742665812E+04  0.27656405166E+04 0.  0.
        3    1    3    3  502    0  0.13427715113E+04  0.30046887036E+03  0.69490038295E+03  0.15414938942E+04  0.10100000352E+00 0.  1.
       -3    1    3    3    0  502 -0.13427715113E+04 -0.30046887036E+03  0.39940041147E+03  0.14327726869E+04  0.10100000352E+00 0. -1.
</event>
<event>
 5   0  0.1017456E-05  0.1514766E+04  0.7818609E-02  0.8874693E-01
       -1   -1    0    0    0  501  0.00000000000E+00  0.00000000000E+00  0.85450541622E+03  0.85450541624E+03  0.50400001928E-02 0.  1.
        1   -1    0    0  501    0  0.00000000000E+00  0.00000000000E+00 -0.67129938244E+03  0.67129938246E+03  0.50400001928E-02 0. -1.
    10030    2    1    2    0    0  0.00000000000E+00  0.00000000000E+00  0.18320603378E+03  0.15258047987E+04  0.15147659334E+04 0.  0.
        5    1    3    3  502    0 -0.40699687910E+03 -0.93454392487E+02  0.72805145992E+03  0.83932186995E+03  0.46999998093E+01 0.  1.
       -5    1    3    3    0  502  0.40699687910E+03  0.93454392487E+02 -0.54484542614E+03  0.68648292875E+03  0.46999998093E+01 0. -1.
</event>
<event>
 5   0  0.1067434E-05  0.2887227E+04  0.7818609E-02  0.8276688E-01
       -1   -1    0    0    0  501  0.00000000000E+00  0.00000000000E+00  0.10921480704E+04  0.10921480704E+04  0.50400001928E-02 0. -1.
        1   -1    0    0  501    0  0.00000000000E+00  0.00000000000E+00 -0.19081837995E+04  0.19081837995E+04  0.50400001928E-02 0.  1.
    10030    2    1    2    0    0  0.00000000000E+00  0.00000000000E+00 -0.81603572914E+03  0.30003318699E+04  0.28872265270E+04 0.  0.
        4    1    3    3  502    0  0.24906652997E+03 -0.13893695220E+04 -0.93445106463E+02  0.14146078630E+04  0.12699999809E+01 0. -1.
       -4    1    3    3    0  502 -0.24906652997E+03  0.13893695220E+04 -0.72259062268E+03  0.15857240069E+04  0.12699999809E+01 0.  1.
</event>
<event>
 5   0  0.1017456E-05  0.2821912E+04  0.7818609E-02  0.8296498E-01
        1   -1    0    0  501    0  0.00000000000E+00  0.00000000000E+00  0.16242351285E+04  0.16242351285E+04  0.50400001928E-02 0. -1.
       -1   -1    0    0    0  501  0.00000000000E+00  0.00000000000E+00 -0.12256822546E+04  0.12256822546E+04  0.50400001928E-02 0.  1.
    10030    2    1    2    0    0  0.00000000000E+00  0.00000000000E+00  0.39855287394E+03  0.28499173831E+04  0.28219115325E+04 0.  0.
        5    1    3    3  502    0  0.36378299863E+03  0.55971402315E+03  0.14546560572E+04  0.16005199757E+04  0.46999998093E+01 0. -1.
       -5    1    3    3    0  502 -0.36378299863E+03 -0.55971402315E+03 -0.10561031833E+04  0.12493974074E+04  0.46999998093E+01 0.  1.
</event>
<event>
 5   0  0.1078103E-05  0.2725702E+04  0.7818609E-02  0.8326713E-01
        1   -1    0    0  501    0  0.00000000000E+00  0.00000000000E+00  0.21776757544E+04  0.21776757544E+04  0.50400001928E-02 0.  1.
       -1   -1    0    0    0  501  0.00000000000E+00  0.00000000000E+00 -0.85291084020E+03  0.85291084021E+03  0.50400001928E-02 0. -1.
    10030    2    1    2    0    0  0.00000000000E+00  0.00000000000E+00  0.13247649142E+04  0.30305865946E+04  0.27257023003E+04 0.  0.
        1    1    3    3  502    0  0.13217758023E+04  0.16843130267E+03  0.34418414627E+03  0.13761987871E+04  0.50400001928E-02 0. -1.
       -1    1    3    3    0  502 -0.13217758023E+04 -0.16843130267E+03  0.98058076796E+03  0.16543878075E+04  0.50400001928E-02 0.  1.
</event>
<event>
 5   0  0.2624815E-05  0.2767580E+04  0.7818609E-02  0.8313405E-01
       -2   -1    0    0    0  501  0.00000000000E+00  0.00000000000E+00  0.10385284134E+04  0.10385284134E+04  0.25500000920E-02 0. -1.
        2   -1    0    0  501    0  0.00000000000E+00  0.00000000000E+00 -0.18438340721E+04  0.18438340721E+04  0.25500000920E-02 0.  1.
    10030    2    1    2    0    0  0.00000000000E+00  0.00000000000E+00 -0.80530565868E+03  0.28823624855E+04  0.27675795009E+04 0.  0.
        4    1    3    3  502    0  0.19033418296E+03 -0.22043952467E+03 -0.18115528645E+04  0.18348149986E+04  0.12699999809E+01 0.  1.
       -4    1    3    3    0  502 -0.19033418296E+03  0.22043952467E+03  0.10062472058E+04  0.10475474869E+04  0.12699999809E+01 0. -1.
</event>
<event>
 5   0  0.2697964E-05  0.2773760E+04  0.7818609E-02  0.8311462E-01
       -2   -1    0    0    0  501  0.00000000000E+00  0.00000000000E+00  0.93835404069E+03  0.93835404070E+03  0.25500000920E-02 0. -1.
        2   -1    0    0  501    0  0.00000000000E+00  0.00000000000E+00 -0.20497971785E+04  0.20497971785E+04  0.25500000920E-02 0.  1.
    10030    2    1    2    0    0  0.00000000000E+00  0.00000000000E+00 -0.11114431378E+04  0.29881512192E+04  0.27737595174E+04 0.  0.
        1    1    3    3  502    0 -0.24395639724E+03  0.19444007308E+03 -0.20115080614E+04  0.20355555377E+04  0.50400001928E-02 0.  1.
       -1    1    3    3    0  502  0.24395639724E+03 -0.19444007308E+03  0.90006492360E+03  0.95259568154E+03  0.50400001928E-02 0. -1.
</event>
<event>
 5   0  0.2588048E-05  0.3067447E+04  0.7818609E-02  0.8224729E-01
        2   -1    0    0  501    0  0.00000000000E+00  0.00000000000E+00  0.19066732234E+04  0.19066732234E+04  0.25500000920E-02 0.  1.
       -2   -1    0    0    0  501  0.00000000000E+00  0.00000000000E+00 -0.12337238607E+04  0.12337238607E+04  0.25500000920E-02 0. -1.
    10030    2    1    2    0    0  0.00000000000E+00  0.00000000000E+00  0.67294936274E+03  0.31403970841E+04  0.30674473102E+04 0.  0.
        2    1    3    3  502    0  0.33178701139E+03  0.13433450055E+04 -0.34080934618E+03  0.14250647126E+04  0.25500000920E-02 0.  1.
       -2    1    3    3    0  502 -0.33178701139E+03 -0.13433450055E+04  0.10137587089E+04  0.17153323715E+04  0.25500000920E-02 0. -1.
</event>
<event>
 5   0  0.1105862E-05  0.2742820E+04  0.7818609E-02  0.8321244E-01
        1   -1    0    0  501    0  0.00000000000E+00  0.00000000000E+00  0.13880568204E+04  0.13880568204E+04  0.50400001928E-02 0.  1.
       -1   -1    0    0    0  501  0.00000000000E+00  0.00000000000E+00 -0.13549629599E+04  0.13549629599E+04  0.50400001928E-02 0. -1.
    10030    2    1    2    0    0  0.00000000000E+00  0.00000000000E+00  0.33093860472E+02  0.27430197803E+04  0.27428201384E+04 0.  0.
        3    1    3    3  502    0 -0.85935151208E+03  0.50433498511E+03  0.95891417980E+03  0.13828793197E+04  0.10100000352E+00 0.  1.
       -3    1    3    3    0  502  0.85935151208E+03 -0.50433498511E+03 -0.92582031932E+03  0.13601404605E+04  0.10100000352E+00 0. -1.
</event>
<event>
 5   0  0.2651061E-05  0.1986804E+04  0.7818609E-02  0.8612815E-01
       -2   -1    0    0    0  501  0.00000000000E+00  0.00000000000E+00  0.88596764153E+03  0.88596764153E+03  0.25500000920E-02 0.  1.
        2   -1    0    0  501    0  0.00000000000E+00  0.00000000000E+00 -0.11138641197E+04  0.11138641197E+04  0.25500000920E-02 0. -1.
    10030    2    1    2    0    0  0.00000000000E+00  0.00000000000E+00 -0.22789647815E+03  0.19998317612E+04  0.19868040337E+04 0.  0.
        3    1    3    3  502    0 -0.11090641388E+03 -0.38904524182E+03  0.79929984133E+03  0.89584411555E+03  0.10100000352E+00 0.  1.
       -3    1    3    3    0  502  0.11090641388E+03  0.38904524182E+03 -0.10271963195E+04  0.11039876457E+04  0.10100000352E+00 0. -1.
</event>
<event>
 5   0  0.2518686E-05  0.2634412E+04  0.7818609E-02  0.8356605E-01
       -2   -1    0    0    0  501  0.00000000000E+00  0.00000000000E+00  0.28378806639E+04  0.28378806639E+04  0.25500000920E-02 0. -1.
        2   -1    0    0  501    0  0.00000000000E+00  0.00000000000E+00 -0.61138282242E+03  0.61138282242E+03  0.25500000920E-02 0.  1.
    10030    2    1    2    0    0  0.00000000000E+00  0.00000000000E+00  0.22264978415E+04  0.34492634863E+04  0.26344118812E+04 0.  0.
        5    1    3    3  502    0 -0.33594007544E+03  0.12704478024E+04  0.12312035446E+04  0.18007713934E+04  0.46999998093E+01 0. -1.
       -5    1    3    3    0  502  0.33594007544E+03 -0.12704478024E+04  0.99529429687E+03  0.16484920929E+04  0.46999998093E+01 0.  1.
</event>
<event>
 5   0  0.2697964E-05  0.2222387E+04  0.7818609E-02  0.8509168E-01
        2   -1    0    0  501    0  0.00000000000E+00  0.00000000000E+00  0.30524144882E+04  0.30524144882E+04  0.25500000920E-02 0. -1.
       -2   -1    0    0    0  501  0.00000000000E+00  0.00000000000E+00 -0.40451609812E+03  0.40451609813E+03  0.25500000920E-02 0.  1.
    10030    2    1    2    0    0  0.00000000000E+00  0.00000000000E+00  0.26478983901E+04  0.34569305863E+04  0.22223868238E+04 0.  0.
        1    1    3    3  502    0 -0.48164501084E+03 -0.58454091180E+03  0.25886805311E+04  0.26972090921E+04  0.50400001928E-02 0. -1.
       -1    1    3    3    0  502  0.48164501084E+03  0.58454091180E+03  0.59217858973E+02  0.75972149429E+03  0.50400001928E-02 0.  1.
</event>
<event>
 5   0  0.1105862E-05  0.2547002E+04  0.7818609E-02  0.8386430E-01
       -1   -1    0    0    0  501  0.00000000000E+00  0.00000000000E+00  0.77141904087E+03  0.77141904088E+03  0.50400001928E-02 0.  1.
        1   -1    0    0  501    0  0.00000000000E+00  0.00000000000E+00 -0.21023650948E+04  0.21023650948E+04  0.50400001928E-02 0. -1.
    10030    2    1    2    0    0  0.00000000000E+00  0.00000000000E+00 -0.13309460539E+04  0.28737841357E+04  0.25470017393E+04 0.  0.
        3    1    3    3  502    0  0.14849614473E+03  0.12647725046E+04 -0.67697181884E+03  0.14422175450E+04  0.10100000352E+00 0. -1.
       -3    1    3    3    0  502 -0.14849614473E+03 -0.12647725046E+04 -0.65397423510E+03  0.14315665907E+04  0.10100000352E+00 0.  1.
</event>
<event>
 5   0  0.1067434E-05  0.2831573E+04  0.7818609E-02  0.8293533E-01
        1   -1    0    0  501    0  0.00000000000E+00  0.00000000000E+00  0.20612821773E+04  0.20612821773E+04  0.50400001928E-02 0. -1.
       -1   -1    0    0    0  501  0.00000000000E+00  0.00000000000E+00 -0.97242953271E+03  0.97242953272E+03  0.50400001928E-02 0.  1.
    10030    2    1    2    0    0  0.00000000000E+00  0.00000000000E+00  0.10888526446E+04  0.30337117100E+04  0.28315731772E+04 0.  0.
        4    1    3    3  502    0 -0.48201977126E+03  0.62905187382E+03  0.18013791104E+04  0.19679983821E+04  0.12699999809E+01 0. -1.
       -4    1    3    3    0  502  0.48201977126E+03 -0.62905187382E+03 -0.71252646580E+03  0.10657133279E+04  0.12699999809E+01 0.  1.
</event>
<event>
 5   0  0.1105862E-05  0.2511215E+04  0.7818609E-02  0.8399001E-01
       -1   -1    0    0    0  501  0.00000000000E+00  0.00000000000E+00  0.10226063632E+04  0.10226063632E+04  0.50400001928E-02 0. -1.
        1   -1    0    0  501    0  0.00000000000E+00  0.00000000000E+00 -0.15416983949E+04  0.15416983949E+04  0.50400001928E-02 0.  1.
    10030    2    1    2    0    0  0.00000000000E+00  0.00000000000E+00 -0.51909203173E+03  0.25643047581E+04  0.25112153143E+04 0.  0.
        3    1    3    3  502    0 -0.89945588510E+03  0.15465959754E+03  0.62101271274E+03  0.11039009376E+04  0.10100000352E+00 0. -1.
       -3    1    3    3    0  502  0.89945588510E+03 -0.15465959754E+03 -0.11401047445E+04  0.14604038205E+04  0.10100000352E+00 0.  1.
</event>
<event>
 5   0  0.2624815E-05  0.2847324E+04  0.7818609E-02  0.8288725E-01
        2   -1    0    0  501    0  0.00000000000E+00  0.00000000000E+00  0.15093402549E+04  0.15093402549E+04  0.25500000920E-02 0. -1.
       -2   -1    0    0    0  501  0.00000000000E+00  0.00000000000E+00 -0.13428472587E+04  0.13428472587E+04  0.25500000920E-02 0.  1.
    10030    2    1    2    0    0  0.00000000000E+00  0.00000000000E+00  0.16649299622E+03  0.28521875135E+04  0.28473239532E+04 0.  0.
        4    1    3    3  502    0  0.30801224476E+03 -0.74983245213E+03 -0.10890908009E+04  0.13576599849E+04  0.12699999809E+01 0.  1.
       -4    1    3    3    0  502 -0.30801224476E+03  0.74983245213E+03  0.12555837971E+04  0.14945275286E+04  0.12699999809E+01 0. -1.
</event>
<event>
 5   0  0.2518686E-05  0.2593129E+04  0.7818609E-02  0.8370539E-01
       -2   -1    0    0    0  501  0.00000000000E+00  0.00000000000E+00  0.13495114281E+04  0.13495114281E+04  0.25500000920E-02 0.  1.
        2   -1    0    0  501    0  0.00000000000E+00  0.00000000000E+00 -0.12456946023E+04  0.12456946023E+04  0.25500000920E-02 0. -1.
    10030    2    1    2    0    0  0.00000000000E+00  0.00000000000E+00  0.10381682584E+03  0.25952060304E+04  0.25931286908E+04 0.  0.
        5    1    3    3  502    0 -0.46715416446E+03 -0.11885368007E+04  0.27615100601E+03  0.13065734607E+04  0.46999998093E+01 0.  1.
       -5    1    3    3    0  502  0.46715416446E+03  0.11885368007E+04 -0.17233418017E+03  0.12886325697E+04  0.46999998093E+01 0. -1.
</event>
<event>
 5   0  0.2588048E-05  0.1504063E+04  0.7818609E-02  0.8881755E-01
       -2   -1    0    0    0  501  0.00000000000E+00  0.00000000000E+00  0.34541278390E+03  0.34541278391E+03  0.25500000920E-02 0.  1.
        2   -1    0    0  501    0  0.00000000000E+00  0.00000000000E+00 -0.16373211643E+04  0.16373211643E+04  0.25500000920E-02 0. -1.
    10030    2    1    2    0    0  0.00000000000E+00  0.00000000000E+00 -0.12919083804E+04  0.19827339482E+04  0.15040633783E+04 0.  0.
        2    1    3    3  502    0 -0.38648511647E+03  0.14424642564E+03  0.18294610764E+03  0.45127270565E+03  0.25500000920E-02 0.  1.
       -2    1    3    3    0  502  0.38648511647E+03 -0.14424642564E+03 -0.14748544880E+04  0.15314612426E+04  0.25500000920E-02 0. -1.
</event>
<event>
 5   0  0.2651061E-05  0.2558597E+04  0.7818609E-02  0.8382402E-01
       -2   -1    0    0    0  501  0.00000000000E+00  0.00000000000E+00  0.81696704181E+03  0.81696704181E+03  0.25500000920E-02 0. -1.
        2   -1    0    0  501    0  0.00000000000E+00  0.00000000000E+00 -0.20032689036E+04  0.20032689036E+04  0.25500000920E-02 0.  1.
    10030    2    1    2    0    0  0.00000000000E+00  0.00000000000E+00 -0.11863018618E+04  0.28202359454E+04  0.25585970141E+04 0.  0.
        3    1    3    3  502    0  0.25372603650E+03  0.12521983548E+04 -0.66481503184E+03  0.14402627046E+04  0.10100000352E+00 0. -1.
       -3    1    3    3    0  502 -0.25372603650E+03 -0.12521983548E+04 -0.52148682994E+03  0.13799732408E+04  0.10100000352E+00 0.  1.
</event>
<event>
 5   0  0.2588048E-05  0.2803502E+04  0.7818609E-02  0.8302182E-01
       -2   -1    0    0    0  501  0.00000000000E+00  0.00000000000E+00  0.16496999305E+04  0.16496999305E+04  0.25500000920E-02 0.  1.
        2   -1    0    0  501    0  0.00000000000E+00  0.00000000000E+00 -0.11910690695E+04  0.11910690695E+04  0.25500000920E-02 0. -1.
    10030    2    1    2    0    0  0.00000000000E+00  0.00000000000E+00  0.45863086097E+03  0.28407690001E+04  0.28035024960E+04 0.  0.
        2    1    3    3  502    0  0.85638669673E+03  0.11276496708E+03  0.13479799155E+04  0.16009884336E+04  0.25500000920E-02 0.  1.
       -2    1    3    3    0  502 -0.85638669673E+03 -0.11276496708E+03 -0.88934905450E+03  0.12397805664E+04  0.25500000920E-02 0. -1.
</event>
<event>
 5   0  0.2651061E-05  0.2187770E+04  0.7818609E-02  0.8523536E-01
       -2   -1    0    0    0  501  0.00000000000E+00  0.00000000000E+00  0.17938816964E+04  0.17938816964E+04  0.25500000920E-02 0. -1.
        2   -1    0    0  501    0  0.00000000000E+00  0.00000000000E+00 -0.66703626427E+03  0.66703626427E+03  0.25500000920E-02 0.  1.
    10030    2    1    2    0    0  0.00000000000E+00  0.00000000000E+00  0.11268454321E+04  0.24609179606E+04  0.21877697733E+04 0.  0.
        3    1    3    3  502    0 -0.64205826091E+03 -0.34319634794E+03 -0.35494299631E+03  0.80994264271E+03  0.10100000352E+00 0.  1.
       -3    1    3    3    0  502  0.64205826091E+03  0.34319634794E+03  0.14817884284E+04  0.16509753179E+04  0.10100000352E+00 0. -1.
</event>
<event>
 5   0  0.2651061E-05  0.1896308E+04  0.7818609E-02  0.8656696E-01
       -2   -1    0    0    0  501  0.00000000000E+00  0.00000000000E+00  0.79269742135E+03  0.79269742136E+03  0.25500000920E-02 0. -1.
        2   -1    0    0  501    0  0.00000000000E+00  0.00000000000E+00 -0.11340968661E+04  0.11340968661E+04  0.25500000920E-02 0.  1.
    10030    2    1    2    0    0  0.00000000000E+00  0.00000000000E+00 -0.34139944477E+03  0.19267942875E+04  0.18963076347E+04 0.  0.
        3    1    3    3  502    0 -0.34927310488E+03 -0.78282795760E+03  0.24101122953E+03  0.89044805348E+03  0.10100000352E+00 0. -1.
       -3    1    3    3    0  502  0.34927310488E+03  0.78282795760E+03 -0.58241067429E+03  0.10363462340E+04  0.10100000352E+00 0.  1.
</event>
<event>
 5   0  0.2624815E-05  0.2885549E+04  0.7818609E-02  0.8277190E-01
        2   -1    0    0  501    0  0.00000000000E+00  0.00000000000E+00  0.23109344194E+04  0.23109344194E+04  0.25500000920E-02 0.  1.
       -2   -1    0    0    0  501  0.00000000000E+00  0.00000000000E+00 -0.90076049088E+03  0.90076049089E+03  0.25500000920E-02 0. -1.
    10030    2    1    2    0    0  0.00000000000E+00  0.00000000000E+00  0.14101739285E+04  0.32116949103E+04  0.28855491138E+04 0.  0.
        4    1    3    3  502    0  0.30091000051E+03  0.30064529553E+03  0.22395566141E+04  0.22795942321E+04  0.12699999809E+01 0.  1.
       -4    1    3    3    0  502 -0.30091000051E+03 -0.30064529553E+03 -0.82938268564E+03  0.93210067818E+03  0.12699999809E+01 0. -1.
</event>
<event>
 5   0  0.1017456E-05  0.2738034E+04  0.7818609E-02  0.8322769E-01
       -1   -1    0    0    0  501  0.00000000000E+00  0.00000000000E+00  0.94650281098E+03  0.94650281100E+03  0.50400001928E-02 0.  1.
        1   -1    0    0  501    0  0.00000000000E+00  0.00000000000E+00 -0.19801399712E+04  0.19801399712E+04  0.50400001928E-02 0. -1.
    10030    2    1    2    0    0  0.00000000000E+00  0.00000000000E+00 -0.10336371602E+04  0.29266427822E+04  0.27380343671E+04 0.  0.
        5    1    3    3  502    0 -0.82254136793E+02 -0.86221572548E+03 -0.16500400662E+04  0.18635546706E+04  0.46999998093E+01 0. -1.
       -5    1    3    3    0  502  0.82254136793E+02  0.86221572548E+03  0.61640290605E+03  0.10630881115E+04  0.46999998093E+01 0.  1.
</event>
<event>
 5   0  0.1075146E-05  0.2732592E+04  0.7818609E-02  0.8324507E-01
       -1   -1    0    0    0  501  0.00000000000E+00  0.00000000000E+00  0.14898660855E+04  0.14898660855E+04  0.50400001928E-02 0. -1.
        1   -1    0    0  501    0  0.00000000000E+00  0.00000000000E+00 -0.12529746956E+04  0.12529746956E+04  0.50400001928E-02 0.  1.
    10030    2    1    2    0    0  0.00000000000E+00  0.00000000000E+00  0.23689138992E+03  0.27428407811E+04  0.27325918136E+04 0.  0.
        2    1    3    3  502    0 -0.94629823680E+03  0.84156746952E+02 -0.86717497485E+03  0.12862951248E+04  0.25500000920E-02 0.  1.
       -2    1    3    3    0  502  0.94629823680E+03 -0.84156746952E+02  0.11040663648E+04  0.14565456563E+04  0.25500000920E-02 0. -1.
</event>
<event>
 5   0  0.1075146E-05  0.2783758E+04  0.7818609E-02  0.8308329E-01
        1   -1    0    0  501    0  0.00000000000E+00  0.00000000000E+00  0.18221656565E+04  0.18221656565E+04  0.50400001928E-02 0.  1.
       -1   -1    0    0    0  501  0.00000000000E+00  0.00000000000E+00 -0.10632001848E+04  0.10632001848E+04  0.50400001928E-02 0. -1.
    10030    2    1    2    0    0  0.00000000000E+00  0.00000000000E+00  0.75896547170E+03  0.28853658412E+04  0.27837577931E+04 0.  0.
        2    1    3    3  502    0  0.11860414380E+02  0.86935653180E+03 -0.74711511532E+03  0.11463430745E+04  0.25500000920E-02 0. -1.
       -2    1    3    3    0  502 -0.11860414380E+02 -0.86935653180E+03  0.15060805870E+04  0.17390227668E+04  0.25500000920E-02 0.  1.
</event>
<event>
 5   0  0.1105862E-05  0.2471179E+04  0.7818609E-02  0.8413325E-01
       -1   -1    0    0    0  501  0.00000000000E+00  0.00000000000E+00  0.76207673520E+03  0.76207673522E+03  0.50400001928E-02 0.  1.
        1   -1    0    0  501    0  0.00000000000E+00  0.00000000000E+00 -0.20033179802E+04  0.20033179802E+04  0.50400001928E-02 0. -1.
    10030    2    1    2    0    0  0.00000000000E+00  0.00000000000E+00 -0.12412412450E+04  0.27653947154E+04  0.24711794965E+04 0.  0.
        3    1    3    3  502    0  0.58980084850E+03  0.99662726386E+03 -0.11026622790E+04  0.15990606792E+04  0.10100000352E+00 0. -1.
       -3    1    3    3    0  502 -0.58980084850E+03 -0.99662726386E+03 -0.13857896593E+03  0.11663340362E+04  0.10100000352E+00 0.  1.
</event>
<event>
 5   0  0.2697964E-05  0.2823845E+04  0.7818609E-02  0.8295903E-01
        2   -1    0    0  501    0  0.00000000000E+00  0.00000000000E+00  0.12095872761E+04  0.12095872761E+04  0.25500000920E-02 0. -1.
       -2   -1    0    0    0  501  0.00000000000E+00  0.00000000000E+00 -0.16481036578E+04  0.16481036578E+04  0.25500000920E-02 0.  1.
    10030    2    1    2    0    0  0.00000000000E+00  0.00000000000E+00 -0.43851638170E+03  0.28576909340E+04  0.28238450484E+04 0.  0.
        1    1    3    3  502    0  0.88082770224E+03 -0.42044097861E+02  0.89663682049E+03  0.12576099296E+04  0.50400001928E-02 0. -1.
       -1    1    3    3    0  502 -0.88082770224E+03  0.42044097861E+02 -0.13351532022E+04  0.16000810044E+04  0.50400001928E-02 0.  1.
</event>
<event>
 5   0  0.1105862E-05  0.2860838E+04  0.7818609E-02  0.8284625E-01
       -1   -1    0    0    0  501  0.00000000000E+00  0.00000000000E+00  0.12650137897E+04  0.12650137897E+04  0.50400001928E-02 0.  1.
        1   -1    0    0  501    0  0.00000000000E+00  0.00000000000E+00 -0.16174520998E+04  0.16174520998E+04  0.50400001928E-02 0. -1.
    10030    2    1    2    0    0  0.00000000000E+00  0.00000000000E+00 -0.35243831013E+03  0.28824658896E+04  0.28608384858E+04 0.  0.
        3    1    3    3  502    0  0.90577024172E+03  0.83221941878E+03 -0.91186914047E+03  0.15311806658E+04  0.10100000352E+00 0. -1.
       -3    1    3    3    0  502 -0.90577024172E+03 -0.83221941878E+03  0.55943083033E+03  0.13512852237E+04  0.10100000352E+00 0.  1.
</event>
<event>
 5   0  0.2651061E-05  0.1660797E+04  0.7818609E-02  0.8784045E-01
        2   -1    0    0  501    0  0.00000000000E+00  0.00000000000E+00  0.71234374264E+03  0.71234374265E+03  0.25500000920E-02 0.  1.
       -2   -1    0    0    0  501  0.00000000000E+00  0.00000000000E+00 -0.96801789172E+03  0.96801789172E+03  0.25500000920E-02 0. -1.
    10030    2    1    2    0    0  0.00000000000E+00  0.00000000000E+00 -0.25567414907E+03  0.16803616344E+04  0.16607967822E+04 0.  0.
        3    1    3    3  502    0 -0.38058028736E+03  0.27852528010E+02 -0.87405126104E+03  0.95372047035E+03  0.10100000352E+00 0. -1.
       -3    1    3    3    0  502  0.38058028736E+03 -0.27852528010E+02  0.61837711196E+03  0.72664116402E+03  0.10100000352E+00 0.  1.
</event>
<event>
 5   0  0.1078103E-05  0.2575988E+04  0.7818609E-02  0.8376404E-01
        1   -1    0    0  501    0  0.00000000000E+00  0.00000000000E+00  0.18831368303E+04  0.18831368303E+04  0.50400001928E-02 0.  1.
       -1   -1    0    0    0  501  0.00000000000E+00  0.00000000000E+00 -0.88093865826E+03  0.88093865828E+03  0.50400001928E-02 0. -1.
    10030    2    1    2    0    0  0.00000000000E+00  0.00000000000E+00  0.10021981720E+04  0.27640754886E+04  0.25759876029E+04 0.  0.
        1    1    3    3  502    0 -0.21861228875E+03 -0.38526636063E+03 -0.79663207011E+03  0.91150653129E+03  0.50400001928E-02 0. -1.
       -1    1    3    3    0  502  0.21861228875E+03  0.38526636063E+03  0.17988302421E+04  0.18525689573E+04  0.50400001928E-02 0.  1.
</event>
<event>
 5   0  0.2624815E-05  0.2514777E+04  0.7818609E-02  0.8397740E-01
        2   -1    0    0  501    0  0.00000000000E+00  0.00000000000E+00  0.24547777138E+04  0.24547777138E+04  0.25500000920E-02 0. -1.
       -2   -1    0    0    0  501  0.00000000000E+00  0.00000000000E+00 -0.64406066126E+03  0.64406066126E+03  0.25500000920E-02 0.  1.
    10030    2    1    2    0    0  0.00000000000E+00  0.00000000000E+00  0.18107170525E+04  0.30988383750E+04  0.25147769345E+04 0.  0.
        4    1    3    3  502    0  0.23941446525E+02  0.10141054443E+04  0.18209150537E+04  0.20843983042E+04  0.12699999809E+01 0. -1.
       -4    1    3    3    0  502 -0.23941446525E+02 -0.10141054443E+04 -0.10198001168E+02  0.10144400708E+04  0.12699999809E+01 0.  1.
</event>
<event>
 5   0  0.2624815E-05  0.2803819E+04  0.7818609E-02  0.8302084E-01
        2   -1    0    0  501    0  0.00000000000E+00  0.00000000000E+00  0.14063265555E+04  0.14063265555E+04  0.25500000920E-02 0. -1.
       -2   -1    0    0    0  501  0.00000000000E+00  0.00000000000E+00 -0.13975066858E+04  0.13975066858E+04  0.25500000920E-02 0.  1.
    10030    2    1    2    0    0  0.00000000000E+00  0.00000000000E+00  0.88198696567E+01  0.28038332413E+04  0.28038193692E+04 0.  0.
        4    1    3    3  502    0 -0.13685724833E+04 -0.13655394392E+03 -0.26709008095E+03  0.14010625774E+04  0.12699999809E+01 0.  1.
       -4    1    3    3    0  502  0.13685724833E+04  0.13655394392E+03  0.27590995061E+03  0.14027706639E+04  0.12699999809E+01 0. -1.
</event>
<event>
 5   0  0.1017456E-05  0.2831631E+04  0.7818609E-02  0.8293515E-01
        1   -1    0    0  501    0  0.00000000000E+00  0.00000000000E+00  0.17547546428E+04  0.17547546428E+04  0.50400001928E-02 0.  1.
       -1   -1    0    0    0  501  0.00000000000E+00  0.00000000000E+00 -0.11423439229E+04  0.11423439229E+04  0.50400001928E-02 0. -1.
    10030    2    1    2    0    0  0.00000000000E+00  0.00000000000E+00  0.61241071995E+03  0.28970985657E+04  0.28316308392E+04 0.  0.
        5    1    3    3  502    0  0.12461521649E+04 -0.45682241001E+03 -0.19806863085E+03  0.13419520129E+04  0.46999998093E+01 0. -1.
       -5    1    3    3    0  502 -0.12461521649E+04  0.45682241001E+03  0.81047935080E+03  0.15551465528E+04  0.46999998093E+01 0.  1.
</event>
<event>
 5   0  0.1105862E-05  0.1696140E+04  0.7818609E-02  0.8763569E-01
        1   -1    0    0  501    0  0.00000000000E+00  0.00000000000E+00  0.17225994454E+04  0.17225994454E+04  0.50400001928E-02 0. -1.
       -1   -1    0    0    0  501  0.00000000000E+00  0.00000000000E+00 -0.41752178896E+03  0.41752178899E+03  0.50400001928E-02 0.  1.
    10030    2    1    2    0    0  0.00000000000E+00  0.00000000000E+00  0.13050776565E+04  0.21401212344E+04  0.16961400911E+04 0.  0.
        3    1    3    3  502    0  0.36246881717E+03 -0.63921864496E+02  0.16165704347E+04  0.16579413828E+04  0.10100000352E+00 0. -1.
       -3    1    3    3    0  502 -0.36246881717E+03  0.63921864496E+02 -0.31149277827E+03  0.48217985160E+03  0.10100000352E+00 0.  1.
</event>
<event>
 5   0  0.1075146E-05  0.2835067E+04  0.7818609E-02  0.8292463E-01
       -1   -1    0    0    0  501  0.00000000000E+00  0.00000000000E+00  0.12903516583E+04  0.12903516583E+04  0.50400001928E-02 0.  1.
        1   -1    0    0  501    0  0.00000000000E+00  0.00000000000E+00 -0.15572509070E+04  0.15572509071E+04  0.50400001928E-02 0. -1.
    10030    2    1    2    0    0  0.00000000000E+00  0.00000000000E+00 -0.26689924874E+03  0.28476025654E+04  0.28350670471E+04 0.  0.
        2    1    3    3  502    0  0.12580179405E+04 -0.65268565219E+03 -0.10515431417E+03  0.14211492282E+04  0.25500000920E-02 0. -1.
       -2    1    3    3    0  502 -0.12580179405E+04  0.65268565219E+03 -0.16174493457E+03  0.14264533371E+04  0.25500000920E-02 0.  1.
</event>
<event>
 5   0  0.2624815E-05  0.2534364E+04  0.7818609E-02  0.8390844E-01
        2   -1    0    0  501    0  0.00000000000E+00  0.00000000000E+00  0.22479215402E+04  0.22479215402E+04  0.25500000920E-02 0.  1.
       -2   -1    0    0    0  501  0.00000000000E+00  0.00000000000E+00 -0.71432664978E+03  0.71432664978E+03  0.25500000920E-02 0. -1.
    10030    2    1    2    0    0  0.00000000000E+00  0.00000000000E+00  0.15335948904E+04  0.29622481900E+04  0.25343640329E+04 0.  0.
        4    1    3    3  502    0  0.10883391883E+04  0.10364413734E+03  0.15156941322E+04  0.18688377702E+04  0.12699999809E+01 0.  1.
       -4    1    3    3    0  502 -0.10883391883E+04 -0.10364413734E+03  0.17900758160E+02  0.10934104197E+04  0.12699999809E+01 0. -1.
</event>
<event>
 5   0  0.1105862E-05  0.2858556E+04  0.7818609E-02  0.8285316E-01
        1   -1    0    0  501    0  0.00000000000E+00  0.00000000000E+00  0.28932386677E+04  0.28932386677E+04  0.50400001928E-02 0.  1.
       -1   -1    0    0    0  501  0.00000000000E+00  0.00000000000E+00 -0.70607217416E+03  0.70607217417E+03  0.50400001928E-02 0. -1.
    10030    2    1    2    0    0  0.00000000000E+00  0.00000000000E+00  0.21871664935E+04  0.35993108419E+04  0.28585558007E+04 0.  0.
        3    1    3    3  502    0 -0.83286819182E+03 -0.10777343105E+04  0.16390299622E+04  0.21311029764E+04  0.10100000352E+00 0. -1.
       -3    1    3    3    0  502  0.83286819182E+03  0.10777343105E+04  0.54813653130E+03  0.14682078654E+04  0.10100000352E+00 0.  1.
</event>
<event>
 5   0  0.2588048E-05  0.2773514E+04  0.7818609E-02  0.8311539E-01
       -2   -1    0    0    0  501  0.00000000000E+00  0.00000000000E+00  0.81359065235E+03  0.81359065236E+03  0.25500000920E-02 0. -1.
        2   -1    0    0  501    0  0.00000000000E+00  0.00000000000E+00 -0.23637125671E+04  0.23637125671E+04  0.25500000920E-02 0.  1.
    10030    2    1    2    0    0  0.00000000000E+00  0.00000000000E+00 -0.15501219148E+04  0.31773032195E+04  0.27735136196E+04 0.  0.
        2    1    3    3  502    0  0.72545429275E+03  0.58050898680E+03  0.40429357808E+03  0.10132758321E+04  0.25500000920E-02 0. -1.
       -2    1    3    3    0  502 -0.72545429275E+03 -0.58050898680E+03 -0.19544154928E+04  0.21640273874E+04  0.25500000920E-02 0.  1.
</event>
<event>
 5   0  0.2624815E-05  0.2870553E+04  0.7818609E-02  0.8281693E-01
        2   -1    0    0  501    0  0.00000000000E+00  0.00000000000E+00  0.22967888988E+04  0.22967888988E+04  0.25500000920E-02 0. -1.
       -2   -1    0    0    0  501  0.00000000000E+00  0.00000000000E+00 -0.89691246491E+03  0.89691246491E+03  0.25500000920E-02 0.  1.
    10030    2    1    2    0    0  0.00000000000E+00  0.00000000000E+00  0.13998764339E+04  0.31937013638E+04  0.28705529730E+04 0.  0.
        4    1    3    3  502    0 -0.12541274264E+04  0.66321624175E+03  0.45790399398E+03  0.14907612369E+04  0.12699999809E+01 0.  1.
       -4    1    3    3    0  502  0.12541274264E+04 -0.66321624175E+03  0.94197243995E+03  0.17029401268E+04  0.12699999809E+01 0. -1.
</event>
<event>
 5   0  0.1017456E-05  0.1430284E+04  0.7818609E-02  0.8932184E-01
        1   -1    0    0  501    0  0.00000000000E+00  0.00000000000E+00  0.10648579112E+04  0.10648579113E+04  0.50400001928E-02 0.  1.
       -1   -1    0    0    0  501  0.00000000000E+00  0.00000000000E+00 -0.48027828761E+03  0.48027828764E+03  0.50400001928E-02 0. -1.
    10030    2    1    2    0    0  0.00000000000E+00  0.00000000000E+00  0.58457962364E+03  0.15451361989E+04  0.14302840756E+04 0.  0.
        5    1    3    3  502    0  0.20491880325E+03 -0.23550484335E+03 -0.40276547319E+03  0.50960412436E+03  0.46999998093E+01 0. -1.
       -5    1    3    3    0  502 -0.20491880325E+03  0.23550484335E+03  0.98734509683E+03  0.10355320745E+04  0.46999998093E+01 0.  1.
</event>
<event>
 5   0  0.1075146E-05  0.2767074E+04  0.7818609E-02  0.8313564E-01
       -1   -1    0    0    0  501  0.00000000000E+00  0.00000000000E+00  0.10849443408E+04  0.10849443408E+04  0.50400001928E-02 0.  1.
        1   -1    0    0  501    0  0.00000000000E+00  0.00000000000E+00 -0.17643070785E+04  0.17643070785E+04  0.50400001928E-02 0. -1.
    10030    2    1    2    0    0  0.00000000000E+00  0.00000000000E+00 -0.67936273778E+03  0.28492514193E+04  0.27670742529E+04 0.  0.
        2    1    3    3  502    0  0.19134133048E+02  0.68266201085E+03  0.89929054916E+03  0.11292107987E+04  0.25500000920E-02 0.  1.
       -2    1    3    3    0  502 -0.19134133048E+02 -0.68266201085E+03 -0.15786532869E+04  0.17200406206E+04  0.25500000920E-02 0. -1.
</event>
<event>
 5   0  0.2588048E-05  0.2797614E+04  0.7818609E-02  0.8304010E-01
       -2   -1    0    0    0  501  0.00000000000E+00  0.00000000000E+00  0.86566523519E+03  0.86566523520E+03  0.25500000920E-02 0. -1.
        2   -1    0    0  501    0  0.00000000000E+00  0.00000000000E+00 -0.22602970478E+04  0.22602970478E+04  0.25500000920E-02 0.  1.
    10030    2    1    2    0    0  0.00000000000E+00  0.00000000000E+00 -0.13946318126E+04  0.31259622830E+04  0.27976136799E+04 0.  0.
        2    1    3    3  502    0  0.49303712210E+03  0.13009286448E+04 -0.85985208827E+03  0.16354958136E+04  0.25500000920E-02 0.  1.
       -2    1    3    3    0  502 -0.49303712210E+03 -0.13009286448E+04 -0.53477972434E+03  0.14904664694E+04  0.25500000920E-02 0. -1.
</event>
<event>
 5   0  0.2651061E-05  0.2818075E+04  0.7818609E-02  0.8297679E-01
        2   -1    0    0  501    0  0.00000000000E+00  0.00000000000E+00  0.12599029633E+04  0.12599029633E+04  0.25500000920E-02 0.  1.
       -2   -1    0    0    0  501  0.00000000000E+00  0.00000000000E+00 -0.15758248357E+04  0.15758248357E+04  0.25500000920E-02 0. -1.
    10030    2    1    2    0    0  0.00000000000E+00  0.00000000000E+00 -0.31592187237E+03  0.28357277990E+04  0.28180747898E+04 0.  0.
        3    1    3    3  502    0 -0.16274240868E+03  0.13025881653E+04 -0.67318919105E+03  0.14752642872E+04  0.10100000352E+00 0. -1.
       -3    1    3    3    0  502  0.16274240868E+03 -0.13025881653E+04  0.35726731868E+03  0.13604635119E+04  0.10100000352E+00 0.  1.
</event>
<event>
 5   0  0.2518686E-05  0.2804591E+04  0.7818609E-02  0.8301844E-01
       -2   -1    0    0    0  501  0.00000000000E+00  0.00000000000E+00  0.81921802483E+03  0.81921802483E+03  0.25500000920E-02 0.  1.
        2   -1    0    0  501    0  0.00000000000E+00  0.00000000000E+00 -0.24003775988E+04  0.24003775988E+04  0.25500000920E-02 0. -1.
    10030    2    1    2    0    0  0.00000000000E+00  0.00000000000E+00 -0.15811595740E+04  0.32195956236E+04  0.28045909472E+04 0.  0.
        5    1    3    3  502    0  0.62040752134E+03 -0.52471231972E+03  0.52141964460E+03  0.96546830438E+03  0.46999998093E+01 0.  1.
       -5    1    3    3    0  502 -0.62040752134E+03  0.52471231972E+03 -0.21025792186E+04  0.22541273193E+04  0.46999998093E+01 0. -1.
</event>
<event>
 5   0  0.1075146E-05  0.1953574E+04  0.7818609E-02  0.8628639E-01
        1   -1    0    0  501    0  0.00000000000E+00  0.00000000000E+00  0.16846176436E+04  0.16846176436E+04  0.50400001928E-02 0.  1.
       -1   -1    0    0    0  501  0.00000000000E+00  0.00000000000E+00 -0.56636763755E+03  0.56636763757E+03  0.50400001928E-02 0. -1.
    10030    2    1    2    0    0  0.00000000000E+00  0.00000000000E+00  0.11182500060E+04  0.22509852812E+04  0.19535740733E+04 0.  0.
        2    1    3    3  502    0  0.20785232927E+03  0.36453752980E+02  0.16580386562E+04  0.16714136689E+04  0.25500000920E-02 0.  1.
       -2    1    3    3    0  502 -0.20785232927E+03 -0.36453752980E+02 -0.53978865020E+03  0.57957161230E+03  0.25500000920E-02 0. -1.
</event>
<event>
 5   0  0.2588048E-05  0.2790122E+04  0.7818609E-02  0.8306342E-01
        2   -1    0    0  501    0  0.00000000000E+00  0.00000000000E+00  0.18554785510E+04  0.18554785510E+04  0.25500000920E-02 0. -1.
       -2   -1    0    0    0  501  0.00000000000E+00  0.00000000000E+00 -0.10488913884E+04  0.10488913884E+04  0.25500000920E-02 0.  1.
    10030    2    1    2    0    0  0.00000000000E+00  0.00000000000E+00  0.80658716257E+03  0.29043699394E+04  0.27901222005E+04 0.  0.
        2    1    3    3  502    0  0.14265633296E+03  0.15304496969E+03 -0.10324673273E+04  0.10534525969E+04  0.25500000920E-02 0.  1.
       -2    1    3    3    0  502 -0.14265633296E+03 -0.15304496969E+03  0.18390544898E+04  0.18509173425E+04  0.25500000920E-02 0. -1.
</event>
<event>
 5   0  0.1075146E-05  0.2586007E+04  0.7818609E-02  0.8372970E-01
        1   -1    0    0  501    0  0.00000000000E+00  0.00000000000E+00  0.17428169869E+04  0.17428169869E+04  0.50400001928E-02 0. -1.
       -1   -1    0    0    0  501  0.00000000000E+00  0.00000000000E+00 -0.95928462977E+03  0.95928462979E+03  0.50400001928E-02 0.  1.
    10030    2    1    2    0    0  0.00000000000E+00  0.00000000000E+00  0.78353235716E+03  0.27021016167E+04  0.25860066110E+04 0.  0.
        2    1    3    3  502    0 -0.16883380319E+03  0.12816643698E+04  0.41919613978E+03  0.13590047143E+04  0.25500000920E-02 0. -1.
       -2    1    3    3    0  502  0.16883380319E+03 -0.12816643698E+04  0.36433621738E+03  0.13430969024E+04  0.25500000920E-02 0.  1.
</event>
<event>
 5   0  0.2518686E-05  0.2765336E+04  0.7818609E-02  0.8314112E-01
       -2   -1    0    0    0  501  0.00000000000E+00  0.00000000000E+00  0.93638583712E+03  0.93638583713E+03  0.25500000920E-02 0.  1.
        2   -1    0    0  501    0  0.00000000000E+00  0.00000000000E+00 -0.20416489143E+04  0.20416489143E+04  0.25500000920E-02 0. -1.
    10030    2    1    2    0    0  0.00000000000E+00  0.00000000000E+00 -0.11052630772E+04  0.29780347515E+04  0.27653362383E+04 0.  0.
        5    1    3    3  502    0 -0.93553383308E+03  0.29176459165E+03  0.49778884506E+03  0.10991660266E+04  0.46999998093E+01 0.  1.
       -5    1    3    3    0  502  0.93553383308E+03 -0.29176459165E+03 -0.16030519223E+04  0.18788687249E+04  0.46999998093E+01 0. -1.
</event>
<event>
 5   0  0.1078103E-05  0.2760117E+04  0.7818609E-02  0.8315758E-01
       -1   -1    0    0    0  501  0.00000000000E+00  0.00000000000E+00  0.10431658830E+04  0.10431658830E+04  0.50400001928E-02 0. -1.
        1   -1    0    0  501    0  0.00000000000E+00  0.00000000000E+00 -0.18257512564E+04  0.18257512564E+04  0.50400001928E-02 0.  1.
    10030    2    1    2    0    0  0.00000000000E+00  0.00000000000E+00 -0.78258537346E+03  0.28689171394E+04  0.27601169696E+04 0.  0.
        1    1    3    3  502    0  0.13636480188E+04  0.17424504007E+03 -0.51716181896E+03  0.14687932462E+04  0.50400001928E-02 0.  1.
       -1    1    3    3    0  502 -0.13636480188E+04 -0.17424504007E+03 -0.26542355450E+03  0.14001238932E+04  0.50400001928E-02 0. -1.
</event>
<event>
 5   0  0.1075146E-05  0.2645216E+04  0.7818609E-02  0.8353003E-01
       -1   -1    0    0    0  501  0.00000000000E+00  0.00000000000E+00  0.95476592832E+03  0.95476592833E+03  0.50400001928E-02 0. -1.
        1   -1    0    0  501    0  0.00000000000E+00  0.00000000000E+00 -0.18321681172E+04  0.18321681172E+04  0.50400001928E-02 0.  1.
    10030    2    1    2    0    0  0.00000000000E+00  0.00000000000E+00 -0.87740218884E+03  0.27869340455E+04  0.26452158273E+04 0.  0.
        2    1    3    3  502    0  0.31504442528E+03  0.53627807296E+03  0.79107201812E+03  0.10063011971E+04  0.25500000920E-02 0. -1.
       -2    1    3    3    0  502 -0.31504442528E+03 -0.53627807296E+03 -0.16684742070E+04  0.17806328484E+04  0.25500000920E-02 0.  1.
</event>
<event>
 5   0  0.1078103E-05  0.2774668E+04  0.7818609E-02  0.8311176E-01
        1   -1    0    0  501    0  0.00000000000E+00  0.00000000000E+00  0.96361231569E+03  0.96361231570E+03  0.50400001928E-02 0.  1.
       -1   -1    0    0    0  501  0.00000000000E+00  0.00000000000E+00 -0.19973748254E+04  0.19973748254E+04  0.50400001928E-02 0. -1.
    10030    2    1    2    0    0  0.00000000000E+00  0.00000000000E+00 -0.10337625097E+04  0.29609871411E+04  0.27746675339E+04 0.  0.
        1    1    3    3  502    0 -0.10978133466E+04  0.58472229798E+03 -0.11726367636E+04  0.17094359564E+04  0.50400001928E-02 0. -1.
       -1    1    3    3    0  502  0.10978133466E+04 -0.58472229798E+03  0.13887425381E+03  0.12515511848E+04  0.50400001928E-02 0.  1.
</event>
<event>
 5   0  0.2518686E-05  0.2843190E+04  0.7818609E-02  0.8289984E-01
       -2   -1    0    0    0  501  0.00000000000E+00  0.00000000000E+00  0.25782570687E+04  0.25782570687E+04  0.25500000920E-02 0.  1.
        2   -1    0    0  501    0  0.00000000000E+00  0.00000000000E+00 -0.78383667310E+03  0.78383667310E+03  0.25500000920E-02 0. -1.
    10030    2    1    2    0    0  0.00000000000E+00  0.00000000000E+00  0.17944203956E+04  0.33620937418E+04  0.28431900697E+04 0.  0.
        5    1    3    3  502    0 -0.88243565831E+02  0.63719402327E+03 -0.60187511229E+03  0.88095339887E+03  0.46999998093E+01 0. -1.
       -5    1    3    3    0  502  0.88243565831E+02 -0.63719402327E+03  0.23962955079E+04  0.24811403429E+04  0.46999998093E+01 0.  1.
</event>
<event>
 5   0  0.1017456E-05  0.2286164E+04  0.7818609E-02  0.8483396E-01
        1   -1    0    0  501    0  0.00000000000E+00  0.00000000000E+00  0.11494913677E+04  0.11494913677E+04  0.50400001928E-02 0. -1.
       -1   -1    0    0    0  501  0.00000000000E+00  0.00000000000E+00 -0.11367088099E+04  0.11367088099E+04  0.50400001928E-02 0.  1.
    10030    2    1    2    0    0  0.00000000000E+00  0.00000000000E+00  0.12782557796E+02  0.22862001775E+04  0.22861644425E+04 0.  0.
        5    1    3    3  502    0 -0.32405563587E+03 -0.12139408617E+03 -0.10830596834E+04  0.11370087718E+04  0.46999998093E+01 0.  1.
       -5    1    3    3    0  502  0.32405563587E+03  0.12139408617E+03  0.10958422412E+04  0.11491914057E+04  0.46999998093E+01 0. -1.
</event>
<event>
 5   0  0.1105862E-05  0.3093883E+04  0.7818609E-02  0.8217419E-01
       -1   -1    0    0    0  501  0.00000000000E+00  0.00000000000E+00  0.31548097949E+04  0.31548097949E+04  0.50400001928E-02 0.  1.
        1   -1    0    0  501    0  0.00000000000E+00  0.00000000000E+00 -0.75853305587E+03  0.75853305588E+03  0.50400001928E-02 0. -1.
    10030    2    1    2    0    0  0.00000000000E+00  0.00000000000E+00  0.23962767390E+04  0.39133428508E+04  0.30938826832E+04 0.  0.
        3    1    3    3  502    0  0.12775004945E+04 -0.80302368230E+03  0.16292567882E+04  0.22206603162E+04  0.10100000352E+00 0.  1.
       -3    1    3    3    0  502 -0.12775004945E+04  0.80302368230E+03  0.76701995081E+03  0.16926825346E+04  0.10100000352E+00 0. -1.
</event>
<event>
 5   0  0.2697964E-05  0.1708093E+04  0.7818609E-02  0.8756762E-01
        2   -1    0    0  501    0  0.00000000000E+00  0.00000000000E+00  0.18500306251E+04  0.18500306251E+04  0.25500000920E-02 0.  1.
       -2   -1    0    0    0  501  0.00000000000E+00  0.00000000000E+00 -0.39426111286E+03  0.39426111287E+03  0.25500000920E-02 0. -1.
    10030    2    1    2    0    0  0.00000000000E+00  0.00000000000E+00  0.14557695122E+04  0.22442917380E+04  0.17080926592E+04 0.  0.
        1    1    3    3  502    0  0.35324422263E+03  0.61004069436E+03  0.13613834749E+04  0.15330675443E+04  0.50400001928E-02 0.  1.
       -1    1    3    3    0  502 -0.35324422263E+03 -0.61004069436E+03  0.94386037326E+02  0.71122419367E+03  0.50400001928E-02 0. -1.
</event>
<event>
 5   0  0.1105862E-05  0.2753365E+04  0.7818609E-02  0.8317895E-01
        1   -1    0    0  501    0  0.00000000000E+00  0.00000000000E+00  0.19398360405E+04  0.19398360405E+04  0.50400001928E-02 0. -1.
       -1   -1    0    0    0  501  0.00000000000E+00  0.00000000000E+00 -0.97701764791E+03  0.97701764793E+03  0.50400001928E-02 0.  1.
    10030    2    1    2    0    0  0.00000000000E+00  0.00000000000E+00  0.96281839255E+03  0.29168536884E+04  0.27533645205E+04 0.  0.
        3    1    3    3  502    0  0.48951971646E+03 -0.12568172977E+04  0.18929206206E+03  0.13620024844E+04  0.10100000352E+00 0. -1.
       -3    1    3    3    0  502 -0.48951971646E+03  0.12568172977E+04  0.77352633049E+03  0.15548512040E+04  0.10100000352E+00 0.  1.
</event>
<event>
 5   0  0.2651061E-05  0.2359925E+04  0.7818609E-02  0.8454661E-01
        2   -1    0    0  501    0  0.00000000000E+00  0.00000000000E+00  0.13889472576E+04  0.13889472576E+04  0.25500000920E-02 0.  1.
       -2   -1    0    0    0  501  0.00000000000E+00  0.00000000000E+00 -0.10024224482E+04  0.10024224482E+04  0.25500000920E-02 0. -1.
    10030    2    1    2    0    0  0.00000000000E+00  0.00000000000E+00  0.38652480944E+03  0.23913697058E+04  0.23599253466E+04 0.  0.
        3    1    3    3  502    0 -0.97178116412E+03 -0.52700990982E+03 -0.22480458091E+03  0.11281113357E+04  0.10100000352E+00 0. -1.
       -3    1    3    3    0  502  0.97178116412E+03  0.52700990982E+03  0.61132939036E+03  0.12632583701E+04  0.10100000352E+00 0.  1.
</event>
<event>
 5   0  0.1078103E-05  0.2813741E+04  0.7818609E-02  0.8299015E-01
        1   -1    0    0  501    0  0.00000000000E+00  0.00000000000E+00  0.20353302776E+04  0.20353302776E+04  0.50400001928E-02 0. -1.
       -1   -1    0    0    0  501  0.00000000000E+00  0.00000000000E+00 -0.97246374110E+03  0.97246374111E+03  0.50400001928E-02 0.  1.
    10030    2    1    2    0    0  0.00000000000E+00  0.00000000000E+00  0.10628665365E+04  0.30077940187E+04  0.28137412078E+04 0.  0.
        1    1    3    3  502    0  0.15838707750E+03 -0.13957070707E+04  0.44726141705E+03  0.14741531361E+04  0.50400001928E-02 0.  1.
       -1    1    3    3    0  502 -0.15838707750E+03  0.13957070707E+04  0.61560511945E+03  0.15336408826E+04  0.50400001928E-02 0. -1.
</event>
<event>
 5   0  0.1078103E-05  0.2853370E+04  0.7818609E-02  0.8286888E-01
        1   -1    0    0  501    0  0.00000000000E+00  0.00000000000E+00  0.16790137251E+04  0.16790137251E+04  0.50400001928E-02 0.  1.
       -1   -1    0    0    0  501  0.00000000000E+00  0.00000000000E+00 -0.12122774737E+04  0.12122774737E+04  0.50400001928E-02 0. -1.
    10030    2    1    2    0    0  0.00000000000E+00  0.00000000000E+00  0.46673625138E+03  0.28912911989E+04  0.28533702999E+04 0.  0.
        1    1    3    3  502    0  0.11494280218E+04 -0.76208357826E+03  0.60356489182E+03  0.15054058377E+04  0.50400001928E-02 0.  1.
       -1    1    3    3    0  502 -0.11494280218E+04  0.76208357826E+03 -0.13682864044E+03  0.13858853612E+04  0.50400001928E-02 0. -1.
</event>
<event>
 5   0  0.2697964E-05  0.2690869E+04  0.7818609E-02  0.8337974E-01
        2   -1    0    0  501    0  0.00000000000E+00  0.00000000000E+00  0.18528526312E+04  0.18528526312E+04  0.25500000920E-02 0. -1.
       -2   -1    0    0    0  501  0.00000000000E+00  0.00000000000E+00 -0.97697682222E+03  0.97697682222E+03  0.25500000920E-02 0.  1.
    10030    2    1    2    0    0  0.00000000000E+00  0.00000000000E+00  0.87587580899E+03  0.28298294534E+04  0.26908690609E+04 0.  0.
        1    1    3    3  502    0 -0.17560838509E+02 -0.79966457725E+03  0.15756673104E+04  0.17670595044E+04  0.50400001928E-02 0. -1.
       -1    1    3    3    0  502  0.17560838509E+02  0.79966457725E+03 -0.69979150136E+03  0.10627699490E+04  0.50400001928E-02 0.  1.
</event>
<event>
 5   0  0.1078103E-05  0.2691013E+04  0.7818609E-02  0.8337927E-01
       -1   -1    0    0    0  501  0.00000000000E+00  0.00000000000E+00  0.16309043831E+04  0.16309043831E+04  0.50400001928E-02 0.  1.
        1   -1    0    0  501    0  0.00000000000E+00  0.00000000000E+00 -0.11100517634E+04  0.11100517634E+04  0.50400001928E-02 0. -1.
    10030    2    1    2    0    0  0.00000000000E+00  0.00000000000E+00  0.52085261971E+03  0.27409561465E+04  0.26910134050E+04 0.  0.
        1    1    3    3  502    0  0.91788927952E+03  0.69187419604E+03  0.97281912525E+03  0.15058511490E+04  0.50400001928E-02 0.  1.
       -1    1    3    3    0  502 -0.91788927952E+03 -0.69187419604E+03 -0.45196650553E+03  0.12351049975E+04  0.50400001928E-02 0. -1.
</event>
<event>
 5   0  0.1078103E-05  0.2756834E+04  0.7818609E-02  0.8316796E-01
       -1   -1    0    0    0  501  0.00000000000E+00  0.00000000000E+00  0.90552980166E+03  0.90552980167E+03  0.50400001928E-02 0. -1.
        1   -1    0    0  501    0  0.00000000000E+00  0.00000000000E+00 -0.20982555272E+04  0.20982555272E+04  0.50400001928E-02 0.  1.
    10030    2    1    2    0    0  0.00000000000E+00  0.00000000000E+00 -0.11927257255E+04  0.30037853289E+04  0.27568336268E+04 0.  0.
        1    1    3    3  502    0  0.15728588692E+03  0.20162537381E+03 -0.20721846369E+04  0.20879034487E+04  0.50400001928E-02 0.  1.
       -1    1    3    3    0  502 -0.15728588692E+03 -0.20162537381E+03  0.87945891139E+03  0.91588188017E+03  0.50400001928E-02 0. -1.
</event>
<event>
 5   0  0.2651061E-05  0.2817270E+04  0.7818609E-02  0.8297927E-01
       -2   -1    0    0    0  501  0.00000000000E+00  0.00000000000E+00  0.13700498326E+04  0.13700498326E+04  0.25500000920E-02 0. -1.
        2   -1    0    0  501    0  0.00000000000E+00  0.00000000000E+00 -0.14483067671E+04  0.14483067671E+04  0.25500000920E-02 0.  1.
    10030    2    1    2    0    0  0.00000000000E+00  0.00000000000E+00 -0.78256934536E+02  0.28183565997E+04  0.28172699152E+04 0.  0.
        3    1    3    3  502    0 -0.87630042787E+03 -0.72589077047E+03 -0.86976951190E+03  0.14322425998E+04  0.10100000352E+00 0. -1.
       -3    1    3    3    0  502  0.87630042787E+03  0.72589077047E+03  0.79151257736E+03  0.13861139999E+04  0.10100000352E+00 0.  1.
</event>
<event>
 5   0  0.2518686E-05  0.2786167E+04  0.7818609E-02  0.8307576E-01
       -2   -1    0    0    0  501  0.00000000000E+00  0.00000000000E+00  0.12940953145E+04  0.12940953145E+04  0.25500000920E-02 0.  1.
        2   -1    0    0  501    0  0.00000000000E+00  0.00000000000E+00 -0.14996437612E+04  0.14996437612E+04  0.25500000920E-02 0. -1.
    10030    2    1    2    0    0  0.00000000000E+00  0.00000000000E+00 -0.20554844674E+03  0.27937390757E+04  0.27861672345E+04 0.  0.
        5    1    3    3  502    0 -0.75683873966E+03  0.48276835354E+03  0.96538589035E+03  0.13182800038E+04  0.46999998093E+01 0.  1.
       -5    1    3    3    0  502  0.75683873966E+03 -0.48276835354E+03 -0.11709343371E+04  0.14754590719E+04  0.46999998093E+01 0. -1.
</event>
<event>
 5   0  0.2588048E-05  0.1518006E+04  0.7818609E-02  0.8872567E-01
        2   -1    0    0  501    0  0.00000000000E+00  0.00000000000E+00  0.17039851345E+04  0.17039851345E+04  0.25500000920E-02 0. -1.
       -2   -1    0    0    0  501  0.00000000000E+00  0.00000000000E+00 -0.33808111298E+03  0.33808111299E+03  0.25500000920E-02 0.  1.
    10030    2    1    2    0    0  0.00000000000E+00  0.00000000000E+00  0.13659040216E+04  0.20420662475E+04  0.15180055215E+04 0.  0.
        2    1    3    3  502    0  0.29448527882E+03 -0.19452336832E+03 -0.22098262141E+03  0.41640633909E+03  0.25500000920E-02 0.  1.
       -2    1    3    3    0  502 -0.29448527882E+03  0.19452336832E+03  0.15868866430E+04  0.16256599084E+04  0.25500000920E-02 0. -1.
</event>
<event>
 5   0  0.2588048E-05  0.2711980E+04  0.7818609E-02  0.8331128E-01
       -2   -1    0    0    0  501  0.00000000000E+00  0.00000000000E+00  0.20626061403E+04  0.20626061403E+04  0.25500000920E-02 0.  1.
        2   -1    0    0  501    0  0.00000000000E+00  0.00000000000E+00 -0.89144956964E+03  0.89144956964E+03  0.25500000920E-02 0. -1.
    10030    2    1    2    0    0  0.00000000000E+00  0.00000000000E+00  0.11711565707E+04  0.29540557100E+04  0.27119803511E+04 0.  0.
        2    1    3    3  502    0 -0.33141364778E+03  0.43832386182E+03 -0.76473103400E+03  0.94168804184E+03  0.25500000920E-02 0. -1.
       -2    1    3    3    0  502  0.33141364778E+03 -0.43832386182E+03  0.19358876047E+04  0.20123676681E+04  0.25500000920E-02 0.  1.
</event>
<event>
 5   0  0.2651061E-05  0.2785897E+04  0.7818609E-02  0.8307660E-01
       -2   -1    0    0    0  501  0.00000000000E+00  0.00000000000E+00  0.93817406041E+03  0.93817406041E+03  0.25500000920E-02 0.  1.
        2   -1    0    0  501    0  0.00000000000E+00  0.00000000000E+00 -0.20681721672E+04  0.20681721672E+04  0.25500000920E-02 0. -1.
    10030    2    1    2    0    0  0.00000000000E+00  0.00000000000E+00 -0.11299981068E+04  0.30063462276E+04  0.27858969684E+04 0.  0.
        3    1    3    3  502    0 -0.37529367904E+03  0.12606132332E+04 -0.10598887921E+04  0.16891877726E+04  0.10100000352E+00 0.  1.
       -3    1    3    3    0  502  0.37529367904E+03 -0.12606132332E+04 -0.70109314694E+02  0.13171584550E+04  0.10100000352E+00 0. -1.
</event>
<event>
 5   0  0.1075146E-05  0.2771305E+04  0.7818609E-02  0.8312233E-01
       -1   -1    0    0    0  501  0.00000000000E+00  0.00000000000E+00  0.91462480430E+03  0.91462480432E+03  0.50400001928E-02 0.  1.
        1   -1    0    0  501    0  0.00000000000E+00  0.00000000000E+00 -0.20992569951E+04  0.20992569951E+04  0.50400001928E-02 0. -1.
    10030    2    1    2    0    0  0.00000000000E+00  0.00000000000E+00 -0.11846321908E+04  0.30138817995E+04  0.27713047601E+04 0.  0.
        2    1    3    3  502    0 -0.58150942675E+03  0.11531641589E+04 -0.46280159652E+02  0.12923167738E+04  0.25500000920E-02 0. -1.
       -2    1    3    3    0  502  0.58150942675E+03 -0.11531641589E+04 -0.11383520312E+04  0.17215650257E+04  0.25500000920E-02 0.  1.
</event>
<event>
 5   0  0.2697964E-05  0.2067250E+04  0.7818609E-02  0.8575809E-01
       -2   -1    0    0    0  501  0.00000000000E+00  0.00000000000E+00  0.46595633565E+03  0.46595633566E+03  0.25500000920E-02 0.  1.
        2   -1    0    0  501    0  0.00000000000E+00  0.00000000000E+00 -0.22928767074E+04  0.22928767074E+04  0.25500000920E-02 0. -1.
    10030    2    1    2    0    0  0.00000000000E+00  0.00000000000E+00 -0.18269203718E+04  0.27588330431E+04  0.20672497950E+04 0.  0.
        1    1    3    3  502    0  0.90109981557E+03 -0.40905101537E+03 -0.13117643149E+04  0.16431765665E+04  0.50400001928E-02 0. -1.
       -1    1    3    3    0  502 -0.90109981557E+03  0.40905101537E+03 -0.51515605687E+03  0.11156564766E+04  0.50400001928E-02 0.  1.
</event>
<event>
 5   0  0.1105862E-05  0.2770337E+04  0.7818609E-02  0.8312537E-01
        1   -1    0    0  501    0  0.00000000000E+00  0.00000000000E+00  0.14147953141E+04  0.14147953141E+04  0.50400001928E-02 0.  1.
       -1   -1    0    0    0  501  0.00000000000E+00  0.00000000000E+00 -0.13561617662E+04  0.13561617662E+04  0.50400001928E-02 0. -1.
    10030    2    1    2    0    0  0.00000000000E+00  0.00000000000E+00  0.58633547868E+02  0.27709570803E+04  0.27703366669E+04 0.  0.
        3    1    3    3  502    0  0.13243573328E+04  0.19316597518E+02  0.43486512715E+03  0.13940599574E+04  0.10100000352E+00 0.  1.
       -3    1    3    3    0  502 -0.13243573328E+04 -0.19316597518E+02 -0.37623157928E+03  0.13768971230E+04  0.10100000352E+00 0. -1.
</event>
<event>
 5   0  0.1105862E-05  0.2059421E+04  0.7818609E-02  0.8579333E-01
        1   -1    0    0  501    0  0.00000000000E+00  0.00000000000E+00  0.59800411839E+03  0.59800411841E+03  0.50400001928E-02 0. -1.
       -1   -1    0    0    0  501  0.00000000000E+00  0.00000000000E+00 -0.17730703054E+04  0.17730703054E+04  0.50400001928E-02 0.  1.
    10030    2    1    2    0    0  0.00000000000E+00  0.00000000000E+00 -0.11750661870E+04  0.23710744239E+04  0.20594206417E+04 0.  0.
        3    1    3    3  502    0  0.68787565553E+03 -0.10889022249E+03 -0.14607803849E+04  0.16183044649E+04  0.10100000352E+00 0.  1.
       -3    1    3    3    0  502 -0.68787565553E+03  0.10889022249E+03  0.28571419786E+03  0.75276995895E+03  0.10100000352E+00 0. -1.
</event>
<event>
 5   0  0.1067434E-05  0.3090077E+04  0.7818609E-02  0.8218466E-01
       -1   -1    0    0    0  501  0.00000000000E+00  0.00000000000E+00  0.13450486788E+04  0.13450486788E+04  0.50400001928E-02 0.  1.
        1   -1    0    0  501    0  0.00000000000E+00  0.00000000000E+00 -0.17747643331E+04  0.17747643331E+04  0.50400001928E-02 0. -1.
    10030    2    1    2    0    0  0.00000000000E+00  0.00000000000E+00 -0.42971565427E+03  0.31198130119E+04  0.30900772945E+04 0.  0.
        4    1    3    3  502    0  0.14082399713E+04  0.42092404197E+03  0.26598770441E+03  0.14936759814E+04  0.12699999809E+01 0.  1.
       -4    1    3    3    0  502 -0.14082399713E+04 -0.42092404197E+03 -0.69570335868E+03  0.16261370305E+04  0.12699999809E+01 0. -1.
</event>
<event>
 5   0  0.2624815E-05  0.2659591E+04  0.7818609E-02  0.8348237E-01
       -2   -1    0    0    0  501  0.00000000000E+00  0.00000000000E+00  0.79777954755E+03  0.79777954756E+03  0.25500000920E-02 0. -1.
        2   -1    0    0  501    0  0.00000000000E+00  0.00000000000E+00 -0.22165978527E+04  0.22165978527E+04  0.25500000920E-02 0.  1.
    10030    2    1    2    0    0  0.00000000000E+00  0.00000000000E+00 -0.14188183052E+04  0.30143774003E+04  0.26595912709E+04 0.  0.
        4    1    3    3  502    0 -0.25184766363E+03 -0.12655084761E+04 -0.34492695431E+03  0.13356328708E+04  0.12699999809E+01 0. -1.
       -4    1    3    3    0  502  0.25184766363E+03  0.12655084761E+04 -0.10738913509E+04  0.16787445295E+04  0.12699999809E+01 0.  1.
</event>
<event>
 5   0  0.1105862E-05  0.2812461E+04  0.7818609E-02  0.8299410E-01
       -1   -1    0    0    0  501  0.00000000000E+00  0.00000000000E+00  0.14655683241E+04  0.14655683241E+04  0.50400001928E-02 0.  1.
        1   -1    0    0  501    0  0.00000000000E+00  0.00000000000E+00 -0.13492949341E+04  0.13492949341E+04  0.50400001928E-02 0. -1.
    10030    2    1    2    0    0  0.00000000000E+00  0.00000000000E+00  0.11627339000E+03  0.28148632582E+04  0.28124607840E+04 0.  0.
        3    1    3    3  502    0 -0.11723229961E+04 -0.52098745945E+03  0.63457552538E+03  0.14312425538E+04  0.10100000352E+00 0. -1.
       -3    1    3    3    0  502  0.11723229961E+04  0.52098745945E+03 -0.51830213538E+03  0.13836207045E+04  0.10100000352E+00 0.  1.
</event>
<event>
 5   0  0.2518686E-05  0.2574156E+04  0.7818609E-02  0.8377033E-01
       -2   -1    0    0    0  501  0.00000000000E+00  0.00000000000E+00  0.18403567324E+04  0.18403567324E+04  0.25500000920E-02 0. -1.
        2   -1    0    0  501    0  0.00000000000E+00  0.00000000000E+00 -0.90013510666E+03  0.90013510666E+03  0.25500000920E-02 0.  1.
    10030    2    1    2    0    0  0.00000000000E+00  0.00000000000E+00  0.94022162575E+03  0.27404918391E+04  0.25741559421E+04 0.  0.
        5    1    3    3  502    0  0.12134765373E+04  0.38713954593E+03  0.66683555868E+03  0.14377392277E+04  0.46999998093E+01 0. -1.
       -5    1    3    3    0  502 -0.12134765373E+04 -0.38713954593E+03  0.27338606707E+03  0.13027526113E+04  0.46999998093E+01 0.  1.
</event>
<event>
 5   0  0.1105862E-05  0.2743821E+04  0.7818609E-02  0.8320925E-01
        1   -1    0    0  501    0  0.00000000000E+00  0.00000000000E+00  0.14032252596E+04  0.14032252596E+04  0.50400001928E-02 0. -1.
       -1   -1    0    0    0  501  0.00000000000E+00  0.00000000000E+00 -0.13412946770E+04  0.13412946770E+04  0.50400001928E-02 0.  1.
    10030    2    1    2    0    0  0.00000000000E+00  0.00000000000E+00  0.61930582641E+02  0.27445199366E+04  0.27438211103E+04 0.  0.
        3    1    3    3  502    0 -0.75558425944E+03 -0.93071505379E+03  0.69821875194E+03  0.13873166618E+04  0.10100000352E+00 0.  1.
       -3    1    3    3    0  502  0.75558425944E+03  0.93071505379E+03 -0.63628816930E+03  0.13572032748E+04  0.10100000352E+00 0. -1.
</event>
<event>
 5   0  0.2697964E-05  0.1574214E+04  0.7818609E-02  0.8836548E-01
        2   -1    0    0  501    0  0.00000000000E+00  0.00000000000E+00  0.10859910915E+04  0.10859910915E+04  0.25500000920E-02 0.  1.
       -2   -1    0    0    0  501  0.00000000000E+00  0.00000000000E+00 -0.57048124670E+03  0.57048124671E+03  0.25500000920E-02 0. -1.
    10030    2    1    2    0    0  0.00000000000E+00  0.00000000000E+00  0.51550984479E+03  0.16564723382E+04  0.15742141554E+04 0.  0.
        1    1    3    3  502    0  0.48763099905E+03  0.52651393389E+03 -0.82461002923E+02  0.72235775821E+03  0.50400001928E-02 0. -1.
       -1    1    3    3    0  502 -0.48763099905E+03 -0.52651393389E+03  0.59797084772E+03  0.93411458000E+03  0.50400001928E-02 0.  1.
</event>
<event>
 5   0  0.1105862E-05  0.2256263E+04  0.7818609E-02  0.8495368E-01
        1   -1    0    0  501    0  0.00000000000E+00  0.00000000000E+00  0.13234549247E+04  0.13234549247E+04  0.50400001928E-02 0.  1.
       -1   -1    0    0    0  501  0.00000000000E+00  0.00000000000E+00 -0.96163509828E+03  0.96163509830E+03  0.50400001928E-02 0. -1.
    10030    2    1    2    0    0  0.00000000000E+00  0.00000000000E+00  0.36181982641E+03  0.22850900230E+04  0.22562630224E+04 0.  0.
        3    1    3    3  502    0 -0.56995696281E+03  0.32144163536E+03 -0.74980079162E+03  0.99517681932E+03  0.10100000352E+00 0. -1.
       -3    1    3    3    0  502  0.56995696281E+03 -0.32144163536E+03  0.11116206180E+04  0.12899132037E+04  0.10100000352E+00 0.  1.
</event>
<event>
 5   0  0.2518686E-05  0.2444111E+04  0.7818609E-02  0.8423171E-01
       -2   -1    0    0    0  501  0.00000000000E+00  0.00000000000E+00  0.56797626595E+03  0.56797626596E+03  0.25500000920E-02 0.  1.
        2   -1    0    0  501    0  0.00000000000E+00  0.00000000000E+00 -0.26293696723E+04  0.26293696723E+04  0.25500000920E-02 0. -1.
    10030    2    1    2    0    0  0.00000000000E+00  0.00000000000E+00 -0.20613934064E+04  0.31973459383E+04  0.24441109372E+04 0.  0.
        5    1    3    3  502    0 -0.11979970554E+04 -0.11444374425E+03 -0.75287113445E+03  0.14195532222E+04  0.46999998093E+01 0.  1.
       -5    1    3    3    0  502  0.11979970554E+04  0.11444374425E+03 -0.13085222719E+04  0.17777927161E+04  0.46999998093E+01 0. -1.
</event>
<event>
 5   0  0.2651061E-05  0.2752834E+04  0.7818609E-02  0.8318063E-01
        2   -1    0    0  501    0  0.00000000000E+00  0.00000000000E+00  0.18888994313E+04  0.18888994313E+04  0.25500000920E-02 0.  1.
       -2   -1    0    0    0  501  0.00000000000E+00  0.00000000000E+00 -0.10029777913E+04  0.10029777913E+04  0.25500000920E-02 0. -1.
    10030    2    1    2    0    0  0.00000000000E+00  0.00000000000E+00  0.88592164000E+03  0.28918772225E+04  0.27528343063E+04 0.  0.
        3    1    3    3  502    0 -0.14318620467E+03 -0.31453341438E+03  0.18425805056E+04  0.18747097076E+04  0.10100000352E+00 0.  1.
       -3    1    3    3    0  502  0.14318620467E+03  0.31453341438E+03 -0.95665886562E+03  0.10171675149E+04  0.10100000352E+00 0. -1.
</event>
<event>
 5   0  0.2651061E-05  0.2635825E+04  0.7818609E-02  0.8356133E-01
        2   -1    0    0  501    0  0.00000000000E+00  0.00000000000E+00  0.20697424938E+04  0.20697424938E+04  0.25500000920E-02 0. -1.
       -2   -1    0    0    0  501  0.00000000000E+00  0.00000000000E+00 -0.83918359587E+03  0.83918359587E+03  0.25500000920E-02 0.  1.
    10030    2    1    2    0    0  0.00000000000E+00  0.00000000000E+00  0.12305588979E+04  0.29089260897E+04  0.26358254483E+04 0.  0.
        3    1    3    3  502    0  0.21980887753E+03  0.95789695167E+03  0.15843300317E+04  0.18643991451E+04  0.10100000352E+00 0. -1.
       -3    1    3    3    0  502 -0.21980887753E+03 -0.95789695167E+03 -0.35377113378E+03  0.10445269446E+04  0.10100000352E+00 0.  1.
</event>
<event>
 5   0  0.1078103E-05  0.2927914E+04  0.7818609E-02  0.8264620E-01
       -1   -1    0    0    0  501  0.00000000000E+00  0.00000000000E+00  0.16047190037E+04  0.16047190037E+04  0.50400001928E-02 0. -1.
        1   -1    0    0  501    0  0.00000000000E+00  0.00000000000E+00 -0.13355419998E+04  0.13355419998E+04  0.50400001928E-02 0.  1.
    10030    2    1    2    0    0  0.00000000000E+00  0.00000000000E+00  0.26917700385E+03  0.29402610035E+04  0.29279136786E+04 0.  0.
        1    1    3    3  502    0  0.63772924560E+03 -0.35325474815E+02 -0.11882452932E+04  0.13490268184E+04  0.50400001928E-02 0.  1.
       -1    1    3    3    0  502 -0.63772924560E+03  0.35325474815E+02  0.14574222971E+04  0.15912341851E+04  0.50400001928E-02 0. -1.
</event>
<event>
 5   0  0.1067434E-05  0.2561687E+04  0.7818609E-02  0.8381333E-01
        1   -1    0    0  501    0  0.00000000000E+00  0.00000000000E+00  0.19328797743E+04  0.19328797743E+04  0.50400001928E-02 0. -1.
       -1   -1    0    0    0  501  0.00000000000E+00  0.00000000000E+00 -0.84876476819E+03  0.84876476820E+03  0.50400001928E-02 0.  1.
    10030    2    1    2    0    0  0.00000000000E+00  0.00000000000E+00  0.10841150061E+04  0.27816445425E+04  0.25616871421E+04 0.  0.
        4    1    3    3  502    0 -0.10970270131E+04  0.65552892075E+03  0.44882350420E+03  0.13544853577E+04  0.12699999809E+01 0.  1.
       -4    1    3    3    0  502  0.10970270131E+04 -0.65552892075E+03  0.63529150186E+03  0.14271591848E+04  0.12699999809E+01 0. -1.
</event>
<event>
 5   0  0.1078103E-05  0.2852379E+04  0.7818609E-02  0.8287189E-01
        1   -1    0    0  501    0  0.00000000000E+00  0.00000000000E+00  0.14947512784E+04  0.14947512784E+04  0.50400001928E-02 0.  1.
       -1   -1    0    0    0  501  0.00000000000E+00  0.00000000000E+00 -0.13607729895E+04  0.13607729896E+04  0.50400001928E-02 0. -1.
    10030    2    1    2    0    0  0.00000000000E+00  0.00000000000E+00  0.13397828884E+03  0.28555242679E+04  0.28523794739E+04 0.  0.
        1    1    3    3  502    0  0.12145944076E+04 -0.73768227033E+03 -0.53984717723E+02  0.14220861636E+04  0.50400001928E-02 0.  1.
       -1    1    3    3    0  502 -0.12145944076E+04  0.73768227033E+03  0.18796300656E+03  0.14334381043E+04  0.50400001928E-02 0. -1.
</event>
<event>
 5   0  0.8958000E-06  0.2881005E+04  0.7818609E-02  0.8278552E-01
        3   -1    0    0  501    0  0.00000000000E+00  0.00000000000E+00  0.22417101218E+04  0.22417101241E+04  0.10100000352E+00 0. -1.
       -3   -1    0    0    0  501  0.00000000000E+00  0.00000000000E+00 -0.92565383355E+03  0.92565383906E+03  0.10100000352E+00 0.  1.
    10030    2    1    2    0    0  0.00000000000E+00  0.00000000000E+00  0.13160562883E+04  0.31673639632E+04  0.28810050887E+04 0.  0.
        2    1    3    3  502    0  0.12367918729E+04 -0.59309747910E+03  0.17425812570E+03  0.13826730094E+04  0.25500000920E-02 0.  1.
       -2    1    3    3    0  502 -0.12367918729E+04  0.59309747910E+03  0.11417981626E+04  0.17846909538E+04  0.25500000920E-02 0. -1.
</event>
<event>
 5   0  0.1105862E-05  0.2760236E+04  0.7818609E-02  0.8315721E-01
       -1   -1    0    0    0  501  0.00000000000E+00  0.00000000000E+00  0.79526312361E+03  0.79526312363E+03  0.50400001928E-02 0. -1.
        1   -1    0    0  501    0  0.00000000000E+00  0.00000000000E+00 -0.23950878543E+04  0.23950878543E+04  0.50400001928E-02 0.  1.
    10030    2    1    2    0    0  0.00000000000E+00  0.00000000000E+00 -0.15998247307E+04  0.31903509779E+04  0.27602355323E+04 0.  0.
        3    1    3    3  502    0  0.55549791297E+03 -0.79116553746E+03  0.33856367778E+03  0.10242783865E+04  0.10100000352E+00 0. -1.
       -3    1    3    3    0  502 -0.55549791297E+03  0.79116553746E+03 -0.19383884085E+04  0.21660725914E+04  0.10100000352E+00 0.  1.
</event>
<event>
 5   0  0.1067434E-05  0.2832179E+04  0.7818609E-02  0.8293347E-01
        1   -1    0    0  501    0  0.00000000000E+00  0.00000000000E+00  0.11013738514E+04  0.11013738514E+04  0.50400001928E-02 0. -1.
       -1   -1    0    0    0  501  0.00000000000E+00  0.00000000000E+00 -0.18207340035E+04  0.18207340035E+04  0.50400001928E-02 0.  1.
    10030    2    1    2    0    0  0.00000000000E+00  0.00000000000E+00 -0.71936015210E+03  0.29221078549E+04  0.28321785409E+04 0.  0.
        4    1    3    3  502    0  0.12872271611E+04  0.25628082598E+03 -0.90823261012E+03  0.15960957719E+04  0.12699999809E+01 0.  1.
       -4    1    3    3    0  502 -0.12872271611E+04 -0.25628082598E+03  0.18887245802E+03  0.13260120830E+04  0.12699999809E+01 0. -1.
</event>
<event>
 5   0  0.1075146E-05  0.2756917E+04  0.7818609E-02  0.8316770E-01
        1   -1    0    0  501    0  0.00000000000E+00  0.00000000000E+00  0.11060381633E+04  0.11060381633E+04  0.50400001928E-02 0. -1.
       -1   -1    0    0    0  501  0.00000000000E+00  0.00000000000E+00 -0.17179763967E+04  0.17179763967E+04  0.50400001928E-02 0.  1.
    10030    2    1    2    0    0  0.00000000000E+00  0.00000000000E+00 -0.61193823337E+03  0.28240145600E+04  0.27569167259E+04 0.  0.
        2    1    3    3  502    0 -0.10631810479E+03  0.36207676274E+03  0.10520976978E+04  0.11177265709E+04  0.25500000920E-02 0. -1.
       -2    1    3    3    0  502  0.10631810479E+03 -0.36207676274E+03 -0.16640359312E+04  0.17062879891E+04  0.25500000920E-02 0.  1.
</event>
<event>
 5   0  0.2588048E-05  0.2812895E+04  0.7818609E-02  0.8299276E-01
       -2   -1    0    0    0  501  0.00000000000E+00  0.00000000000E+00  0.13006157977E+04  0.13006157977E+04  0.25500000920E-02 0. -1.
        2   -1    0    0  501    0  0.00000000000E+00  0.00000000000E+00 -0.15208912172E+04  0.15208912172E+04  0.25500000920E-02 0.  1.
    10030    2    1    2    0    0  0.00000000000E+00  0.00000000000E+00 -0.22027541947E+03  0.28215070149E+04  0.28128954077E+04 0.  0.
        2    1    3    3  502    0 -0.13904008753E+04  0.21183097255E+03 -0.11300807170E+03  0.14109775970E+04  0.25500000920E-02 0.  1.
       -2    1    3    3    0  502  0.13904008753E+04 -0.21183097255E+03 -0.10726734776E+03  0.14105294179E+04  0.25500000920E-02 0. -1.
</event>
<event>
 5   0  0.1017456E-05  0.2823941E+04  0.7818609E-02  0.8295874E-01
        1   -1    0    0  501    0  0.00000000000E+00  0.00000000000E+00  0.18633080633E+04  0.18633080633E+04  0.50400001928E-02 0.  1.
       -1   -1    0    0    0  501  0.00000000000E+00  0.00000000000E+00 -0.10699575441E+04  0.10699575441E+04  0.50400001928E-02 0. -1.
    10030    2    1    2    0    0  0.00000000000E+00  0.00000000000E+00  0.79335051922E+03  0.29332656074E+04  0.28239408771E+04 0.  0.
        5    1    3    3  502    0 -0.13328463630E+04 -0.86298918808E+02  0.87234651944E+03  0.15952860153E+04  0.46999998093E+01 0. -1.
       -5    1    3    3    0  502  0.13328463630E+04  0.86298918808E+02 -0.78996000211E+02  0.13379795921E+04  0.46999998093E+01 0.  1.
</event>
<event>
 5   0  0.1105862E-05  0.1451758E+04  0.7818609E-02  0.8917183E-01
       -1   -1    0    0    0  501  0.00000000000E+00  0.00000000000E+00  0.55249002755E+03  0.55249002757E+03  0.50400001928E-02 0.  1.
        1   -1    0    0  501    0  0.00000000000E+00  0.00000000000E+00 -0.95368310110E+03  0.95368310111E+03  0.50400001928E-02 0. -1.
    10030    2    1    2    0    0  0.00000000000E+00  0.00000000000E+00 -0.40119307355E+03  0.15061731287E+04  0.14517581105E+04 0.  0.
        3    1    3    3  502    0  0.20156227355E+03 -0.17262447580E+03  0.50035594486E+03  0.56637676640E+03  0.10100000352E+00 0.  1.
       -3    1    3    3    0  502 -0.20156227355E+03  0.17262447580E+03 -0.90154901841E+03  0.93979636228E+03  0.10100000352E+00 0. -1.
</event>
<event>
 5   0  0.2588048E-05  0.2732905E+04  0.7818609E-02  0.8324407E-01
       -2   -1    0    0    0  501  0.00000000000E+00  0.00000000000E+00  0.19993267542E+04  0.19993267542E+04  0.25500000920E-02 0.  1.
        2   -1    0    0  501    0  0.00000000000E+00  0.00000000000E+00 -0.93391088837E+03  0.93391088837E+03  0.25500000920E-02 0. -1.
    10030    2    1    2    0    0  0.00000000000E+00  0.00000000000E+00  0.10654158658E+04  0.29332376425E+04  0.27329054321E+04 0.  0.
        2    1    3    3  502    0 -0.60242057601E+03  0.12199932852E+04  0.66804152865E+03  0.15157749340E+04  0.25500000920E-02 0. -1.
       -2    1    3    3    0  502  0.60242057601E+03 -0.12199932852E+04  0.39737433715E+03  0.14174627086E+04  0.25500000920E-02 0.  1.
</event>
<event>
 5   0  0.1075146E-05  0.2712257E+04  0.7818609E-02  0.8331039E-01
        1   -1    0    0  501    0  0.00000000000E+00  0.00000000000E+00  0.11781745797E+04  0.11781745798E+04  0.50400001928E-02 0. -1.
       -1   -1    0    0    0  501  0.00000000000E+00  0.00000000000E+00 -0.15609608344E+04  0.15609608344E+04  0.50400001928E-02 0.  1.
    10030    2    1    2    0    0  0.00000000000E+00  0.00000000000E+00 -0.38278625464E+03  0.27391354141E+04  0.27122569016E+04 0.  0.
        2    1    3    3  502    0 -0.66615397478E+03 -0.10323734708E+04  0.38834120655E+03  0.12885515101E+04  0.25500000920E-02 0. -1.
       -2    1    3    3    0  502  0.66615397478E+03  0.10323734708E+04 -0.77112746120E+03  0.14505839041E+04  0.25500000920E-02 0.  1.
</event>
<event>
 5   0  0.1017456E-05  0.2774313E+04  0.7818609E-02  0.8311288E-01
       -1   -1    0    0    0  501  0.00000000000E+00  0.00000000000E+00  0.11067487789E+04  0.11067487789E+04  0.50400001928E-02 0.  1.
        1   -1    0    0  501    0  0.00000000000E+00  0.00000000000E+00 -0.17386085326E+04  0.17386085326E+04  0.50400001928E-02 0. -1.
    10030    2    1    2    0    0  0.00000000000E+00  0.00000000000E+00 -0.63185975369E+03  0.28453573115E+04  0.27743127945E+04 0.  0.
        5    1    3    3  502    0  0.38805298444E+03 -0.47257283993E+03 -0.15929129438E+04  0.17062543609E+04  0.46999998093E+01 0. -1.
       -5    1    3    3    0  502 -0.38805298444E+03  0.47257283993E+03  0.96105319007E+03  0.11391029505E+04  0.46999998093E+01 0.  1.
</event>
<event>
 5   0  0.2697964E-05  0.2768102E+04  0.7818609E-02  0.8313241E-01
        2   -1    0    0  501    0  0.00000000000E+00  0.00000000000E+00  0.19415436072E+04  0.19415436072E+04  0.25500000920E-02 0.  1.
       -2   -1    0    0    0  501  0.00000000000E+00  0.00000000000E+00 -0.98663582502E+03  0.98663582503E+03  0.25500000920E-02 0. -1.
    10030    2    1    2    0    0  0.00000000000E+00  0.00000000000E+00  0.95490778220E+03  0.29281794322E+04  0.27681015001E+04 0.  0.
        1    1    3    3  502    0 -0.13590960399E+04  0.24659366735E+03  0.38495581221E+03  0.14339251933E+04  0.50400001928E-02 0. -1.
       -1    1    3    3    0  502  0.13590960399E+04 -0.24659366735E+03  0.56995196999E+03  0.14942542390E+04  0.50400001928E-02 0.  1.
</event>
<event>
 5   0  0.2588048E-05  0.1472578E+04  0.7818609E-02  0.8902896E-01
        2   -1    0    0  501    0  0.00000000000E+00  0.00000000000E+00  0.75279975081E+03  0.75279975081E+03  0.25500000920E-02 0. -1.
       -2   -1    0    0    0  501  0.00000000000E+00  0.00000000000E+00 -0.72014017032E+03  0.72014017033E+03  0.25500000920E-02 0.  1.
    10030    2    1    2    0    0  0.00000000000E+00  0.00000000000E+00  0.32659580486E+02  0.14729399211E+04  0.14725777953E+04 0.  0.
        2    1    3    3  502    0  0.27390913338E+03  0.10674417985E+03 -0.65889236613E+03  0.72149822136E+03  0.25500000920E-02 0.  1.
       -2    1    3    3    0  502 -0.27390913338E+03 -0.10674417985E+03  0.69155194662E+03  0.75144169977E+03  0.25500000920E-02 0. -1.
</event>
<event>
 5   0  0.2624815E-05  0.1455933E+04  0.7818609E-02  0.8914298E-01
        2   -1    0    0  501    0  0.00000000000E+00  0.00000000000E+00  0.12259404796E+04  0.12259404796E+04  0.25500000920E-02 0. -1.
       -2   -1    0    0    0  501  0.00000000000E+00  0.00000000000E+00 -0.43226815578E+03  0.43226815578E+03  0.25500000920E-02 0.  1.
    10030    2    1    2    0    0  0.00000000000E+00  0.00000000000E+00  0.79367232382E+03  0.16582086354E+04  0.14559327323E+04 0.  0.
        4    1    3    3  502    0 -0.41411420074E+02  0.14193889014E+03 -0.41498512480E+03  0.44054037381E+03  0.12699999809E+01 0.  1.
       -4    1    3    3    0  502  0.41411420074E+02 -0.14193889014E+03  0.12086574486E+04  0.12176682616E+04  0.12699999809E+01 0. -1.
</event>
<event>
 5   0  0.2518686E-05  0.2041288E+04  0.7818609E-02  0.8587557E-01
        2   -1    0    0  501    0  0.00000000000E+00  0.00000000000E+00  0.10029444940E+04  0.10029444940E+04  0.25500000920E-02 0. -1.
       -2   -1    0    0    0  501  0.00000000000E+00  0.00000000000E+00 -0.10386561472E+04  0.10386561472E+04  0.25500000920E-02 0.  1.
    10030    2    1    2    0    0  0.00000000000E+00  0.00000000000E+00 -0.35711653255E+02  0.20416006412E+04  0.20412882834E+04 0.  0.
        5    1    3    3  502    0 -0.67805455612E+03 -0.54722159628E+03  0.51371672263E+03  0.10115020601E+04  0.46999998093E+01 0. -1.
       -5    1    3    3    0  502  0.67805455612E+03  0.54722159628E+03 -0.54942837588E+03  0.10300985811E+04  0.46999998093E+01 0.  1.
</event>
<event>
 5   0  0.2624815E-05  0.2748392E+04  0.7818609E-02  0.8319472E-01
       -2   -1    0    0    0  501  0.00000000000E+00  0.00000000000E+00  0.10625218915E+04  0.10625218915E+04  0.25500000920E-02 0. -1.
        2   -1    0    0  501    0  0.00000000000E+00  0.00000000000E+00 -0.17772948228E+04  0.17772948228E+04  0.25500000920E-02 0.  1.
    10030    2    1    2    0    0  0.00000000000E+00  0.00000000000E+00 -0.71477293132E+03  0.28398167143E+04  0.27483920076E+04 0.  0.
        4    1    3    3  502    0 -0.44702559251E+03  0.45779213316E+02 -0.16992332522E+04  0.17576469711E+04  0.12699999809E+01 0.  1.
       -4    1    3    3    0  502  0.44702559251E+03 -0.45779213316E+02  0.98446032089E+03  0.10821697432E+04  0.12699999809E+01 0. -1.
</event>
<event>
 5   0  0.2697964E-05  0.2607378E+04  0.7818609E-02  0.8365699E-01
        2   -1    0    0  501    0  0.00000000000E+00  0.00000000000E+00  0.18225104126E+04  0.18225104126E+04  0.25500000920E-02 0.  1.
       -2   -1    0    0    0  501  0.00000000000E+00  0.00000000000E+00 -0.93256266433E+03  0.93256266433E+03  0.25500000920E-02 0. -1.
    10030    2    1    2    0    0  0.00000000000E+00  0.00000000000E+00  0.88994774830E+03  0.27550730770E+04  0.26073781208E+04 0.  0.
        1    1    3    3  502    0  0.45905408763E+03 -0.10462563899E+04  0.11084107036E+04  0.15918408767E+04  0.50400001928E-02 0.  1.
       -1    1    3    3    0  502 -0.45905408763E+03  0.10462563899E+04 -0.21846295534E+03  0.11632322002E+04  0.50400001928E-02 0. -1.
</event>
<event>
 5   0  0.1075146E-05  0.2469845E+04  0.7818609E-02  0.8413808E-01
       -1   -1    0    0    0  501  0.00000000000E+00  0.00000000000E+00  0.13420284108E+04  0.13420284108E+04  0.50400001928E-02 0. -1.
        1   -1    0    0  501    0  0.00000000000E+00  0.00000000000E+00 -0.11363647090E+04  0.11363647090E+04  0.50400001928E-02 0.  1.
    10030    2    1    2    0    0  0.00000000000E+00  0.00000000000E+00  0.20566370174E+03  0.24783931198E+04  0.24698451162E+04 0.  0.
        2    1    3    3  502    0  0.14850083951E+03 -0.63726646930E+03  0.11537734514E+04  0.13264065098E+04  0.25500000920E-02 0. -1.
       -2    1    3    3    0  502 -0.14850083951E+03  0.63726646930E+03 -0.94810974964E+03  0.11519866100E+04  0.25500000920E-02 0.  1.
</event>
<event>
 5   0  0.2588048E-05  0.2036240E+04  0.7818609E-02  0.8589862E-01
       -2   -1    0    0    0  501  0.00000000000E+00  0.00000000000E+00  0.74452263065E+03  0.74452263065E+03  0.25500000920E-02 0. -1.
        2   -1    0    0  501    0  0.00000000000E+00  0.00000000000E+00 -0.13922594026E+04  0.13922594026E+04  0.25500000920E-02 0.  1.
    10030    2    1    2    0    0  0.00000000000E+00  0.00000000000E+00 -0.64773677194E+03  0.21367820332E+04  0.20362402933E+04 0.  0.
        2    1    3    3  502    0  0.99400579776E+03  0.20378935383E+03 -0.23612769674E+03  0.10417936052E+04  0.25500000920E-02 0. -1.
       -2    1    3    3    0  502 -0.99400579776E+03 -0.20378935383E+03 -0.41160907520E+03  0.10949884280E+04  0.25500000920E-02 0.  1.
</event>
<event>
 5   0  0.2651061E-05  0.2813015E+04  0.7818609E-02  0.8299239E-01
        2   -1    0    0  501    0  0.00000000000E+00  0.00000000000E+00  0.17572001343E+04  0.17572001343E+04  0.25500000920E-02 0.  1.
       -2   -1    0    0    0  501  0.00000000000E+00  0.00000000000E+00 -0.11258039034E+04  0.11258039034E+04  0.25500000920E-02 0. -1.
    10030    2    1    2    0    0  0.00000000000E+00  0.00000000000E+00  0.63139623094E+03  0.28830040377E+04  0.28130145895E+04 0.  0.
        3    1    3    3  502    0  0.70793380658E+03 -0.11529237021E+04  0.70979025177E+03  0.15278107046E+04  0.10100000352E+00 0. -1.
       -3    1    3    3    0  502 -0.70793380658E+03  0.11529237021E+04 -0.78394020831E+02  0.13551933331E+04  0.10100000352E+00 0.  1.
</event>
<event>
 5   0  0.2518686E-05  0.2806843E+04  0.7818609E-02  0.8301147E-01
       -2   -1    0    0    0  501  0.00000000000E+00  0.00000000000E+00  0.24300414624E+04  0.24300414624E+04  0.25500000920E-02 0. -1.
        2   -1    0    0  501    0  0.00000000000E+00  0.00000000000E+00 -0.81051795609E+03  0.81051795609E+03  0.25500000920E-02 0.  1.
    10030    2    1    2    0    0  0.00000000000E+00  0.00000000000E+00  0.16195235063E+04  0.32405594185E+04  0.28068432370E+04 0.  0.
        5    1    3    3  502    0 -0.28515403884E+03  0.18457452880E+03  0.23818571559E+04  0.24059605533E+04  0.46999998093E+01 0. -1.
       -5    1    3    3    0  502  0.28515403884E+03 -0.18457452880E+03 -0.76233364961E+03  0.83459886525E+03  0.46999998093E+01 0.  1.
</event>
<event>
 5   0  0.2697964E-05  0.2532309E+04  0.7818609E-02  0.8391565E-01
       -2   -1    0    0    0  501  0.00000000000E+00  0.00000000000E+00  0.79250320479E+03  0.79250320480E+03  0.25500000920E-02 0.  1.
        2   -1    0    0  501    0  0.00000000000E+00  0.00000000000E+00 -0.20228898765E+04  0.20228898765E+04  0.25500000920E-02 0. -1.
    10030    2    1    2    0    0  0.00000000000E+00  0.00000000000E+00 -0.12303866717E+04  0.28153930813E+04  0.25323085990E+04 0.  0.
        1    1    3    3  502    0 -0.10081760793E+04 -0.76129957190E+03 -0.70920800624E+03  0.14487829517E+04  0.50400001928E-02 0. -1.
       -1    1    3    3    0  502  0.10081760793E+04  0.76129957190E+03 -0.52117866549E+03  0.13666101296E+04  0.50400001928E-02 0.  1.
</event>
<event>
 5   0  0.1078103E-05  0.3243505E+04  0.7818609E-02  0.8177421E-01
       -1   -1    0    0    0  501  0.00000000000E+00  0.00000000000E+00  0.12667253283E+04  0.12667253283E+04  0.50400001928E-02 0. -1.
        1   -1    0    0  501    0  0.00000000000E+00  0.00000000000E+00 -0.20762841806E+04  0.20762841806E+04  0.50400001928E-02 0.  1.
    10030    2    1    2    0    0  0.00000000000E+00  0.00000000000E+00 -0.80955885237E+03  0.33430095089E+04  0.32435053632E+04 0.  0.
        1    1    3    3  502    0  0.70993773468E+03 -0.26544695517E+02  0.10978082072E+04  0.13076310901E+04  0.50400001928E-02 0. -1.
       -1    1    3    3    0  502 -0.70993773468E+03  0.26544695517E+02 -0.19073670596E+04  0.20353784188E+04  0.50400001928E-02 0.  1.
</event>
<event>
 5   0  0.2588048E-05  0.2442882E+04  0.7818609E-02  0.8423622E-01
       -2   -1    0    0    0  501  0.00000000000E+00  0.00000000000E+00  0.12401493348E+04  0.12401493348E+04  0.25500000920E-02 0.  1.
        2   -1    0    0  501    0  0.00000000000E+00  0.00000000000E+00 -0.12030146019E+04  0.12030146020E+04  0.25500000920E-02 0. -1.
    10030    2    1    2    0    0  0.00000000000E+00  0.00000000000E+00  0.37134732885E+02  0.24431639368E+04  0.24428817068E+04 0.  0.
        2    1    3    3  502    0  0.11429576965E+04 -0.22234454241E+03 -0.35043103867E+03  0.12159733979E+04  0.25500000920E-02 0. -1.
       -2    1    3    3    0  502 -0.11429576965E+04  0.22234454241E+03  0.38756577156E+03  0.12271905389E+04  0.25500000920E-02 0.  1.
</event>
<event>
 5   0  0.1017456E-05  0.2525192E+04  0.7818609E-02  0.8394065E-01
        1   -1    0    0  501    0  0.00000000000E+00  0.00000000000E+00  0.16853804118E+04  0.16853804118E+04  0.50400001928E-02 0.  1.
       -1   -1    0    0    0  501  0.00000000000E+00  0.00000000000E+00 -0.94586886644E+03  0.94586886645E+03  0.50400001928E-02 0. -1.
    10030    2    1    2    0    0  0.00000000000E+00  0.00000000000E+00  0.73951154539E+03  0.26312492783E+04  0.25251921588E+04 0.  0.
        5    1    3    3  502    0  0.50630179538E+03  0.94975410624E+03  0.10575958167E+04  0.15089418053E+04  0.46999998093E+01 0.  1.
       -5    1    3    3    0  502 -0.50630179538E+03 -0.94975410624E+03 -0.31808427128E+03  0.11223074730E+04  0.46999998093E+01 0. -1.
</event>
<event>
 5   0  0.2518686E-05  0.2739939E+04  0.7818609E-02  0.8322161E-01
       -2   -1    0    0    0  501  0.00000000000E+00  0.00000000000E+00  0.13397790366E+04  0.13397790366E+04  0.25500000920E-02 0.  1.
        2   -1    0    0  501    0  0.00000000000E+00  0.00000000000E+00 -0.14008402679E+04  0.14008402679E+04  0.25500000920E-02 0. -1.
    10030    2    1    2    0    0  0.00000000000E+00  0.00000000000E+00 -0.61061231344E+02  0.27406193045E+04  0.27399389953E+04 0.  0.
        5    1    3    3  502    0  0.64253795461E+03 -0.12099175358E+04 -0.24294640385E+02  0.13701707142E+04  0.46999998093E+01 0. -1.
       -5    1    3    3    0  502 -0.64253795461E+03  0.12099175358E+04 -0.36766590958E+02  0.13704485903E+04  0.46999998093E+01 0.  1.
</event>
<event>
 5   0  0.1067434E-05  0.2675809E+04  0.7818609E-02  0.8342897E-01
        1   -1    0    0  501    0  0.00000000000E+00  0.00000000000E+00  0.14341418490E+04  0.14341418490E+04  0.50400001928E-02 0.  1.
       -1   -1    0    0    0  501  0.00000000000E+00  0.00000000000E+00 -0.12481249407E+04  0.12481249407E+04  0.50400001928E-02 0. -1.
    10030    2    1    2    0    0  0.00000000000E+00  0.00000000000E+00  0.18601690830E+03  0.26822667897E+04  0.26758088200E+04 0.  0.
        4    1    3    3  502    0 -0.10906564946E+03 -0.75886242201E+03 -0.10060953331E+04  0.12649098480E+04  0.12699999809E+01 0. -1.
       -4    1    3    3    0  502  0.10906564946E+03  0.75886242201E+03  0.11921122414E+04  0.14173569417E+04  0.12699999809E+01 0.  1.
</event>
<event>
 5   0  0.2624815E-05  0.2742890E+04  0.7818609E-02  0.8321221E-01
       -2   -1    0    0    0  501  0.00000000000E+00  0.00000000000E+00  0.98585867544E+03  0.98585867544E+03  0.25500000920E-02 0. -1.
        2   -1    0    0  501    0  0.00000000000E+00  0.00000000000E+00 -0.19078403659E+04  0.19078403659E+04  0.25500000920E-02 0.  1.
    10030    2    1    2    0    0  0.00000000000E+00  0.00000000000E+00 -0.92198169044E+03  0.28936990413E+04  0.27428896996E+04 0.  0.
        4    1    3    3  502    0  0.10002211798E+04 -0.92831047668E+03 -0.31689169380E+03  0.14009370822E+04  0.12699999809E+01 0. -1.
       -4    1    3    3    0  502 -0.10002211798E+04  0.92831047668E+03 -0.60508999664E+03  0.14927619591E+04  0.12699999809E+01 0.  1.
</event>
<event>
 5   0  0.1078103E-05  0.2588585E+04  0.7818609E-02  0.8372089E-01
       -1   -1    0    0    0  501  0.00000000000E+00  0.00000000000E+00  0.94479680848E+03  0.94479680849E+03  0.50400001928E-02 0.  1.
        1   -1    0    0  501    0  0.00000000000E+00  0.00000000000E+00 -0.17730720734E+04  0.17730720735E+04  0.50400001928E-02 0. -1.
    10030    2    1    2    0    0  0.00000000000E+00  0.00000000000E+00 -0.82827526497E+03  0.27178688819E+04  0.25885848151E+04 0.  0.
        1    1    3    3  502    0  0.13722383050E+03  0.12532015588E+04 -0.72176996342E+03  0.14526859284E+04  0.50400001928E-02 0. -1.
       -1    1    3    3    0  502 -0.13722383050E+03 -0.12532015588E+04 -0.10650530155E+03  0.12651829535E+04  0.50400001928E-02 0.  1.
</event>
<event>
 5   0  0.2697964E-05  0.2827644E+04  0.7818609E-02  0.8294737E-01
        2   -1    0    0  501    0  0.00000000000E+00  0.00000000000E+00  0.20803970471E+04  0.20803970471E+04  0.25500000920E-02 0. -1.
       -2   -1    0    0    0  501  0.00000000000E+00  0.00000000000E+00 -0.96082257571E+03  0.96082257571E+03  0.25500000920E-02 0.  1.
    10030    2    1    2    0    0  0.00000000000E+00  0.00000000000E+00  0.11195744714E+04  0.30412196228E+04  0.28276438597E+04 0.  0.
        1    1    3    3  502    0  0.11240411393E+04 -0.48229408720E+03  0.13224416407E+04  0.18013683584E+04  0.50400001928E-02 0. -1.
       -1    1    3    3    0  502 -0.11240411393E+04  0.48229408720E+03 -0.20286716932E+03  0.12398512644E+04  0.50400001928E-02 0.  1.
</event>
<event>
 5   0  0.1067434E-05  0.2811401E+04  0.7818609E-02  0.8299737E-01
       -1   -1    0    0    0  501  0.00000000000E+00  0.00000000000E+00  0.17270362984E+04  0.17270362984E+04  0.50400001928E-02 0. -1.
        1   -1    0    0  501    0  0.00000000000E+00  0.00000000000E+00 -0.11441534620E+04  0.11441534620E+04  0.50400001928E-02 0.  1.
    10030    2    1    2    0    0  0.00000000000E+00  0.00000000000E+00  0.58288283645E+03  0.28711897604E+04  0.28114014724E+04 0.  0.
        4    1    3    3  502    0 -0.16346580966E+03 -0.13335436462E+04  0.71367450777E+03  0.15213128025E+04  0.12699999809E+01 0. -1.
       -4    1    3    3    0  502  0.16346580966E+03  0.13335436462E+04 -0.13079167132E+03  0.13498769579E+04  0.12699999809E+01 0.  1.
</event>
<event>
 5   0  0.2651061E-05  0.2751482E+04  0.7818609E-02  0.8318491E-01
       -2   -1    0    0    0  501  0.00000000000E+00  0.00000000000E+00  0.75752525604E+03  0.75752525604E+03  0.25500000920E-02 0. -1.
        2   -1    0    0  501    0  0.00000000000E+00  0.00000000000E+00 -0.24984828320E+04  0.24984828320E+04  0.25500000920E-02 0.  1.
    10030    2    1    2    0    0  0.00000000000E+00  0.00000000000E+00 -0.17409575760E+04  0.32560080880E+04  0.27514823983E+04 0.  0.
        3    1    3    3  502    0 -0.63439023512E+03  0.99589009113E+03 -0.17059175734E+04  0.20747054782E+04  0.10100000352E+00 0. -1.
       -3    1    3    3    0  502  0.63439023512E+03 -0.99589009113E+03 -0.35040002603E+02  0.11813026098E+04  0.10100000352E+00 0.  1.
</event>
<event>
 5   0  0.1105862E-05  0.2788120E+04  0.7818609E-02  0.8306966E-01
        1   -1    0    0  501    0  0.00000000000E+00  0.00000000000E+00  0.22569863899E+04  0.22569863899E+04  0.50400001928E-02 0. -1.
       -1   -1    0    0    0  501  0.00000000000E+00  0.00000000000E+00 -0.86106112491E+03  0.86106112492E+03  0.50400001928E-02 0.  1.
    10030    2    1    2    0    0  0.00000000000E+00  0.00000000000E+00  0.13959252650E+04  0.31180475149E+04  0.27881199686E+04 0.  0.
        3    1    3    3  502    0 -0.50921973825E+03  0.20331957038E+03  0.21313325458E+04  0.22007321556E+04  0.10100000352E+00 0. -1.
       -3    1    3    3    0  502  0.50921973825E+03 -0.20331957038E+03 -0.73540728079E+03  0.91731535928E+03  0.10100000352E+00 0.  1.
</event>
<event>
 5   0  0.2697964E-05  0.2848160E+04  0.7818609E-02  0.8288471E-01
        2   -1    0    0  501    0  0.00000000000E+00  0.00000000000E+00  0.21042908223E+04  0.21042908223E+04  0.25500000920E-02 0. -1.
       -2   -1    0    0    0  501  0.00000000000E+00  0.00000000000E+00 -0.96374720147E+03  0.96374720148E+03  0.25500000920E-02 0.  1.
    10030    2    1    2    0    0  0.00000000000E+00  0.00000000000E+00  0.11405436208E+04  0.30680380237E+04  0.28481603825E+04 0.  0.
        1    1    3    3  502    0  0.12603025614E+04  0.45987533730E+03  0.55739398426E+02  0.13427415063E+04  0.50400001928E-02 0.  1.
       -1    1    3    3    0  502 -0.12603025614E+04 -0.45987533730E+03  0.10848042224E+04  0.17252965174E+04  0.50400001928E-02 0. -1.
</event>
<event>
 5   0  0.1067434E-05  0.2793694E+04  0.7818609E-02  0.8305229E-01
       -1   -1    0    0    0  501  0.00000000000E+00  0.00000000000E+00  0.17416587777E+04  0.17416587777E+04  0.50400001928E-02 0.  1.
        1   -1    0    0  501    0  0.00000000000E+00  0.00000000000E+00 -0.11203004809E+04  0.11203004810E+04  0.50400001928E-02 0. -1.
    10030    2    1    2    0    0  0.00000000000E+00  0.00000000000E+00  0.62135829672E+03  0.28619592586E+04  0.27936937315E+04 0.  0.
        4    1    3    3  502    0  0.97591967666E+03  0.85057915758E+03 -0.22680836871E+03  0.13142860296E+04  0.12699999809E+01 0. -1.
       -4    1    3    3    0  502 -0.97591967666E+03 -0.85057915758E+03  0.84816666543E+03  0.15476732290E+04  0.12699999809E+01 0.  1.
</event>
<event>
 5   0  0.2651061E-05  0.1690319E+04  0.7818609E-02  0.8766905E-01
        2   -1    0    0  501    0  0.00000000000E+00  0.00000000000E+00  0.13328461886E+04  0.13328461886E+04  0.25500000920E-02 0.  1.
       -2   -1    0    0    0  501  0.00000000000E+00  0.00000000000E+00 -0.53591687505E+03  0.53591687506E+03  0.25500000920E-02 0. -1.
    10030    2    1    2    0    0  0.00000000000E+00  0.00000000000E+00  0.79692931357E+03  0.18687630637E+04  0.16903192176E+04 0.  0.
        3    1    3    3  502    0 -0.12290182456E+03  0.68868202235E+03  0.92277324039E+03  0.11579716101E+04  0.10100000352E+00 0. -1.
       -3    1    3    3    0  502  0.12290182456E+03 -0.68868202235E+03 -0.12584392682E+03  0.71079145360E+03  0.10100000352E+00 0.  1.
</event>
<event>
 5   0  0.1067434E-05  0.2048141E+04  0.7818609E-02  0.8584438E-01
       -1   -1    0    0    0  501  0.00000000000E+00  0.00000000000E+00  0.61124950237E+03  0.61124950239E+03  0.50400001928E-02 0. -1.
        1   -1    0    0  501    0  0.00000000000E+00  0.00000000000E+00 -0.17156998475E+04  0.17156998475E+04  0.50400001928E-02 0.  1.
    10030    2    1    2    0    0  0.00000000000E+00  0.00000000000E+00 -0.11044503452E+04  0.23269493499E+04  0.20481412823E+04 0.  0.
        4    1    3    3  502    0 -0.52329376492E+03 -0.73285430056E+02 -0.15488568852E+04  0.16365104284E+04  0.12699999809E+01 0.  1.
       -4    1    3    3    0  502  0.52329376492E+03  0.73285430056E+02  0.44440654000E+03  0.69043892153E+03  0.12699999809E+01 0. -1.
</event>
<event>
 5   0  0.8958000E-06  0.2683777E+04  0.7818609E-02  0.8340288E-01
       -3   -1    0    0    0  501  0.00000000000E+00  0.00000000000E+00  0.19146691553E+04  0.19146691580E+04  0.10100000352E+00 0. -1.
        3   -1    0    0  501    0  0.00000000000E+00  0.00000000000E+00 -0.94045706418E+03  0.94045706960E+03  0.10100000352E+00 0.  1.
    10030    2    1    2    0    0  0.00000000000E+00  0.00000000000E+00  0.97421209116E+03  0.28551262276E+04  0.26837765512E+04 0.  0.
        2    1    3    3  502    0 -0.12676531972E+04 -0.32074850862E+03  0.80774575562E+03  0.15369702144E+04  0.25500000920E-02 0. -1.
       -2    1    3    3    0  502  0.12676531972E+04  0.32074850862E+03  0.16646633554E+03  0.13181560132E+04  0.25500000920E-02 0.  1.
</event>
<event>
 5   0  0.1067434E-05  0.2767912E+04  0.7818609E-02  0.8313300E-01
        1   -1    0    0  501    0  0.00000000000E+00  0.00000000000E+00  0.96995329558E+03  0.96995329559E+03  0.50400001928E-02 0. -1.
       -1   -1    0    0    0  501  0.00000000000E+00  0.00000000000E+00 -0.19746666833E+04  0.19746666834E+04  0.50400001928E-02 0.  1.
    10030    2    1    2    0    0  0.00000000000E+00  0.00000000000E+00 -0.10047133878E+04  0.29446199789E+04  0.27679121787E+04 0.  0.
        4    1    3    3  502    0  0.60387667633E+03 -0.11501270242E+04 -0.10101932798E+04  0.16455853935E+04  0.12699999809E+01 0.  1.
       -4    1    3    3    0  502 -0.60387667633E+03  0.11501270242E+04  0.54798920581E+01  0.12990345854E+04  0.12699999809E+01 0. -1.
</event>
<event>
 5   0  0.1017456E-05  0.2148962E+04  0.7818609E-02  0.8539977E-01
        1   -1    0    0  501    0  0.00000000000E+00  0.00000000000E+00  0.15133335251E+04  0.15133335251E+04  0.50400001928E-02 0.  1.
       -1   -1    0    0    0  501  0.00000000000E+00  0.00000000000E+00 -0.76289148990E+03  0.76289148992E+03  0.50400001928E-02 0. -1.
    10030    2    1    2    0    0  0.00000000000E+00  0.00000000000E+00  0.75044203521E+03  0.22762250150E+04  0.21489618589E+04 0.  0.
        5    1    3    3  502    0 -0.45501208861E+02 -0.10719549473E+04  0.31410288976E+03  0.11179626489E+04  0.46999998093E+01 0.  1.
       -5    1    3    3    0  502  0.45501208861E+02  0.10719549473E+04  0.43633914545E+03  0.11582623661E+04  0.46999998093E+01 0. -1.
</event>
<event>
 5   0  0.2588048E-05  0.2820047E+04  0.7818609E-02  0.8297071E-01
       -2   -1    0    0    0  501  0.00000000000E+00  0.00000000000E+00  0.12375745555E+04  0.12375745555E+04  0.25500000920E-02 0.  1.
        2   -1    0    0  501    0  0.00000000000E+00  0.00000000000E+00 -0.16065025827E+04  0.16065025827E+04  0.25500000920E-02 0. -1.
    10030    2    1    2    0    0  0.00000000000E+00  0.00000000000E+00 -0.36892802723E+03  0.28440771382E+04  0.28200473185E+04 0.  0.
        2    1    3    3  502    0  0.67994171838E+03  0.12113999904E+04  0.59164374592E+02  0.13904355793E+04  0.25500000920E-02 0.  1.
       -2    1    3    3    0  502 -0.67994171838E+03 -0.12113999904E+04 -0.42809240182E+03  0.14536415588E+04  0.25500000920E-02 0. -1.
</event>
<event>
 5   0  0.2624815E-05  0.2400534E+04  0.7818609E-02  0.8439304E-01
       -2   -1    0    0    0  501  0.00000000000E+00  0.00000000000E+00  0.91741199116E+03  0.91741199116E+03  0.25500000920E-02 0.  1.
        2   -1    0    0  501    0  0.00000000000E+00  0.00000000000E+00 -0.15703314717E+04  0.15703314717E+04  0.25500000920E-02 0. -1.
    10030    2    1    2    0    0  0.00000000000E+00  0.00000000000E+00 -0.65291948059E+03  0.24877434629E+04  0.24005340425E+04 0.  0.
        4    1    3    3  502    0  0.20993167236E+03 -0.42447176713E+03  0.81650926208E+03  0.94389436703E+03  0.12699999809E+01 0.  1.
       -4    1    3    3    0  502 -0.20993167236E+03  0.42447176713E+03 -0.14694287427E+04  0.15438490959E+04  0.12699999809E+01 0. -1.
</event>
<event>
 5   0  0.2518686E-05  0.2713765E+04  0.7818609E-02  0.8330552E-01
       -2   -1    0    0    0  501  0.00000000000E+00  0.00000000000E+00  0.14079393163E+04  0.14079393163E+04  0.25500000920E-02 0. -1.
        2   -1    0    0  501    0  0.00000000000E+00  0.00000000000E+00 -0.13076774437E+04  0.13076774437E+04  0.25500000920E-02 0.  1.
    10030    2    1    2    0    0  0.00000000000E+00  0.00000000000E+00  0.10026187264E+03  0.27156167600E+04  0.27137652707E+04 0.  0.
        5    1    3    3  502    0  0.13144158771E+04  0.33525840336E+03  0.82107408681E+02  0.13589889667E+04  0.46999998093E+01 0. -1.
       -5    1    3    3    0  502 -0.13144158771E+04 -0.33525840336E+03  0.18154463963E+02  0.13566277933E+04  0.46999998093E+01 0.  1.
</event>
<event>
 5   0  0.2518686E-05  0.2886618E+04  0.7818609E-02  0.8276870E-01
       -2   -1    0    0    0  501  0.00000000000E+00  0.00000000000E+00  0.12742831173E+04  0.12742831173E+04  0.25500000920E-02 0.  1.
        2   -1    0    0  501    0  0.00000000000E+00  0.00000000000E+00 -0.16347555874E+04  0.16347555874E+04  0.25500000920E-02 0. -1.
    10030    2    1    2    0    0  0.00000000000E+00  0.00000000000E+00 -0.36047247013E+03  0.29090387047E+04  0.28866183994E+04 0.  0.
        5    1    3    3  502    0 -0.51929259814E+03  0.30849980851E+03 -0.15012501663E+04  0.16182123118E+04  0.46999998093E+01 0. -1.
       -5    1    3    3    0  502  0.51929259814E+03 -0.30849980851E+03  0.11407776962E+04  0.12908263928E+04  0.46999998093E+01 0.  1.
</event>
<event>
 5   0  0.1067434E-05  0.1841227E+04  0.7818609E-02  0.8684677E-01
        1   -1    0    0  501    0  0.00000000000E+00  0.00000000000E+00  0.98988054193E+03  0.98988054195E+03  0.50400001928E-02 0.  1.
       -1   -1    0    0    0  501  0.00000000000E+00  0.00000000000E+00 -0.85619366089E+03  0.85619366091E+03  0.50400001928E-02 0. -1.
    10030    2    1    2    0    0  0.00000000000E+00  0.00000000000E+00  0.13368688104E+03  0.18460742029E+04  0.18412272484E+04 0.  0.
        4    1    3    3  502    0  0.76506744941E+03  0.45529856541E+02  0.57821220193E+03  0.96006881698E+03  0.12699999809E+01 0.  1.
       -4    1    3    3    0  502 -0.76506744941E+03 -0.45529856541E+02 -0.44452532089E+03  0.88600538587E+03  0.12699999809E+01 0. -1.
</event>
<event>
 5   0  0.1078103E-05  0.2763275E+04  0.7818609E-02  0.8314761E-01
       -1   -1    0    0    0  501  0.00000000000E+00  0.00000000000E+00  0.11864121683E+04  0.11864121683E+04  0.50400001928E-02 0. -1.
        1   -1    0    0  501    0  0.00000000000E+00  0.00000000000E+00 -0.16089879340E+04  0.16089879340E+04  0.50400001928E-02 0.  1.
    10030    2    1    2    0    0  0.00000000000E+00  0.00000000000E+00 -0.42257576571E+03  0.27954001024E+04  0.27632754938E+04 0.  0.
        1    1    3    3  502    0 -0.13169869042E+04 -0.15919756573E+03  0.17936792104E+03  0.13386452936E+04  0.50400001928E-02 0. -1.
       -1    1    3    3    0  502  0.13169869042E+04  0.15919756573E+03 -0.60194368674E+03  0.14567548088E+04  0.50400001928E-02 0.  1.
</event>
<event>
 5   0  0.2651061E-05  0.2869922E+04  0.7818609E-02  0.8281883E-01
       -2   -1    0    0    0  501  0.00000000000E+00  0.00000000000E+00  0.19511954581E+04  0.19511954581E+04  0.25500000920E-02 0.  1.
        2   -1    0    0  501    0  0.00000000000E+00  0.00000000000E+00 -0.10553083797E+04  0.10553083797E+04  0.25500000920E-02 0. -1.
    10030    2    1    2    0    0  0.00000000000E+00  0.00000000000E+00  0.89588707841E+03  0.30065038378E+04  0.28699218926E+04 0.  0.
        3    1    3    3  502    0 -0.13258851106E+04  0.49471479267E+03  0.69673004916E+03  0.15773860732E+04  0.10100000352E+00 0.  1.
       -3    1    3    3    0  502  0.13258851106E+04 -0.49471479267E+03  0.19915702925E+03  0.14291177646E+04  0.10100000352E+00 0. -1.
</event>
<event>
 5   0  0.2697964E-05  0.2779759E+04  0.7818609E-02  0.8309580E-01
       -2   -1    0    0    0  501  0.00000000000E+00  0.00000000000E+00  0.78873538738E+03  0.78873538739E+03  0.25500000920E-02 0. -1.
        2   -1    0    0  501    0  0.00000000000E+00  0.00000000000E+00 -0.24491928625E+04  0.24491928625E+04  0.25500000920E-02 0.  1.
    10030    2    1    2    0    0  0.00000000000E+00  0.00000000000E+00 -0.16604574751E+04  0.32379282499E+04  0.27797590408E+04 0.  0.
        1    1    3    3  502    0  0.12591767499E+04  0.22067410703E+03 -0.19484783244E+03  0.12931314035E+04  0.50400001928E-02 0. -1.
       -1    1    3    3    0  502 -0.12591767499E+04 -0.22067410703E+03 -0.14656096427E+04  0.19447968464E+04  0.50400001928E-02 0.  1.
</event>
<event>
 5   0  0.2518686E-05  0.1510514E+04  0.7818609E-02  0.8877491E-01
       -2   -1    0    0    0  501  0.00000000000E+00  0.00000000000E+00  0.87384782223E+03  0.87384782224E+03  0.25500000920E-02 0.  1.
        2   -1    0    0  501    0  0.00000000000E+00  0.00000000000E+00 -0.65276031565E+03  0.65276031565E+03  0.25500000920E-02 0. -1.
    10030    2    1    2    0    0  0.00000000000E+00  0.00000000000E+00  0.22108750659E+03  0.15266081379E+04  0.15105140586E+04 0.  0.
        5    1    3    3  502    0  0.20667715237E+03 -0.53398195280E+03  0.60827341207E+03  0.83538662011E+03  0.46999998093E+01 0.  1.
       -5    1    3    3    0  502 -0.20667715237E+03  0.53398195280E+03 -0.38718590548E+03  0.69122151778E+03  0.46999998093E+01 0. -1.
</event>
<event>
 5   0  0.1105862E-05  0.2497228E+04  0.7818609E-02  0.8403974E-01
       -1   -1    0    0    0  501  0.00000000000E+00  0.00000000000E+00  0.75310940399E+03  0.75310940401E+03  0.50400001928E-02 0.  1.
        1   -1    0    0  501    0  0.00000000000E+00  0.00000000000E+00 -0.20701339870E+04  0.20701339870E+04  0.50400001928E-02 0. -1.
    10030    2    1    2    0    0  0.00000000000E+00  0.00000000000E+00 -0.13170245830E+04  0.28232433910E+04  0.24972283622E+04 0.  0.
        3    1    3    3  502    0  0.46590506060E+03 -0.53854691307E+03 -0.18180501673E+04  0.19525385333E+04  0.10100000352E+00 0. -1.
       -3    1    3    3    0  502 -0.46590506060E+03  0.53854691307E+03  0.50102558423E+03  0.87070485776E+03  0.10100000352E+00 0.  1.
</event>
<event>
 5   0  0.2588048E-05  0.2781552E+04  0.7818609E-02  0.8309019E-01
       -2   -1    0    0    0  501  0.00000000000E+00  0.00000000000E+00  0.74644085494E+03  0.74644085494E+03  0.25500000920E-02 0. -1.
        2   -1    0    0  501    0  0.00000000000E+00  0.00000000000E+00 -0.25913067619E+04  0.25913067619E+04  0.25500000920E-02 0.  1.
    10030    2    1    2    0    0  0.00000000000E+00  0.00000000000E+00 -0.18448659069E+04  0.33377476168E+04  0.27815515345E+04 0.  0.
        2    1    3    3  502    0  0.74020080833E+03 -0.11004828838E+04 -0.42002772931E+03  0.13911804727E+04  0.25500000920E-02 0. -1.
       -2    1    3    3    0  502 -0.74020080833E+03  0.11004828838E+04 -0.14248381776E+04  0.19465671441E+04  0.25500000920E-02 0.  1.
</event>
<event>
 5   0  0.1078103E-05  0.2666678E+04  0.7818609E-02  0.8345898E-01
       -1   -1    0    0    0  501  0.00000000000E+00  0.00000000000E+00  0.18008946543E+04  0.18008946543E+04  0.50400001928E-02 0.  1.
        1   -1    0    0  501    0  0.00000000000E+00  0.00000000000E+00 -0.98717237935E+03  0.98717237936E+03  0.50400001928E-02 0. -1.
    10030    2    1    2    0    0  0.00000000000E+00  0.00000000000E+00  0.81372227493E+03  0.27880670336E+04  0.26666784289E+04 0.  0.
        1    1    3    3  502    0  0.46172199398E+03 -0.10626318826E+04  0.10967618955E+04  0.15953872172E+04  0.50400001928E-02 0.  1.
       -1    1    3    3    0  502 -0.46172199398E+03  0.10626318826E+04 -0.28303962053E+03  0.11926798164E+04  0.50400001928E-02 0. -1.
</event>
<event>
 5   0  0.2651061E-05  0.2845443E+04  0.7818609E-02  0.8289297E-01
       -2   -1    0    0    0  501  0.00000000000E+00  0.00000000000E+00  0.14744523232E+04  0.14744523232E+04  0.25500000920E-02 0.  1.
        2   -1    0    0  501    0  0.00000000000E+00  0.00000000000E+00 -0.13728053176E+04  0.13728053176E+04  0.25500000920E-02 0. -1.
    10030    2    1    2    0    0  0.00000000000E+00  0.00000000000E+00  0.10164700568E+03  0.28472576408E+04  0.28454426649E+04 0.  0.
        3    1    3    3  502    0  0.13246303585E+04 -0.42228773465E+03  0.35294896881E+03  0.14344146898E+04  0.10100000352E+00 0.  1.
       -3    1    3    3    0  502 -0.13246303585E+04  0.42228773465E+03 -0.25130196312E+03  0.14128429510E+04  0.10100000352E+00 0. -1.
</event>
<event>
 5   0  0.2588048E-05  0.2427546E+04  0.7818609E-02  0.8429262E-01
        2   -1    0    0  501    0  0.00000000000E+00  0.00000000000E+00  0.11585102335E+04  0.11585102335E+04  0.25500000920E-02 0. -1.
       -2   -1    0    0    0  501  0.00000000000E+00  0.00000000000E+00 -0.12716716311E+04  0.12716716311E+04  0.25500000920E-02 0.  1.
    10030    2    1    2    0    0  0.00000000000E+00  0.00000000000E+00 -0.11316139765E+03  0.24301818646E+04  0.24275457551E+04 0.  0.
        2    1    3    3  502    0 -0.12060897833E+04  0.11506451392E+03 -0.12981880932E+03  0.12185012643E+04  0.25500000920E-02 0.  1.
       -2    1    3    3    0  502  0.12060897833E+04 -0.11506451392E+03  0.16657411673E+02  0.12116806003E+04  0.25500000920E-02 0. -1.
</event>
<event>
 5   0  0.1078103E-05  0.2732318E+04  0.7818609E-02  0.8324594E-01
        1   -1    0    0  501    0  0.00000000000E+00  0.00000000000E+00  0.14511388992E+04  0.14511388992E+04  0.50400001928E-02 0. -1.
       -1   -1    0    0    0  501  0.00000000000E+00  0.00000000000E+00 -0.12861557628E+04  0.12861557628E+04  0.50400001928E-02 0.  1.
    10030    2    1    2    0    0  0.00000000000E+00  0.00000000000E+00  0.16498313640E+03  0.27372946621E+04  0.27323181791E+04 0.  0.
        1    1    3    3  502    0  0.44097435613E+02  0.93790002890E+03  0.10766646678E+04  0.14285684635E+04  0.50400001928E-02 0. -1.
       -1    1    3    3    0  502 -0.44097435613E+02 -0.93790002890E+03 -0.91168153142E+03  0.13087261986E+04  0.50400001928E-02 0.  1.
</event>
<event>
 5   0  0.2518686E-05  0.2720412E+04  0.7818609E-02  0.8328412E-01
        2   -1    0    0  501    0  0.00000000000E+00  0.00000000000E+00  0.18274649594E+04  0.18274649594E+04  0.25500000920E-02 0. -1.
       -2   -1    0    0    0  501  0.00000000000E+00  0.00000000000E+00 -0.10124192504E+04  0.10124192504E+04  0.25500000920E-02 0.  1.
    10030    2    1    2    0    0  0.00000000000E+00  0.00000000000E+00  0.81504570897E+03  0.28398842098E+04  0.27204122513E+04 0.  0.
        5    1    3    3  502    0  0.45502888989E+03  0.20280084703E+03  0.17287930189E+04  0.17991461493E+04  0.46999998093E+01 0. -1.
       -5    1    3    3    0  502 -0.45502888989E+03 -0.20280084703E+03 -0.91374730994E+03  0.10407380605E+04  0.46999998093E+01 0.  1.
</event>
<event>
 5   0  0.2588048E-05  0.1462393E+04  0.7818609E-02  0.8909854E-01
       -2   -1    0    0    0  501  0.00000000000E+00  0.00000000000E+00  0.83962623486E+03  0.83962623486E+03  0.25500000920E-02 0. -1.
        2   -1    0    0  501    0  0.00000000000E+00  0.00000000000E+00 -0.63676937894E+03  0.63676937895E+03  0.25500000920E-02 0.  1.
    10030    2    1    2    0    0  0.00000000000E+00  0.00000000000E+00  0.20285685591E+03  0.14763956138E+04  0.14623929378E+04 0.  0.
        2    1    3    3  502    0  0.48714171301E+03 -0.30127531442E+03  0.56028497041E+03  0.80124472647E+03  0.25500000920E-02 0. -1.
       -2    1    3    3    0  502 -0.48714171301E+03  0.30127531442E+03 -0.35742811450E+03  0.67515088733E+03  0.25500000920E-02 0.  1.
</event>
<event>
 5   0  0.2518686E-05  0.2583743E+04  0.7818609E-02  0.8373744E-01
        2   -1    0    0  501    0  0.00000000000E+00  0.00000000000E+00  0.17355433962E+04  0.17355433962E+04  0.25500000920E-02 0.  1.
       -2   -1    0    0    0  501  0.00000000000E+00  0.00000000000E+00 -0.96161949965E+03  0.96161949965E+03  0.25500000920E-02 0. -1.
    10030    2    1    2    0    0  0.00000000000E+00  0.00000000000E+00  0.77392389653E+03  0.26971628958E+04  0.25837433094E+04 0.  0.
        5    1    3    3  502    0 -0.10410063020E+03  0.32759081825E+03 -0.91299739627E+03  0.97557112555E+03  0.46999998093E+01 0. -1.
       -5    1    3    3    0  502  0.10410063020E+03 -0.32759081825E+03  0.16869212928E+04  0.17215917703E+04  0.46999998093E+01 0.  1.
</event>
<event>
 5   0  0.1078103E-05  0.2731933E+04  0.7818609E-02  0.8324718E-01
       -1   -1    0    0    0  501  0.00000000000E+00  0.00000000000E+00  0.12271864052E+04  0.12271864052E+04  0.50400001928E-02 0. -1.
        1   -1    0    0  501    0  0.00000000000E+00  0.00000000000E+00 -0.15204409041E+04  0.15204409041E+04  0.50400001928E-02 0.  1.
    10030    2    1    2    0    0  0.00000000000E+00  0.00000000000E+00 -0.29325449893E+03  0.27476273092E+04  0.27319329475E+04 0.  0.
        1    1    3    3  502    0 -0.38997980988E+03  0.26893065967E+03 -0.14351807989E+04  0.15113410857E+04  0.50400001928E-02 0.  1.
       -1    1    3    3    0  502  0.38997980988E+03 -0.26893065967E+03  0.11419263000E+04  0.12362862235E+04  0.50400001928E-02 0. -1.
</event>
<event>
 5   0  0.2624815E-05  0.2807015E+04  0.7818609E-02  0.8301094E-01
        2   -1    0    0  501    0  0.00000000000E+00  0.00000000000E+00  0.12821990984E+04  0.12821990984E+04  0.25500000920E-02 0. -1.
       -2   -1    0    0    0  501  0.00000000000E+00  0.00000000000E+00 -0.15362932718E+04  0.15362932718E+04  0.25500000920E-02 0.  1.
    10030    2    1    2    0    0  0.00000000000E+00  0.00000000000E+00 -0.25409417337E+03  0.28184923702E+04  0.28070153886E+04 0.  0.
        4    1    3    3  502    0 -0.50625508257E+03 -0.99760822591E+03  0.72395337545E+03  0.13325263539E+04  0.12699999809E+01 0. -1.
       -4    1    3    3    0  502  0.50625508257E+03  0.99760822591E+03 -0.97804754882E+03  0.14859660163E+04  0.12699999809E+01 0.  1.
</event>
<event>
 5   0  0.2651061E-05  0.2796907E+04  0.7818609E-02  0.8304229E-01
        2   -1    0    0  501    0  0.00000000000E+00  0.00000000000E+00  0.21289887543E+04  0.21289887543E+04  0.25500000920E-02 0. -1.
       -2   -1    0    0    0  501  0.00000000000E+00  0.00000000000E+00 -0.91859189635E+03  0.91859189635E+03  0.25500000920E-02 0.  1.
    10030    2    1    2    0    0  0.00000000000E+00  0.00000000000E+00  0.12103968580E+04  0.30475806507E+04  0.27969067322E+04 0.  0.
        3    1    3    3  502    0 -0.32608527421E+03 -0.13566722986E+04  0.70730089506E+03  0.15643420017E+04  0.10100000352E+00 0. -1.
       -3    1    3    3    0  502  0.32608527421E+03  0.13566722986E+04  0.50309596289E+03  0.14832386490E+04  0.10100000352E+00 0.  1.
</event>
<event>
 5   0  0.2518686E-05  0.1616146E+04  0.7818609E-02  0.8810690E-01
        2   -1    0    0  501    0  0.00000000000E+00  0.00000000000E+00  0.12656253697E+04  0.12656253697E+04  0.25500000920E-02 0. -1.
       -2   -1    0    0    0  501  0.00000000000E+00  0.00000000000E+00 -0.51593636560E+03  0.51593636560E+03  0.25500000920E-02 0.  1.
    10030    2    1    2    0    0  0.00000000000E+00  0.00000000000E+00  0.74968900410E+03  0.17815617353E+04  0.16161462229E+04 0.  0.
        5    1    3    3  502    0  0.71726602408E+03 -0.20666541949E+03  0.71600221100E+03  0.10343415302E+04  0.46999998093E+01 0.  1.
       -5    1    3    3    0  502 -0.71726602408E+03  0.20666541949E+03  0.33686793101E+02  0.74722020512E+03  0.46999998093E+01 0. -1.
</event>
<event>
 5   0  0.2651061E-05  0.2833794E+04  0.7818609E-02  0.8292853E-01
       -2   -1    0    0    0  501  0.00000000000E+00  0.00000000000E+00  0.10970264919E+04  0.10970264919E+04  0.25500000920E-02 0. -1.
        2   -1    0    0  501    0  0.00000000000E+00  0.00000000000E+00 -0.18300354463E+04  0.18300354463E+04  0.25500000920E-02 0.  1.
    10030    2    1    2    0    0  0.00000000000E+00  0.00000000000E+00 -0.73300895440E+03  0.29270619382E+04  0.28337941814E+04 0.  0.
        3    1    3    3  502    0  0.63028573666E+03  0.10612882049E+04  0.35209740294E+03  0.12835752237E+04  0.10100000352E+00 0.  1.
       -3    1    3    3    0  502 -0.63028573666E+03 -0.10612882049E+04 -0.10851063573E+04  0.16434867144E+04  0.10100000352E+00 0. -1.
</event>
<event>
 5   0  0.1105862E-05  0.2646403E+04  0.7818609E-02  0.8352608E-01
        1   -1    0    0  501    0  0.00000000000E+00  0.00000000000E+00  0.16228836724E+04  0.16228836724E+04  0.50400001928E-02 0.  1.
       -1   -1    0    0    0  501  0.00000000000E+00  0.00000000000E+00 -0.10788589750E+04  0.10788589750E+04  0.50400001928E-02 0. -1.
    10030    2    1    2    0    0  0.00000000000E+00  0.00000000000E+00  0.54402469739E+03  0.27017426473E+04  0.26464033066E+04 0.  0.
        3    1    3    3  502    0 -0.36408477470E+03  0.59889322512E+02 -0.10252753838E+04  0.10896486025E+04  0.10100000352E+00 0. -1.
       -3    1    3    3    0  502  0.36408477470E+03 -0.59889322512E+02  0.15693000812E+04  0.16120940448E+04  0.10100000352E+00 0.  1.
</event>
<event>
 5   0  0.1105862E-05  0.2861560E+04  0.7818609E-02  0.8284407E-01
        1   -1    0    0  501    0  0.00000000000E+00  0.00000000000E+00  0.18279259699E+04  0.18279259699E+04  0.50400001928E-02 0. -1.
       -1   -1    0    0    0  501  0.00000000000E+00  0.00000000000E+00 -0.11199203910E+04  0.11199203910E+04  0.50400001928E-02 0.  1.
    10030    2    1    2    0    0  0.00000000000E+00  0.00000000000E+00  0.70800557890E+03  0.29478463610E+04  0.28615601109E+04 0.  0.
        3    1    3    3  502    0 -0.11404888088E+04 -0.86106769948E+03  0.28131123212E+03  0.14564643235E+04  0.10100000352E+00 0.  1.
       -3    1    3    3    0  502  0.11404888088E+04  0.86106769948E+03  0.42669434678E+03  0.14913820375E+04  0.10100000352E+00 0. -1.
</event>
<event>
 5   0  0.2624815E-05  0.2639372E+04  0.7818609E-02  0.8354949E-01
        2   -1    0    0  501    0  0.00000000000E+00  0.00000000000E+00  0.22345858346E+04  0.22345858346E+04  0.25500000920E-02 0.  1.
       -2   -1    0    0    0  501  0.00000000000E+00  0.00000000000E+00 -0.77937072133E+03  0.77937072133E+03  0.25500000920E-02 0. -1.
    10030    2    1    2    0    0  0.00000000000E+00  0.00000000000E+00  0.14552151133E+04  0.30139565560E+04  0.26393717236E+04 0.  0.
        4    1    3    3  502    0  0.90954159490E+03 -0.81952467184E+03  0.12901505404E+04  0.17785883814E+04  0.12699999809E+01 0.  1.
       -4    1    3    3    0  502 -0.90954159490E+03  0.81952467184E+03  0.16506457287E+03  0.12353681746E+04  0.12699999809E+01 0. -1.
</event>
<event>
 5   0  0.1017456E-05  0.2810657E+04  0.7818609E-02  0.8299968E-01
       -1   -1    0    0    0  501  0.00000000000E+00  0.00000000000E+00  0.94667748714E+03  0.94667748715E+03  0.50400001928E-02 0. -1.
        1   -1    0    0  501    0  0.00000000000E+00  0.00000000000E+00 -0.20861885573E+04  0.20861885573E+04  0.50400001928E-02 0.  1.
    10030    2    1    2    0    0  0.00000000000E+00  0.00000000000E+00 -0.11395110702E+04  0.30328660445E+04  0.28106566785E+04 0.  0.
        5    1    3    3  502    0  0.96716488409E+03  0.72338506036E+03  0.20554092803E+03  0.12251379603E+04  0.46999998093E+01 0. -1.
       -5    1    3    3    0  502 -0.96716488409E+03 -0.72338506036E+03 -0.13450519982E+04  0.18077280842E+04  0.46999998093E+01 0.  1.
</event>
<event>
 5   0  0.8958000E-06  0.2731944E+04  0.7818609E-02  0.8324714E-01
       -3   -1    0    0    0  501  0.00000000000E+00  0.00000000000E+00  0.15147480784E+04  0.15147480818E+04  0.10100000352E+00 0. -1.
        3   -1    0    0  501    0  0.00000000000E+00  0.00000000000E+00 -0.12318082445E+04  0.12318082486E+04  0.10100000352E+00 0.  1.
    10030    2    1    2    0    0  0.00000000000E+00  0.00000000000E+00  0.28293983396E+03  0.27465563304E+04  0.27319437634E+04 0.  0.
        5    1    3    3  502    0  0.57614761281E+03 -0.10884587543E+04 -0.45259556874E+03  0.13120797882E+04  0.46999998093E+01 0.  1.
       -5    1    3    3    0  502 -0.57614761281E+03  0.10884587543E+04  0.73553540269E+03  0.14344765422E+04  0.46999998093E+01 0. -1.
</event>
<event>
 5   0  0.1105862E-05  0.2828963E+04  0.7818609E-02  0.8294333E-01
        1   -1    0    0  501    0  0.00000000000E+00  0.00000000000E+00  0.26323602160E+04  0.26323602160E+04  0.50400001928E-02 0. -1.
       -1   -1    0    0    0  501  0.00000000000E+00  0.00000000000E+00 -0.76006217761E+03  0.76006217763E+03  0.50400001928E-02 0.  1.
    10030    2    1    2    0    0  0.00000000000E+00  0.00000000000E+00  0.18722980384E+04  0.33924223936E+04  0.28289626636E+04 0.  0.
        3    1    3    3  502    0  0.12700462294E+04  0.39661746092E+03  0.36050162450E+03  0.13785079857E+04  0.10100000352E+00 0.  1.
       -3    1    3    3    0  502 -0.12700462294E+04 -0.39661746092E+03  0.15117964139E+04  0.20139144079E+04  0.10100000352E+00 0. -1.
</event>
<event>
 5   0  0.8958000E-06  0.2805517E+04  0.7818609E-02  0.8301558E-01
        3   -1    0    0  501    0  0.00000000000E+00  0.00000000000E+00  0.11424629361E+04  0.11424629406E+04  0.10100000352E+00 0. -1.
       -3   -1    0    0    0  501  0.00000000000E+00  0.00000000000E+00 -0.17223585766E+04  0.17223585796E+04  0.10100000352E+00 0.  1.
    10030    2    1    2    0    0  0.00000000000E+00  0.00000000000E+00 -0.57989564051E+03  0.28648215202E+04  0.28055165992E+04 0.  0.
        4    1    3    3  502    0  0.33108984269E+03  0.11231162066E+04  0.49885701697E+03  0.12727413067E+04  0.12699999809E+01 0. -1.
       -4    1    3    3    0  502 -0.33108984269E+03 -0.11231162066E+04 -0.10787526575E+04  0.15920802135E+04  0.12699999809E+01 0.  1.
</event>
<event>
 5   0  0.1105862E-05  0.1777010E+04  0.7818609E-02  0.8718622E-01
        1   -1    0    0  501    0  0.00000000000E+00  0.00000000000E+00  0.11214354499E+04  0.11214354499E+04  0.50400001928E-02 0. -1.
       -1   -1    0    0    0  501  0.00000000000E+00  0.00000000000E+00 -0.70395564765E+03  0.70395564767E+03  0.50400001928E-02 0.  1.
    10030    2    1    2    0    0  0.00000000000E+00  0.00000000000E+00  0.41747980220E+03  0.18253910975E+04  0.17770096437E+04 0.  0.
        3    1    3    3  502    0  0.25480050373E+03 -0.69391200408E+03  0.71511522602E+03  0.10285071525E+04  0.10100000352E+00 0. -1.
       -3    1    3    3    0  502 -0.25480050373E+03  0.69391200408E+03 -0.29763542382E+03  0.79688394501E+03  0.10100000352E+00 0.  1.
</event>
<event>
 5   0  0.2697964E-05  0.2758257E+04  0.7818609E-02  0.8316346E-01
        2   -1    0    0  501    0  0.00000000000E+00  0.00000000000E+00  0.20461284154E+04  0.20461284154E+04  0.25500000920E-02 0.  1.
       -2   -1    0    0    0  501  0.00000000000E+00  0.00000000000E+00 -0.92955835138E+03  0.92955835138E+03  0.25500000920E-02 0. -1.
    10030    2    1    2    0    0  0.00000000000E+00  0.00000000000E+00  0.11165700640E+04  0.29756867668E+04  0.27582572444E+04 0.  0.
        1    1    3    3  502    0  0.99089869733E+03  0.85233213755E+03  0.10330253329E+04  0.16659806840E+04  0.50400001928E-02 0.  1.
       -1    1    3    3    0  502 -0.99089869733E+03 -0.85233213755E+03  0.83544731073E+02  0.13097060827E+04  0.50400001928E-02 0. -1.
</event>
<event>
 5   0  0.1075146E-05  0.2858990E+04  0.7818609E-02  0.8285185E-01
       -1   -1    0    0    0  501  0.00000000000E+00  0.00000000000E+00  0.11137345267E+04  0.11137345267E+04  0.50400001928E-02 0. -1.
        1   -1    0    0  501    0  0.00000000000E+00  0.00000000000E+00 -0.18347788197E+04  0.18347788197E+04  0.50400001928E-02 0.  1.
    10030    2    1    2    0    0  0.00000000000E+00  0.00000000000E+00 -0.72104429299E+03  0.29485133463E+04  0.28589903954E+04 0.  0.
        2    1    3    3  502    0 -0.56149637302E+03  0.36295362113E+03  0.94254594932E+03  0.11555978429E+04  0.25500000920E-02 0. -1.
       -2    1    3    3    0  502  0.56149637302E+03 -0.36295362113E+03 -0.16635902423E+04  0.17929155034E+04  0.25500000920E-02 0.  1.
</event>
<event>
 5   0  0.1105862E-05  0.2804827E+04  0.7818609E-02  0.8301771E-01
        1   -1    0    0  501    0  0.00000000000E+00  0.00000000000E+00  0.18075190978E+04  0.18075190978E+04  0.50400001928E-02 0.  1.
       -1   -1    0    0    0  501  0.00000000000E+00  0.00000000000E+00 -0.10881008822E+04  0.10881008822E+04  0.50400001928E-02 0. -1.
    10030    2    1    2    0    0  0.00000000000E+00  0.00000000000E+00  0.71941821559E+03  0.28956199800E+04  0.28048266434E+04 0.  0.
        3    1    3    3  502    0 -0.98790229431E+03  0.68031153088E+03 -0.39044022606E+03  0.12614350171E+04  0.10100000352E+00 0. -1.
       -3    1    3    3    0  502  0.98790229431E+03 -0.68031153088E+03  0.11098584417E+04  0.16341849629E+04  0.10100000352E+00 0.  1.
</event>
<event>
 5   0  0.1075146E-05  0.2847830E+04  0.7818609E-02  0.8288571E-01
        1   -1    0    0  501    0  0.00000000000E+00  0.00000000000E+00  0.22195931092E+04  0.22195931092E+04  0.50400001928E-02 0. -1.
       -1   -1    0    0    0  501  0.00000000000E+00  0.00000000000E+00 -0.91347119511E+03  0.91347119512E+03  0.50400001928E-02 0.  1.
    10030    2    1    2    0    0  0.00000000000E+00  0.00000000000E+00  0.13061219141E+04  0.31330643043E+04  0.28478303111E+04 0.  0.
        2    1    3    3  502    0  0.35764945964E+03 -0.51578997030E+03 -0.75306965230E+03  0.98033990568E+03  0.25500000920E-02 0.  1.
       -2    1    3    3    0  502 -0.35764945964E+03  0.51578997030E+03  0.20591915664E+04  0.21527243987E+04  0.25500000920E-02 0. -1.
</event>
<event>
 5   0  0.1105862E-05  0.2054576E+04  0.7818609E-02  0.8581521E-01
        1   -1    0    0  501    0  0.00000000000E+00  0.00000000000E+00  0.97776440416E+03  0.97776440418E+03  0.50400001928E-02 0. -1.
       -1   -1    0    0    0  501  0.00000000000E+00  0.00000000000E+00 -0.10793204142E+04  0.10793204142E+04  0.50400001928E-02 0.  1.
    10030    2    1    2    0    0  0.00000000000E+00  0.00000000000E+00 -0.10155601001E+03  0.20570848184E+04  0.20545764349E+04 0.  0.
        3    1    3    3  502    0  0.85242026420E+03 -0.22001469865E+03 -0.58085264513E+03  0.10547116099E+04  0.10100000352E+00 0.  1.
       -3    1    3    3    0  502 -0.85242026420E+03  0.22001469865E+03  0.47929663512E+03  0.10023732085E+04  0.10100000352E+00 0. -1.
</event>
<event>
 5   0  0.2518686E-05  0.2808653E+04  0.7818609E-02  0.8300587E-01
       -2   -1    0    0    0  501  0.00000000000E+00  0.00000000000E+00  0.93561079605E+03  0.93561079605E+03  0.25500000920E-02 0.  1.
        2   -1    0    0  501    0  0.00000000000E+00  0.00000000000E+00 -0.21078555901E+04  0.21078555901E+04  0.25500000920E-02 0. -1.
    10030    2    1    2    0    0  0.00000000000E+00  0.00000000000E+00 -0.11722447940E+04  0.30434663861E+04  0.28086526639E+04 0.  0.
        5    1    3    3  502    0 -0.66224250985E+03 -0.77361000700E+03 -0.16339580712E+04  0.19253255967E+04  0.46999998093E+01 0. -1.
       -5    1    3    3    0  502  0.66224250985E+03  0.77361000700E+03  0.46171327715E+03  0.11181407895E+04  0.46999998093E+01 0.  1.
</event>
<event>
 5   0  0.2697964E-05  0.2551238E+04  0.7818609E-02  0.8384956E-01
        2   -1    0    0  501    0  0.00000000000E+00  0.00000000000E+00  0.74153046640E+03  0.74153046640E+03  0.25500000920E-02 0. -1.
       -2   -1    0    0    0  501  0.00000000000E+00  0.00000000000E+00 -0.21943861433E+04  0.21943861433E+04  0.25500000920E-02 0.  1.
    10030    2    1    2    0    0  0.00000000000E+00  0.00000000000E+00 -0.14528556769E+04  0.29359166097E+04  0.25512382721E+04 0.  0.
        1    1    3    3  502    0  0.74172560535E+03  0.67193868450E+03 -0.16365972166E+04  0.19183609980E+04  0.50400001928E-02 0.  1.
       -1    1    3    3    0  502 -0.74172560535E+03 -0.67193868450E+03  0.18374153972E+03  0.10175556117E+04  0.50400001928E-02 0. -1.
</event>
<event>
 5   0  0.1078103E-05  0.2601465E+04  0.7818609E-02  0.8367704E-01
       -1   -1    0    0    0  501  0.00000000000E+00  0.00000000000E+00  0.12442919512E+04  0.12442919512E+04  0.50400001928E-02 0. -1.
        1   -1    0    0  501    0  0.00000000000E+00  0.00000000000E+00 -0.13597327254E+04  0.13597327254E+04  0.50400001928E-02 0.  1.
    10030    2    1    2    0    0  0.00000000000E+00  0.00000000000E+00 -0.11544077422E+03  0.26040246766E+04  0.26014645767E+04 0.  0.
        1    1    3    3  502    0 -0.10372122573E+04  0.75230184314E+03 -0.28185401822E+03  0.13119485575E+04  0.50400001928E-02 0.  1.
       -1    1    3    3    0  502  0.10372122573E+04 -0.75230184314E+03  0.16641324399E+03  0.12920761191E+04  0.50400001928E-02 0. -1.
</event>
<event>
 5   0  0.2588048E-05  0.1882523E+04  0.7818609E-02  0.8663605E-01
       -2   -1    0    0    0  501  0.00000000000E+00  0.00000000000E+00  0.67415927274E+03  0.67415927274E+03  0.25500000920E-02 0.  1.
        2   -1    0    0  501    0  0.00000000000E+00  0.00000000000E+00 -0.13141895775E+04  0.13141895775E+04  0.25500000920E-02 0. -1.
    10030    2    1    2    0    0  0.00000000000E+00  0.00000000000E+00 -0.64003030473E+03  0.19883488502E+04  0.18825228708E+04 0.  0.
        2    1    3    3  502    0  0.86028126329E+03 -0.31855971273E+03 -0.97434423470E+02  0.92252783667E+03  0.25500000920E-02 0. -1.
       -2    1    3    3    0  502 -0.86028126329E+03  0.31855971273E+03 -0.54259588126E+03  0.10658210135E+04  0.25500000920E-02 0.  1.
</event>
<event>
 5   0  0.2518686E-05  0.1563539E+04  0.7818609E-02  0.8843266E-01
        2   -1    0    0  501    0  0.00000000000E+00  0.00000000000E+00  0.21637219096E+04  0.21637219096E+04  0.25500000920E-02 0. -1.
       -2   -1    0    0    0  501  0.00000000000E+00  0.00000000000E+00 -0.28245948741E+03  0.28245948742E+03  0.25500000920E-02 0.  1.
    10030    2    1    2    0    0  0.00000000000E+00  0.00000000000E+00  0.18812624222E+04  0.24461813970E+04  0.15635392947E+04 0.  0.
        5    1    3    3  502    0 -0.24750538965E+03  0.25489317190E+03 -0.14882915133E+03  0.38522935151E+03  0.46999998093E+01 0.  1.
       -5    1    3    3    0  502  0.24750538965E+03 -0.25489317190E+03  0.20300915735E+04  0.20609520455E+04  0.46999998093E+01 0. -1.
</event>
<event>
 5   0  0.1075146E-05  0.2825739E+04  0.7818609E-02  0.8295322E-01
       -1   -1    0    0    0  501  0.00000000000E+00  0.00000000000E+00  0.94144907526E+03  0.94144907528E+03  0.50400001928E-02 0. -1.
        1   -1    0    0  501    0  0.00000000000E+00  0.00000000000E+00 -0.21203482488E+04  0.21203482489E+04  0.50400001928E-02 0.  1.
    10030    2    1    2    0    0  0.00000000000E+00  0.00000000000E+00 -0.11788991736E+04  0.30617973241E+04  0.28257387693E+04 0.  0.
        2    1    3    3  502    0 -0.11874482328E+04  0.76078964251E+03 -0.49645625532E+03  0.14950929734E+04  0.25500000920E-02 0.  1.
       -2    1    3    3    0  502  0.11874482328E+04 -0.76078964251E+03 -0.68244291827E+03  0.15667043507E+04  0.25500000920E-02 0. -1.
</event>
<event>
 5   0  0.2588048E-05  0.2785811E+04  0.7818609E-02  0.8307687E-01
        2   -1    0    0  501    0  0.00000000000E+00  0.00000000000E+00  0.14307749376E+04  0.14307749376E+04  0.25500000920E-02 0. -1.
       -2   -1    0    0    0  501  0.00000000000E+00  0.00000000000E+00 -0.13560385197E+04  0.13560385197E+04  0.25500000920E-02 0.  1.
    10030    2    1    2    0    0  0.00000000000E+00  0.00000000000E+00  0.74736417875E+02  0.27868134574E+04  0.27858111411E+04 0.  0.
        2    1    3    3  502    0  0.32727226294E+02  0.83665189895E+03 -0.10761937686E+04  0.13635433616E+04  0.25500000920E-02 0.  1.
       -2    1    3    3    0  502 -0.32727226294E+02 -0.83665189895E+03  0.11509301865E+04  0.14232700958E+04  0.25500000920E-02 0. -1.
</event>
<event>
 5   0  0.2651061E-05  0.3042519E+04  0.7818609E-02  0.8231692E-01
        2   -1    0    0  501    0  0.00000000000E+00  0.00000000000E+00  0.25088655661E+04  0.25088655661E+04  0.25500000920E-02 0. -1.
       -2   -1    0    0    0  501  0.00000000000E+00  0.00000000000E+00 -0.92242115229E+03  0.92242115229E+03  0.25500000920E-02 0.  1.
    10030    2    1    2    0    0  0.00000000000E+00  0.00000000000E+00  0.15864444138E+04  0.34312867184E+04  0.30425191315E+04 0.  0.
        3    1    3    3  502    0  0.83166789631E+03 -0.99122687541E+03 -0.10902039652E+03  0.12984943840E+04  0.10100000352E+00 0.  1.
       -3    1    3    3    0  502 -0.83166789631E+03  0.99122687541E+03  0.16954648103E+04  0.21327923344E+04  0.10100000352E+00 0. -1.
</event>
<event>
 5   0  0.8958000E-06  0.2804620E+04  0.7818609E-02  0.8301836E-01
       -3   -1    0    0    0  501  0.00000000000E+00  0.00000000000E+00  0.10875759081E+04  0.10875759128E+04  0.10100000352E+00 0.  1.
        3   -1    0    0  501    0  0.00000000000E+00  0.00000000000E+00 -0.18081248849E+04  0.18081248877E+04  0.10100000352E+00 0. -1.
    10030    2    1    2    0    0  0.00000000000E+00  0.00000000000E+00 -0.72054897680E+03  0.28957008004E+04  0.28046198134E+04 0.  0.
        2    1    3    3  502    0  0.86322285938E+03 -0.86465735643E+03  0.35032588771E+03  0.12710288260E+04  0.25500000920E-02 0.  1.
       -2    1    3    3    0  502 -0.86322285938E+03  0.86465735643E+03 -0.10708748645E+04  0.16246719744E+04  0.25500000920E-02 0. -1.
</event>
<event>
 5   0  0.1017456E-05  0.2087978E+04  0.7818609E-02  0.8566558E-01
       -1   -1    0    0    0  501  0.00000000000E+00  0.00000000000E+00  0.66174209095E+03  0.66174209097E+03  0.50400001928E-02 0. -1.
        1   -1    0    0  501    0  0.00000000000E+00  0.00000000000E+00 -0.16470362463E+04  0.16470362463E+04  0.50400001928E-02 0.  1.
    10030    2    1    2    0    0  0.00000000000E+00  0.00000000000E+00 -0.98529415531E+03  0.23087783372E+04  0.20879781699E+04 0.  0.
        5    1    3    3  502    0 -0.68689723757E+03  0.47958634791E+03  0.19617309735E+03  0.86042829696E+03  0.46999998093E+01 0. -1.
       -5    1    3    3    0  502  0.68689723757E+03 -0.47958634791E+03 -0.11814672527E+04  0.14483500403E+04  0.46999998093E+01 0.  1.
</event>
<event>
 5   0  0.2697964E-05  0.2165640E+04  0.7818609E-02  0.8532867E-01
        2   -1    0    0  501    0  0.00000000000E+00  0.00000000000E+00  0.15262348021E+04  0.15262348021E+04  0.25500000920E-02 0. -1.
       -2   -1    0    0    0  501  0.00000000000E+00  0.00000000000E+00 -0.76823010483E+03  0.76823010483E+03  0.25500000920E-02 0.  1.
    10030    2    1    2    0    0  0.00000000000E+00  0.00000000000E+00  0.75800469722E+03  0.22944649069E+04  0.21656403413E+04 0.  0.
        1    1    3    3  502    0  0.28253420184E+03 -0.86501268337E+03  0.10007922783E+04  0.13526484029E+04  0.50400001928E-02 0. -1.
       -1    1    3    3    0  502 -0.28253420184E+03  0.86501268337E+03 -0.24278758107E+03  0.94181650397E+03  0.50400001928E-02 0.  1.
</event>
<event>
 5   0  0.1067434E-05  0.2769338E+04  0.7818609E-02  0.8312851E-01
        1   -1    0    0  501    0  0.00000000000E+00  0.00000000000E+00  0.22936586002E+04  0.22936586002E+04  0.50400001928E-02 0.  1.
       -1   -1    0    0    0  501  0.00000000000E+00  0.00000000000E+00 -0.83591722529E+03  0.83591722531E+03  0.50400001928E-02 0. -1.
    10030    2    1    2    0    0  0.00000000000E+00  0.00000000000E+00  0.14577413749E+04  0.31295758255E+04  0.27693383563E+04 0.  0.
        4    1    3    3  502    0 -0.11511706088E+04  0.29637303158E+03 -0.73626961752E+02  0.11909883656E+04  0.12699999809E+01 0. -1.
       -4    1    3    3    0  502  0.11511706088E+04 -0.29637303158E+03  0.15313683367E+04  0.19385874600E+04  0.12699999809E+01 0.  1.
</event>
<event>
 5   0  0.1075146E-05  0.2797019E+04  0.7818609E-02  0.8304194E-01
       -1   -1    0    0    0  501  0.00000000000E+00  0.00000000000E+00  0.11087715250E+04  0.11087715250E+04  0.50400001928E-02 0.  1.
        1   -1    0    0  501    0  0.00000000000E+00  0.00000000000E+00 -0.17639607330E+04  0.17639607331E+04  0.50400001928E-02 0. -1.
    10030    2    1    2    0    0  0.00000000000E+00  0.00000000000E+00 -0.65518920805E+03  0.28727322581E+04  0.27970194365E+04 0.  0.
        2    1    3    3  502    0  0.17513927991E+03  0.13005946360E+04  0.16882016203E+03  0.13231479213E+04  0.25500000920E-02 0.  1.
       -2    1    3    3    0  502 -0.17513927991E+03 -0.13005946360E+04 -0.82400937008E+03  0.15495843367E+04  0.25500000920E-02 0. -1.
</event>
<event>
 5   0  0.2624815E-05  0.2669043E+04  0.7818609E-02  0.8345120E-01
       -2   -1    0    0    0  501  0.00000000000E+00  0.00000000000E+00  0.90228218757E+03  0.90228218757E+03  0.25500000920E-02 0. -1.
        2   -1    0    0  501    0  0.00000000000E+00  0.00000000000E+00 -0.19738249935E+04  0.19738249935E+04  0.25500000920E-02 0.  1.
    10030    2    1    2    0    0  0.00000000000E+00  0.00000000000E+00 -0.10715428060E+04  0.28761071811E+04  0.26690426247E+04 0.  0.
        4    1    3    3  502    0 -0.25367202634E+02 -0.11024180622E+04  0.27419075025E+03  0.11362883698E+04  0.12699999809E+01 0. -1.
       -4    1    3    3    0  502  0.25367202634E+02  0.11024180622E+04 -0.13457335562E+04  0.17398188113E+04  0.12699999809E+01 0.  1.
</event>
<event>
 5   0  0.2588048E-05  0.2776799E+04  0.7818609E-02  0.8310508E-01
       -2   -1    0    0    0  501  0.00000000000E+00  0.00000000000E+00  0.11455305403E+04  0.11455305403E+04  0.25500000920E-02 0.  1.
        2   -1    0    0  501    0  0.00000000000E+00  0.00000000000E+00 -0.16827602372E+04  0.16827602372E+04  0.25500000920E-02 0. -1.
    10030    2    1    2    0    0  0.00000000000E+00  0.00000000000E+00 -0.53722969689E+03  0.28282907776E+04  0.27767990520E+04 0.  0.
        2    1    3    3  502    0  0.49189402426E+03  0.54186393359E+03 -0.14703568285E+04  0.16424145204E+04  0.25500000920E-02 0. -1.
       -2    1    3    3    0  502 -0.49189402426E+03 -0.54186393359E+03  0.93312713159E+03  0.11858762572E+04  0.25500000920E-02 0.  1.
</event>
<event>
 5   0  0.2651061E-05  0.2618509E+04  0.7818609E-02  0.8361941E-01
       -2   -1    0    0    0  501  0.00000000000E+00  0.00000000000E+00  0.15743362979E+04  0.15743362979E+04  0.25500000920E-02 0.  1.
        2   -1    0    0  501    0  0.00000000000E+00  0.00000000000E+00 -0.10888064667E+04  0.10888064667E+04  0.25500000920E-02 0. -1.
    10030    2    1    2    0    0  0.00000000000E+00  0.00000000000E+00  0.48552983124E+03  0.26631427646E+04  0.26185091499E+04 0.  0.
        3    1    3    3  502    0  0.63993266609E+03  0.58581062587E+03  0.12400191259E+04  0.15133853935E+04  0.10100000352E+00 0.  1.
       -3    1    3    3    0  502 -0.63993266609E+03 -0.58581062587E+03 -0.75448929466E+03  0.11497573711E+04  0.10100000352E+00 0. -1.
</event>
<event>
 5   0  0.8958000E-06  0.2839464E+04  0.7818609E-02  0.8291120E-01
       -4   -1    0    0    0  501  0.00000000000E+00  0.00000000000E+00  0.14954820648E+04  0.14954826041E+04  0.12699999809E+01 0.  1.
        4   -1    0    0  501    0  0.00000000000E+00  0.00000000000E+00 -0.13478177817E+04  0.13478183800E+04  0.12699999809E+01 0. -1.
    10030    2    1    2    0    0  0.00000000000E+00  0.00000000000E+00  0.14766428313E+03  0.28433009841E+04  0.28394639892E+04 0.  0.
        1    1    3    3  502    0 -0.12976169331E+04 -0.56054989356E+03 -0.59061356499E+02  0.14147487876E+04  0.50400001928E-02 0.  1.
       -1    1    3    3    0  502  0.12976169331E+04  0.56054989356E+03  0.20672563963E+03  0.14285521965E+04  0.50400001928E-02 0. -1.
</event>
<event>
 5   0  0.2624815E-05  0.2852064E+04  0.7818609E-02  0.8287284E-01
        2   -1    0    0  501    0  0.00000000000E+00  0.00000000000E+00  0.19649626538E+04  0.19649626538E+04  0.25500000920E-02 0. -1.
       -2   -1    0    0    0  501  0.00000000000E+00  0.00000000000E+00 -0.10349138818E+04  0.10349138818E+04  0.25500000920E-02 0.  1.
    10030    2    1    2    0    0  0.00000000000E+00  0.00000000000E+00  0.93004877200E+03  0.29998765356E+04  0.28520639036E+04 0.  0.
        4    1    3    3  502    0 -0.52616722183E+03  0.50617180776E+03 -0.82341104761E+03  0.11004858975E+04  0.12699999809E+01 0.  1.
       -4    1    3    3    0  502  0.52616722183E+03 -0.50617180776E+03  0.17534598196E+04  0.18993906381E+04  0.12699999809E+01 0. -1.
</event>
<event>
 5   0  0.2651061E-05  0.2823005E+04  0.7818609E-02  0.8296162E-01
       -2   -1    0    0    0  501  0.00000000000E+00  0.00000000000E+00  0.10499869445E+04  0.10499869445E+04  0.25500000920E-02 0. -1.
        2   -1    0    0  501    0  0.00000000000E+00  0.00000000000E+00 -0.18974895125E+04  0.18974895126E+04  0.25500000920E-02 0.  1.
    10030    2    1    2    0    0  0.00000000000E+00  0.00000000000E+00 -0.84750256801E+03  0.29474764571E+04  0.28230049349E+04 0.  0.
        3    1    3    3  502    0 -0.31016014543E+03 -0.32102619122E+03  0.97435050664E+03  0.10717350658E+04  0.10100000352E+00 0. -1.
       -3    1    3    3    0  502  0.31016014543E+03  0.32102619122E+03 -0.18218530746E+04  0.18757413913E+04  0.10100000352E+00 0.  1.
</event>
<event>
 5   0  0.1105862E-05  0.2662712E+04  0.7818609E-02  0.8347206E-01
       -1   -1    0    0    0  501  0.00000000000E+00  0.00000000000E+00  0.16594793039E+04  0.16594793039E+04  0.50400001928E-02 0.  1.
        1   -1    0    0  501    0  0.00000000000E+00  0.00000000000E+00 -0.10681113411E+04  0.10681113411E+04  0.50400001928E-02 0. -1.
    10030    2    1    2    0    0  0.00000000000E+00  0.00000000000E+00  0.59136796278E+03  0.27275906450E+04  0.26627118994E+04 0.  0.
        3    1    3    3  502    0  0.94773929971E+03  0.15920081990E+03  0.12395211713E+04  0.15684283297E+04  0.10100000352E+00 0.  1.
       -3    1    3    3    0  502 -0.94773929971E+03 -0.15920081990E+03 -0.64815320848E+03  0.11591623153E+04  0.10100000352E+00 0. -1.
</event>
<event>
 5   0  0.2651061E-05  0.2800814E+04  0.7818609E-02  0.8303016E-01
        2   -1    0    0  501    0  0.00000000000E+00  0.00000000000E+00  0.20253910716E+04  0.20253910716E+04  0.25500000920E-02 0.  1.
       -2   -1    0    0    0  501  0.00000000000E+00  0.00000000000E+00 -0.96827709848E+03  0.96827709849E+03  0.25500000920E-02 0. -1.
    10030    2    1    2    0    0  0.00000000000E+00  0.00000000000E+00  0.10571139732E+04  0.29936681701E+04  0.28008140175E+04 0.  0.
        3    1    3    3  502    0  0.14277735992E+03 -0.83449083318E+02  0.20149173556E+04  0.20216926285E+04  0.10100000352E+00 0.  1.
       -3    1    3    3    0  502 -0.14277735992E+03  0.83449083318E+02 -0.95780338242E+03  0.97197554166E+03  0.10100000352E+00 0. -1.
</event>
<event>
 5   0  0.1075146E-05  0.2711954E+04  0.7818609E-02  0.8331137E-01
        1   -1    0    0  501    0  0.00000000000E+00  0.00000000000E+00  0.14954528786E+04  0.14954528786E+04  0.50400001928E-02 0.  1.
       -1   -1    0    0    0  501  0.00000000000E+00  0.00000000000E+00 -0.12295092569E+04  0.12295092570E+04  0.50400001928E-02 0. -1.
    10030    2    1    2    0    0  0.00000000000E+00  0.00000000000E+00  0.26594362163E+03  0.27249621356E+04  0.27119536556E+04 0.  0.
        2    1    3    3  502    0  0.27334895484E+03 -0.52718701946E+03  0.13578463578E+04  0.14820231226E+04  0.25500000920E-02 0.  1.
       -2    1    3    3    0  502 -0.27334895484E+03  0.52718701946E+03 -0.10919027362E+04  0.12429390129E+04  0.25500000920E-02 0. -1.
</event>
<event>
 5   0  0.1078103E-05  0.1755805E+04  0.7818609E-02  0.8730161E-01
        1   -1    0    0  501    0  0.00000000000E+00  0.00000000000E+00  0.10902113969E+04  0.10902113969E+04  0.50400001928E-02 0. -1.
       -1   -1    0    0    0  501  0.00000000000E+00  0.00000000000E+00 -0.70693904339E+03  0.70693904341E+03  0.50400001928E-02 0.  1.
    10030    2    1    2    0    0  0.00000000000E+00  0.00000000000E+00  0.38327235350E+03  0.17971504403E+04  0.17558052307E+04 0.  0.
        1    1    3    3  502    0  0.70680369086E+03 -0.12444980450E+03 -0.32589225454E+03  0.78820363666E+03  0.50400001928E-02 0.  1.
       -1    1    3    3    0  502 -0.70680369086E+03  0.12444980450E+03  0.70916460805E+03  0.10089468036E+04  0.50400001928E-02 0. -1.
</event>
<event>
 5   0  0.2624815E-05  0.3091642E+04  0.7818609E-02  0.8218035E-01
        2   -1    0    0  501    0  0.00000000000E+00  0.00000000000E+00  0.21179301550E+04  0.21179301550E+04  0.25500000920E-02 0.  1.
       -2   -1    0    0    0  501  0.00000000000E+00  0.00000000000E+00 -0.11282535745E+04  0.11282535745E+04  0.25500000920E-02 0. -1.
    10030    2    1    2    0    0  0.00000000000E+00  0.00000000000E+00  0.98967658046E+03  0.32461837295E+04  0.30916418084E+04 0.  0.
        4    1    3    3  502    0  0.14683854963E+04  0.29141091076E+03  0.89943681578E+03  0.17464433810E+04  0.12699999809E+01 0.  1.
       -4    1    3    3    0  502 -0.14683854963E+04 -0.29141091076E+03  0.90239764684E+02  0.14997403484E+04  0.12699999809E+01 0. -1.
</event>
<event>
 5   0  0.2624815E-05  0.2747226E+04  0.7818609E-02  0.8319842E-01
        2   -1    0    0  501    0  0.00000000000E+00  0.00000000000E+00  0.14351485586E+04  0.14351485586E+04  0.25500000920E-02 0. -1.
       -2   -1    0    0    0  501  0.00000000000E+00  0.00000000000E+00 -0.13147161269E+04  0.13147161269E+04  0.25500000920E-02 0.  1.
    10030    2    1    2    0    0  0.00000000000E+00  0.00000000000E+00  0.12043243165E+03  0.27498646855E+04  0.27472262044E+04 0.  0.
        4    1    3    3  502    0  0.10896555399E+03  0.60885096073E+03  0.12878680945E+04  0.14286982978E+04  0.12699999809E+01 0. -1.
       -4    1    3    3    0  502 -0.10896555399E+03 -0.60885096073E+03 -0.11674356629E+04  0.13211663878E+04  0.12699999809E+01 0.  1.
</event>
<event>
 5   0  0.2624815E-05  0.2797659E+04  0.7818609E-02  0.8303996E-01
        2   -1    0    0  501    0  0.00000000000E+00  0.00000000000E+00  0.18421889949E+04  0.18421889949E+04  0.25500000920E-02 0. -1.
       -2   -1    0    0    0  501  0.00000000000E+00  0.00000000000E+00 -0.10621730849E+04  0.10621730849E+04  0.25500000920E-02 0.  1.
    10030    2    1    2    0    0  0.00000000000E+00  0.00000000000E+00  0.78001591003E+03  0.29043620798E+04  0.27976587123E+04 0.  0.
        4    1    3    3  502    0 -0.12853974174E+04 -0.21178093687E+03 -0.13895915275E+03  0.13101179126E+04  0.12699999809E+01 0.  1.
       -4    1    3    3    0  502  0.12853974174E+04  0.21178093687E+03  0.91897506278E+03  0.15942441672E+04  0.12699999809E+01 0. -1.
</event>
<event>
 5   0  0.1078103E-05  0.2705237E+04  0.7818609E-02  0.8333308E-01
        1   -1    0    0  501    0  0.00000000000E+00  0.00000000000E+00  0.13453608883E+04  0.13453608883E+04  0.50400001928E-02 0. -1.
       -1   -1    0    0    0  501  0.00000000000E+00  0.00000000000E+00 -0.13599152094E+04  0.13599152094E+04  0.50400001928E-02 0.  1.
    10030    2    1    2    0    0  0.00000000000E+00  0.00000000000E+00 -0.14554321101E+02  0.27052760976E+04  0.27052369464E+04 0.  0.
        1    1    3    3  502    0  0.73531008567E+03  0.84819640386E+03 -0.76191293720E+03  0.13566979714E+04  0.50400001928E-02 0.  1.
       -1    1    3    3    0  502 -0.73531008567E+03 -0.84819640386E+03  0.74735861610E+03  0.13485781263E+04  0.50400001928E-02 0. -1.
</event>
<event>
 5   0  0.2651061E-05  0.2821305E+04  0.7818609E-02  0.8296684E-01
        2   -1    0    0  501    0  0.00000000000E+00  0.00000000000E+00  0.14755631924E+04  0.14755631924E+04  0.25500000920E-02 0. -1.
       -2   -1    0    0    0  501  0.00000000000E+00  0.00000000000E+00 -0.13485976809E+04  0.13485976809E+04  0.25500000920E-02 0.  1.
    10030    2    1    2    0    0  0.00000000000E+00  0.00000000000E+00  0.12696551148E+03  0.28241608733E+04  0.28213054420E+04 0.  0.
        3    1    3    3  502    0  0.34639772504E+03 -0.13611343770E+04  0.19500413794E+03  0.14179932300E+04  0.10100000352E+00 0. -1.
       -3    1    3    3    0  502 -0.34639772504E+03  0.13611343770E+04 -0.68038626462E+02  0.14061676433E+04  0.10100000352E+00 0.  1.
</event>
<event>
 5   0  0.2697964E-05  0.2782153E+04  0.7818609E-02  0.8308831E-01
       -2   -1    0    0    0  501  0.00000000000E+00  0.00000000000E+00  0.79080118681E+03  0.79080118681E+03  0.25500000920E-02 0.  1.
        2   -1    0    0  501    0  0.00000000000E+00  0.00000000000E+00 -0.24470044625E+04  0.24470044625E+04  0.25500000920E-02 0. -1.
    10030    2    1    2    0    0  0.00000000000E+00  0.00000000000E+00 -0.16562032757E+04  0.32378056493E+04  0.27821531468E+04 0.  0.
        1    1    3    3  502    0  0.86755972532E+03  0.52901544572E+03 -0.19337367706E+04  0.21844576253E+04  0.50400001928E-02 0.  1.
       -1    1    3    3    0  502 -0.86755972532E+03 -0.52901544572E+03  0.27753349493E+03  0.10533480240E+04  0.50400001928E-02 0. -1.
</event>
<event>
 5   0  0.8958000E-06  0.1687831E+04  0.7818609E-02  0.8768335E-01
        4   -1    0    0  501    0  0.00000000000E+00  0.00000000000E+00  0.77220133320E+03  0.77220237755E+03  0.12699999809E+01 0. -1.
       -4   -1    0    0    0  501  0.00000000000E+00  0.00000000000E+00 -0.92228784086E+03  0.92228871526E+03  0.12699999809E+01 0.  1.
    10030    2    1    2    0    0  0.00000000000E+00  0.00000000000E+00 -0.15008650766E+03  0.16944910928E+04  0.16878311835E+04 0.  0.
        5    1    3    3  502    0 -0.91400603876E+02 -0.59056534468E+03  0.52316858717E+03  0.79426000612E+03  0.46999998093E+01 0. -1.
       -5    1    3    3    0  502  0.91400603876E+02  0.59056534468E+03 -0.67325509483E+03  0.90023108669E+03  0.46999998093E+01 0.  1.
</event>
<event>
 5   0  0.1078103E-05  0.2237426E+04  0.7818609E-02  0.8503010E-01
        1   -1    0    0  501    0  0.00000000000E+00  0.00000000000E+00  0.25158918804E+04  0.25158918804E+04  0.50400001928E-02 0. -1.
       -1   -1    0    0    0  501  0.00000000000E+00  0.00000000000E+00 -0.49744551056E+03  0.49744551059E+03  0.50400001928E-02 0.  1.
    10030    2    1    2    0    0  0.00000000000E+00  0.00000000000E+00  0.20184463698E+04  0.30133373910E+04  0.22374263081E+04 0.  0.
        1    1    3    3  502    0 -0.39481111205E+03 -0.97353060368E+03  0.15271350976E+04  0.18535855138E+04  0.50400001928E-02 0. -1.
       -1    1    3    3    0  502  0.39481111205E+03  0.97353060368E+03  0.49131127226E+03  0.11597518772E+04  0.50400001928E-02 0.  1.
</event>
<event>
 5   0  0.1075146E-05  0.2755523E+04  0.7818609E-02  0.8317211E-01
        1   -1    0    0  501    0  0.00000000000E+00  0.00000000000E+00  0.17475460879E+04  0.17475460879E+04  0.50400001928E-02 0.  1.
       -1   -1    0    0    0  501  0.00000000000E+00  0.00000000000E+00 -0.10862241257E+04  0.10862241257E+04  0.50400001928E-02 0. -1.
    10030    2    1    2    0    0  0.00000000000E+00  0.00000000000E+00  0.66132196215E+03  0.28337702136E+04  0.27555229787E+04 0.  0.
        2    1    3    3  502    0 -0.11639191261E+04 -0.72734509431E+03  0.20687645458E+03  0.13879972931E+04  0.25500000920E-02 0. -1.
       -2    1    3    3    0  502  0.11639191261E+04  0.72734509431E+03  0.45444550756E+03  0.14457729205E+04  0.25500000920E-02 0.  1.
</event>
<event>
 5   0  0.2651061E-05  0.2785315E+04  0.7818609E-02  0.8307842E-01
        2   -1    0    0  501    0  0.00000000000E+00  0.00000000000E+00  0.11469083434E+04  0.11469083434E+04  0.25500000920E-02 0. -1.
       -2   -1    0    0    0  501  0.00000000000E+00  0.00000000000E+00 -0.16910641233E+04  0.16910641233E+04  0.25500000920E-02 0.  1.
    10030    2    1    2    0    0  0.00000000000E+00  0.00000000000E+00 -0.54415577987E+03  0.28379724668E+04  0.27853154596E+04 0.  0.
        3    1    3    3  502    0 -0.11994553932E+04 -0.21979960540E+03  0.41331325611E+03  0.12875686252E+04  0.10100000352E+00 0. -1.
       -3    1    3    3    0  502  0.11994553932E+04  0.21979960540E+03 -0.95746903599E+03  0.15504038415E+04  0.10100000352E+00 0.  1.
</event>
<event>
 5   0  0.1075146E-05  0.2792762E+04  0.7818609E-02  0.8305519E-01
        1   -1    0    0  501    0  0.00000000000E+00  0.00000000000E+00  0.11714827338E+04  0.11714827338E+04  0.50400001928E-02 0. -1.
       -1   -1    0    0    0  501  0.00000000000E+00  0.00000000000E+00 -0.16644542273E+04  0.16644542273E+04  0.50400001928E-02 0.  1.
    10030    2    1    2    0    0  0.00000000000E+00  0.00000000000E+00 -0.49297149350E+03  0.28359369611E+04  0.27927616357E+04 0.  0.
        2    1    3    3  502    0 -0.61332496293E+03  0.11984808436E+04  0.12985895162E+03  0.13525484058E+04  0.25500000920E-02 0. -1.
       -2    1    3    3    0  502  0.61332496293E+03 -0.11984808436E+04 -0.62283044513E+03  0.14833885553E+04  0.25500000920E-02 0.  1.
</event>
<event>
 5   0  0.2588048E-05  0.2833807E+04  0.7818609E-02  0.8292849E-01
       -2   -1    0    0    0  501  0.00000000000E+00  0.00000000000E+00  0.11720797975E+04  0.11720797975E+04  0.25500000920E-02 0. -1.
        2   -1    0    0  501    0  0.00000000000E+00  0.00000000000E+00 -0.17128664525E+04  0.17128664525E+04  0.25500000920E-02 0.  1.
    10030    2    1    2    0    0  0.00000000000E+00  0.00000000000E+00 -0.54078665499E+03  0.28849462500E+04  0.28338074493E+04 0.  0.
        2    1    3    3  502    0  0.92701899373E+03 -0.14377609806E+03  0.81064513112E+03  0.12398311618E+04  0.25500000920E-02 0. -1.
       -2    1    3    3    0  502 -0.92701899373E+03  0.14377609806E+03 -0.13514317861E+04  0.16451150883E+04  0.25500000920E-02 0.  1.
</event>
<event>
 5   0  0.1105862E-05  0.2816830E+04  0.7818609E-02  0.8298062E-01
        1   -1    0    0  501    0  0.00000000000E+00  0.00000000000E+00  0.17826368194E+04  0.17826368195E+04  0.50400001928E-02 0.  1.
       -1   -1    0    0    0  501  0.00000000000E+00  0.00000000000E+00 -0.11127517179E+04  0.11127517179E+04  0.50400001928E-02 0. -1.
    10030    2    1    2    0    0  0.00000000000E+00  0.00000000000E+00  0.66988510158E+03  0.28953885373E+04  0.28168295534E+04 0.  0.
        3    1    3    3  502    0 -0.13998469191E+04 -0.94376758293E+02  0.46147651382E+03  0.14769695164E+04  0.10100000352E+00 0. -1.
       -3    1    3    3    0  502  0.13998469191E+04  0.94376758293E+02  0.20840858776E+03  0.14184190209E+04  0.10100000352E+00 0.  1.
</event>
<event>
 5   0  0.1078103E-05  0.2916076E+04  0.7818609E-02  0.8268110E-01
       -1   -1    0    0    0  501  0.00000000000E+00  0.00000000000E+00  0.81204958858E+03  0.81204958860E+03  0.50400001928E-02 0. -1.
        1   -1    0    0  501    0  0.00000000000E+00  0.00000000000E+00 -0.26179126539E+04  0.26179126539E+04  0.50400001928E-02 0.  1.
    10030    2    1    2    0    0  0.00000000000E+00  0.00000000000E+00 -0.18058630653E+04  0.34299622425E+04  0.29160760577E+04 0.  0.
        1    1    3    3  502    0 -0.13330948314E+03  0.14493282943E+04 -0.80072188678E+03  0.16611681019E+04  0.50400001928E-02 0. -1.
       -1    1    3    3    0  502  0.13330948314E+03 -0.14493282943E+04 -0.10051411785E+04  0.17687941406E+04  0.50400001928E-02 0.  1.
</event>
<event>
 5   0  0.2624815E-05  0.2852713E+04  0.7818609E-02  0.8287087E-01
        2   -1    0    0  501    0  0.00000000000E+00  0.00000000000E+00  0.12065228256E+04  0.12065228256E+04  0.25500000920E-02 0. -1.
       -2   -1    0    0    0  501  0.00000000000E+00  0.00000000000E+00 -0.16862445087E+04  0.16862445087E+04  0.25500000920E-02 0.  1.
    10030    2    1    2    0    0  0.00000000000E+00  0.00000000000E+00 -0.47972168309E+03  0.28927673343E+04  0.28527127365E+04 0.  0.
        4    1    3    3  502    0 -0.13566055306E+04 -0.28450397691E+03 -0.58099148501E+03  0.15029550217E+04  0.12699999809E+01 0.  1.
       -4    1    3    3    0  502  0.13566055306E+04  0.28450397691E+03  0.10126980192E+03  0.13898123126E+04  0.12699999809E+01 0. -1.
</event>
<event>
 5   0  0.2518686E-05  0.2668050E+04  0.7818609E-02  0.8345447E-01
        2   -1    0    0  501    0  0.00000000000E+00  0.00000000000E+00  0.99716822055E+03  0.99716822055E+03  0.25500000920E-02 0. -1.
       -2   -1    0    0    0  501  0.00000000000E+00  0.00000000000E+00 -0.17846769824E+04  0.17846769824E+04  0.25500000920E-02 0.  1.
    10030    2    1    2    0    0  0.00000000000E+00  0.00000000000E+00 -0.78750876181E+03  0.27818452029E+04  0.26680503524E+04 0.  0.
        5    1    3    3  502    0  0.11645898479E+04  0.59964169318E+03 -0.13047437238E+03  0.13163910232E+04  0.46999998093E+01 0. -1.
       -5    1    3    3    0  502 -0.11645898479E+04 -0.59964169318E+03 -0.65703438943E+03  0.14654541797E+04  0.46999998093E+01 0.  1.
</event>
<event>
 5   0  0.1075146E-05  0.2765343E+04  0.7818609E-02  0.8314109E-01
       -1   -1    0    0    0  501  0.00000000000E+00  0.00000000000E+00  0.10270853714E+04  0.10270853714E+04  0.50400001928E-02 0.  1.
        1   -1    0    0  501    0  0.00000000000E+00  0.00000000000E+00 -0.18613646362E+04  0.18613646362E+04  0.50400001928E-02 0. -1.
    10030    2    1    2    0    0  0.00000000000E+00  0.00000000000E+00 -0.83427926477E+03  0.28884500077E+04  0.27653429363E+04 0.  0.
        2    1    3    3  502    0 -0.70676107965E+03  0.11022928652E+04 -0.88100387953E+03  0.15782042391E+04  0.25500000920E-02 0. -1.
       -2    1    3    3    0  502  0.70676107965E+03 -0.11022928652E+04  0.46724614758E+02  0.13102457686E+04  0.25500000920E-02 0.  1.
</event>
<event>
 5   0  0.1075146E-05  0.2447839E+04  0.7818609E-02  0.8421808E-01
        1   -1    0    0  501    0  0.00000000000E+00  0.00000000000E+00  0.96663528258E+03  0.96663528259E+03  0.50400001928E-02 0. -1.
       -1   -1    0    0    0  501  0.00000000000E+00  0.00000000000E+00 -0.15496832306E+04  0.15496832306E+04  0.50400001928E-02 0.  1.
    10030    2    1    2    0    0  0.00000000000E+00  0.00000000000E+00 -0.58304794798E+03  0.25163185132E+04  0.24478386283E+04 0.  0.
        2    1    3    3  502    0 -0.65605311436E+02 -0.31868548988E+03  0.92136270911E+03  0.97712524279E+03  0.25500000920E-02 0. -1.
       -2    1    3    3    0  502  0.65605311436E+02  0.31868548988E+03 -0.15044106571E+04  0.15391932704E+04  0.25500000920E-02 0.  1.
</event>
<event>
 5   0  0.1078103E-05  0.1393643E+04  0.7818609E-02  0.8958433E-01
        1   -1    0    0  501    0  0.00000000000E+00  0.00000000000E+00  0.75202980863E+03  0.75202980864E+03  0.50400001928E-02 0. -1.
       -1   -1    0    0    0  501  0.00000000000E+00  0.00000000000E+00 -0.64566596927E+03  0.64566596929E+03  0.50400001928E-02 0.  1.
    10030    2    1    2    0    0  0.00000000000E+00  0.00000000000E+00  0.10636383935E+03  0.13976957779E+04  0.13936427883E+04 0.  0.
        1    1    3    3  502    0 -0.56386148291E+03 -0.20402718335E+03  0.40916939677E+03  0.72593832984E+03  0.50400001928E-02 0. -1.
       -1    1    3    3    0  502  0.56386148291E+03  0.20402718335E+03 -0.30280555741E+03  0.67175744810E+03  0.50400001928E-02 0.  1.
</event>
<event>
 5   0  0.1017456E-05  0.2865654E+04  0.7818609E-02  0.8283170E-01
       -1   -1    0    0    0  501  0.00000000000E+00  0.00000000000E+00  0.13414116255E+04  0.13414116255E+04  0.50400001928E-02 0.  1.
        1   -1    0    0  501    0  0.00000000000E+00  0.00000000000E+00 -0.15304724020E+04  0.15304724020E+04  0.50400001928E-02 0. -1.
    10030    2    1    2    0    0  0.00000000000E+00  0.00000000000E+00 -0.18906077647E+03  0.28718840276E+04  0.28656541820E+04 0.  0.
        5    1    3    3  502    0 -0.35544162645E+02  0.39081440084E+03 -0.14755581541E+04  0.15268573081E+04  0.46999998093E+01 0. -1.
       -5    1    3    3    0  502  0.35544162645E+02 -0.39081440084E+03  0.12864973776E+04  0.13450267194E+04  0.46999998093E+01 0.  1.
</event>
<event>
 5   0  0.1105862E-05  0.1734854E+04  0.7818609E-02  0.8741732E-01
        1   -1    0    0  501    0  0.00000000000E+00  0.00000000000E+00  0.14963023673E+04  0.14963023673E+04  0.50400001928E-02 0.  1.
       -1   -1    0    0    0  501  0.00000000000E+00  0.00000000000E+00 -0.50285939860E+03  0.50285939863E+03  0.50400001928E-02 0. -1.
    10030    2    1    2    0    0  0.00000000000E+00  0.00000000000E+00  0.99344296868E+03  0.19991617659E+04  0.17348541248E+04 0.  0.
        3    1    3    3  502    0  0.59069525686E+03  0.30726281517E+03  0.11373899303E+04  0.13179480975E+04  0.10100000352E+00 0.  1.
       -3    1    3    3    0  502 -0.59069525686E+03 -0.30726281517E+03 -0.14394696160E+03  0.68121366840E+03  0.10100000352E+00 0. -1.
</event>
<event>
 5   0  0.2697964E-05  0.2209444E+04  0.7818609E-02  0.8514507E-01
       -2   -1    0    0    0  501  0.00000000000E+00  0.00000000000E+00  0.79838748926E+03  0.79838748926E+03  0.25500000920E-02 0.  1.
        2   -1    0    0  501    0  0.00000000000E+00  0.00000000000E+00 -0.15285950288E+04  0.15285950288E+04  0.25500000920E-02 0. -1.
    10030    2    1    2    0    0  0.00000000000E+00  0.00000000000E+00 -0.73020753955E+03  0.23269825181E+04  0.22094444072E+04 0.  0.
        1    1    3    3  502    0 -0.47643297027E+03  0.14922293107E+03  0.67279352939E+03  0.83779889683E+03  0.50400001928E-02 0.  1.
       -1    1    3    3    0  502  0.47643297027E+03 -0.14922293107E+03 -0.14030010689E+04  0.14891836212E+04  0.50400001928E-02 0. -1.
</event>
<event>
 5   0  0.1017456E-05  0.1491756E+04  0.7818609E-02  0.8889954E-01
       -1   -1    0    0    0  501  0.00000000000E+00  0.00000000000E+00  0.47382173079E+03  0.47382173082E+03  0.50400001928E-02 0.  1.
        1   -1    0    0  501    0  0.00000000000E+00  0.00000000000E+00 -0.11741420003E+04  0.11741420003E+04  0.50400001928E-02 0. -1.
    10030    2    1    2    0    0  0.00000000000E+00  0.00000000000E+00 -0.70032026950E+03  0.16479637311E+04  0.14917560053E+04 0.  0.
        5    1    3    3  502    0 -0.19392952562E+03 -0.26552561480E+03 -0.10897406928E+04  0.11382747386E+04  0.46999998093E+01 0. -1.
       -5    1    3    3    0  502  0.19392952562E+03  0.26552561480E+03  0.38942042329E+03  0.50968899252E+03  0.46999998093E+01 0.  1.
</event>
<event>
 5   0  0.1078103E-05  0.2714290E+04  0.7818609E-02  0.8330383E-01
       -1   -1    0    0    0  501  0.00000000000E+00  0.00000000000E+00  0.83142725285E+03  0.83142725287E+03  0.50400001928E-02 0. -1.
        1   -1    0    0  501    0  0.00000000000E+00  0.00000000000E+00 -0.22152782780E+04  0.22152782780E+04  0.50400001928E-02 0.  1.
    10030    2    1    2    0    0  0.00000000000E+00  0.00000000000E+00 -0.13838510252E+04  0.30467055309E+04  0.27142901341E+04 0.  0.
        1    1    3    3  502    0 -0.10583355239E+04 -0.69864788603E+03 -0.14934249376E+03  0.12769049026E+04  0.50400001928E-02 0. -1.
       -1    1    3    3    0  502  0.10583355239E+04  0.69864788603E+03 -0.12345085314E+04  0.17698006283E+04  0.50400001928E-02 0.  1.
</event>
<event>
 5   0  0.1078103E-05  0.2831793E+04  0.7818609E-02  0.8293465E-01
        1   -1    0    0  501    0  0.00000000000E+00  0.00000000000E+00  0.15475318577E+04  0.15475318577E+04  0.50400001928E-02 0. -1.
       -1   -1    0    0    0  501  0.00000000000E+00  0.00000000000E+00 -0.12954585436E+04  0.12954585436E+04  0.50400001928E-02 0.  1.
    10030    2    1    2    0    0  0.00000000000E+00  0.00000000000E+00  0.25207331405E+03  0.28429904013E+04  0.28317933304E+04 0.  0.
        1    1    3    3  502    0  0.14381120951E+03  0.53858578860E+03 -0.11806499677E+04  0.13056380287E+04  0.50400001928E-02 0.  1.
       -1    1    3    3    0  502 -0.14381120951E+03 -0.53858578860E+03  0.14327232817E+04  0.15373523727E+04  0.50400001928E-02 0. -1.
</event>
<event>
 5   0  0.1067434E-05  0.2789967E+04  0.7818609E-02  0.8306390E-01
       -1   -1    0    0    0  501  0.00000000000E+00  0.00000000000E+00  0.67679821501E+03  0.67679821503E+03  0.50400001928E-02 0. -1.
        1   -1    0    0  501    0  0.00000000000E+00  0.00000000000E+00 -0.28752727909E+04  0.28752727909E+04  0.50400001928E-02 0.  1.
    10030    2    1    2    0    0  0.00000000000E+00  0.00000000000E+00 -0.21984745758E+04  0.35520710059E+04  0.27899673780E+04 0.  0.
        4    1    3    3  502    0  0.10911196954E+04  0.60359973227E+03 -0.30302639170E+03  0.12832386502E+04  0.12699999809E+01 0. -1.
       -4    1    3    3    0  502 -0.10911196954E+04 -0.60359973227E+03 -0.18954481841E+04  0.22688323557E+04  0.12699999809E+01 0.  1.
</event>
<event>
 5   0  0.1105862E-05  0.2875451E+04  0.7818609E-02  0.8280219E-01
        1   -1    0    0  501    0  0.00000000000E+00  0.00000000000E+00  0.14692524330E+04  0.14692524330E+04  0.50400001928E-02 0. -1.
       -1   -1    0    0    0  501  0.00000000000E+00  0.00000000000E+00 -0.14068752541E+04  0.14068752541E+04  0.50400001928E-02 0.  1.
    10030    2    1    2    0    0  0.00000000000E+00  0.00000000000E+00  0.62377178914E+02  0.28761276871E+04  0.28754511924E+04 0.  0.
        3    1    3    3  502    0 -0.11815512202E+04  0.75980361370E+03  0.33734892607E+03  0.14447038193E+04  0.10100000352E+00 0.  1.
       -3    1    3    3    0  502  0.11815512202E+04 -0.75980361370E+03 -0.27497174716E+03  0.14314238678E+04  0.10100000352E+00 0. -1.
</event>
<event>
 5   0  0.2697964E-05  0.2869415E+04  0.7818609E-02  0.8282036E-01
       -2   -1    0    0    0  501  0.00000000000E+00  0.00000000000E+00  0.15924591759E+04  0.15924591759E+04  0.25500000920E-02 0.  1.
        2   -1    0    0  501    0  0.00000000000E+00  0.00000000000E+00 -0.12925829675E+04  0.12925829675E+04  0.25500000920E-02 0. -1.
    10030    2    1    2    0    0  0.00000000000E+00  0.00000000000E+00  0.29987620839E+03  0.28850421435E+04  0.28694149977E+04 0.  0.
        1    1    3    3  502    0 -0.11084221973E+04 -0.80781362633E+03  0.57320940332E+03  0.14865166136E+04  0.50400001928E-02 0.  1.
       -1    1    3    3    0  502  0.11084221973E+04  0.80781362633E+03 -0.27333319493E+03  0.13985255299E+04  0.50400001928E-02 0. -1.
</event>
<event>
 5   0  0.2651061E-05  0.2842924E+04  0.7818609E-02  0.8290065E-01
       -2   -1    0    0    0  501  0.00000000000E+00  0.00000000000E+00  0.11029459116E+04  0.11029459116E+04  0.25500000920E-02 0.  1.
        2   -1    0    0  501    0  0.00000000000E+00  0.00000000000E+00 -0.18319609651E+04  0.18319609651E+04  0.25500000920E-02 0. -1.
    10030    2    1    2    0    0  0.00000000000E+00  0.00000000000E+00 -0.72901505343E+03  0.29349068767E+04  0.28429237462E+04 0.  0.
        3    1    3    3  502    0 -0.10556552216E+03 -0.41162029504E+02  0.10982764544E+04  0.11041057796E+04  0.10100000352E+00 0.  1.
       -3    1    3    3    0  502  0.10556552216E+03  0.41162029504E+02 -0.18272915078E+04  0.18308010970E+04  0.10100000352E+00 0. -1.
</event>
<event>
 5   0  0.1105862E-05  0.1937399E+04  0.7818609E-02  0.8636461E-01
       -1   -1    0    0    0  501  0.00000000000E+00  0.00000000000E+00  0.75366481253E+03  0.75366481255E+03  0.50400001928E-02 0.  1.
        1   -1    0    0  501    0  0.00000000000E+00  0.00000000000E+00 -0.12450870804E+04  0.12450870804E+04  0.50400001928E-02 0. -1.
    10030    2    1    2    0    0  0.00000000000E+00  0.00000000000E+00 -0.49142226789E+03  0.19987518930E+04  0.19373985868E+04 0.  0.
        3    1    3    3  502    0 -0.60049023962E+03 -0.58696934840E+03 -0.74397229470E+03  0.11218807108E+04  0.10100000352E+00 0. -1.
       -3    1    3    3    0  502  0.60049023962E+03  0.58696934840E+03  0.25255002682E+03  0.87687118215E+03  0.10100000352E+00 0.  1.
</event>
<event>
 5   0  0.2518686E-05  0.2807142E+04  0.7818609E-02  0.8301054E-01
       -2   -1    0    0    0  501  0.00000000000E+00  0.00000000000E+00  0.13458579221E+04  0.13458579221E+04  0.25500000920E-02 0. -1.
        2   -1    0    0  501    0  0.00000000000E+00  0.00000000000E+00 -0.14637590748E+04  0.14637590748E+04  0.25500000920E-02 0.  1.
    10030    2    1    2    0    0  0.00000000000E+00  0.00000000000E+00 -0.11790115266E+03  0.28096169969E+04  0.28071421388E+04 0.  0.
        5    1    3    3  502    0  0.16746713503E+03  0.79276392653E+02 -0.14514570364E+04  0.14632428391E+04  0.46999998093E+01 0.  1.
       -5    1    3    3    0  502 -0.16746713503E+03 -0.79276392653E+02  0.13335558837E+04  0.13463741578E+04  0.46999998093E+01 0. -1.
</event>
<event>
 5   0  0.1067434E-05  0.2753787E+04  0.7818609E-02  0.8317761E-01
        1   -1    0    0  501    0  0.00000000000E+00  0.00000000000E+00  0.23997489909E+04  0.23997489910E+04  0.50400001928E-02 0. -1.
       -1   -1    0    0    0  501  0.00000000000E+00  0.00000000000E+00 -0.79001395564E+03  0.79001395566E+03  0.50400001928E-02 0.  1.
    10030    2    1    2    0    0  0.00000000000E+00  0.00000000000E+00  0.16097350353E+04  0.31897629466E+04  0.27537866242E+04 0.  0.
        4    1    3    3  502    0 -0.87994051937E+03 -0.65302114618E+03  0.17705898639E+04  0.20822396630E+04  0.12699999809E+01 0. -1.
       -4    1    3    3    0  502  0.87994051937E+03  0.65302114618E+03 -0.16085482861E+03  0.11075232836E+04  0.12699999809E+01 0.  1.
</event>
<event>
 5   0  0.1075146E-05  0.2732999E+04  0.7818609E-02  0.8324377E-01
       -1   -1    0    0    0  501  0.00000000000E+00  0.00000000000E+00  0.11259964075E+04  0.11259964075E+04  0.50400001928E-02 0. -1.
        1   -1    0    0  501    0  0.00000000000E+00  0.00000000000E+00 -0.16583721916E+04  0.16583721916E+04  0.50400001928E-02 0.  1.
    10030    2    1    2    0    0  0.00000000000E+00  0.00000000000E+00 -0.53237578413E+03  0.27843685991E+04  0.27329991804E+04 0.  0.
        2    1    3    3  502    0 -0.33409091214E+03  0.87344855057E+03  0.74892972560E+03  0.11980921676E+04  0.25500000920E-02 0. -1.
       -2    1    3    3    0  502  0.33409091214E+03 -0.87344855057E+03 -0.12813055097E+04  0.15862764316E+04  0.25500000920E-02 0.  1.
</event>
<event>
 5   0  0.1078103E-05  0.2776920E+04  0.7818609E-02  0.8310470E-01
        1   -1    0    0  501    0  0.00000000000E+00  0.00000000000E+00  0.14289386411E+04  0.14289386412E+04  0.50400001928E-02 0.  1.
       -1   -1    0    0    0  501  0.00000000000E+00  0.00000000000E+00 -0.13491285135E+04  0.13491285135E+04  0.50400001928E-02 0. -1.
    10030    2    1    2    0    0  0.00000000000E+00  0.00000000000E+00  0.79810127668E+02  0.27780671546E+04  0.27769204993E+04 0.  0.
        1    1    3    3  502    0 -0.92828506286E+02  0.87719816102E+02  0.14230496359E+04  0.14287694580E+04  0.50400001928E-02 0.  1.
       -1    1    3    3    0  502  0.92828506286E+02 -0.87719816102E+02 -0.13432395082E+04  0.13492976967E+04  0.50400001928E-02 0. -1.
</event>
<event>
 5   0  0.1017456E-05  0.2807074E+04  0.7818609E-02  0.8301076E-01
       -1   -1    0    0    0  501  0.00000000000E+00  0.00000000000E+00  0.12833487915E+04  0.12833487915E+04  0.50400001928E-02 0. -1.
        1   -1    0    0  501    0  0.00000000000E+00  0.00000000000E+00 -0.15349810660E+04  0.15349810660E+04  0.50400001928E-02 0.  1.
    10030    2    1    2    0    0  0.00000000000E+00  0.00000000000E+00 -0.25163227452E+03  0.28183298576E+04  0.28070739899E+04 0.  0.
        5    1    3    3  502    0 -0.77843955521E+03 -0.54183522576E+02 -0.12971088205E+04  0.15137428373E+04  0.46999998093E+01 0.  1.
       -5    1    3    3    0  502  0.77843955521E+03  0.54183522576E+02  0.10454765460E+04  0.13045870203E+04  0.46999998093E+01 0. -1.
</event>
<event>
 5   0  0.2518686E-05  0.2828507E+04  0.7818609E-02  0.8294472E-01
       -2   -1    0    0    0  501  0.00000000000E+00  0.00000000000E+00  0.72434436971E+03  0.72434436972E+03  0.25500000920E-02 0. -1.
        2   -1    0    0  501    0  0.00000000000E+00  0.00000000000E+00 -0.27612742682E+04  0.27612742682E+04  0.25500000920E-02 0.  1.
    10030    2    1    2    0    0  0.00000000000E+00  0.00000000000E+00 -0.20369298985E+04  0.34856186379E+04  0.28285073586E+04 0.  0.
        5    1    3    3  502    0  0.86481110004E+03 -0.10958697010E+04 -0.73945257814E+03  0.15797597430E+04  0.46999998093E+01 0. -1.
       -5    1    3    3    0  502 -0.86481110004E+03  0.10958697010E+04 -0.12974773203E+04  0.19058588949E+04  0.46999998093E+01 0.  1.
</event>
<event>
 5   0  0.2624815E-05  0.2807797E+04  0.7818609E-02  0.8300852E-01
       -2   -1    0    0    0  501  0.00000000000E+00  0.00000000000E+00  0.15847001294E+04  0.15847001294E+04  0.25500000920E-02 0.  1.
        2   -1    0    0  501    0  0.00000000000E+00  0.00000000000E+00 -0.12437250814E+04  0.12437250814E+04  0.25500000920E-02 0. -1.
    10030    2    1    2    0    0  0.00000000000E+00  0.00000000000E+00  0.34097504801E+03  0.28284252108E+04  0.28077972130E+04 0.  0.
        4    1    3    3  502    0  0.93357828039E+03  0.10364712554E+04  0.10929992521E+02  0.13949774717E+04  0.12699999809E+01 0.  1.
       -4    1    3    3    0  502 -0.93357828039E+03 -0.10364712554E+04  0.33004505549E+03  0.14334477390E+04  0.12699999809E+01 0. -1.
</event>
<event>
 5   0  0.1017456E-05  0.1994768E+04  0.7818609E-02  0.8609071E-01
       -1   -1    0    0    0  501  0.00000000000E+00  0.00000000000E+00  0.70009569620E+03  0.70009569622E+03  0.50400001928E-02 0. -1.
        1   -1    0    0  501    0  0.00000000000E+00  0.00000000000E+00 -0.14209130179E+04  0.14209130179E+04  0.50400001928E-02 0.  1.
    10030    2    1    2    0    0  0.00000000000E+00  0.00000000000E+00 -0.72081732165E+03  0.21210087141E+04  0.19947682457E+04 0.  0.
        5    1    3    3  502    0 -0.80660877500E+00 -0.26468968835E+03 -0.13828737543E+04  0.14079855085E+04  0.46999998093E+01 0.  1.
       -5    1    3    3    0  502  0.80660877500E+00  0.26468968835E+03  0.66205643264E+03  0.71302320561E+03  0.46999998093E+01 0. -1.
</event>
<event>
 5   0  0.8958000E-06  0.2843754E+04  0.7818609E-02  0.8289812E-01
       -3   -1    0    0    0  501  0.00000000000E+00  0.00000000000E+00  0.20556681402E+04  0.20556681427E+04  0.10100000352E+00 0. -1.
        3   -1    0    0  501    0  0.00000000000E+00  0.00000000000E+00 -0.98349235581E+03  0.98349236100E+03  0.10100000352E+00 0.  1.
    10030    2    1    2    0    0  0.00000000000E+00  0.00000000000E+00  0.10721757844E+04  0.30391605037E+04  0.28437537964E+04 0.  0.
        4    1    3    3  502    0 -0.28429095065E+01  0.10366527605E+04 -0.50396132543E+03  0.11526645906E+04  0.12699999809E+01 0.  1.
       -4    1    3    3    0  502  0.28429095065E+01 -0.10366527605E+04  0.15761371098E+04  0.18864959131E+04  0.12699999809E+01 0. -1.
</event>
<event>
 5   0  0.2697964E-05  0.2700166E+04  0.7818609E-02  0.8334951E-01
       -2   -1    0    0    0  501  0.00000000000E+00  0.00000000000E+00  0.81647353964E+03  0.81647353964E+03  0.25500000920E-02 0.  1.
        2   -1    0    0  501    0  0.00000000000E+00  0.00000000000E+00 -0.22324357756E+04  0.22324357756E+04  0.25500000920E-02 0. -1.
    10030    2    1    2    0    0  0.00000000000E+00  0.00000000000E+00 -0.14159622360E+04  0.30489093153E+04  0.27001664687E+04 0.  0.
        1    1    3    3  502    0  0.55730059661E+03 -0.76050058722E+03  0.38314805628E+03  0.10177168227E+04  0.50400001928E-02 0.  1.
       -1    1    3    3    0  502 -0.55730059661E+03  0.76050058722E+03 -0.17991102923E+04  0.20311924926E+04  0.50400001928E-02 0. -1.
</event>
<event>
 5   0  0.2624815E-05  0.2815684E+04  0.7818609E-02  0.8298416E-01
       -2   -1    0    0    0  501  0.00000000000E+00  0.00000000000E+00  0.10811811610E+04  0.10811811610E+04  0.25500000920E-02 0.  1.
        2   -1    0    0  501    0  0.00000000000E+00  0.00000000000E+00 -0.18331980095E+04  0.18331980095E+04  0.25500000920E-02 0. -1.
    10030    2    1    2    0    0  0.00000000000E+00  0.00000000000E+00 -0.75201684846E+03  0.29143791705E+04  0.28156840393E+04 0.  0.
        4    1    3    3  502    0  0.10363138972E+04 -0.71489267058E+03 -0.10281728775E+04  0.16254719631E+04  0.12699999809E+01 0. -1.
       -4    1    3    3    0  502 -0.10363138972E+04  0.71489267058E+03  0.27615602908E+03  0.12889072074E+04  0.12699999809E+01 0.  1.
</event>
<event>
 5   0  0.2624815E-05  0.2798435E+04  0.7818609E-02  0.8303754E-01
        2   -1    0    0  501    0  0.00000000000E+00  0.00000000000E+00  0.25834158744E+04  0.25834158744E+04  0.25500000920E-02 0. -1.
       -2   -1    0    0    0  501  0.00000000000E+00  0.00000000000E+00 -0.75783777840E+03  0.75783777841E+03  0.25500000920E-02 0.  1.
    10030    2    1    2    0    0  0.00000000000E+00  0.00000000000E+00  0.18255780960E+04  0.33412536528E+04  0.27984353821E+04 0.  0.
        4    1    3    3  502    0  0.11416133258E+04 -0.77976709311E+03  0.11702301039E+04  0.18112862320E+04  0.12699999809E+01 0. -1.
       -4    1    3    3    0  502 -0.11416133258E+04  0.77976709311E+03  0.65534799207E+03  0.15299674208E+04  0.12699999809E+01 0.  1.
</event>
<event>
 5   0  0.1067434E-05  0.2832141E+04  0.7818609E-02  0.8293359E-01
       -1   -1    0    0    0  501  0.00000000000E+00  0.00000000000E+00  0.96048271374E+03  0.96048271376E+03  0.50400001928E-02 0. -1.
        1   -1    0    0  501    0  0.00000000000E+00  0.00000000000E+00 -0.20877575833E+04  0.20877575833E+04  0.50400001928E-02 0.  1.
    10030    2    1    2    0    0  0.00000000000E+00  0.00000000000E+00 -0.11272748695E+04  0.30482402970E+04  0.28321405821E+04 0.  0.
        4    1    3    3  502    0  0.78866767264E+03 -0.15636095110E+03  0.69098613574E+03  0.10601456964E+04  0.12699999809E+01 0. -1.
       -4    1    3    3    0  502 -0.78866767264E+03  0.15636095110E+03 -0.18182610053E+04  0.19880946006E+04  0.12699999809E+01 0.  1.
</event>
<event>
 5   0  0.1105862E-05  0.2778409E+04  0.7818609E-02  0.8310003E-01
       -1   -1    0    0    0  501  0.00000000000E+00  0.00000000000E+00  0.71196636879E+03  0.71196636881E+03  0.50400001928E-02 0. -1.
        1   -1    0    0  501    0  0.00000000000E+00  0.00000000000E+00 -0.27106457391E+04  0.27106457391E+04  0.50400001928E-02 0.  1.
    10030    2    1    2    0    0  0.00000000000E+00  0.00000000000E+00 -0.19986793703E+04  0.34226121079E+04  0.27784086121E+04 0.  0.
        3    1    3    3  502    0 -0.10646675001E+04  0.71926692234E+03 -0.34863411094E+03  0.13313179728E+04  0.10100000352E+00 0. -1.
       -3    1    3    3    0  502  0.10646675001E+04 -0.71926692234E+03 -0.16500452594E+04  0.20912941351E+04  0.10100000352E+00 0.  1.
</event>
<event>
 5   0  0.1105862E-05  0.2740297E+04  0.7818609E-02  0.8322047E-01
        1   -1    0    0  501    0  0.00000000000E+00  0.00000000000E+00  0.17916550782E+04  0.17916550782E+04  0.50400001928E-02 0.  1.
       -1   -1    0    0    0  501  0.00000000000E+00  0.00000000000E+00 -0.10478058639E+04  0.10478058639E+04  0.50400001928E-02 0. -1.
    10030    2    1    2    0    0  0.00000000000E+00  0.00000000000E+00  0.74384921429E+03  0.28394609421E+04  0.27402968431E+04 0.  0.
        3    1    3    3  502    0  0.98943137152E+03 -0.82480272902E+03  0.85576164569E+03  0.15464805156E+04  0.10100000352E+00 0.  1.
       -3    1    3    3    0  502 -0.98943137152E+03  0.82480272902E+03 -0.11191243141E+03  0.12929804265E+04  0.10100000352E+00 0. -1.
</event>
<event>
 5   0  0.2624815E-05  0.2850864E+04  0.7818609E-02  0.8287649E-01
        2   -1    0    0  501    0  0.00000000000E+00  0.00000000000E+00  0.17600584779E+04  0.17600584779E+04  0.25500000920E-02 0. -1.
       -2   -1    0    0    0  501  0.00000000000E+00  0.00000000000E+00 -0.11544256393E+04  0.11544256393E+04  0.25500000920E-02 0.  1.
    10030    2    1    2    0    0  0.00000000000E+00  0.00000000000E+00  0.60563283865E+03  0.29144841172E+04  0.28508641732E+04 0.  0.
        4    1    3    3  502    0 -0.11935387580E+04  0.72017159910E+03 -0.16091771173E+01  0.13939821022E+04  0.12699999809E+01 0.  1.
       -4    1    3    3    0  502  0.11935387580E+04 -0.72017159910E+03  0.60724201577E+03  0.15205020150E+04  0.12699999809E+01 0. -1.
</event>
<event>
 5   0  0.1067434E-05  0.1427463E+04  0.7818609E-02  0.8934176E-01
       -1   -1    0    0    0  501  0.00000000000E+00  0.00000000000E+00  0.52226660102E+03  0.52226660104E+03  0.50400001928E-02 0. -1.
        1   -1    0    0  501    0  0.00000000000E+00  0.00000000000E+00 -0.97538788982E+03  0.97538788984E+03  0.50400001928E-02 0.  1.
    10030    2    1    2    0    0  0.00000000000E+00  0.00000000000E+00 -0.45312128880E+03  0.14976544909E+04  0.14274628092E+04 0.  0.
        4    1    3    3  502    0  0.59333473769E+03 -0.24662556609E+03 -0.55254884622E+03  0.84745626505E+03  0.12699999809E+01 0.  1.
       -4    1    3    3    0  502 -0.59333473769E+03  0.24662556609E+03  0.99427557418E+02  0.65019822583E+03  0.12699999809E+01 0. -1.
</event>
<event>
 5   0  0.2697964E-05  0.2150339E+04  0.7818609E-02  0.8539387E-01
        2   -1    0    0  501    0  0.00000000000E+00  0.00000000000E+00  0.15557379810E+04  0.15557379810E+04  0.25500000920E-02 0.  1.
       -2   -1    0    0    0  501  0.00000000000E+00  0.00000000000E+00 -0.74304902598E+03  0.74304902598E+03  0.25500000920E-02 0. -1.
    10030    2    1    2    0    0  0.00000000000E+00  0.00000000000E+00  0.81268895500E+03  0.22987870070E+04  0.21503391281E+04 0.  0.
        1    1    3    3  502    0 -0.48222956966E+03 -0.18161323566E+03  0.14151308231E+04  0.15060292068E+04  0.50400001928E-02 0.  1.
       -1    1    3    3    0  502  0.48222956966E+03  0.18161323566E+03 -0.60244186811E+03  0.79275780015E+03  0.50400001928E-02 0. -1.
</event>
<event>
 5   0  0.1017456E-05  0.2873675E+04  0.7818609E-02  0.8280753E-01
       -1   -1    0    0    0  501  0.00000000000E+00  0.00000000000E+00  0.13265037424E+04  0.13265037424E+04  0.50400001928E-02 0.  1.
        1   -1    0    0  501    0  0.00000000000E+00  0.00000000000E+00 -0.15563480258E+04  0.15563480259E+04  0.50400001928E-02 0. -1.
    10030    2    1    2    0    0  0.00000000000E+00  0.00000000000E+00 -0.22984428343E+03  0.28828517683E+04  0.28736746377E+04 0.  0.
        5    1    3    3  502    0  0.72148456053E+03  0.57784421946E+03  0.98860690531E+03  0.13534436140E+04  0.46999998093E+01 0.  1.
       -5    1    3    3    0  502 -0.72148456053E+03 -0.57784421946E+03 -0.12184511887E+04  0.15294081543E+04  0.46999998093E+01 0. -1.
</event>
<event>
 5   0  0.2651061E-05  0.2839842E+04  0.7818609E-02  0.8291005E-01
       -2   -1    0    0    0  501  0.00000000000E+00  0.00000000000E+00  0.16683488431E+04  0.16683488431E+04  0.25500000920E-02 0.  1.
        2   -1    0    0  501    0  0.00000000000E+00  0.00000000000E+00 -0.12084856773E+04  0.12084856773E+04  0.25500000920E-02 0. -1.
    10030    2    1    2    0    0  0.00000000000E+00  0.00000000000E+00  0.45986316581E+03  0.28768345205E+04  0.28398420250E+04 0.  0.
        3    1    3    3  502    0 -0.12996197595E+04 -0.47962224905E+03  0.54564272225E+03  0.14888838140E+04  0.10100000352E+00 0.  1.
       -3    1    3    3    0  502  0.12996197595E+04  0.47962224905E+03 -0.85779556431E+02  0.13879507065E+04  0.10100000352E+00 0. -1.
</event>
<event>
 5   0  0.2697964E-05  0.2518653E+04  0.7818609E-02  0.8396370E-01
       -2   -1    0    0    0  501  0.00000000000E+00  0.00000000000E+00  0.75671507846E+03  0.75671507847E+03  0.25500000920E-02 0.  1.
        2   -1    0    0  501    0  0.00000000000E+00  0.00000000000E+00 -0.20957730812E+04  0.20957730813E+04  0.25500000920E-02 0. -1.
    10030    2    1    2    0    0  0.00000000000E+00  0.00000000000E+00 -0.13390580028E+04  0.28524881597E+04  0.25186528873E+04 0.  0.
        1    1    3    3  502    0 -0.72186434472E+03  0.95682594944E+03 -0.23192219191E+03  0.12208160930E+04  0.50400001928E-02 0.  1.
       -1    1    3    3    0  502  0.72186434472E+03 -0.95682594944E+03 -0.11071358109E+04  0.16316720668E+04  0.50400001928E-02 0. -1.
</event>
<event>
 5   0  0.1017456E-05  0.2687130E+04  0.7818609E-02  0.8339193E-01
        1   -1    0    0  501    0  0.00000000000E+00  0.00000000000E+00  0.97917952858E+03  0.97917952859E+03  0.50400001928E-02 0. -1.
       -1   -1    0    0    0  501  0.00000000000E+00  0.00000000000E+00 -0.18435499760E+04  0.18435499760E+04  0.50400001928E-02 0.  1.
    10030    2    1    2    0    0  0.00000000000E+00  0.00000000000E+00 -0.86437044744E+03  0.28227295046E+04  0.26871296184E+04 0.  0.
        5    1    3    3  502    0  0.95388119677E+03  0.12321998212E+03 -0.14176468116E+04  0.17131307813E+04  0.46999998093E+01 0.  1.
       -5    1    3    3    0  502 -0.95388119677E+03 -0.12321998212E+03  0.55327636416E+03  0.11095987233E+04  0.46999998093E+01 0. -1.
</event>
<event>
 5   0  0.1075146E-05  0.2790803E+04  0.7818609E-02  0.8306129E-01
       -1   -1    0    0    0  501  0.00000000000E+00  0.00000000000E+00  0.11021679978E+04  0.11021679978E+04  0.50400001928E-02 0.  1.
        1   -1    0    0  501    0  0.00000000000E+00  0.00000000000E+00 -0.17666500492E+04  0.17666500492E+04  0.50400001928E-02 0. -1.
    10030    2    1    2    0    0  0.00000000000E+00  0.00000000000E+00 -0.66448205138E+03  0.28688180471E+04  0.27908028577E+04 0.  0.
        2    1    3    3  502    0  0.65129059301E+03  0.43163779790E+03  0.85621586034E+03  0.11591359819E+04  0.25500000920E-02 0.  1.
       -2    1    3    3    0  502 -0.65129059301E+03 -0.43163779790E+03 -0.15206979117E+04  0.17096820651E+04  0.25500000920E-02 0. -1.
</event>
<event>
 5   0  0.2588048E-05  0.2721964E+04  0.7818609E-02  0.8327913E-01
       -2   -1    0    0    0  501  0.00000000000E+00  0.00000000000E+00  0.61989433042E+03  0.61989433042E+03  0.25500000920E-02 0. -1.
        2   -1    0    0  501    0  0.00000000000E+00  0.00000000000E+00 -0.29880451771E+04  0.29880451771E+04  0.25500000920E-02 0.  1.
    10030    2    1    2    0    0  0.00000000000E+00  0.00000000000E+00 -0.23681508467E+04  0.36079395075E+04  0.27219641911E+04 0.  0.
        2    1    3    3  502    0 -0.97241670915E+03  0.61690365350E+03 -0.21454978477E+04  0.24350206135E+04  0.25500000920E-02 0.  1.
       -2    1    3    3    0  502  0.97241670915E+03 -0.61690365350E+03 -0.22265299902E+03  0.11729188940E+04  0.25500000920E-02 0. -1.
</event>
<event>
 5   0  0.2588048E-05  0.1417728E+04  0.7818609E-02  0.8941086E-01
       -2   -1    0    0    0  501  0.00000000000E+00  0.00000000000E+00  0.28133466967E+03  0.28133466968E+03  0.25500000920E-02 0. -1.
        2   -1    0    0  501    0  0.00000000000E+00  0.00000000000E+00 -0.17860856982E+04  0.17860856982E+04  0.25500000920E-02 0.  1.
    10030    2    1    2    0    0  0.00000000000E+00  0.00000000000E+00 -0.15047510285E+04  0.20674203679E+04  0.14177275195E+04 0.  0.
        2    1    3    3  502    0  0.52748127331E+03 -0.14792584382E+03 -0.14083822751E+04  0.15111780775E+04  0.25500000920E-02 0.  1.
       -2    1    3    3    0  502 -0.52748127331E+03  0.14792584382E+03 -0.96368753376E+02  0.55624229037E+03  0.25500000920E-02 0. -1.
</event>
<event>
 5   0  0.1105862E-05  0.2803011E+04  0.7818609E-02  0.8302334E-01
       -1   -1    0    0    0  501  0.00000000000E+00  0.00000000000E+00  0.14861582652E+04  0.14861582653E+04  0.50400001928E-02 0. -1.
        1   -1    0    0  501    0  0.00000000000E+00  0.00000000000E+00 -0.13216745735E+04  0.13216745735E+04  0.50400001928E-02 0.  1.
    10030    2    1    2    0    0  0.00000000000E+00  0.00000000000E+00  0.16448369176E+03  0.28078328388E+04  0.28030109464E+04 0.  0.
        3    1    3    3  502    0  0.84065301340E+03  0.78497809971E+03 -0.71996627738E+03  0.13569228264E+04  0.10100000352E+00 0.  1.
       -3    1    3    3    0  502 -0.84065301340E+03 -0.78497809971E+03  0.88444996914E+03  0.14509100124E+04  0.10100000352E+00 0. -1.
</event>
<event>
 5   0  0.1075146E-05  0.2873834E+04  0.7818609E-02  0.8280705E-01
       -1   -1    0    0    0  501  0.00000000000E+00  0.00000000000E+00  0.12883264939E+04  0.12883264939E+04  0.50400001928E-02 0. -1.
        1   -1    0    0  501    0  0.00000000000E+00  0.00000000000E+00 -0.16026452109E+04  0.16026452109E+04  0.50400001928E-02 0.  1.
    10030    2    1    2    0    0  0.00000000000E+00  0.00000000000E+00 -0.31431871697E+03  0.28909717048E+04  0.28738338752E+04 0.  0.
        2    1    3    3  502    0  0.43751996694E+03  0.10501414148E+04 -0.10401807015E+04  0.15414916816E+04  0.25500000920E-02 0.  1.
       -2    1    3    3    0  502 -0.43751996694E+03 -0.10501414148E+04  0.72586198456E+03  0.13494800232E+04  0.25500000920E-02 0. -1.
</event>
<event>
 5   0  0.2697964E-05  0.2797240E+04  0.7818609E-02  0.8304126E-01
       -2   -1    0    0    0  501  0.00000000000E+00  0.00000000000E+00  0.16626301543E+04  0.16626301544E+04  0.25500000920E-02 0. -1.
        2   -1    0    0  501    0  0.00000000000E+00  0.00000000000E+00 -0.11765324604E+04  0.11765324604E+04  0.25500000920E-02 0.  1.
    10030    2    1    2    0    0  0.00000000000E+00  0.00000000000E+00  0.48609769394E+03  0.28391626148E+04  0.27972403159E+04 0.  0.
        1    1    3    3  502    0  0.78173422975E+03 -0.11589875642E+04  0.20025337530E+03  0.14122542244E+04  0.50400001928E-02 0. -1.
       -1    1    3    3    0  502 -0.78173422975E+03  0.11589875642E+04  0.28584431865E+03  0.14269083904E+04  0.50400001928E-02 0.  1.
</event>
<event>
 5   0  0.1067434E-05  0.2854412E+04  0.7818609E-02  0.8286572E-01
       -1   -1    0    0    0  501  0.00000000000E+00  0.00000000000E+00  0.12652800038E+04  0.12652800038E+04  0.50400001928E-02 0.  1.
        1   -1    0    0  501    0  0.00000000000E+00  0.00000000000E+00 -0.16098548121E+04  0.16098548121E+04  0.50400001928E-02 0. -1.
    10030    2    1    2    0    0  0.00000000000E+00  0.00000000000E+00 -0.34457480833E+03  0.28751348159E+04  0.28544120955E+04 0.  0.
        4    1    3    3  502    0  0.12086634291E+04  0.58025757600E+03  0.32049780879E+03  0.13785088312E+04  0.12699999809E+01 0.  1.
       -4    1    3    3    0  502 -0.12086634291E+04 -0.58025757600E+03 -0.66507261712E+03  0.14966259847E+04  0.12699999809E+01 0. -1.
</event>
<event>
 5   0  0.2697964E-05  0.2936719E+04  0.7818609E-02  0.8262036E-01
        2   -1    0    0  501    0  0.00000000000E+00  0.00000000000E+00  0.11528526918E+04  0.11528526918E+04  0.25500000920E-02 0.  1.
       -2   -1    0    0    0  501  0.00000000000E+00  0.00000000000E+00 -0.18702122100E+04  0.18702122100E+04  0.25500000920E-02 0. -1.
    10030    2    1    2    0    0  0.00000000000E+00  0.00000000000E+00 -0.71735951823E+03  0.30230649017E+04  0.29367186998E+04 0.  0.
        1    1    3    3  502    0 -0.13677039012E+04 -0.28008179278E+03 -0.82705146764E+03  0.16226749219E+04  0.50400001928E-02 0. -1.
       -1    1    3    3    0  502  0.13677039012E+04  0.28008179278E+03  0.10969194941E+03  0.14003899799E+04  0.50400001928E-02 0.  1.
</event>
<event>
 5   0  0.1078103E-05  0.2784083E+04  0.7818609E-02  0.8308227E-01
       -1   -1    0    0    0  501  0.00000000000E+00  0.00000000000E+00  0.94646775704E+03  0.94646775705E+03  0.50400001928E-02 0.  1.
        1   -1    0    0  501    0  0.00000000000E+00  0.00000000000E+00 -0.20473809191E+04  0.20473809191E+04  0.50400001928E-02 0. -1.
    10030    2    1    2    0    0  0.00000000000E+00  0.00000000000E+00 -0.11009131620E+04  0.29938486761E+04  0.27840833510E+04 0.  0.
        1    1    3    3  502    0 -0.24447755187E+03  0.16844409320E+03 -0.20129398424E+04  0.20347160723E+04  0.50400001928E-02 0. -1.
       -1    1    3    3    0  502  0.24447755187E+03 -0.16844409320E+03  0.91202668037E+03  0.95913260378E+03  0.50400001928E-02 0.  1.
</event>
<event>
 5   0  0.2624815E-05  0.2410103E+04  0.7818609E-02  0.8435731E-01
        2   -1    0    0  501    0  0.00000000000E+00  0.00000000000E+00  0.20432782228E+04  0.20432782228E+04  0.25500000920E-02 0. -1.
       -2   -1    0    0    0  501  0.00000000000E+00  0.00000000000E+00 -0.71069578895E+03  0.71069578895E+03  0.25500000920E-02 0.  1.
    10030    2    1    2    0    0  0.00000000000E+00  0.00000000000E+00  0.13325824338E+04  0.27539740117E+04  0.24101030920E+04 0.  0.
        4    1    3    3  502    0 -0.46720384838E+03 -0.10160072446E+04  0.15323288561E+03  0.11287302987E+04  0.12699999809E+01 0. -1.
       -4    1    3    3    0  502  0.46720384838E+03  0.10160072446E+04  0.11793495482E+04  0.16252437130E+04  0.12699999809E+01 0.  1.
</event>
<event>
 5   0  0.8958000E-06  0.2781144E+04  0.7818609E-02  0.8309146E-01
       -3   -1    0    0    0  501  0.00000000000E+00  0.00000000000E+00  0.19066866465E+04  0.19066866491E+04  0.10100000352E+00 0.  1.
        3   -1    0    0  501    0  0.00000000000E+00  0.00000000000E+00 -0.10141627566E+04  0.10141627617E+04  0.10100000352E+00 0. -1.
    10030    2    1    2    0    0  0.00000000000E+00  0.00000000000E+00  0.89252388983E+03  0.29208494108E+04  0.27811440787E+04 0.  0.
        4    1    3    3  502    0 -0.94803936479E+03  0.82515929567E+03 -0.17862449500E+03  0.12694781698E+04  0.12699999809E+01 0. -1.
       -4    1    3    3    0  502  0.94803936479E+03 -0.82515929567E+03  0.10711483848E+04  0.16513712410E+04  0.12699999809E+01 0.  1.
</event>
<event>
 5   0  0.2651061E-05  0.1856943E+04  0.7818609E-02  0.8676591E-01
       -2   -1    0    0    0  501  0.00000000000E+00  0.00000000000E+00  0.47690484869E+03  0.47690484870E+03  0.25500000920E-02 0. -1.
        2   -1    0    0  501    0  0.00000000000E+00  0.00000000000E+00 -0.18076123056E+04  0.18076123056E+04  0.25500000920E-02 0.  1.
    10030    2    1    2    0    0  0.00000000000E+00  0.00000000000E+00 -0.13307074569E+04  0.22845171543E+04  0.18569427273E+04 0.  0.
        3    1    3    3  502    0 -0.16275032325E+03  0.51681567480E+03 -0.15929325360E+04  0.16825635750E+04  0.10100000352E+00 0.  1.
       -3    1    3    3    0  502  0.16275032325E+03 -0.51681567480E+03  0.26222507903E+03  0.60195357937E+03  0.10100000352E+00 0. -1.
</event>
<event>
 5   0  0.2588048E-05  0.2805267E+04  0.7818609E-02  0.8301635E-01
        2   -1    0    0  501    0  0.00000000000E+00  0.00000000000E+00  0.24045377521E+04  0.24045377521E+04  0.25500000920E-02 0. -1.
       -2   -1    0    0    0  501  0.00000000000E+00  0.00000000000E+00 -0.81819522512E+03  0.81819522512E+03  0.25500000920E-02 0.  1.
    10030    2    1    2    0    0  0.00000000000E+00  0.00000000000E+00  0.15863425270E+04  0.32227329772E+04  0.28052674079E+04 0.  0.
        2    1    3    3  502    0  0.18283728470E+03  0.11066367752E+04 -0.17436476062E+03  0.11351112257E+04  0.25500000920E-02 0.  1.
       -2    1    3    3    0  502 -0.18283728470E+03 -0.11066367752E+04  0.17607072876E+04  0.20876217516E+04  0.25500000920E-02 0. -1.
</event>
<event>
 5   0  0.2697964E-05  0.2784069E+04  0.7818609E-02  0.8308231E-01
       -2   -1    0    0    0  501  0.00000000000E+00  0.00000000000E+00  0.99974251404E+03  0.99974251405E+03  0.25500000920E-02 0.  1.
        2   -1    0    0  501    0  0.00000000000E+00  0.00000000000E+00 -0.19382591597E+04  0.19382591597E+04  0.25500000920E-02 0. -1.
    10030    2    1    2    0    0  0.00000000000E+00  0.00000000000E+00 -0.93851664567E+03  0.29380016738E+04  0.27840690259E+04 0.  0.
        1    1    3    3  502    0  0.12926207800E+04 -0.37780833813E+03 -0.84109284782E+03  0.15877798336E+04  0.50400001928E-02 0. -1.
       -1    1    3    3    0  502 -0.12926207800E+04  0.37780833813E+03 -0.97423797852E+02  0.13502218402E+04  0.50400001928E-02 0.  1.
</event>
<event>
 5   0  0.1075146E-05  0.2573328E+04  0.7818609E-02  0.8377318E-01
       -1   -1    0    0    0  501  0.00000000000E+00  0.00000000000E+00  0.75667043141E+03  0.75667043143E+03  0.50400001928E-02 0. -1.
        1   -1    0    0  501    0  0.00000000000E+00  0.00000000000E+00 -0.21878797115E+04  0.21878797115E+04  0.50400001928E-02 0.  1.
    10030    2    1    2    0    0  0.00000000000E+00  0.00000000000E+00 -0.14312092801E+04  0.29445501429E+04  0.25733277173E+04 0.  0.
        2    1    3    3  502    0  0.54164365568E+02  0.31767670940E+03  0.70974353961E+03  0.77947941744E+03  0.25500000920E-02 0. -1.
       -2    1    3    3    0  502 -0.54164365568E+02 -0.31767670940E+03 -0.21409528197E+04  0.21650707255E+04  0.25500000920E-02 0.  1.
</event>
<event>
 5   0  0.2588048E-05  0.1582810E+04  0.7818609E-02  0.8831179E-01
       -2   -1    0    0    0  501  0.00000000000E+00  0.00000000000E+00  0.56586086981E+03  0.56586086981E+03  0.25500000920E-02 0.  1.
        2   -1    0    0  501    0  0.00000000000E+00  0.00000000000E+00 -0.11068472429E+04  0.11068472429E+04  0.25500000920E-02 0. -1.
    10030    2    1    2    0    0  0.00000000000E+00  0.00000000000E+00 -0.54098637313E+03  0.16727081128E+04  0.15828095825E+04 0.  0.
        2    1    3    3  502    0  0.64098710691E+03  0.41531456596E+03 -0.51425342083E+02  0.76550324998E+03  0.25500000920E-02 0.  1.
       -2    1    3    3    0  502 -0.64098710691E+03 -0.41531456596E+03 -0.48956103105E+03  0.90720486277E+03  0.25500000920E-02 0. -1.
</event>
<event>
 5   0  0.1105862E-05  0.2723461E+04  0.7818609E-02  0.8327433E-01
       -1   -1    0    0    0  501  0.00000000000E+00  0.00000000000E+00  0.12114410465E+04  0.12114410465E+04  0.50400001928E-02 0. -1.
        1   -1    0    0  501    0  0.00000000000E+00  0.00000000000E+00 -0.15306646642E+04  0.15306646642E+04  0.50400001928E-02 0.  1.
    10030    2    1    2    0    0  0.00000000000E+00  0.00000000000E+00 -0.31922361768E+03  0.27421057107E+04  0.27234610352E+04 0.  0.
        3    1    3    3  502    0 -0.97878404827E+03  0.93778970469E+03 -0.28945666476E+02  0.13558412906E+04  0.10100000352E+00 0.  1.
       -3    1    3    3    0  502  0.97878404827E+03 -0.93778970469E+03 -0.29027795120E+03  0.13862644201E+04  0.10100000352E+00 0. -1.
</event>
<event>
 5   0  0.1067434E-05  0.2864712E+04  0.7818609E-02  0.8283455E-01
        1   -1    0    0  501    0  0.00000000000E+00  0.00000000000E+00  0.16806883894E+04  0.16806883894E+04  0.50400001928E-02 0. -1.
       -1   -1    0    0    0  501  0.00000000000E+00  0.00000000000E+00 -0.12207164383E+04  0.12207164383E+04  0.50400001928E-02 0.  1.
    10030    2    1    2    0    0  0.00000000000E+00  0.00000000000E+00  0.45997195106E+03  0.29014048277E+04  0.28647121633E+04 0.  0.
        4    1    3    3  502    0 -0.83563543625E+03 -0.67008521541E+03 -0.73316325193E+03  0.12980103024E+04  0.12699999809E+01 0.  1.
       -4    1    3    3    0  502  0.83563543625E+03  0.67008521541E+03  0.11931352030E+04  0.16033945253E+04  0.12699999809E+01 0. -1.
</event>
<event>
 5   0  0.1075146E-05  0.2211185E+04  0.7818609E-02  0.8513787E-01
       -1   -1    0    0    0  501  0.00000000000E+00  0.00000000000E+00  0.90882688854E+03  0.90882688855E+03  0.50400001928E-02 0. -1.
        1   -1    0    0  501    0  0.00000000000E+00  0.00000000000E+00 -0.13449583922E+04  0.13449583922E+04  0.50400001928E-02 0.  1.
    10030    2    1    2    0    0  0.00000000000E+00  0.00000000000E+00 -0.43613150370E+03  0.22537852808E+04  0.22111846154E+04 0.  0.
        2    1    3    3  502    0  0.83284363728E+03 -0.32868781846E+03  0.44302088678E+03  0.99896532086E+03  0.25500000920E-02 0. -1.
       -2    1    3    3    0  502 -0.83284363728E+03  0.32868781846E+03 -0.87915239048E+03  0.12548199599E+04  0.25500000920E-02 0.  1.
</event>
<event>
 5   0  0.1017456E-05  0.2770461E+04  0.7818609E-02  0.8312498E-01
       -1   -1    0    0    0  501  0.00000000000E+00  0.00000000000E+00  0.11689436696E+04  0.11689436696E+04  0.50400001928E-02 0. -1.
        1   -1    0    0  501    0  0.00000000000E+00  0.00000000000E+00 -0.16415363748E+04  0.16415363748E+04  0.50400001928E-02 0.  1.
    10030    2    1    2    0    0  0.00000000000E+00  0.00000000000E+00 -0.47259270526E+03  0.28104800444E+04  0.27704610113E+04 0.  0.
        5    1    3    3  502    0 -0.90734090307E+03 -0.35583844975E+03 -0.12348693252E+04  0.15731537932E+04  0.46999998093E+01 0.  1.
       -5    1    3    3    0  502  0.90734090307E+03  0.35583844975E+03  0.76227661991E+03  0.12373262512E+04  0.46999998093E+01 0. -1.
</event>
<event>
 5   0  0.2697964E-05  0.2763583E+04  0.7818609E-02  0.8314664E-01
        2   -1    0    0  501    0  0.00000000000E+00  0.00000000000E+00  0.20114810588E+04  0.20114810588E+04  0.25500000920E-02 0. -1.
       -2   -1    0    0    0  501  0.00000000000E+00  0.00000000000E+00 -0.94922478939E+03  0.94922478940E+03  0.25500000920E-02 0.  1.
    10030    2    1    2    0    0  0.00000000000E+00  0.00000000000E+00  0.10622562695E+04  0.29607058482E+04  0.27635829529E+04 0.  0.
        1    1    3    3  502    0 -0.13667172280E+04  0.11507763162E+02  0.74884594973E+03  0.15584667679E+04  0.50400001928E-02 0.  1.
       -1    1    3    3    0  502  0.13667172280E+04 -0.11507763162E+02  0.31341031972E+03  0.14022390804E+04  0.50400001928E-02 0. -1.
</event>
<event>
 5   0  0.2624815E-05  0.2700693E+04  0.7818609E-02  0.8334780E-01
        2   -1    0    0  501    0  0.00000000000E+00  0.00000000000E+00  0.18391680947E+04  0.18391680947E+04  0.25500000920E-02 0.  1.
       -2   -1    0    0    0  501  0.00000000000E+00  0.00000000000E+00 -0.99144574968E+03  0.99144574968E+03  0.25500000920E-02 0. -1.
    10030    2    1    2    0    0  0.00000000000E+00  0.00000000000E+00  0.84772234507E+03  0.28306138444E+04  0.27006927930E+04 0.  0.
        4    1    3    3  502    0 -0.41744876594E+03 -0.56899799478E+03  0.16305097980E+04  0.17766783627E+04  0.12699999809E+01 0.  1.
       -4    1    3    3    0  502  0.41744876594E+03  0.56899799478E+03 -0.78278745294E+03  0.10539354817E+04  0.12699999809E+01 0. -1.
</event>
<event>
 5   0  0.2651061E-05  0.2545072E+04  0.7818609E-02  0.8387102E-01
       -2   -1    0    0    0  501  0.00000000000E+00  0.00000000000E+00  0.67576975715E+03  0.67576975716E+03  0.25500000920E-02 0. -1.
        2   -1    0    0  501    0  0.00000000000E+00  0.00000000000E+00 -0.23963007175E+04  0.23963007175E+04  0.25500000920E-02 0.  1.
    10030    2    1    2    0    0  0.00000000000E+00  0.00000000000E+00 -0.17205309603E+04  0.30720704747E+04  0.25450717506E+04 0.  0.
        3    1    3    3  502    0  0.58338478269E+03 -0.11184908838E+04 -0.10622026010E+04  0.16491312979E+04  0.10100000352E+00 0.  1.
       -3    1    3    3    0  502 -0.58338478269E+03  0.11184908838E+04 -0.65832835933E+03  0.14229391768E+04  0.10100000352E+00 0. -1.
</event>
<event>
 5   0  0.1075146E-05  0.2746951E+04  0.7818609E-02  0.8319930E-01
       -1   -1    0    0    0  501  0.00000000000E+00  0.00000000000E+00  0.11472462688E+04  0.11472462688E+04  0.50400001928E-02 0. -1.
        1   -1    0    0  501    0  0.00000000000E+00  0.00000000000E+00 -0.16443153353E+04  0.16443153353E+04  0.50400001928E-02 0.  1.
    10030    2    1    2    0    0  0.00000000000E+00  0.00000000000E+00 -0.49706906650E+03  0.27915616041E+04  0.27469507700E+04 0.  0.
        2    1    3    3  502    0 -0.78013864277E+03 -0.28065945427E+03 -0.13613284263E+04  0.15939263206E+04  0.25500000920E-02 0.  1.
       -2    1    3    3    0  502  0.78013864277E+03  0.28065945427E+03  0.86425935984E+03  0.11976352835E+04  0.25500000920E-02 0. -1.
</event>
<event>
 5   0  0.8958000E-06  0.2689579E+04  0.7818609E-02  0.8338394E-01
       -4   -1    0    0    0  501  0.00000000000E+00  0.00000000000E+00  0.21581615063E+04  0.21581618800E+04  0.12699999809E+01 0. -1.
        4   -1    0    0  501    0  0.00000000000E+00  0.00000000000E+00 -0.83796199896E+03  0.83796296135E+03  0.12699999809E+01 0.  1.
    10030    2    1    2    0    0  0.00000000000E+00  0.00000000000E+00  0.13201995073E+04  0.29961248413E+04  0.26895793957E+04 0.  0.
        3    1    3    3  502    0  0.41590538175E+03 -0.14896044625E+03  0.20750205728E+04  0.21215270182E+04  0.10100000352E+00 0. -1.
       -3    1    3    3    0  502 -0.41590538175E+03  0.14896044625E+03 -0.75482106548E+03  0.87459782312E+03  0.10100000352E+00 0.  1.
</event>
<event>
 5   0  0.8958000E-06  0.2831451E+04  0.7818609E-02  0.8293570E-01
        3   -1    0    0  501    0  0.00000000000E+00  0.00000000000E+00  0.10101772172E+04  0.10101772223E+04  0.10100000352E+00 0.  1.
       -3   -1    0    0    0  501  0.00000000000E+00  0.00000000000E+00 -0.19840864215E+04  0.19840864241E+04  0.10100000352E+00 0. -1.
    10030    2    1    2    0    0  0.00000000000E+00  0.00000000000E+00 -0.97390920431E+03  0.29942636464E+04  0.28314511554E+04 0.  0.
        1    1    3    3  502    0 -0.13660634709E+04 -0.15586284821E+03 -0.13012616842E+03  0.13810704014E+04  0.50400001928E-02 0.  1.
       -1    1    3    3    0  502  0.13660634709E+04  0.15586284821E+03 -0.84378303589E+03  0.16131932450E+04  0.50400001928E-02 0. -1.
</event>
<event>
 5   0  0.8958000E-06  0.2834762E+04  0.7818609E-02  0.8292557E-01
        3   -1    0    0  501    0  0.00000000000E+00  0.00000000000E+00  0.15188323907E+04  0.15188323940E+04  0.10100000352E+00 0.  1.
       -3   -1    0    0    0  501  0.00000000000E+00  0.00000000000E+00 -0.13227064039E+04  0.13227064078E+04  0.10100000352E+00 0. -1.
    10030    2    1    2    0    0  0.00000000000E+00  0.00000000000E+00  0.19612598676E+03  0.28415388018E+04  0.28347623109E+04 0.  0.
        4    1    3    3  502    0 -0.13289045204E+04  0.53963118930E+02  0.58920210025E+03  0.14546683369E+04  0.12699999809E+01 0.  1.
       -4    1    3    3    0  502  0.13289045204E+04 -0.53963118930E+02 -0.39307611349E+03  0.13868704649E+04  0.12699999809E+01 0. -1.
</event>
<event>
 5   0  0.1067434E-05  0.3075952E+04  0.7818609E-02  0.8222369E-01
        1   -1    0    0  501    0  0.00000000000E+00  0.00000000000E+00  0.16522019711E+04  0.16522019711E+04  0.50400001928E-02 0.  1.
       -1   -1    0    0    0  501  0.00000000000E+00  0.00000000000E+00 -0.14316466963E+04  0.14316466963E+04  0.50400001928E-02 0. -1.
    10030    2    1    2    0    0  0.00000000000E+00  0.00000000000E+00  0.22055527483E+03  0.30838486674E+04  0.30759515559E+04 0.  0.
        4    1    3    3  502    0  0.83727264160E+03 -0.12060244649E+04  0.56954476022E+03  0.15747708827E+04  0.12699999809E+01 0.  1.
       -4    1    3    3    0  502 -0.83727264160E+03  0.12060244649E+04 -0.34898948539E+03  0.15090777847E+04  0.12699999809E+01 0. -1.
</event>
<event>
 5   0  0.1078103E-05  0.2724567E+04  0.7818609E-02  0.8327078E-01
       -1   -1    0    0    0  501  0.00000000000E+00  0.00000000000E+00  0.11738521365E+04  0.11738521365E+04  0.50400001928E-02 0.  1.
        1   -1    0    0  501    0  0.00000000000E+00  0.00000000000E+00 -0.15809628046E+04  0.15809628046E+04  0.50400001928E-02 0. -1.
    10030    2    1    2    0    0  0.00000000000E+00  0.00000000000E+00 -0.40711066804E+03  0.27548149411E+04  0.27245671700E+04 0.  0.
        1    1    3    3  502    0 -0.12488301328E+04  0.48401457300E+03 -0.45525625959E+03  0.14146042094E+04  0.50400001928E-02 0. -1.
       -1    1    3    3    0  502  0.12488301328E+04 -0.48401457300E+03  0.48145591548E+02  0.13402107317E+04  0.50400001928E-02 0.  1.
</event>
<event>
 5   0  0.2624815E-05  0.2828583E+04  0.7818609E-02  0.8294449E-01
       -2   -1    0    0    0  501  0.00000000000E+00  0.00000000000E+00  0.13746623272E+04  0.13746623272E+04  0.25500000920E-02 0. -1.
        2   -1    0    0  501    0  0.00000000000E+00  0.00000000000E+00 -0.14550626339E+04  0.14550626339E+04  0.25500000920E-02 0.  1.
    10030    2    1    2    0    0  0.00000000000E+00  0.00000000000E+00 -0.80400306716E+02  0.28297249612E+04  0.28285825331E+04 0.  0.
        4    1    3    3  502    0 -0.67100212966E+02  0.72327806589E+03 -0.12541912286E+04  0.14493553222E+04  0.12699999809E+01 0.  1.
       -4    1    3    3    0  502  0.67100212966E+02 -0.72327806589E+03  0.11737909218E+04  0.13803696390E+04  0.12699999809E+01 0. -1.
</event>
<event>
 5   0  0.2518686E-05  0.2782193E+04  0.7818609E-02  0.8308818E-01
       -2   -1    0    0    0  501  0.00000000000E+00  0.00000000000E+00  0.14666156814E+04  0.14666156814E+04  0.25500000920E-02 0. -1.
        2   -1    0    0  501    0  0.00000000000E+00  0.00000000000E+00 -0.13194661809E+04  0.13194661809E+04  0.25500000920E-02 0.  1.
    10030    2    1    2    0    0  0.00000000000E+00  0.00000000000E+00  0.14714950049E+03  0.27860818623E+04  0.27821932298E+04 0.  0.
        5    1    3    3  502    0  0.47973687626E+03 -0.45360960822E+02 -0.12332099465E+04  0.13240218840E+04  0.46999998093E+01 0.  1.
       -5    1    3    3    0  502 -0.47973687626E+03  0.45360960822E+02  0.13803594470E+04  0.14620599783E+04  0.46999998093E+01 0. -1.
</event>
<event>
 5   0  0.1017456E-05  0.2713053E+04  0.7818609E-02  0.8330782E-01
       -1   -1    0    0    0  501  0.00000000000E+00  0.00000000000E+00  0.11584213378E+04  0.11584213379E+04  0.50400001928E-02 0. -1.
        1   -1    0    0  501    0  0.00000000000E+00  0.00000000000E+00 -0.15885098089E+04  0.15885098089E+04  0.50400001928E-02 0.  1.
    10030    2    1    2    0    0  0.00000000000E+00  0.00000000000E+00 -0.43008847107E+03  0.27469311468E+04  0.27130526409E+04 0.  0.
        5    1    3    3  502    0 -0.41908835991E+03 -0.71193572075E+03  0.87433464130E+03  0.12029009431E+04  0.46999998093E+01 0. -1.
       -5    1    3    3    0  502  0.41908835991E+03  0.71193572075E+03 -0.13044231124E+04  0.15440302037E+04  0.46999998093E+01 0.  1.
</event>
<event>
 5   0  0.2697964E-05  0.1990954E+04  0.7818609E-02  0.8610862E-01
       -2   -1    0    0    0  501  0.00000000000E+00  0.00000000000E+00  0.55665402912E+03  0.55665402913E+03  0.25500000920E-02 0. -1.
        2   -1    0    0  501    0  0.00000000000E+00  0.00000000000E+00 -0.17802342518E+04  0.17802342518E+04  0.25500000920E-02 0.  1.
    10030    2    1    2    0    0  0.00000000000E+00  0.00000000000E+00 -0.12235802227E+04  0.23368882809E+04  0.19909541120E+04 0.  0.
        1    1    3    3  502    0 -0.15780779019E+02 -0.84807146198E+03 -0.12233822329E+04  0.14886699854E+04  0.50400001928E-02 0.  1.
       -1    1    3    3    0  502  0.15780779019E+02  0.84807146198E+03 -0.19798974796E+00  0.84821829551E+03  0.50400001928E-02 0. -1.
</event>
<event>
 5   0  0.2588048E-05  0.2235130E+04  0.7818609E-02  0.8503947E-01
        2   -1    0    0  501    0  0.00000000000E+00  0.00000000000E+00  0.19579624762E+04  0.19579624763E+04  0.25500000920E-02 0. -1.
       -2   -1    0    0    0  501  0.00000000000E+00  0.00000000000E+00 -0.63788320952E+03  0.63788320953E+03  0.25500000920E-02 0.  1.
    10030    2    1    2    0    0  0.00000000000E+00  0.00000000000E+00  0.13200792667E+04  0.25958456858E+04  0.22351298741E+04 0.  0.
        2    1    3    3  502    0 -0.82092519753E+03 -0.75471084721E+03  0.57434277402E+03  0.12543429614E+04  0.25500000920E-02 0.  1.
       -2    1    3    3    0  502  0.82092519753E+03  0.75471084721E+03  0.74573649271E+03  0.13415027243E+04  0.25500000920E-02 0. -1.
</event>
<event>
 5   0  0.2588048E-05  0.2796677E+04  0.7818609E-02  0.8304301E-01
        2   -1    0    0  501    0  0.00000000000E+00  0.00000000000E+00  0.19966766611E+04  0.19966766611E+04  0.25500000920E-02 0.  1.
       -2   -1    0    0    0  501  0.00000000000E+00  0.00000000000E+00 -0.97930251540E+03  0.97930251540E+03  0.25500000920E-02 0. -1.
    10030    2    1    2    0    0  0.00000000000E+00  0.00000000000E+00  0.10173741457E+04  0.29759791765E+04  0.27966769400E+04 0.  0.
        2    1    3    3  502    0 -0.40925783956E+03  0.12703277757E+04  0.95272411235E+03  0.16397889716E+04  0.25500000920E-02 0.  1.
       -2    1    3    3    0  502  0.40925783956E+03 -0.12703277757E+04  0.64650033373E+02  0.13361902050E+04  0.25500000920E-02 0. -1.
</event>
<event>
 5   0  0.1067434E-05  0.2545093E+04  0.7818609E-02  0.8387095E-01
       -1   -1    0    0    0  501  0.00000000000E+00  0.00000000000E+00  0.13617263316E+04  0.13617263316E+04  0.50400001928E-02 0. -1.
        1   -1    0    0  501    0  0.00000000000E+00  0.00000000000E+00 -0.11892073891E+04  0.11892073891E+04  0.50400001928E-02 0.  1.
    10030    2    1    2    0    0  0.00000000000E+00  0.00000000000E+00  0.17251894251E+03  0.25509337207E+04  0.25450933307E+04 0.  0.
        4    1    3    3  502    0  0.39936298697E+02  0.10696346846E+04 -0.60354956571E+03  0.12288152658E+04  0.12699999809E+01 0.  1.
       -4    1    3    3    0  502 -0.39936298697E+02 -0.10696346846E+04  0.77606850822E+03  0.13221184549E+04  0.12699999809E+01 0. -1.
</event>
<event>
 5   0  0.1078103E-05  0.1998652E+04  0.7818609E-02  0.8607251E-01
       -1   -1    0    0    0  501  0.00000000000E+00  0.00000000000E+00  0.12743672037E+04  0.12743672037E+04  0.50400001928E-02 0. -1.
        1   -1    0    0  501    0  0.00000000000E+00  0.00000000000E+00 -0.78364584861E+03  0.78364584862E+03  0.50400001928E-02 0.  1.
    10030    2    1    2    0    0  0.00000000000E+00  0.00000000000E+00  0.49072135513E+03  0.20580130524E+04  0.19986521146E+04 0.  0.
        1    1    3    3  502    0 -0.81290001066E+03  0.44694125574E+03 -0.13728031139E+03  0.93776798695E+03  0.50400001928E-02 0.  1.
       -1    1    3    3    0  502  0.81290001066E+03 -0.44694125574E+03  0.62800166652E+03  0.11202450654E+04  0.50400001928E-02 0. -1.
</event>
<event>
 5   0  0.2518686E-05  0.2764920E+04  0.7818609E-02  0.8314243E-01
       -2   -1    0    0    0  501  0.00000000000E+00  0.00000000000E+00  0.11763945914E+04  0.11763945914E+04  0.25500000920E-02 0. -1.
        2   -1    0    0  501    0  0.00000000000E+00  0.00000000000E+00 -0.16246211851E+04  0.16246211851E+04  0.25500000920E-02 0.  1.
    10030    2    1    2    0    0  0.00000000000E+00  0.00000000000E+00 -0.44822659373E+03  0.28010157765E+04  0.27649199447E+04 0.  0.
        5    1    3    3  502    0  0.39007775160E+03 -0.12536292752E+04 -0.66269293040E+03  0.14706906615E+04  0.46999998093E+01 0. -1.
       -5    1    3    3    0  502 -0.39007775160E+03  0.12536292752E+04  0.21446633667E+03  0.13303251150E+04  0.46999998093E+01 0.  1.
</event>
<event>
 5   0  0.1017456E-05  0.2016942E+04  0.7818609E-02  0.8598740E-01
       -1   -1    0    0    0  501  0.00000000000E+00  0.00000000000E+00  0.10329404644E+04  0.10329404645E+04  0.50400001928E-02 0. -1.
        1   -1    0    0  501    0  0.00000000000E+00  0.00000000000E+00 -0.98458115749E+03  0.98458115750E+03  0.50400001928E-02 0.  1.
    10030    2    1    2    0    0  0.00000000000E+00  0.00000000000E+00  0.48359306953E+02  0.20175216220E+04  0.20169419606E+04 0.  0.
        5    1    3    3  502    0 -0.67560947756E+03  0.73595092265E+02 -0.72110308016E+03  0.99089663738E+03  0.46999998093E+01 0.  1.
       -5    1    3    3    0  502  0.67560947756E+03 -0.73595092265E+02  0.76946238711E+03  0.10266249846E+04  0.46999998093E+01 0. -1.
</event>
<event>
 5   0  0.2588048E-05  0.2827454E+04  0.7818609E-02  0.8294795E-01
        2   -1    0    0  501    0  0.00000000000E+00  0.00000000000E+00  0.23274789397E+04  0.23274789397E+04  0.25500000920E-02 0.  1.
       -2   -1    0    0    0  501  0.00000000000E+00  0.00000000000E+00 -0.85870748278E+03  0.85870748278E+03  0.25500000920E-02 0. -1.
    10030    2    1    2    0    0  0.00000000000E+00  0.00000000000E+00  0.14687714569E+04  0.31861864225E+04  0.28274536824E+04 0.  0.
        2    1    3    3  502    0  0.42906951097E+03 -0.74466604583E+01 -0.78353914704E+03  0.89335865863E+03  0.25500000920E-02 0. -1.
       -2    1    3    3    0  502 -0.42906951097E+03  0.74466604583E+01  0.22523106040E+04  0.22928277639E+04  0.25500000920E-02 0.  1.
</event>
<event>
 5   0  0.2624815E-05  0.2772001E+04  0.7818609E-02  0.8312014E-01
        2   -1    0    0  501    0  0.00000000000E+00  0.00000000000E+00  0.22228728476E+04  0.22228728476E+04  0.25500000920E-02 0. -1.
       -2   -1    0    0    0  501  0.00000000000E+00  0.00000000000E+00 -0.86419591620E+03  0.86419591620E+03  0.25500000920E-02 0.  1.
    10030    2    1    2    0    0  0.00000000000E+00  0.00000000000E+00  0.13586769314E+04  0.30870687638E+04  0.27720011812E+04 0.  0.
        4    1    3    3  502    0 -0.11772618717E+04  0.45109630568E+03  0.38076204525E+02  0.12613028192E+04  0.12699999809E+01 0. -1.
       -4    1    3    3    0  502  0.11772618717E+04 -0.45109630568E+03  0.13206007269E+04  0.18257659446E+04  0.12699999809E+01 0.  1.
</event>
<event>
 5   0  0.1067434E-05  0.2788071E+04  0.7818609E-02  0.8306982E-01
        1   -1    0    0  501    0  0.00000000000E+00  0.00000000000E+00  0.22997796017E+04  0.22997796018E+04  0.50400001928E-02 0. -1.
       -1   -1    0    0    0  501  0.00000000000E+00  0.00000000000E+00 -0.84500897635E+03  0.84500897636E+03  0.50400001928E-02 0.  1.
    10030    2    1    2    0    0  0.00000000000E+00  0.00000000000E+00  0.14547706254E+04  0.31447885781E+04  0.27880705925E+04 0.  0.
        4    1    3    3  502    0 -0.26713418668E+03  0.15867826834E+02 -0.81576477144E+03  0.85853726585E+03  0.12699999809E+01 0.  1.
       -4    1    3    3    0  502  0.26713418668E+03 -0.15867826834E+02  0.22705353968E+04  0.22862513123E+04  0.12699999809E+01 0. -1.
</event>
<event>
 5   0  0.2518686E-05  0.2809267E+04  0.7818609E-02  0.8300397E-01
       -2   -1    0    0    0  501  0.00000000000E+00  0.00000000000E+00  0.13569076971E+04  0.13569076971E+04  0.25500000920E-02 0.  1.
        2   -1    0    0  501    0  0.00000000000E+00  0.00000000000E+00 -0.14540377147E+04  0.14540377147E+04  0.25500000920E-02 0. -1.
    10030    2    1    2    0    0  0.00000000000E+00  0.00000000000E+00 -0.97130017666E+02  0.28109454118E+04  0.28092667847E+04 0.  0.
        5    1    3    3  502    0 -0.50929883570E+03 -0.87347620663E+03  0.92701855445E+03  0.13717621798E+04  0.46999998093E+01 0.  1.
       -5    1    3    3    0  502  0.50929883570E+03  0.87347620663E+03 -0.10241485721E+04  0.14391832320E+04  0.46999998093E+01 0. -1.
</event>
<event>
 5   0  0.2651061E-05  0.2715247E+04  0.7818609E-02  0.8330075E-01
        2   -1    0    0  501    0  0.00000000000E+00  0.00000000000E+00  0.12653210163E+04  0.12653210163E+04  0.25500000920E-02 0.  1.
       -2   -1    0    0    0  501  0.00000000000E+00  0.00000000000E+00 -0.14566591717E+04  0.14566591717E+04  0.25500000920E-02 0. -1.
    10030    2    1    2    0    0  0.00000000000E+00  0.00000000000E+00 -0.19133815539E+03  0.27219801880E+04  0.27152469233E+04 0.  0.
        3    1    3    3  502    0  0.47590665848E+03  0.61779409175E+03 -0.12097235587E+04  0.14393011450E+04  0.10100000352E+00 0. -1.
       -3    1    3    3    0  502 -0.47590665848E+03 -0.61779409175E+03  0.10183854033E+04  0.12826790430E+04  0.10100000352E+00 0.  1.
</event>
<event>
 5   0  0.2624815E-05  0.1562463E+04  0.7818609E-02  0.8843946E-01
       -2   -1    0    0    0  501  0.00000000000E+00  0.00000000000E+00  0.19551541362E+03  0.19551541364E+03  0.25500000920E-02 0.  1.
        2   -1    0    0  501    0  0.00000000000E+00  0.00000000000E+00 -0.31216083536E+04  0.31216083536E+04  0.25500000920E-02 0. -1.
    10030    2    1    2    0    0  0.00000000000E+00  0.00000000000E+00 -0.29260929400E+04  0.33171237672E+04  0.15624628616E+04 0.  0.
        4    1    3    3  502    0 -0.40257959106E+03  0.41068670912E+03 -0.34048408109E+03  0.66832995037E+03  0.12699999809E+01 0.  1.
       -4    1    3    3    0  502  0.40257959106E+03 -0.41068670912E+03 -0.25856088589E+04  0.26487938169E+04  0.12699999809E+01 0. -1.
</event>
<event>
 5   0  0.1075146E-05  0.2825596E+04  0.7818609E-02  0.8295366E-01
       -1   -1    0    0    0  501  0.00000000000E+00  0.00000000000E+00  0.20528509575E+04  0.20528509575E+04  0.50400001928E-02 0. -1.
        1   -1    0    0  501    0  0.00000000000E+00  0.00000000000E+00 -0.97230512569E+03  0.97230512571E+03  0.50400001928E-02 0.  1.
    10030    2    1    2    0    0  0.00000000000E+00  0.00000000000E+00  0.10805458318E+04  0.30251560832E+04  0.28255955183E+04 0.  0.
        2    1    3    3  502    0  0.30830581913E+03 -0.48737996010E+03 -0.84054654837E+03  0.10193675508E+04  0.25500000920E-02 0.  1.
       -2    1    3    3    0  502 -0.30830581913E+03  0.48737996010E+03  0.19210923802E+04  0.20057885324E+04  0.25500000920E-02 0. -1.
</event>
<event>
 5   0  0.2651061E-05  0.2534559E+04  0.7818609E-02  0.8390776E-01
       -2   -1    0    0    0  501  0.00000000000E+00  0.00000000000E+00  0.77788365873E+03  0.77788365874E+03  0.25500000920E-02 0.  1.
        2   -1    0    0  501    0  0.00000000000E+00  0.00000000000E+00 -0.20645718591E+04  0.20645718591E+04  0.25500000920E-02 0. -1.
    10030    2    1    2    0    0  0.00000000000E+00  0.00000000000E+00 -0.12866882004E+04  0.28424555178E+04  0.25345585110E+04 0.  0.
        3    1    3    3  502    0  0.50590925317E+03  0.97180723411E+03  0.70927645062E+02  0.10978999106E+04  0.10100000352E+00 0.  1.
       -3    1    3    3    0  502 -0.50590925317E+03 -0.97180723411E+03 -0.13576158454E+04  0.17445556072E+04  0.10100000352E+00 0. -1.
</event>
<event>
 5   0  0.1017456E-05  0.2633712E+04  0.7818609E-02  0.8356839E-01
       -1   -1    0    0    0  501  0.00000000000E+00  0.00000000000E+00  0.10669251149E+04  0.10669251149E+04  0.50400001928E-02 0. -1.
        1   -1    0    0  501    0  0.00000000000E+00  0.00000000000E+00 -0.16253340887E+04  0.16253340887E+04  0.50400001928E-02 0.  1.
    10030    2    1    2    0    0  0.00000000000E+00  0.00000000000E+00 -0.55840897386E+03  0.26922592036E+04  0.26337120263E+04 0.  0.
        5    1    3    3  502    0 -0.89735306926E+02  0.12123647564E+04  0.23821648733E+03  0.12388098776E+04  0.46999998093E+01 0. -1.
       -5    1    3    3    0  502  0.89735306926E+02 -0.12123647564E+04 -0.79662546120E+03  0.14534493260E+04  0.46999998093E+01 0.  1.
</event>
<event>
 5   0  0.2624815E-05  0.2801629E+04  0.7818609E-02  0.8302763E-01
       -2   -1    0    0    0  501  0.00000000000E+00  0.00000000000E+00  0.90447419229E+03  0.90447419229E+03  0.25500000920E-02 0.  1.
        2   -1    0    0  501    0  0.00000000000E+00  0.00000000000E+00 -0.21695269019E+04  0.21695269019E+04  0.25500000920E-02 0. -1.
    10030    2    1    2    0    0  0.00000000000E+00  0.00000000000E+00 -0.12650527096E+04  0.30740010941E+04  0.28016288778E+04 0.  0.
        4    1    3    3  502    0  0.13887205652E+04 -0.18071719240E+03 -0.66851727854E+03  0.15518119978E+04  0.12699999809E+01 0. -1.
       -4    1    3    3    0  502 -0.13887205652E+04  0.18071719240E+03 -0.59653543103E+03  0.15221890964E+04  0.12699999809E+01 0.  1.
</event>
<event>
 5   0  0.1078103E-05  0.2759688E+04  0.7818609E-02  0.8315894E-01
       -1   -1    0    0    0  501  0.00000000000E+00  0.00000000000E+00  0.97219783237E+03  0.97219783238E+03  0.50400001928E-02 0.  1.
        1   -1    0    0  501    0  0.00000000000E+00  0.00000000000E+00 -0.19584179741E+04  0.19584179741E+04  0.50400001928E-02 0. -1.
    10030    2    1    2    0    0  0.00000000000E+00  0.00000000000E+00 -0.98622014171E+03  0.29306158065E+04  0.27596881775E+04 0.  0.
        1    1    3    3  502    0  0.31787791549E+02  0.13659727261E+04 -0.69759231449E+03  0.15341209175E+04  0.50400001928E-02 0. -1.
       -1    1    3    3    0  502 -0.31787791549E+02 -0.13659727261E+04 -0.28862782722E+03  0.13964948890E+04  0.50400001928E-02 0.  1.
</event>
<event>
 5   0  0.2518686E-05  0.2803437E+04  0.7818609E-02  0.8302202E-01
        2   -1    0    0  501    0  0.00000000000E+00  0.00000000000E+00  0.14578546864E+04  0.14578546864E+04  0.25500000920E-02 0.  1.
       -2   -1    0    0    0  501  0.00000000000E+00  0.00000000000E+00 -0.13477435373E+04  0.13477435373E+04  0.25500000920E-02 0. -1.
    10030    2    1    2    0    0  0.00000000000E+00  0.00000000000E+00  0.11011114911E+03  0.28055982237E+04  0.28034366281E+04 0.  0.
        5    1    3    3  502    0  0.39380378653E+03 -0.98684388104E+03  0.97000876385E+03  0.14387082261E+04  0.46999998093E+01 0.  1.
       -5    1    3    3    0  502 -0.39380378653E+03  0.98684388104E+03 -0.85989761474E+03  0.13668899976E+04  0.46999998093E+01 0. -1.
</event>
<event>
 5   0  0.1017456E-05  0.2426399E+04  0.7818609E-02  0.8429686E-01
       -1   -1    0    0    0  501  0.00000000000E+00  0.00000000000E+00  0.91162410690E+03  0.91162410691E+03  0.50400001928E-02 0.  1.
        1   -1    0    0  501    0  0.00000000000E+00  0.00000000000E+00 -0.16145391822E+04  0.16145391822E+04  0.50400001928E-02 0. -1.
    10030    2    1    2    0    0  0.00000000000E+00  0.00000000000E+00 -0.70291507531E+03  0.25261632891E+04  0.24263988461E+04 0.  0.
        5    1    3    3  502    0 -0.78028126270E+03 -0.23558503099E+03  0.58409511369E+03  0.10027603640E+04  0.46999998093E+01 0.  1.
       -5    1    3    3    0  502  0.78028126270E+03  0.23558503099E+03 -0.12870101890E+04  0.15234029251E+04  0.46999998093E+01 0. -1.
</event>
<event>
 5   0  0.1017456E-05  0.2402859E+04  0.7818609E-02  0.8438434E-01
       -1   -1    0    0    0  501  0.00000000000E+00  0.00000000000E+00  0.15775769762E+04  0.15775769762E+04  0.50400001928E-02 0.  1.
        1   -1    0    0  501    0  0.00000000000E+00  0.00000000000E+00 -0.91496857887E+03  0.91496857889E+03  0.50400001928E-02 0. -1.
    10030    2    1    2    0    0  0.00000000000E+00  0.00000000000E+00  0.66260839732E+03  0.24925455551E+04  0.24028594333E+04 0.  0.
        5    1    3    3  502    0  0.84742027610E+03  0.68591667024E+03 -0.19232236477E+03  0.11070739744E+04  0.46999998093E+01 0. -1.
       -5    1    3    3    0  502 -0.84742027610E+03 -0.68591667024E+03  0.85493076209E+03  0.13854715807E+04  0.46999998093E+01 0.  1.
</event>
<event>
 5   0  0.2518686E-05  0.1915975E+04  0.7818609E-02  0.8646945E-01
        2   -1    0    0  501    0  0.00000000000E+00  0.00000000000E+00  0.62674476718E+03  0.62674476719E+03  0.25500000920E-02 0. -1.
       -2   -1    0    0    0  501  0.00000000000E+00  0.00000000000E+00 -0.14642962302E+04  0.14642962302E+04  0.25500000920E-02 0.  1.
    10030    2    1    2    0    0  0.00000000000E+00  0.00000000000E+00 -0.83755146303E+03  0.20910409974E+04  0.19159749475E+04 0.  0.
        5    1    3    3  502    0 -0.17884146234E+03  0.37446330286E+03 -0.13610985624E+04  0.14229611451E+04  0.46999998093E+01 0.  1.
       -5    1    3    3    0  502  0.17884146234E+03 -0.37446330286E+03  0.52354709936E+03  0.66807985233E+03  0.46999998093E+01 0. -1.
</event>
<event>
 5   0  0.1067434E-05  0.2815831E+04  0.7818609E-02  0.8298370E-01
       -1   -1    0    0    0  501  0.00000000000E+00  0.00000000000E+00  0.16981122130E+04  0.16981122130E+04  0.50400001928E-02 0.  1.
        1   -1    0    0  501    0  0.00000000000E+00  0.00000000000E+00 -0.11673117021E+04  0.11673117022E+04  0.50400001928E-02 0. -1.
    10030    2    1    2    0    0  0.00000000000E+00  0.00000000000E+00  0.53080051083E+03  0.28654239151E+04  0.28158311439E+04 0.  0.
        4    1    3    3  502    0  0.36750996735E+03  0.89941897197E+03 -0.77146939348E+03  0.12406388279E+04  0.12699999809E+01 0. -1.
       -4    1    3    3    0  502 -0.36750996735E+03 -0.89941897197E+03  0.13022699043E+04  0.16247850873E+04  0.12699999809E+01 0.  1.
</event>
<event>
 5   0  0.1067434E-05  0.1493656E+04  0.7818609E-02  0.8888683E-01
       -1   -1    0    0    0  501  0.00000000000E+00  0.00000000000E+00  0.47743671191E+03  0.47743671194E+03  0.50400001928E-02 0.  1.
        1   -1    0    0  501    0  0.00000000000E+00  0.00000000000E+00 -0.11682213636E+04  0.11682213636E+04  0.50400001928E-02 0. -1.
    10030    2    1    2    0    0  0.00000000000E+00  0.00000000000E+00 -0.69078465171E+03  0.16456580756E+04  0.14936556051E+04 0.  0.
        4    1    3    3  502    0  0.34611986400E+03  0.14012631942E+03 -0.10579848646E+04  0.11219482753E+04  0.12699999809E+01 0. -1.
       -4    1    3    3    0  502 -0.34611986400E+03 -0.14012631942E+03  0.36720021294E+03  0.52370980030E+03  0.12699999809E+01 0.  1.
</event>
<event>
 5   0  0.1017456E-05  0.2830417E+04  0.7818609E-02  0.8293887E-01
       -1   -1    0    0    0  501  0.00000000000E+00  0.00000000000E+00  0.91376267288E+03  0.91376267289E+03  0.50400001928E-02 0.  1.
        1   -1    0    0  501    0  0.00000000000E+00  0.00000000000E+00 -0.21918330762E+04  0.21918330763E+04  0.50400001928E-02 0. -1.
    10030    2    1    2    0    0  0.00000000000E+00  0.00000000000E+00 -0.12780704034E+04  0.31055957491E+04  0.28304171073E+04 0.  0.
        5    1    3    3  502    0 -0.18138560211E+03 -0.84536780860E+03  0.59026754745E+03  0.10468931827E+04  0.46999998093E+01 0.  1.
       -5    1    3    3    0  502  0.18138560211E+03  0.84536780860E+03 -0.18683379508E+04  0.20587025664E+04  0.46999998093E+01 0. -1.
</event>
<event>
 5   0  0.1067434E-05  0.1378212E+04  0.7818609E-02  0.8969742E-01
        1   -1    0    0  501    0  0.00000000000E+00  0.00000000000E+00  0.89299451146E+03  0.89299451147E+03  0.50400001928E-02 0.  1.
       -1   -1    0    0    0  501  0.00000000000E+00  0.00000000000E+00 -0.53176949655E+03  0.53176949658E+03  0.50400001928E-02 0. -1.
    10030    2    1    2    0    0  0.00000000000E+00  0.00000000000E+00  0.36122501490E+03  0.14247640080E+04  0.13782122359E+04 0.  0.
        4    1    3    3  502    0  0.63828652658E+02 -0.13390005844E+03  0.87629315334E+03  0.88876016227E+03  0.12699999809E+01 0.  1.
       -4    1    3    3    0  502 -0.63828652658E+02  0.13390005844E+03 -0.51506813844E+03  0.53600384577E+03  0.12699999809E+01 0. -1.
</event>
<event>
 5   0  0.1067434E-05  0.2776739E+04  0.7818609E-02  0.8310527E-01
        1   -1    0    0  501    0  0.00000000000E+00  0.00000000000E+00  0.18111319950E+04  0.18111319951E+04  0.50400001928E-02 0.  1.
       -1   -1    0    0    0  501  0.00000000000E+00  0.00000000000E+00 -0.10642898952E+04  0.10642898952E+04  0.50400001928E-02 0. -1.
    10030    2    1    2    0    0  0.00000000000E+00  0.00000000000E+00  0.74684209984E+03  0.28754218903E+04  0.27767387210E+04 0.  0.
        4    1    3    3  502    0 -0.19247353375E+03  0.22188947170E+02 -0.10502211230E+04  0.10679440203E+04  0.12699999809E+01 0. -1.
       -4    1    3    3    0  502  0.19247353375E+03 -0.22188947170E+02  0.17970632228E+04  0.18074778699E+04  0.12699999809E+01 0.  1.
</event>
<event>
 5   0  0.1067434E-05  0.2779033E+04  0.7818609E-02  0.8309807E-01
        1   -1    0    0  501    0  0.00000000000E+00  0.00000000000E+00  0.14077208922E+04  0.14077208922E+04  0.50400001928E-02 0. -1.
       -1   -1    0    0    0  501  0.00000000000E+00  0.00000000000E+00 -0.13715474896E+04  0.13715474896E+04  0.50400001928E-02 0.  1.
    10030    2    1    2    0    0  0.00000000000E+00  0.00000000000E+00  0.36173402640E+02  0.27792683818E+04  0.27790329654E+04 0.  0.
        4    1    3    3  502    0 -0.81725623006E+03  0.50783550302E+03  0.10206434669E+04  0.14026829090E+04  0.12699999809E+01 0. -1.
       -4    1    3    3    0  502  0.81725623006E+03 -0.50783550302E+03 -0.98447006423E+03  0.13765854728E+04  0.12699999809E+01 0.  1.
</event>
<event>
 5   0  0.1078103E-05  0.2808846E+04  0.7818609E-02  0.8300527E-01
        1   -1    0    0  501    0  0.00000000000E+00  0.00000000000E+00  0.29179212993E+04  0.29179212993E+04  0.50400001928E-02 0.  1.
       -1   -1    0    0    0  501  0.00000000000E+00  0.00000000000E+00 -0.67596181839E+03  0.67596181841E+03  0.50400001928E-02 0. -1.
    10030    2    1    2    0    0  0.00000000000E+00  0.00000000000E+00  0.22419594809E+04  0.35938831177E+04  0.28088455902E+04 0.  0.
        1    1    3    3  502    0 -0.44322040622E+03  0.23011730581E+03  0.28004772439E+04  0.28446565868E+04  0.50400001928E-02 0.  1.
       -1    1    3    3    0  502  0.44322040622E+03 -0.23011730581E+03 -0.55851776305E+03  0.74922653089E+03  0.50400001928E-02 0. -1.
</event>
<event>
 5   0  0.2588048E-05  0.2801533E+04  0.7818609E-02  0.8302793E-01
       -2   -1    0    0    0  501  0.00000000000E+00  0.00000000000E+00  0.17333354877E+04  0.17333354877E+04  0.25500000920E-02 0.  1.
        2   -1    0    0  501    0  0.00000000000E+00  0.00000000000E+00 -0.11320063807E+04  0.11320063807E+04  0.25500000920E-02 0. -1.
    10030    2    1    2    0    0  0.00000000000E+00  0.00000000000E+00  0.60132910697E+03  0.28653418684E+04  0.28015330318E+04 0.  0.
        2    1    3    3  502    0 -0.47139670991E+03  0.12434794549E+04  0.75079171136E+03  0.15271359490E+04  0.25500000920E-02 0. -1.
       -2    1    3    3    0  502  0.47139670991E+03 -0.12434794549E+04 -0.14946260440E+03  0.13382059195E+04  0.25500000920E-02 0.  1.
</event>
<event>
 5   0  0.1078103E-05  0.3004903E+04  0.7818609E-02  0.8242332E-01
       -1   -1    0    0    0  501  0.00000000000E+00  0.00000000000E+00  0.14560171073E+04  0.14560171073E+04  0.50400001928E-02 0.  1.
        1   -1    0    0  501    0  0.00000000000E+00  0.00000000000E+00 -0.15503666825E+04  0.15503666825E+04  0.50400001928E-02 0. -1.
    10030    2    1    2    0    0  0.00000000000E+00  0.00000000000E+00 -0.94349575199E+02  0.30063837898E+04  0.30049029351E+04 0.  0.
        1    1    3    3  502    0 -0.13266864303E+03  0.14960294327E+04 -0.87881200467E+02  0.15044693874E+04  0.50400001928E-02 0.  1.
       -1    1    3    3    0  502  0.13266864303E+03 -0.14960294327E+04 -0.64683747322E+01  0.15019144024E+04  0.50400001928E-02 0. -1.
</event>
<event>
 5   0  0.1067434E-05  0.2755558E+04  0.7818609E-02  0.8317200E-01
        1   -1    0    0  501    0  0.00000000000E+00  0.00000000000E+00  0.24291079029E+04  0.24291079029E+04  0.50400001928E-02 0. -1.
       -1   -1    0    0    0  501  0.00000000000E+00  0.00000000000E+00 -0.78147006076E+03  0.78147006078E+03  0.50400001928E-02 0.  1.
    10030    2    1    2    0    0  0.00000000000E+00  0.00000000000E+00  0.16476378421E+04  0.32105779637E+04  0.27555580927E+04 0.  0.
        4    1    3    3  502    0 -0.11249754103E+04  0.12981934452E+03 -0.90528800822E+02  0.11360544937E+04  0.12699999809E+01 0.  1.
       -4    1    3    3    0  502  0.11249754103E+04 -0.12981934452E+03  0.17381666430E+04  0.20745234700E+04  0.12699999809E+01 0. -1.
</event>
<event>
 5   0  0.2518686E-05  0.2804842E+04  0.7818609E-02  0.8301767E-01
        2   -1    0    0  501    0  0.00000000000E+00  0.00000000000E+00  0.26827968400E+04  0.26827968400E+04  0.25500000920E-02 0. -1.
       -2   -1    0    0    0  501  0.00000000000E+00  0.00000000000E+00 -0.73310965991E+03  0.73310965992E+03  0.25500000920E-02 0.  1.
    10030    2    1    2    0    0  0.00000000000E+00  0.00000000000E+00  0.19496871801E+04  0.34159064999E+04  0.28048417274E+04 0.  0.
        5    1    3    3  502    0  0.10781641586E+03  0.10420364284E+04  0.21103299667E+04  0.23560515605E+04  0.46999998093E+01 0. -1.
       -5    1    3    3    0  502 -0.10781641586E+03 -0.10420364284E+04 -0.16064278657E+03  0.10598549394E+04  0.46999998093E+01 0.  1.
</event>
<event>
 5   0  0.2518686E-05  0.2491041E+04  0.7818609E-02  0.8406184E-01
       -2   -1    0    0    0  501  0.00000000000E+00  0.00000000000E+00  0.11788881335E+04  0.11788881335E+04  0.25500000920E-02 0. -1.
        2   -1    0    0  501    0  0.00000000000E+00  0.00000000000E+00 -0.13159188643E+04  0.13159188643E+04  0.25500000920E-02 0.  1.
    10030    2    1    2    0    0  0.00000000000E+00  0.00000000000E+00 -0.13703073073E+03  0.24948069978E+04  0.24910408538E+04 0.  0.
        5    1    3    3  502    0 -0.14822885975E+03  0.93830018510E+03  0.73825825072E+03  0.12030903403E+04  0.46999998093E+01 0. -1.
       -5    1    3    3    0  502  0.14822885975E+03 -0.93830018510E+03 -0.87528898145E+03  0.12917166575E+04  0.46999998093E+01 0.  1.
</event>
<event>
 5   0  0.1105862E-05  0.2812230E+04  0.7818609E-02  0.8299482E-01
       -1   -1    0    0    0  501  0.00000000000E+00  0.00000000000E+00  0.25636159470E+04  0.25636159470E+04  0.50400001928E-02 0. -1.
        1   -1    0    0  501    0  0.00000000000E+00  0.00000000000E+00 -0.77123827154E+03  0.77123827155E+03  0.50400001928E-02 0.  1.
    10030    2    1    2    0    0  0.00000000000E+00  0.00000000000E+00  0.17923776755E+04  0.33348542186E+04  0.28122295297E+04 0.  0.
        3    1    3    3  502    0  0.94007075073E+03  0.93415944187E+03  0.33900574382E+03  0.13679589847E+04  0.10100000352E+00 0. -1.
       -3    1    3    3    0  502 -0.94007075073E+03 -0.93415944187E+03  0.14533719317E+04  0.19668952339E+04  0.10100000352E+00 0.  1.
</event>
<event>
 5   0  0.1067434E-05  0.2728653E+04  0.7818609E-02  0.8325767E-01
       -1   -1    0    0    0  501  0.00000000000E+00  0.00000000000E+00  0.15298224113E+04  0.15298224113E+04  0.50400001928E-02 0.  1.
        1   -1    0    0  501    0  0.00000000000E+00  0.00000000000E+00 -0.12167343030E+04  0.12167343030E+04  0.50400001928E-02 0. -1.
    10030    2    1    2    0    0  0.00000000000E+00  0.00000000000E+00  0.31308810828E+03  0.27465567143E+04  0.27286534447E+04 0.  0.
        4    1    3    3  502    0 -0.15734968185E+03  0.14007824958E+03 -0.12002634779E+04  0.12186118610E+04  0.12699999809E+01 0. -1.
       -4    1    3    3    0  502  0.15734968185E+03 -0.14007824958E+03  0.15133515862E+04  0.15279448533E+04  0.12699999809E+01 0.  1.
</event>
<event>
 5   0  0.1067434E-05  0.2817327E+04  0.7818609E-02  0.8297909E-01
       -1   -1    0    0    0  501  0.00000000000E+00  0.00000000000E+00  0.10434579343E+04  0.10434579343E+04  0.50400001928E-02 0. -1.
        1   -1    0    0  501    0  0.00000000000E+00  0.00000000000E+00 -0.19016888064E+04  0.19016888064E+04  0.50400001928E-02 0.  1.
    10030    2    1    2    0    0  0.00000000000E+00  0.00000000000E+00 -0.85823087212E+03  0.29451467407E+04  0.28173265864E+04 0.  0.
        4    1    3    3  502    0  0.39791111222E+03  0.64673222679E+01  0.98347040512E+03  0.10609386081E+04  0.12699999809E+01 0. -1.
       -4    1    3    3    0  502 -0.39791111222E+03 -0.64673222679E+01 -0.18417012772E+04  0.18842081326E+04  0.12699999809E+01 0.  1.
</event>
<event>
 5   0  0.2624815E-05  0.2742454E+04  0.7818609E-02  0.8321360E-01
       -2   -1    0    0    0  501  0.00000000000E+00  0.00000000000E+00  0.13755101734E+04  0.13755101734E+04  0.25500000920E-02 0.  1.
        2   -1    0    0  501    0  0.00000000000E+00  0.00000000000E+00 -0.13669570989E+04  0.13669570989E+04  0.25500000920E-02 0. -1.
    10030    2    1    2    0    0  0.00000000000E+00  0.00000000000E+00  0.85530745418E+01  0.27424672724E+04  0.27424539349E+04 0.  0.
        4    1    3    3  502    0 -0.43491497142E+03  0.26895545430E+03 -0.12680400349E+04  0.13672655967E+04  0.12699999809E+01 0. -1.
       -4    1    3    3    0  502  0.43491497142E+03 -0.26895545430E+03  0.12765931095E+04  0.13752016757E+04  0.12699999809E+01 0.  1.
</event>
<event>
 5   0  0.8958000E-06  0.2628391E+04  0.7818609E-02  0.8358621E-01
        3   -1    0    0  501    0  0.00000000000E+00  0.00000000000E+00  0.15577411009E+04  0.15577411042E+04  0.10100000352E+00 0.  1.
       -3   -1    0    0    0  501  0.00000000000E+00  0.00000000000E+00 -0.11087270479E+04  0.11087270525E+04  0.10100000352E+00 0. -1.
    10030    2    1    2    0    0  0.00000000000E+00  0.00000000000E+00  0.44901405305E+03  0.26664681566E+04  0.26283909166E+04 0.  0.
        1    1    3    3  502    0  0.91215194300E+03  0.93474334114E+03  0.76296699233E+02  0.13082765255E+04  0.50400001928E-02 0. -1.
       -1    1    3    3    0  502 -0.91215194300E+03 -0.93474334114E+03  0.37271735382E+03  0.13581916311E+04  0.50400001928E-02 0.  1.
</event>
<event>
 5   0  0.1105862E-05  0.2928167E+04  0.7818609E-02  0.8264546E-01
        1   -1    0    0  501    0  0.00000000000E+00  0.00000000000E+00  0.13925540046E+04  0.13925540046E+04  0.50400001928E-02 0.  1.
       -1   -1    0    0    0  501  0.00000000000E+00  0.00000000000E+00 -0.15392869400E+04  0.15392869400E+04  0.50400001928E-02 0. -1.
    10030    2    1    2    0    0  0.00000000000E+00  0.00000000000E+00 -0.14673293542E+03  0.29318409446E+04  0.29281667934E+04 0.  0.
        3    1    3    3  502    0  0.40264193548E+03  0.67422639960E+03  0.11638370145E+04  0.14040008450E+04  0.10100000352E+00 0.  1.
       -3    1    3    3    0  502 -0.40264193548E+03 -0.67422639960E+03 -0.13105699499E+04  0.15278400996E+04  0.10100000352E+00 0. -1.
</event>
<event>
 5   0  0.2588048E-05  0.2796278E+04  0.7818609E-02  0.8304425E-01
       -2   -1    0    0    0  501  0.00000000000E+00  0.00000000000E+00  0.69440267203E+03  0.69440267203E+03  0.25500000920E-02 0.  1.
        2   -1    0    0  501    0  0.00000000000E+00  0.00000000000E+00 -0.28150702371E+04  0.28150702371E+04  0.25500000920E-02 0. -1.
    10030    2    1    2    0    0  0.00000000000E+00  0.00000000000E+00 -0.21206675651E+04  0.35094729092E+04  0.27962777363E+04 0.  0.
        2    1    3    3  502    0  0.76721620295E+03  0.78276824920E+03  0.29066540488E+02  0.10964450273E+04  0.25500000920E-02 0.  1.
       -2    1    3    3    0  502 -0.76721620295E+03 -0.78276824920E+03 -0.21497341056E+04  0.24130278819E+04  0.25500000920E-02 0. -1.
</event>
<event>
 5   0  0.2518686E-05  0.2505528E+04  0.7818609E-02  0.8401019E-01
       -2   -1    0    0    0  501  0.00000000000E+00  0.00000000000E+00  0.75336697771E+03  0.75336697771E+03  0.25500000920E-02 0.  1.
        2   -1    0    0  501    0  0.00000000000E+00  0.00000000000E+00 -0.20832045372E+04  0.20832045372E+04  0.25500000920E-02 0. -1.
    10030    2    1    2    0    0  0.00000000000E+00  0.00000000000E+00 -0.13298375595E+04  0.28365715149E+04  0.25055278934E+04 0.  0.
        5    1    3    3  502    0  0.11911313362E+03  0.59416436918E+02  0.74532820485E+03  0.75713570416E+03  0.46999998093E+01 0.  1.
       -5    1    3    3    0  502 -0.11911313362E+03 -0.59416436918E+02 -0.20751657643E+04  0.20794358107E+04  0.46999998093E+01 0. -1.
</event>
<event>
 5   0  0.2651061E-05  0.2791969E+04  0.7818609E-02  0.8305766E-01
        2   -1    0    0  501    0  0.00000000000E+00  0.00000000000E+00  0.97600500496E+03  0.97600500496E+03  0.25500000920E-02 0.  1.
       -2   -1    0    0    0  501  0.00000000000E+00  0.00000000000E+00 -0.19966832749E+04  0.19966832749E+04  0.25500000920E-02 0. -1.
    10030    2    1    2    0    0  0.00000000000E+00  0.00000000000E+00 -0.10206782700E+04  0.29726882799E+04  0.27919691042E+04 0.  0.
        3    1    3    3  502    0 -0.20647646151E+03 -0.13269922836E+04 -0.10457875632E+03  0.13470255292E+04  0.10100000352E+00 0. -1.
       -3    1    3    3    0  502  0.20647646151E+03  0.13269922836E+04 -0.91609951366E+03  0.16256627507E+04  0.10100000352E+00 0.  1.
</event>
<event>
 5   0  0.1075146E-05  0.1860792E+04  0.7818609E-02  0.8674623E-01
        1   -1    0    0  501    0  0.00000000000E+00  0.00000000000E+00  0.13559974939E+04  0.13559974939E+04  0.50400001928E-02 0. -1.
       -1   -1    0    0    0  501  0.00000000000E+00  0.00000000000E+00 -0.63837644757E+03  0.63837644759E+03  0.50400001928E-02 0.  1.
    10030    2    1    2    0    0  0.00000000000E+00  0.00000000000E+00  0.71762104633E+03  0.19943739415E+04  0.18607921572E+04 0.  0.
        2    1    3    3  502    0  0.57877486779E+03  0.69886556691E+03  0.57909725319E+03  0.10764511400E+04  0.25500000920E-02 0. -1.
       -2    1    3    3    0  502 -0.57877486779E+03 -0.69886556691E+03  0.13852379314E+03  0.91792280147E+03  0.25500000920E-02 0.  1.
</event>
<event>
 5   0  0.2651061E-05  0.2804504E+04  0.7818609E-02  0.8301871E-01
       -2   -1    0    0    0  501  0.00000000000E+00  0.00000000000E+00  0.14787773141E+04  0.14787773141E+04  0.25500000920E-02 0. -1.
        2   -1    0    0  501    0  0.00000000000E+00  0.00000000000E+00 -0.13296871483E+04  0.13296871483E+04  0.25500000920E-02 0.  1.
    10030    2    1    2    0    0  0.00000000000E+00  0.00000000000E+00  0.14909016586E+03  0.28084644624E+04  0.28045043696E+04 0.  0.
        3    1    3    3  502    0  0.67935507000E+03 -0.80477109050E+03 -0.85257610084E+03  0.13550150690E+04  0.10100000352E+00 0.  1.
       -3    1    3    3    0  502 -0.67935507000E+03  0.80477109050E+03  0.10016662667E+04  0.14534493934E+04  0.10100000352E+00 0. -1.
</event>
<event>
 5   0  0.1017456E-05  0.2672302E+04  0.7818609E-02  0.8344048E-01
        1   -1    0    0  501    0  0.00000000000E+00  0.00000000000E+00  0.18287162058E+04  0.18287162058E+04  0.50400001928E-02 0. -1.
       -1   -1    0    0    0  501  0.00000000000E+00  0.00000000000E+00 -0.97625841622E+03  0.97625841623E+03  0.50400001928E-02 0.  1.
    10030    2    1    2    0    0  0.00000000000E+00  0.00000000000E+00  0.85245778958E+03  0.28049746220E+04  0.26723020689E+04 0.  0.
        5    1    3    3  502    0 -0.65758684306E+03  0.59304383542E+03 -0.62402494132E+03  0.10833054344E+04  0.46999998093E+01 0.  1.
       -5    1    3    3    0  502  0.65758684306E+03 -0.59304383542E+03  0.14764827309E+04  0.17216691876E+04  0.46999998093E+01 0. -1.
</event>
<event>
 5   0  0.1105862E-05  0.2830362E+04  0.7818609E-02  0.8293904E-01
        1   -1    0    0  501    0  0.00000000000E+00  0.00000000000E+00  0.13965267584E+04  0.13965267584E+04  0.50400001928E-02 0.  1.
       -1   -1    0    0    0  501  0.00000000000E+00  0.00000000000E+00 -0.14340840071E+04  0.14340840071E+04  0.50400001928E-02 0. -1.
    10030    2    1    2    0    0  0.00000000000E+00  0.00000000000E+00 -0.37557248685E+02  0.28306107655E+04  0.28303615950E+04 0.  0.
        3    1    3    3  502    0 -0.10202431696E+04  0.72112282304E+03  0.64597713790E+03  0.14064852377E+04  0.10100000352E+00 0.  1.
       -3    1    3    3    0  502  0.10202431696E+04 -0.72112282304E+03 -0.68353438658E+03  0.14241255278E+04  0.10100000352E+00 0. -1.
</event>
<event>
 5   0  0.1067434E-05  0.2925919E+04  0.7818609E-02  0.8265207E-01
       -1   -1    0    0    0  501  0.00000000000E+00  0.00000000000E+00  0.74640176467E+03  0.74640176469E+03  0.50400001928E-02 0.  1.
        1   -1    0    0  501    0  0.00000000000E+00  0.00000000000E+00 -0.28674248123E+04  0.28674248123E+04  0.50400001928E-02 0. -1.
    10030    2    1    2    0    0  0.00000000000E+00  0.00000000000E+00 -0.21210230476E+04  0.36138265770E+04  0.29259193017E+04 0.  0.
        4    1    3    3  502    0 -0.81401113424E+03  0.12078978604E+04 -0.12290391109E+04  0.19058253112E+04  0.12699999809E+01 0.  1.
       -4    1    3    3    0  502  0.81401113424E+03 -0.12078978604E+04 -0.89198393676E+03  0.17080012658E+04  0.12699999809E+01 0. -1.
</event>
<event>
 5   0  0.2624815E-05  0.2727027E+04  0.7818609E-02  0.8326289E-01
        2   -1    0    0  501    0  0.00000000000E+00  0.00000000000E+00  0.17324467230E+04  0.17324467230E+04  0.25500000920E-02 0. -1.
       -2   -1    0    0    0  501  0.00000000000E+00  0.00000000000E+00 -0.10731464080E+04  0.10731464080E+04  0.25500000920E-02 0.  1.
    10030    2    1    2    0    0  0.00000000000E+00  0.00000000000E+00  0.65930031498E+03  0.28055931309E+04  0.27270269363E+04 0.  0.
        4    1    3    3  502    0 -0.84299255184E+02 -0.87384158556E+03  0.14030014276E+04  0.16550287308E+04  0.12699999809E+01 0. -1.
       -4    1    3    3    0  502  0.84299255184E+02  0.87384158556E+03 -0.74370111260E+03  0.11505644001E+04  0.12699999809E+01 0.  1.
</event>
<event>
 5   0  0.1067434E-05  0.2823359E+04  0.7818609E-02  0.8296053E-01
       -1   -1    0    0    0  501  0.00000000000E+00  0.00000000000E+00  0.14464301863E+04  0.14464301863E+04  0.50400001928E-02 0. -1.
        1   -1    0    0  501    0  0.00000000000E+00  0.00000000000E+00 -0.13777640956E+04  0.13777640956E+04  0.50400001928E-02 0.  1.
    10030    2    1    2    0    0  0.00000000000E+00  0.00000000000E+00  0.68666090723E+02  0.28241942818E+04  0.28233594014E+04 0.  0.
        4    1    3    3  502    0  0.61968374354E+03  0.24157113544E+03 -0.12112152311E+04  0.13818134839E+04  0.12699999809E+01 0.  1.
       -4    1    3    3    0  502 -0.61968374354E+03 -0.24157113544E+03  0.12798813218E+04  0.14423807979E+04  0.12699999809E+01 0. -1.
</event>
<event>
 5   0  0.2518686E-05  0.1768264E+04  0.7818609E-02  0.8723361E-01
       -2   -1    0    0    0  501  0.00000000000E+00  0.00000000000E+00  0.98242056152E+03  0.98242056152E+03  0.25500000920E-02 0. -1.
        2   -1    0    0  501    0  0.00000000000E+00  0.00000000000E+00 -0.79567685650E+03  0.79567685650E+03  0.25500000920E-02 0.  1.
    10030    2    1    2    0    0  0.00000000000E+00  0.00000000000E+00  0.18674370502E+03  0.17780974180E+04  0.17682638990E+04 0.  0.
        5    1    3    3  502    0 -0.66335024741E+03  0.43402994178E+03 -0.30027889739E+03  0.84770575515E+03  0.46999998093E+01 0. -1.
       -5    1    3    3    0  502  0.66335024741E+03 -0.43402994178E+03  0.48702260241E+03  0.93039166288E+03  0.46999998093E+01 0.  1.
</event>
<event>
 5   0  0.1105862E-05  0.2442499E+04  0.7818609E-02  0.8423762E-01
        1   -1    0    0  501    0  0.00000000000E+00  0.00000000000E+00  0.17958074654E+04  0.17958074654E+04  0.50400001928E-02 0. -1.
       -1   -1    0    0    0  501  0.00000000000E+00  0.00000000000E+00 -0.83051761882E+03  0.83051761883E+03  0.50400001928E-02 0.  1.
    10030    2    1    2    0    0  0.00000000000E+00  0.00000000000E+00  0.96528984654E+03  0.26263250842E+04  0.24424985077E+04 0.  0.
        3    1    3    3  502    0 -0.78322711257E+03 -0.64419828252E+03  0.12143078417E+04  0.15820808076E+04  0.10100000352E+00 0. -1.
       -3    1    3    3    0  502  0.78322711257E+03  0.64419828252E+03 -0.24901799521E+03  0.10442442766E+04  0.10100000352E+00 0.  1.
</event>
<event>
 5   0  0.2588048E-05  0.2383169E+04  0.7818609E-02  0.8445832E-01
       -2   -1    0    0    0  501  0.00000000000E+00  0.00000000000E+00  0.79875878327E+03  0.79875878328E+03  0.25500000920E-02 0.  1.
        2   -1    0    0  501    0  0.00000000000E+00  0.00000000000E+00 -0.17775998452E+04  0.17775998452E+04  0.25500000920E-02 0. -1.
    10030    2    1    2    0    0  0.00000000000E+00  0.00000000000E+00 -0.97884106194E+03  0.25763586285E+04  0.23831688900E+04 0.  0.
        2    1    3    3  502    0  0.90666045011E+03 -0.56253751225E+03  0.84044928083E+02  0.10703014409E+04  0.25500000920E-02 0.  1.
       -2    1    3    3    0  502 -0.90666045011E+03  0.56253751225E+03 -0.10628859900E+04  0.15060571876E+04  0.25500000920E-02 0. -1.
</event>
<event>
 5   0  0.2624815E-05  0.2773198E+04  0.7818609E-02  0.8311638E-01
        2   -1    0    0  501    0  0.00000000000E+00  0.00000000000E+00  0.14157606337E+04  0.14157606337E+04  0.25500000920E-02 0. -1.
       -2   -1    0    0    0  501  0.00000000000E+00  0.00000000000E+00 -0.13580384467E+04  0.13580384467E+04  0.25500000920E-02 0.  1.
    10030    2    1    2    0    0  0.00000000000E+00  0.00000000000E+00  0.57722186962E+02  0.27737990805E+04  0.27731984220E+04 0.  0.
        4    1    3    3  502    0 -0.73858075590E+03  0.76200436516E+03  0.92152488623E+03  0.14054756897E+04  0.12699999809E+01 0. -1.
       -4    1    3    3    0  502  0.73858075590E+03 -0.76200436516E+03 -0.86380269927E+03  0.13683233907E+04  0.12699999809E+01 0.  1.
</event>
<event>
 5   0  0.2588048E-05  0.2805330E+04  0.7818609E-02  0.8301616E-01
       -2   -1    0    0    0  501  0.00000000000E+00  0.00000000000E+00  0.11073317118E+04  0.11073317118E+04  0.25500000920E-02 0.  1.
        2   -1    0    0  501    0  0.00000000000E+00  0.00000000000E+00 -0.17767655906E+04  0.17767655906E+04  0.25500000920E-02 0. -1.
    10030    2    1    2    0    0  0.00000000000E+00  0.00000000000E+00 -0.66943387885E+03  0.28840973024E+04  0.28053298436E+04 0.  0.
        2    1    3    3  502    0 -0.77586168573E+03  0.25851337056E+03  0.83687609031E+03  0.11701077338E+04  0.25500000920E-02 0.  1.
       -2    1    3    3    0  502  0.77586168573E+03 -0.25851337056E+03 -0.15063099692E+04  0.17139895686E+04  0.25500000920E-02 0. -1.
</event>
<event>
 5   0  0.1067434E-05  0.2794328E+04  0.7818609E-02  0.8305032E-01
       -1   -1    0    0    0  501  0.00000000000E+00  0.00000000000E+00  0.10563175515E+04  0.10563175515E+04  0.50400001928E-02 0. -1.
        1   -1    0    0  501    0  0.00000000000E+00  0.00000000000E+00 -0.18479924861E+04  0.18479924861E+04  0.50400001928E-02 0.  1.
    10030    2    1    2    0    0  0.00000000000E+00  0.00000000000E+00 -0.79167493456E+03  0.29043100376E+04  0.27943277533E+04 0.  0.
        4    1    3    3  502    0 -0.94251711933E+03  0.80652524873E+03 -0.10639795072E+04  0.16342813410E+04  0.12699999809E+01 0.  1.
       -4    1    3    3    0  502  0.94251711933E+03 -0.80652524873E+03  0.27230457261E+03  0.12700286966E+04  0.12699999809E+01 0. -1.
</event>
<event>
 5   0  0.2518686E-05  0.2875387E+04  0.7818609E-02  0.8280238E-01
        2   -1    0    0  501    0  0.00000000000E+00  0.00000000000E+00  0.25507423342E+04  0.25507423342E+04  0.25500000920E-02 0. -1.
       -2   -1    0    0    0  501  0.00000000000E+00  0.00000000000E+00 -0.81033788892E+03  0.81033788892E+03  0.25500000920E-02 0.  1.
    10030    2    1    2    0    0  0.00000000000E+00  0.00000000000E+00  0.17404044453E+04  0.33610802232E+04  0.28753873884E+04 0.  0.
        5    1    3    3  502    0 -0.89027238447E+03  0.38600449648E+03 -0.36981469749E+03  0.10384456607E+04  0.46999998093E+01 0.  1.
       -5    1    3    3    0  502  0.89027238447E+03 -0.38600449648E+03  0.21102191428E+04  0.23226345624E+04  0.46999998093E+01 0. -1.
</event>
<event>
 5   0  0.1075146E-05  0.2794971E+04  0.7818609E-02  0.8304831E-01
       -1   -1    0    0    0  501  0.00000000000E+00  0.00000000000E+00  0.10695524498E+04  0.10695524498E+04  0.50400001928E-02 0.  1.
        1   -1    0    0  501    0  0.00000000000E+00  0.00000000000E+00 -0.18259657724E+04  0.18259657724E+04  0.50400001928E-02 0. -1.
    10030    2    1    2    0    0  0.00000000000E+00  0.00000000000E+00 -0.75641332260E+03  0.28955182222E+04  0.27949713165E+04 0.  0.
        2    1    3    3  502    0 -0.11553237047E+04  0.47457472356E+03  0.27121956756E+03  0.12781056626E+04  0.25500000920E-02 0.  1.
       -2    1    3    3    0  502  0.11553237047E+04 -0.47457472356E+03 -0.10276328902E+04  0.16174125596E+04  0.25500000920E-02 0. -1.
</event>
<event>
 5   0  0.1078103E-05  0.2848074E+04  0.7818609E-02  0.8288497E-01
        1   -1    0    0  501    0  0.00000000000E+00  0.00000000000E+00  0.16106687746E+04  0.16106687746E+04  0.50400001928E-02 0. -1.
       -1   -1    0    0    0  501  0.00000000000E+00  0.00000000000E+00 -0.12590307053E+04  0.12590307053E+04  0.50400001928E-02 0.  1.
    10030    2    1    2    0    0  0.00000000000E+00  0.00000000000E+00  0.35163806925E+03  0.28696994799E+04  0.28480740463E+04 0.  0.
        1    1    3    3  502    0 -0.88175330244E+03 -0.10185421236E+04 -0.28916575812E+03  0.13778729185E+04  0.50400001928E-02 0. -1.
       -1    1    3    3    0  502  0.88175330244E+03  0.10185421236E+04  0.64080382736E+03  0.14918265614E+04  0.50400001928E-02 0.  1.
</event>
<event>
 5   0  0.1017456E-05  0.2211021E+04  0.7818609E-02  0.8513855E-01
       -1   -1    0    0    0  501  0.00000000000E+00  0.00000000000E+00  0.76458789444E+03  0.76458789446E+03  0.50400001928E-02 0. -1.
        1   -1    0    0  501    0  0.00000000000E+00  0.00000000000E+00 -0.15984479403E+04  0.15984479403E+04  0.50400001928E-02 0.  1.
    10030    2    1    2    0    0  0.00000000000E+00  0.00000000000E+00 -0.83386004584E+03  0.23630358347E+04  0.22110214337E+04 0.  0.
        5    1    3    3  502    0 -0.61147251332E+03  0.54010546164E+03  0.38036210168E+03  0.90017218499E+03  0.46999998093E+01 0. -1.
       -5    1    3    3    0  502  0.61147251332E+03 -0.54010546164E+03 -0.12142221475E+04  0.14628636498E+04  0.46999998093E+01 0.  1.
</event>
<event>
 5   0  0.1067434E-05  0.2741279E+04  0.7818609E-02  0.8321734E-01
        1   -1    0    0  501    0  0.00000000000E+00  0.00000000000E+00  0.14538057633E+04  0.14538057633E+04  0.50400001928E-02 0.  1.
       -1   -1    0    0    0  501  0.00000000000E+00  0.00000000000E+00 -0.12922310422E+04  0.12922310422E+04  0.50400001928E-02 0. -1.
    10030    2    1    2    0    0  0.00000000000E+00  0.00000000000E+00  0.16157472109E+03  0.27460368055E+04  0.27412792172E+04 0.  0.
        4    1    3    3  502    0 -0.45117333895E+02 -0.83678931374E+03  0.11672892263E+04  0.14369473478E+04  0.12699999809E+01 0.  1.
       -4    1    3    3    0  502  0.45117333895E+02  0.83678931374E+03 -0.10057145053E+04  0.13090894578E+04  0.12699999809E+01 0. -1.
</event>
<event>
 5   0  0.2697964E-05  0.2783898E+04  0.7818609E-02  0.8308285E-01
       -2   -1    0    0    0  501  0.00000000000E+00  0.00000000000E+00  0.11273356044E+04  0.11273356044E+04  0.25500000920E-02 0. -1.
        2   -1    0    0  501    0  0.00000000000E+00  0.00000000000E+00 -0.17186736476E+04  0.17186736476E+04  0.25500000920E-02 0.  1.
    10030    2    1    2    0    0  0.00000000000E+00  0.00000000000E+00 -0.59133804317E+03  0.28460092520E+04  0.27838979833E+04 0.  0.
        1    1    3    3  502    0 -0.83590240819E+03  0.37260590340E+03  0.77651727651E+03  0.12002279267E+04  0.50400001928E-02 0. -1.
       -1    1    3    3    0  502  0.83590240819E+03 -0.37260590340E+03 -0.13678553197E+04  0.16457813253E+04  0.50400001928E-02 0.  1.
</event>
<event>
 5   0  0.1078103E-05  0.2815279E+04  0.7818609E-02  0.8298541E-01
       -1   -1    0    0    0  501  0.00000000000E+00  0.00000000000E+00  0.24289339513E+04  0.24289339513E+04  0.50400001928E-02 0. -1.
        1   -1    0    0  501    0  0.00000000000E+00  0.00000000000E+00 -0.81576888332E+03  0.81576888334E+03  0.50400001928E-02 0.  1.
    10030    2    1    2    0    0  0.00000000000E+00  0.00000000000E+00  0.16131650679E+04  0.32447028346E+04  0.28152788403E+04 0.  0.
        1    1    3    3  502    0  0.51430338373E+03 -0.13494663591E+03 -0.69557580252E+03  0.87552513506E+03  0.50400001928E-02 0.  1.
       -1    1    3    3    0  502 -0.51430338373E+03  0.13494663591E+03  0.23087408705E+04  0.23691776995E+04  0.50400001928E-02 0. -1.
</event>
<event>
 5   0  0.2651061E-05  0.2775370E+04  0.7818609E-02  0.8310956E-01
        2   -1    0    0  501    0  0.00000000000E+00  0.00000000000E+00  0.10729723195E+04  0.10729723195E+04  0.25500000920E-02 0. -1.
       -2   -1    0    0    0  501  0.00000000000E+00  0.00000000000E+00 -0.17947056665E+04  0.17947056665E+04  0.25500000920E-02 0.  1.
    10030    2    1    2    0    0  0.00000000000E+00  0.00000000000E+00 -0.72173334704E+03  0.28676779860E+04  0.27753698866E+04 0.  0.
        3    1    3    3  502    0 -0.59925194704E+03 -0.64212651931E+03  0.74922180506E+03  0.11544534145E+04  0.10100000352E+00 0. -1.
       -3    1    3    3    0  502  0.59925194704E+03  0.64212651931E+03 -0.14709551521E+04  0.17132245715E+04  0.10100000352E+00 0.  1.
</event>
<event>
 5   0  0.2697964E-05  0.2797042E+04  0.7818609E-02  0.8304187E-01
       -2   -1    0    0    0  501  0.00000000000E+00  0.00000000000E+00  0.14158822306E+04  0.14158822306E+04  0.25500000920E-02 0.  1.
        2   -1    0    0  501    0  0.00000000000E+00  0.00000000000E+00 -0.13813725296E+04  0.13813725296E+04  0.25500000920E-02 0. -1.
    10030    2    1    2    0    0  0.00000000000E+00  0.00000000000E+00  0.34509701026E+02  0.27972547602E+04  0.27970418792E+04 0.  0.
        1    1    3    3  502    0  0.28013336733E+02 -0.44763447373E+03 -0.13074966574E+04  0.13822839354E+04  0.50400001928E-02 0. -1.
       -1    1    3    3    0  502 -0.28013336733E+02  0.44763447373E+03  0.13420063584E+04  0.14149708248E+04  0.50400001928E-02 0.  1.
</event>
<event>
 5   0  0.2697964E-05  0.2788582E+04  0.7818609E-02  0.8306822E-01
        2   -1    0    0  501    0  0.00000000000E+00  0.00000000000E+00  0.14200027318E+04  0.14200027318E+04  0.25500000920E-02 0.  1.
       -2   -1    0    0    0  501  0.00000000000E+00  0.00000000000E+00 -0.13690449890E+04  0.13690449890E+04  0.25500000920E-02 0. -1.
    10030    2    1    2    0    0  0.00000000000E+00  0.00000000000E+00  0.50957742849E+02  0.27890477208E+04  0.27885821661E+04 0.  0.
        1    1    3    3  502    0  0.26277860725E+03 -0.90517354153E+03 -0.10021438225E+04  0.13757485154E+04  0.50400001928E-02 0. -1.
       -1    1    3    3    0  502 -0.26277860725E+03  0.90517354153E+03  0.10531015654E+04  0.14132992053E+04  0.50400001928E-02 0.  1.
</event>
<event>
 5   0  0.2518686E-05  0.2783729E+04  0.7818609E-02  0.8308338E-01
       -2   -1    0    0    0  501  0.00000000000E+00  0.00000000000E+00  0.87526748558E+03  0.87526748559E+03  0.25500000920E-02 0.  1.
        2   -1    0    0  501    0  0.00000000000E+00  0.00000000000E+00 -0.22133662022E+04  0.22133662022E+04  0.25500000920E-02 0. -1.
    10030    2    1    2    0    0  0.00000000000E+00  0.00000000000E+00 -0.13380987166E+04  0.30886336878E+04  0.27837294915E+04 0.  0.
        5    1    3    3  502    0  0.57836680725E+02 -0.26030830675E+02  0.87365448822E+03  0.87596628963E+03  0.46999998093E+01 0.  1.
       -5    1    3    3    0  502 -0.57836680725E+02  0.26030830675E+02 -0.22117532049E+04  0.22126673982E+04  0.46999998093E+01 0. -1.
</event>
<event>
 5   0  0.1017456E-05  0.2888012E+04  0.7818609E-02  0.8276453E-01
       -1   -1    0    0    0  501  0.00000000000E+00  0.00000000000E+00  0.11515848190E+04  0.11515848190E+04  0.50400001928E-02 0.  1.
        1   -1    0    0  501    0  0.00000000000E+00  0.00000000000E+00 -0.18106809396E+04  0.18106809396E+04  0.50400001928E-02 0. -1.
    10030    2    1    2    0    0  0.00000000000E+00  0.00000000000E+00 -0.65909612053E+03  0.29622657586E+04  0.28880115527E+04 0.  0.
        5    1    3    3  502    0 -0.12140071335E+03 -0.34007402091E+03  0.11045202131E+04  0.11620565666E+04  0.46999998093E+01 0.  1.
       -5    1    3    3    0  502  0.12140071335E+03  0.34007402091E+03 -0.17636163336E+04  0.18002091920E+04  0.46999998093E+01 0. -1.
</event>
<event>
 5   0  0.2651061E-05  0.2676890E+04  0.7818609E-02  0.8342543E-01
       -2   -1    0    0    0  501  0.00000000000E+00  0.00000000000E+00  0.15116457469E+04  0.15116457469E+04  0.25500000920E-02 0. -1.
        2   -1    0    0  501    0  0.00000000000E+00  0.00000000000E+00 -0.11850887479E+04  0.11850887480E+04  0.25500000920E-02 0.  1.
    10030    2    1    2    0    0  0.00000000000E+00  0.00000000000E+00  0.32655699897E+03  0.26967344949E+04  0.26768895125E+04 0.  0.
        3    1    3    3  502    0 -0.20652772624E+02 -0.12964753642E+04  0.49764181284E+03  0.13888564689E+04  0.10100000352E+00 0. -1.
       -3    1    3    3    0  502  0.20652772624E+02  0.12964753642E+04 -0.17108481387E+03  0.13078780260E+04  0.10100000352E+00 0.  1.
</event>
<event>
 5   0  0.1075146E-05  0.2754754E+04  0.7818609E-02  0.8317455E-01
        1   -1    0    0  501    0  0.00000000000E+00  0.00000000000E+00  0.14908847033E+04  0.14908847033E+04  0.50400001928E-02 0.  1.
       -1   -1    0    0    0  501  0.00000000000E+00  0.00000000000E+00 -0.12725107061E+04  0.12725107062E+04  0.50400001928E-02 0. -1.
    10030    2    1    2    0    0  0.00000000000E+00  0.00000000000E+00  0.21837399715E+03  0.27633954095E+04  0.27547535255E+04 0.  0.
        2    1    3    3  502    0  0.33816594460E+03  0.13280078781E+04 -0.29832080692E+02  0.13707118893E+04  0.25500000920E-02 0. -1.
       -2    1    3    3    0  502 -0.33816594460E+03 -0.13280078781E+04  0.24820607784E+03  0.13926835202E+04  0.25500000920E-02 0.  1.
</event>
<event>
 5   0  0.1078103E-05  0.2799470E+04  0.7818609E-02  0.8303433E-01
       -1   -1    0    0    0  501  0.00000000000E+00  0.00000000000E+00  0.19459222124E+04  0.19459222124E+04  0.50400001928E-02 0. -1.
        1   -1    0    0  501    0  0.00000000000E+00  0.00000000000E+00 -0.10068532735E+04  0.10068532735E+04  0.50400001928E-02 0.  1.
    10030    2    1    2    0    0  0.00000000000E+00  0.00000000000E+00  0.93906893893E+03  0.29527754859E+04  0.27994700567E+04 0.  0.
        1    1    3    3  502    0 -0.12955065427E+04 -0.14481158516E+03  0.10073086809E+04  0.16474156659E+04  0.50400001928E-02 0. -1.
       -1    1    3    3    0  502  0.12955065427E+04  0.14481158516E+03 -0.68239741995E+02  0.13053598201E+04  0.50400001928E-02 0.  1.
</event>
<event>
 5   0  0.1105862E-05  0.2511780E+04  0.7818609E-02  0.8398801E-01
       -1   -1    0    0    0  501  0.00000000000E+00  0.00000000000E+00  0.23216847814E+04  0.23216847814E+04  0.50400001928E-02 0. -1.
        1   -1    0    0  501    0  0.00000000000E+00  0.00000000000E+00 -0.67935991853E+03  0.67935991855E+03  0.50400001928E-02 0.  1.
    10030    2    1    2    0    0  0.00000000000E+00  0.00000000000E+00  0.16423248628E+04  0.30010446999E+04  0.25117799139E+04 0.  0.
        3    1    3    3  502    0 -0.12160270471E+04 -0.25895021025E+03  0.10331576476E+04  0.16165369546E+04  0.10100000352E+00 0.  1.
       -3    1    3    3    0  502  0.12160270471E+04  0.25895021025E+03  0.60916721526E+03  0.13845077453E+04  0.10100000352E+00 0. -1.
</event>
<event>
 5   0  0.1105862E-05  0.1506693E+04  0.7818609E-02  0.8880014E-01
       -1   -1    0    0    0  501  0.00000000000E+00  0.00000000000E+00  0.63938807126E+03  0.63938807128E+03  0.50400001928E-02 0.  1.
        1   -1    0    0  501    0  0.00000000000E+00  0.00000000000E+00 -0.88761630696E+03  0.88761630698E+03  0.50400001928E-02 0. -1.
    10030    2    1    2    0    0  0.00000000000E+00  0.00000000000E+00 -0.24822823570E+03  0.15270043783E+04  0.15066934374E+04 0.  0.
        3    1    3    3  502    0 -0.29138967979E+03  0.52185127942E+03 -0.58887483158E+03  0.83905320498E+03  0.10100000352E+00 0. -1.
       -3    1    3    3    0  502  0.29138967979E+03 -0.52185127942E+03  0.34064659588E+03  0.68795117327E+03  0.10100000352E+00 0.  1.
</event>
<event>
 5   0  0.2588048E-05  0.2661007E+04  0.7818609E-02  0.8347769E-01
       -2   -1    0    0    0  501  0.00000000000E+00  0.00000000000E+00  0.17620746942E+04  0.17620746942E+04  0.25500000920E-02 0.  1.
        2   -1    0    0  501    0  0.00000000000E+00  0.00000000000E+00 -0.10046337403E+04  0.10046337403E+04  0.25500000920E-02 0. -1.
    10030    2    1    2    0    0  0.00000000000E+00  0.00000000000E+00  0.75744095388E+03  0.27667084345E+04  0.26610070956E+04 0.  0.
        2    1    3    3  502    0  0.14789748547E+03 -0.11487389331E+03 -0.99086259127E+03  0.10084038637E+04  0.25500000920E-02 0. -1.
       -2    1    3    3    0  502 -0.14789748547E+03  0.11487389331E+03  0.17483035451E+04  0.17583045708E+04  0.25500000920E-02 0.  1.
</event>
<event>
 5   0  0.1017456E-05  0.2876143E+04  0.7818609E-02  0.8280011E-01
        1   -1    0    0  501    0  0.00000000000E+00  0.00000000000E+00  0.17913087037E+04  0.17913087037E+04  0.50400001928E-02 0.  1.
       -1   -1    0    0    0  501  0.00000000000E+00  0.00000000000E+00 -0.11544905735E+04  0.11544905735E+04  0.50400001928E-02 0. -1.
    10030    2    1    2    0    0  0.00000000000E+00  0.00000000000E+00  0.63681813025E+03  0.29457992772E+04  0.28761425644E+04 0.  0.
        5    1    3    3  502    0 -0.56486749646E+03  0.10350663250E+04  0.11615031134E+04  0.16551583484E+04  0.46999998093E+01 0.  1.
       -5    1    3    3    0  502  0.56486749646E+03 -0.10350663250E+04 -0.52468498313E+03  0.12906409289E+04  0.46999998093E+01 0. -1.
</event>
<event>
 5   0  0.2518686E-05  0.2781904E+04  0.7818609E-02  0.8308909E-01
       -2   -1    0    0    0  501  0.00000000000E+00  0.00000000000E+00  0.26178217518E+04  0.26178217518E+04  0.25500000920E-02 0.  1.
        2   -1    0    0  501    0  0.00000000000E+00  0.00000000000E+00 -0.73906760450E+03  0.73906760450E+03  0.25500000920E-02 0. -1.
    10030    2    1    2    0    0  0.00000000000E+00  0.00000000000E+00  0.18787541473E+04  0.33568893563E+04  0.27819038453E+04 0.  0.
        5    1    3    3  502    0  0.29694890774E+03 -0.12187270588E+04  0.21410766582E+03  0.12725323101E+04  0.46999998093E+01 0. -1.
       -5    1    3    3    0  502 -0.29694890774E+03  0.12187270588E+04  0.16646464814E+04  0.20843570462E+04  0.46999998093E+01 0.  1.
</event>
<event>
 5   0  0.1075146E-05  0.1773523E+04  0.7818609E-02  0.8720508E-01
       -1   -1    0    0    0  501  0.00000000000E+00  0.00000000000E+00  0.55673442498E+03  0.55673442500E+03  0.50400001928E-02 0.  1.
        1   -1    0    0  501    0  0.00000000000E+00  0.00000000000E+00 -0.14124261381E+04  0.14124261381E+04  0.50400001928E-02 0. -1.
    10030    2    1    2    0    0  0.00000000000E+00  0.00000000000E+00 -0.85569171313E+03  0.19691605631E+04  0.17735233338E+04 0.  0.
        2    1    3    3  502    0 -0.86237697407E+03  0.18461735679E+03 -0.53062385872E+03  0.10292420965E+04  0.25500000920E-02 0.  1.
       -2    1    3    3    0  502  0.86237697407E+03 -0.18461735679E+03 -0.32506785441E+03  0.93991846658E+03  0.25500000920E-02 0. -1.
</event>
<event>
 5   0  0.8958000E-06  0.1748978E+04  0.7818609E-02  0.8733913E-01
       -4   -1    0    0    0  501  0.00000000000E+00  0.00000000000E+00  0.92460826484E+03  0.92460913705E+03  0.12699999809E+01 0. -1.
        4   -1    0    0  501    0  0.00000000000E+00  0.00000000000E+00 -0.82708493168E+03  0.82708590673E+03  0.12699999809E+01 0.  1.
    10030    2    1    2    0    0  0.00000000000E+00  0.00000000000E+00  0.97523333170E+02  0.17516950438E+04  0.17489781948E+04 0.  0.
        2    1    3    3  502    0  0.28274973296E+03 -0.20930299034E+03 -0.75309177959E+03  0.83120537880E+03  0.25500000920E-02 0.  1.
       -2    1    3    3    0  502 -0.28274973296E+03  0.20930299034E+03  0.85061511276E+03  0.92048966497E+03  0.25500000920E-02 0. -1.
</event>
<event>
 5   0  0.1078103E-05  0.2779212E+04  0.7818609E-02  0.8309751E-01
        1   -1    0    0  501    0  0.00000000000E+00  0.00000000000E+00  0.24209298779E+04  0.24209298779E+04  0.50400001928E-02 0.  1.
       -1   -1    0    0    0  501  0.00000000000E+00  0.00000000000E+00 -0.79762931690E+03  0.79762931692E+03  0.50400001928E-02 0. -1.
    10030    2    1    2    0    0  0.00000000000E+00  0.00000000000E+00  0.16233005610E+04  0.32185591948E+04  0.27792118630E+04 0.  0.
        1    1    3    3  502    0  0.18614866279E+03 -0.59147632452E+03  0.22518279836E+04  0.23356422746E+04  0.50400001928E-02 0.  1.
       -1    1    3    3    0  502 -0.18614866279E+03  0.59147632452E+03 -0.62852742257E+03  0.88291692026E+03  0.50400001928E-02 0. -1.
</event>
<event>
 5   0  0.1075146E-05  0.2708267E+04  0.7818609E-02  0.8332328E-01
       -1   -1    0    0    0  501  0.00000000000E+00  0.00000000000E+00  0.70113398442E+03  0.70113398443E+03  0.50400001928E-02 0.  1.
        1   -1    0    0  501    0  0.00000000000E+00  0.00000000000E+00 -0.26153027524E+04  0.26153027524E+04  0.50400001928E-02 0. -1.
    10030    2    1    2    0    0  0.00000000000E+00  0.00000000000E+00 -0.19141687680E+04  0.33164367368E+04  0.27082670764E+04 0.  0.
        2    1    3    3  502    0  0.10682076031E+03  0.48258459619E+03  0.58672605125E+03  0.76716753485E+03  0.25500000920E-02 0.  1.
       -2    1    3    3    0  502 -0.10682076031E+03 -0.48258459619E+03 -0.25008948192E+04  0.25492692020E+04  0.25500000920E-02 0. -1.
</event>
<event>
 5   0  0.2697964E-05  0.2815021E+04  0.7818609E-02  0.8298620E-01
        2   -1    0    0  501    0  0.00000000000E+00  0.00000000000E+00  0.11952788201E+04  0.11952788201E+04  0.25500000920E-02 0. -1.
       -2   -1    0    0    0  501  0.00000000000E+00  0.00000000000E+00 -0.16574255041E+04  0.16574255041E+04  0.25500000920E-02 0.  1.
    10030    2    1    2    0    0  0.00000000000E+00  0.00000000000E+00 -0.46214668399E+03  0.28527043243E+04  0.28150208532E+04 0.  0.
        1    1    3    3  502    0 -0.53274309695E+03 -0.46071693913E+03  0.10038496498E+04  0.12262909217E+04  0.50400001928E-02 0. -1.
       -1    1    3    3    0  502  0.53274309695E+03  0.46071693913E+03 -0.14659963338E+04  0.16264134025E+04  0.50400001928E-02 0.  1.
</event>
<event>
 5   0  0.2697964E-05  0.2703356E+04  0.7818609E-02  0.8333917E-01
        2   -1    0    0  501    0  0.00000000000E+00  0.00000000000E+00  0.17731462220E+04  0.17731462220E+04  0.25500000920E-02 0. -1.
       -2   -1    0    0    0  501  0.00000000000E+00  0.00000000000E+00 -0.10303904506E+04  0.10303904506E+04  0.25500000920E-02 0.  1.
    10030    2    1    2    0    0  0.00000000000E+00  0.00000000000E+00  0.74275577138E+03  0.28035366726E+04  0.27033556441E+04 0.  0.
        1    1    3    3  502    0 -0.86416882875E+03  0.30855491815E+03 -0.65789321156E+03  0.11290781106E+04  0.50400001928E-02 0.  1.
       -1    1    3    3    0  502  0.86416882875E+03 -0.30855491815E+03  0.14006489829E+04  0.16744585619E+04  0.50400001928E-02 0. -1.
</event>
<event>
 5   0  0.8958000E-06  0.2764298E+04  0.7818609E-02  0.8314439E-01
       -3   -1    0    0    0  501  0.00000000000E+00  0.00000000000E+00  0.20629039337E+04  0.20629039362E+04  0.10100000352E+00 0.  1.
        3   -1    0    0  501    0  0.00000000000E+00  0.00000000000E+00 -0.92604240127E+03  0.92604240678E+03  0.10100000352E+00 0. -1.
    10030    2    1    2    0    0  0.00000000000E+00  0.00000000000E+00  0.11368615324E+04  0.29889463429E+04  0.27642984819E+04 0.  0.
        1    1    3    3  502    0 -0.32988923364E+03  0.95334384216E+03 -0.45314975853E+03  0.11059096218E+04  0.50400001928E-02 0. -1.
       -1    1    3    3    0  502  0.32988923364E+03 -0.95334384216E+03  0.15900112909E+04  0.18830367212E+04  0.50400001928E-02 0.  1.
</event>
<event>
 5   0  0.1067434E-05  0.2662005E+04  0.7818609E-02  0.8347439E-01
        1   -1    0    0  501    0  0.00000000000E+00  0.00000000000E+00  0.18589871113E+04  0.18589871113E+04  0.50400001928E-02 0. -1.
       -1   -1    0    0    0  501  0.00000000000E+00  0.00000000000E+00 -0.95297465583E+03  0.95297465584E+03  0.50400001928E-02 0.  1.
    10030    2    1    2    0    0  0.00000000000E+00  0.00000000000E+00  0.90601245548E+03  0.28119617672E+04  0.26620049606E+04 0.  0.
        4    1    3    3  502    0  0.11753096280E+04  0.33546010331E+03 -0.10363155952E+03  0.12266325104E+04  0.12699999809E+01 0.  1.
       -4    1    3    3    0  502 -0.11753096280E+04 -0.33546010331E+03  0.10096440150E+04  0.15853292568E+04  0.12699999809E+01 0. -1.
</event>
<event>
 5   0  0.2518686E-05  0.2713433E+04  0.7818609E-02  0.8330660E-01
        2   -1    0    0  501    0  0.00000000000E+00  0.00000000000E+00  0.22725435426E+04  0.22725435426E+04  0.25500000920E-02 0. -1.
       -2   -1    0    0    0  501  0.00000000000E+00  0.00000000000E+00 -0.80996453167E+03  0.80996453167E+03  0.25500000920E-02 0.  1.
    10030    2    1    2    0    0  0.00000000000E+00  0.00000000000E+00  0.14625790109E+04  0.30825080742E+04  0.27134330035E+04 0.  0.
        5    1    3    3  502    0  0.62773342685E+03 -0.70798811889E+03  0.18358359804E+04  0.20653358730E+04  0.46999998093E+01 0. -1.
       -5    1    3    3    0  502 -0.62773342685E+03  0.70798811889E+03 -0.37325696946E+03  0.10171722012E+04  0.46999998093E+01 0.  1.
</event>
<event>
 5   0  0.1017456E-05  0.3937177E+04  0.7818609E-02  0.8017341E-01
       -1   -1    0    0    0  501  0.00000000000E+00  0.00000000000E+00  0.34745312172E+04  0.34745312172E+04  0.50400001928E-02 0. -1.
        1   -1    0    0  501    0  0.00000000000E+00  0.00000000000E+00 -0.11153561844E+04  0.11153561845E+04  0.50400001928E-02 0.  1.
    10030    2    1    2    0    0  0.00000000000E+00  0.00000000000E+00  0.23591750328E+04  0.45898874017E+04  0.39371765930E+04 0.  0.
        5    1    3    3  502    0  0.15077736234E+04 -0.97181829420E+03  0.23429352704E+03  0.18090681699E+04  0.46999998093E+01 0.  1.
       -5    1    3    3    0  502 -0.15077736234E+04  0.97181829420E+03  0.21248815057E+04  0.27808192318E+04  0.46999998093E+01 0. -1.
</event>
<event>
 5   0  0.1075146E-05  0.2795922E+04  0.7818609E-02  0.8304536E-01
       -1   -1    0    0    0  501  0.00000000000E+00  0.00000000000E+00  0.12238829917E+04  0.12238829917E+04  0.50400001928E-02 0.  1.
        1   -1    0    0  501    0  0.00000000000E+00  0.00000000000E+00 -0.15967984647E+04  0.15967984647E+04  0.50400001928E-02 0. -1.
    10030    2    1    2    0    0  0.00000000000E+00  0.00000000000E+00 -0.37291547299E+03  0.28206814564E+04  0.27959216599E+04 0.  0.
        2    1    3    3  502    0 -0.95106578826E+02  0.12610620736E+04 -0.78752889570E+03  0.14898068923E+04  0.25500000920E-02 0. -1.
       -2    1    3    3    0  502  0.95106578826E+02 -0.12610620736E+04  0.41461342271E+03  0.13308745640E+04  0.25500000920E-02 0.  1.
</event>
<event>
 5   0  0.2518686E-05  0.2843254E+04  0.7818609E-02  0.8289964E-01
        2   -1    0    0  501    0  0.00000000000E+00  0.00000000000E+00  0.18205098809E+04  0.18205098809E+04  0.25500000920E-02 0. -1.
       -2   -1    0    0    0  501  0.00000000000E+00  0.00000000000E+00 -0.11101416135E+04  0.11101416135E+04  0.25500000920E-02 0.  1.
    10030    2    1    2    0    0  0.00000000000E+00  0.00000000000E+00  0.71036826749E+03  0.29306514944E+04  0.28432543161E+04 0.  0.
        5    1    3    3  502    0  0.25641050593E+03 -0.10836800711E+04 -0.55566026160E+03  0.12445437960E+04  0.46999998093E+01 0.  1.
       -5    1    3    3    0  502 -0.25641050593E+03  0.10836800711E+04  0.12660285291E+04  0.16861076983E+04  0.46999998093E+01 0. -1.
</event>
<event>
 5   0  0.2697964E-05  0.2733403E+04  0.7818609E-02  0.8324248E-01
        2   -1    0    0  501    0  0.00000000000E+00  0.00000000000E+00  0.25133297615E+04  0.25133297615E+04  0.25500000920E-02 0. -1.
       -2   -1    0    0    0  501  0.00000000000E+00  0.00000000000E+00 -0.74318642359E+03  0.74318642359E+03  0.25500000920E-02 0.  1.
    10030    2    1    2    0    0  0.00000000000E+00  0.00000000000E+00  0.17701433379E+04  0.32565161851E+04  0.27334026829E+04 0.  0.
        1    1    3    3  502    0  0.41137387336E+03  0.11582628265E+04  0.17315836682E+03  0.12412836335E+04  0.50400001928E-02 0.  1.
       -1    1    3    3    0  502 -0.41137387336E+03 -0.11582628265E+04  0.15969849711E+04  0.20152325515E+04  0.50400001928E-02 0. -1.
</event>
<event>
 5   0  0.1075146E-05  0.2868128E+04  0.7818609E-02  0.8282424E-01
        1   -1    0    0  501    0  0.00000000000E+00  0.00000000000E+00  0.13876592421E+04  0.13876592421E+04  0.50400001928E-02 0. -1.
       -1   -1    0    0    0  501  0.00000000000E+00  0.00000000000E+00 -0.14820201182E+04  0.14820201182E+04  0.50400001928E-02 0.  1.
    10030    2    1    2    0    0  0.00000000000E+00  0.00000000000E+00 -0.94360876113E+02  0.28696793603E+04  0.28681275523E+04 0.  0.
        2    1    3    3  502    0 -0.14160797111E+04  0.22446923120E+03 -0.76704540191E+02  0.14358104925E+04  0.25500000920E-02 0.  1.
       -2    1    3    3    0  502  0.14160797111E+04 -0.22446923120E+03 -0.17656335922E+02  0.14338688678E+04  0.25500000920E-02 0. -1.
</event>
<event>
 5   0  0.1017456E-05  0.1496891E+04  0.7818609E-02  0.8886523E-01
       -1   -1    0    0    0  501  0.00000000000E+00  0.00000000000E+00  0.10629864423E+04  0.10629864423E+04  0.50400001928E-02 0. -1.
        1   -1    0    0  501    0  0.00000000000E+00  0.00000000000E+00 -0.52697793866E+03  0.52697793868E+03  0.50400001928E-02 0.  1.
    10030    2    1    2    0    0  0.00000000000E+00  0.00000000000E+00  0.53600850359E+03  0.15899643809E+04  0.14968906496E+04 0.  0.
        5    1    3    3  502    0  0.47899924003E+03  0.35318471474E+03 -0.21405211992E+03  0.63247143392E+03  0.46999998093E+01 0.  1.
       -5    1    3    3    0  502 -0.47899924003E+03 -0.35318471474E+03  0.75006062351E+03  0.95749294703E+03  0.46999998093E+01 0. -1.
</event>
<event>
 5   0  0.1105862E-05  0.1792057E+04  0.7818609E-02  0.8710535E-01
       -1   -1    0    0    0  501  0.00000000000E+00  0.00000000000E+00  0.10151743223E+04  0.10151743224E+04  0.50400001928E-02 0.  1.
        1   -1    0    0  501    0  0.00000000000E+00  0.00000000000E+00 -0.79086617640E+03  0.79086617642E+03  0.50400001928E-02 0. -1.
    10030    2    1    2    0    0  0.00000000000E+00  0.00000000000E+00  0.22430814594E+03  0.18060404988E+04  0.17920569575E+04 0.  0.
        3    1    3    3  502    0  0.42788079978E+03 -0.33139847358E+03  0.83184126464E+03  0.99240456814E+03  0.10100000352E+00 0.  1.
       -3    1    3    3    0  502 -0.42788079978E+03  0.33139847358E+03 -0.60753311869E+03  0.81363593064E+03  0.10100000352E+00 0. -1.
</event>
<event>
 5   0  0.1105862E-05  0.2638838E+04  0.7818609E-02  0.8355127E-01
        1   -1    0    0  501    0  0.00000000000E+00  0.00000000000E+00  0.20767482669E+04  0.20767482669E+04  0.50400001928E-02 0.  1.
       -1   -1    0    0    0  501  0.00000000000E+00  0.00000000000E+00 -0.83826561140E+03  0.83826561141E+03  0.50400001928E-02 0. -1.
    10030    2    1    2    0    0  0.00000000000E+00  0.00000000000E+00  0.12384826555E+04  0.29150138783E+04  0.26388381199E+04 0.  0.
        3    1    3    3  502    0 -0.23638783937E+03 -0.55235224738E+03 -0.67838846583E+03  0.90619155622E+03  0.10100000352E+00 0. -1.
       -3    1    3    3    0  502  0.23638783937E+03  0.55235224738E+03  0.19168711213E+04  0.20088223221E+04  0.10100000352E+00 0.  1.
</event>
<event>
 5   0  0.1017456E-05  0.3203891E+04  0.7818609E-02  0.8187790E-01
       -1   -1    0    0    0  501  0.00000000000E+00  0.00000000000E+00  0.13100245736E+04  0.13100245736E+04  0.50400001928E-02 0.  1.
        1   -1    0    0  501    0  0.00000000000E+00  0.00000000000E+00 -0.19589173262E+04  0.19589173262E+04  0.50400001928E-02 0. -1.
    10030    2    1    2    0    0  0.00000000000E+00  0.00000000000E+00 -0.64889275259E+03  0.32689418998E+04  0.32038912809E+04 0.  0.
        5    1    3    3  502    0  0.10370344299E+04 -0.11549404303E+04  0.79676221990E+02  0.15542516517E+04  0.46999998093E+01 0.  1.
       -5    1    3    3    0  502 -0.10370344299E+04  0.11549404303E+04 -0.72856897458E+03  0.17146902482E+04  0.46999998093E+01 0. -1.
</event>
<event>
 5   0  0.1067434E-05  0.2915101E+04  0.7818609E-02  0.8268399E-01
        1   -1    0    0  501    0  0.00000000000E+00  0.00000000000E+00  0.22067400552E+04  0.22067400552E+04  0.50400001928E-02 0. -1.
       -1   -1    0    0    0  501  0.00000000000E+00  0.00000000000E+00 -0.96271140695E+03  0.96271140697E+03  0.50400001928E-02 0.  1.
    10030    2    1    2    0    0  0.00000000000E+00  0.00000000000E+00  0.12440286483E+04  0.31694514622E+04  0.29151012493E+04 0.  0.
        4    1    3    3  502    0 -0.84093123001E+03 -0.50093533932E+03 -0.55219366769E+03  0.11238420740E+04  0.12699999809E+01 0. -1.
       -4    1    3    3    0  502  0.84093123001E+03  0.50093533932E+03  0.17962223159E+04  0.20456093882E+04  0.12699999809E+01 0.  1.
</event>
<event>
 5   0  0.1017456E-05  0.2834990E+04  0.7818609E-02  0.8292487E-01
       -1   -1    0    0    0  501  0.00000000000E+00  0.00000000000E+00  0.92972697390E+03  0.92972697392E+03  0.50400001928E-02 0.  1.
        1   -1    0    0  501    0  0.00000000000E+00  0.00000000000E+00 -0.21611642784E+04  0.21611642784E+04  0.50400001928E-02 0. -1.
    10030    2    1    2    0    0  0.00000000000E+00  0.00000000000E+00 -0.12314373045E+04  0.30908912523E+04  0.28349904583E+04 0.  0.
        5    1    3    3  502    0  0.12858693172E+04 -0.41339487775E+03 -0.14688511052E+03  0.13586583646E+04  0.46999998093E+01 0.  1.
       -5    1    3    3    0  502 -0.12858693172E+04  0.41339487775E+03 -0.10845521940E+04  0.17322328878E+04  0.46999998093E+01 0. -1.
</event>
<event>
 5   0  0.2624815E-05  0.2821901E+04  0.7818609E-02  0.8296501E-01
       -2   -1    0    0    0  501  0.00000000000E+00  0.00000000000E+00  0.12511812394E+04  0.12511812394E+04  0.25500000920E-02 0.  1.
        2   -1    0    0  501    0  0.00000000000E+00  0.00000000000E+00 -0.15911210094E+04  0.15911210094E+04  0.25500000920E-02 0. -1.
    10030    2    1    2    0    0  0.00000000000E+00  0.00000000000E+00 -0.33993977000E+03  0.28423022489E+04  0.28219006054E+04 0.  0.
        4    1    3    3  502    0  0.17866678552E+03 -0.90057300741E+02  0.12368192986E+04  0.12528989297E+04  0.12699999809E+01 0.  1.
       -4    1    3    3    0  502 -0.17866678552E+03  0.90057300741E+02 -0.15767590686E+04  0.15894033192E+04  0.12699999809E+01 0. -1.
</event>
<event>
 5   0  0.1017456E-05  0.1523732E+04  0.7818609E-02  0.8868823E-01
        1   -1    0    0  501    0  0.00000000000E+00  0.00000000000E+00  0.79567635432E+03  0.79567635433E+03  0.50400001928E-02 0. -1.
       -1   -1    0    0    0  501  0.00000000000E+00  0.00000000000E+00 -0.72949195928E+03  0.72949195929E+03  0.50400001928E-02 0.  1.
    10030    2    1    2    0    0  0.00000000000E+00  0.00000000000E+00  0.66184395041E+02  0.15251683136E+04  0.15237316072E+04 0.  0.
        5    1    3    3  502    0 -0.24259568290E+02  0.19999846095E+03 -0.70233147481E+03  0.73067058346E+03  0.46999998093E+01 0.  1.
       -5    1    3    3    0  502  0.24259568290E+02 -0.19999846095E+03  0.76851586985E+03  0.79449773017E+03  0.46999998093E+01 0. -1.
</event>
<event>
 5   0  0.2651061E-05  0.2801685E+04  0.7818609E-02  0.8302745E-01
       -2   -1    0    0    0  501  0.00000000000E+00  0.00000000000E+00  0.13915951034E+04  0.13915951034E+04  0.25500000920E-02 0. -1.
        2   -1    0    0  501    0  0.00000000000E+00  0.00000000000E+00 -0.14101518197E+04  0.14101518197E+04  0.25500000920E-02 0.  1.
    10030    2    1    2    0    0  0.00000000000E+00  0.00000000000E+00 -0.18556716222E+02  0.28017469231E+04  0.28016854694E+04 0.  0.
        3    1    3    3  502    0  0.83558986270E+01 -0.13949732837E+04 -0.13710946088E+03  0.14017201210E+04  0.10100000352E+00 0.  1.
       -3    1    3    3    0  502 -0.83558986270E+01  0.13949732837E+04  0.11855274466E+03  0.14000268021E+04  0.10100000352E+00 0. -1.
</event>
<event>
 5   0  0.2651061E-05  0.2801225E+04  0.7818609E-02  0.8302888E-01
       -2   -1    0    0    0  501  0.00000000000E+00  0.00000000000E+00  0.13905144738E+04  0.13905144738E+04  0.25500000920E-02 0. -1.
        2   -1    0    0  501    0  0.00000000000E+00  0.00000000000E+00 -0.14107835211E+04  0.14107835211E+04  0.25500000920E-02 0.  1.
    10030    2    1    2    0    0  0.00000000000E+00  0.00000000000E+00 -0.20269047309E+02  0.28012979950E+04  0.28012246648E+04 0.  0.
        3    1    3    3  502    0 -0.26301468869E+03 -0.12433262488E+04 -0.59894362591E+03  0.14049093795E+04  0.10100000352E+00 0.  1.
       -3    1    3    3    0  502  0.26301468869E+03  0.12433262488E+04  0.57867457861E+03  0.13963886155E+04  0.10100000352E+00 0. -1.
</event>
<event>
 5   0  0.8958000E-06  0.2771247E+04  0.7818609E-02  0.8312251E-01
       -4   -1    0    0    0  501  0.00000000000E+00  0.00000000000E+00  0.15101603174E+04  0.15101608514E+04  0.12699999809E+01 0. -1.
        4   -1    0    0  501    0  0.00000000000E+00  0.00000000000E+00 -0.12713559062E+04  0.12713565405E+04  0.12699999809E+01 0.  1.
    10030    2    1    2    0    0  0.00000000000E+00  0.00000000000E+00  0.23880441122E+03  0.27815173919E+04  0.27712472741E+04 0.  0.
        4    1    3    3  502    0  0.12626042761E+04 -0.50657781956E+03 -0.14455644170E+03  0.13680967886E+04  0.12699999809E+01 0. -1.
       -4    1    3    3    0  502 -0.12626042761E+04  0.50657781956E+03  0.38336085292E+03  0.14134206033E+04  0.12699999809E+01 0.  1.
</event>
<event>
 5   0  0.2518686E-05  0.2799588E+04  0.7818609E-02  0.8303396E-01
       -2   -1    0    0    0  501  0.00000000000E+00  0.00000000000E+00  0.10909506853E+04  0.10909506853E+04  0.25500000920E-02 0. -1.
        2   -1    0    0  501    0  0.00000000000E+00  0.00000000000E+00 -0.17960697174E+04  0.17960697174E+04  0.25500000920E-02 0.  1.
    10030    2    1    2    0    0  0.00000000000E+00  0.00000000000E+00 -0.70511903205E+03  0.28870204027E+04  0.27995881762E+04 0.  0.
        5    1    3    3  502    0 -0.45783000832E+03  0.95512283388E+03  0.59119009203E+03  0.12130110301E+04  0.46999998093E+01 0. -1.
       -5    1    3    3    0  502  0.45783000832E+03 -0.95512283388E+03 -0.12963091241E+04  0.16740093726E+04  0.46999998093E+01 0.  1.
</event>
<event>
 5   0  0.1017456E-05  0.2761316E+04  0.7818609E-02  0.8315380E-01
       -1   -1    0    0    0  501  0.00000000000E+00  0.00000000000E+00  0.14779623726E+04  0.14779623726E+04  0.50400001928E-02 0.  1.
        1   -1    0    0  501    0  0.00000000000E+00  0.00000000000E+00 -0.12897598768E+04  0.12897598768E+04  0.50400001928E-02 0. -1.
    10030    2    1    2    0    0  0.00000000000E+00  0.00000000000E+00  0.18820249583E+03  0.27677222494E+04  0.27613160396E+04 0.  0.
        5    1    3    3  502    0  0.60132954666E+03 -0.44488135379E+03  0.12572579984E+04  0.14629546839E+04  0.46999998093E+01 0.  1.
       -5    1    3    3    0  502 -0.60132954666E+03  0.44488135379E+03 -0.10690555025E+04  0.13047675656E+04  0.46999998093E+01 0. -1.
</event>
<event>
 5   0  0.1075146E-05  0.2812872E+04  0.7818609E-02  0.8299283E-01
       -1   -1    0    0    0  501  0.00000000000E+00  0.00000000000E+00  0.99195675811E+03  0.99195675812E+03  0.50400001928E-02 0. -1.
        1   -1    0    0  501    0  0.00000000000E+00  0.00000000000E+00 -0.19941007840E+04  0.19941007840E+04  0.50400001928E-02 0.  1.
    10030    2    1    2    0    0  0.00000000000E+00  0.00000000000E+00 -0.10021440259E+04  0.29860575421E+04  0.28128716636E+04 0.  0.
        2    1    3    3  502    0 -0.56835203467E+03  0.10325258563E+04 -0.13157376192E+04  0.17664368547E+04  0.25500000920E-02 0.  1.
       -2    1    3    3    0  502  0.56835203467E+03 -0.10325258563E+04  0.31359359335E+03  0.12196206873E+04  0.25500000920E-02 0. -1.
</event>
<event>
 5   0  0.2518686E-05  0.2832847E+04  0.7818609E-02  0.8293143E-01
        2   -1    0    0  501    0  0.00000000000E+00  0.00000000000E+00  0.23930275253E+04  0.23930275253E+04  0.25500000920E-02 0. -1.
       -2   -1    0    0    0  501  0.00000000000E+00  0.00000000000E+00 -0.83837568288E+03  0.83837568288E+03  0.25500000920E-02 0.  1.
    10030    2    1    2    0    0  0.00000000000E+00  0.00000000000E+00  0.15546518425E+04  0.32314032082E+04  0.28328473914E+04 0.  0.
        5    1    3    3  502    0 -0.17217276005E+03  0.18631512125E+03 -0.81224114161E+03  0.85094920285E+03  0.46999998093E+01 0.  1.
       -5    1    3    3    0  502  0.17217276005E+03 -0.18631512125E+03  0.23668929841E+04  0.23804540054E+04  0.46999998093E+01 0. -1.
</event>
<event>
 5   0  0.2697964E-05  0.2736854E+04  0.7818609E-02  0.8323145E-01
       -2   -1    0    0    0  501  0.00000000000E+00  0.00000000000E+00  0.13419649762E+04  0.13419649762E+04  0.25500000920E-02 0.  1.
        2   -1    0    0  501    0  0.00000000000E+00  0.00000000000E+00 -0.13954103669E+04  0.13954103669E+04  0.25500000920E-02 0. -1.
    10030    2    1    2    0    0  0.00000000000E+00  0.00000000000E+00 -0.53445390760E+02  0.27373753431E+04  0.27368535509E+04 0.  0.
        1    1    3    3  502    0 -0.35558025681E+03  0.53118636440E+03  0.11834648329E+04  0.13450595836E+04  0.50400001928E-02 0.  1.
       -1    1    3    3    0  502  0.35558025681E+03 -0.53118636440E+03 -0.12369102236E+04  0.13923157595E+04  0.50400001928E-02 0. -1.
</event>
<event>
 5   0  0.1075146E-05  0.1671063E+04  0.7818609E-02  0.8778042E-01
       -1   -1    0    0    0  501  0.00000000000E+00  0.00000000000E+00  0.95215454291E+03  0.95215454293E+03  0.50400001928E-02 0. -1.
        1   -1    0    0  501    0  0.00000000000E+00  0.00000000000E+00 -0.73319278501E+03  0.73319278503E+03  0.50400001928E-02 0.  1.
    10030    2    1    2    0    0  0.00000000000E+00  0.00000000000E+00  0.21896175790E+03  0.16853473280E+04  0.16710629445E+04 0.  0.
        2    1    3    3  502    0 -0.13842764205E+03  0.48825738814E+02  0.93904872304E+03  0.95045182366E+03  0.25500000920E-02 0. -1.
       -2    1    3    3    0  502  0.13842764205E+03 -0.48825738814E+02 -0.72008696514E+03  0.73489550429E+03  0.25500000920E-02 0.  1.
</event>
<event>
 5   0  0.2697964E-05  0.2593354E+04  0.7818609E-02  0.8370462E-01
        2   -1    0    0  501    0  0.00000000000E+00  0.00000000000E+00  0.16965503988E+04  0.16965503988E+04  0.25500000920E-02 0.  1.
       -2   -1    0    0    0  501  0.00000000000E+00  0.00000000000E+00 -0.99105258734E+03  0.99105258735E+03  0.25500000920E-02 0. -1.
    10030    2    1    2    0    0  0.00000000000E+00  0.00000000000E+00  0.70549781147E+03  0.26876029862E+04  0.25933535527E+04 0.  0.
        1    1    3    3  502    0 -0.59557839635E+03 -0.77897723184E+02  0.15436816089E+04  0.16564222261E+04  0.50400001928E-02 0.  1.
       -1    1    3    3    0  502  0.59557839635E+03  0.77897723184E+02 -0.83818379747E+03  0.10311807600E+04  0.50400001928E-02 0. -1.
</event>
<event>
 5   0  0.1067434E-05  0.2719766E+04  0.7818609E-02  0.8328620E-01
       -1   -1    0    0    0  501  0.00000000000E+00  0.00000000000E+00  0.12892231362E+04  0.12892231362E+04  0.50400001928E-02 0. -1.
        1   -1    0    0  501    0  0.00000000000E+00  0.00000000000E+00 -0.14344158344E+04  0.14344158344E+04  0.50400001928E-02 0.  1.
    10030    2    1    2    0    0  0.00000000000E+00  0.00000000000E+00 -0.14519269815E+03  0.27236389706E+04  0.27197662257E+04 0.  0.
        4    1    3    3  502    0  0.58635600675E+03 -0.43252403267E+03  0.10772502991E+04  0.13005230583E+04  0.12699999809E+01 0. -1.
       -4    1    3    3    0  502 -0.58635600675E+03  0.43252403267E+03 -0.12224429972E+04  0.14231159123E+04  0.12699999809E+01 0.  1.
</event>
<event>
 5   0  0.2651061E-05  0.1376069E+04  0.7818609E-02  0.8971325E-01
        2   -1    0    0  501    0  0.00000000000E+00  0.00000000000E+00  0.10351260186E+04  0.10351260186E+04  0.25500000920E-02 0.  1.
       -2   -1    0    0    0  501  0.00000000000E+00  0.00000000000E+00 -0.45732770285E+03  0.45732770285E+03  0.25500000920E-02 0. -1.
    10030    2    1    2    0    0  0.00000000000E+00  0.00000000000E+00  0.57779831571E+03  0.14924537214E+04  0.13760694811E+04 0.  0.
        3    1    3    3  502    0 -0.50448856799E+02 -0.55760019351E+03  0.72263344597E+03  0.91414559583E+03  0.10100000352E+00 0.  1.
       -3    1    3    3    0  502  0.50448856799E+02  0.55760019351E+03 -0.14483513026E+03  0.57830812558E+03  0.10100000352E+00 0. -1.
</event>
<event>
 5   0  0.1067434E-05  0.2862838E+04  0.7818609E-02  0.8284021E-01
       -1   -1    0    0    0  501  0.00000000000E+00  0.00000000000E+00  0.93930473330E+03  0.93930473331E+03  0.50400001928E-02 0.  1.
        1   -1    0    0  501    0  0.00000000000E+00  0.00000000000E+00 -0.21813579751E+04  0.21813579751E+04  0.50400001928E-02 0. -1.
    10030    2    1    2    0    0  0.00000000000E+00  0.00000000000E+00 -0.12420532418E+04  0.31206627084E+04  0.28628376629E+04 0.  0.
        4    1    3    3  502    0 -0.91520174033E+03  0.93209180822E+03 -0.12590316054E+04  0.18142633659E+04  0.12699999809E+01 0. -1.
       -4    1    3    3    0  502  0.91520174033E+03 -0.93209180822E+03  0.16978363606E+02  0.13063993425E+04  0.12699999809E+01 0.  1.
</event>
<event>
 5   0  0.2651061E-05  0.2438619E+04  0.7818609E-02  0.8425185E-01
       -2   -1    0    0    0  501  0.00000000000E+00  0.00000000000E+00  0.81245135059E+03  0.81245135059E+03  0.25500000920E-02 0.  1.
        2   -1    0    0  501    0  0.00000000000E+00  0.00000000000E+00 -0.18299130053E+04  0.18299130054E+04  0.25500000920E-02 0. -1.
    10030    2    1    2    0    0  0.00000000000E+00  0.00000000000E+00 -0.10174616548E+04  0.26423643559E+04  0.24386187014E+04 0.  0.
        3    1    3    3  502    0  0.76402451731E+03  0.42738347130E+02  0.51987412662E+03  0.92511034320E+03  0.10100000352E+00 0.  1.
       -3    1    3    3    0  502 -0.76402451731E+03 -0.42738347130E+02 -0.15373357814E+04  0.17172540127E+04  0.10100000352E+00 0. -1.
</event>
<event>
 5   0  0.2624815E-05  0.1408774E+04  0.7818609E-02  0.8947492E-01
        2   -1    0    0  501    0  0.00000000000E+00  0.00000000000E+00  0.58139052230E+03  0.58139052230E+03  0.25500000920E-02 0. -1.
       -2   -1    0    0    0  501  0.00000000000E+00  0.00000000000E+00 -0.85340431234E+03  0.85340431234E+03  0.25500000920E-02 0.  1.
    10030    2    1    2    0    0  0.00000000000E+00  0.00000000000E+00 -0.27201379004E+03  0.14347948346E+04  0.14087741890E+04 0.  0.
        4    1    3    3  502    0 -0.39318824800E+03  0.20981385838E+03 -0.69155493251E+03  0.82272029944E+03  0.12699999809E+01 0.  1.
       -4    1    3    3    0  502  0.39318824800E+03 -0.20981385838E+03  0.41954114247E+03  0.61207453521E+03  0.12699999809E+01 0. -1.
</event>
<event>
 5   0  0.2588048E-05  0.2771105E+04  0.7818609E-02  0.8312296E-01
        2   -1    0    0  501    0  0.00000000000E+00  0.00000000000E+00  0.14049849166E+04  0.14049849166E+04  0.25500000920E-02 0. -1.
       -2   -1    0    0    0  501  0.00000000000E+00  0.00000000000E+00 -0.13663890331E+04  0.13663890331E+04  0.25500000920E-02 0.  1.
    10030    2    1    2    0    0  0.00000000000E+00  0.00000000000E+00  0.38595883439E+02  0.27713739497E+04  0.27711051815E+04 0.  0.
        2    1    3    3  502    0  0.39508475579E+03 -0.12954372777E+04  0.31174086632E+03  0.13897597176E+04  0.25500000920E-02 0. -1.
       -2    1    3    3    0  502 -0.39508475579E+03  0.12954372777E+04 -0.27314498289E+03  0.13816142322E+04  0.25500000920E-02 0.  1.
</event>
<event>
 5   0  0.2588048E-05  0.2706171E+04  0.7818609E-02  0.8333005E-01
        2   -1    0    0  501    0  0.00000000000E+00  0.00000000000E+00  0.14260759017E+04  0.14260759017E+04  0.25500000920E-02 0.  1.
       -2   -1    0    0    0  501  0.00000000000E+00  0.00000000000E+00 -0.12838312035E+04  0.12838312035E+04  0.25500000920E-02 0. -1.
    10030    2    1    2    0    0  0.00000000000E+00  0.00000000000E+00  0.14224469820E+03  0.27099071053E+04  0.27061712742E+04 0.  0.
        2    1    3    3  502    0  0.70432133017E+02  0.41660059679E+03 -0.12160797202E+04  0.12873875208E+04  0.25500000920E-02 0. -1.
       -2    1    3    3    0  502 -0.70432133017E+02 -0.41660059679E+03  0.13583244184E+04  0.14225195845E+04  0.25500000920E-02 0.  1.
</event>
<event>
 5   0  0.1067434E-05  0.3072077E+04  0.7818609E-02  0.8223443E-01
        1   -1    0    0  501    0  0.00000000000E+00  0.00000000000E+00  0.20589192363E+04  0.20589192363E+04  0.50400001928E-02 0.  1.
       -1   -1    0    0    0  501  0.00000000000E+00  0.00000000000E+00 -0.11459478909E+04  0.11459478909E+04  0.50400001928E-02 0. -1.
    10030    2    1    2    0    0  0.00000000000E+00  0.00000000000E+00  0.91297134542E+03  0.32048671272E+04  0.30720769238E+04 0.  0.
        4    1    3    3  502    0  0.49558800366E+03  0.56526123735E+03  0.18538949829E+04  0.20005139231E+04  0.12699999809E+01 0.  1.
       -4    1    3    3    0  502 -0.49558800366E+03 -0.56526123735E+03 -0.94092363751E+03  0.12043532042E+04  0.12699999809E+01 0. -1.
</event>
<event>
 5   0  0.2588048E-05  0.2800556E+04  0.7818609E-02  0.8303096E-01
       -2   -1    0    0    0  501  0.00000000000E+00  0.00000000000E+00  0.90450279225E+03  0.90450279225E+03  0.25500000920E-02 0. -1.
        2   -1    0    0  501    0  0.00000000000E+00  0.00000000000E+00 -0.21677972248E+04  0.21677972248E+04  0.25500000920E-02 0.  1.
    10030    2    1    2    0    0  0.00000000000E+00  0.00000000000E+00 -0.12632944326E+04  0.30723000170E+04  0.28005561182E+04 0.  0.
        2    1    3    3  502    0  0.24878730262E+03  0.52239903264E+03  0.76722264538E+03  0.96095080979E+03  0.25500000920E-02 0. -1.
       -2    1    3    3    0  502 -0.24878730262E+03 -0.52239903264E+03 -0.20305170779E+04  0.21113492073E+04  0.25500000920E-02 0.  1.
</event>
<event>
 5   0  0.2518686E-05  0.2792886E+04  0.7818609E-02  0.8305480E-01
       -2   -1    0    0    0  501  0.00000000000E+00  0.00000000000E+00  0.11935051074E+04  0.11935051075E+04  0.25500000920E-02 0. -1.
        2   -1    0    0  501    0  0.00000000000E+00  0.00000000000E+00 -0.16338870527E+04  0.16338870527E+04  0.25500000920E-02 0.  1.
    10030    2    1    2    0    0  0.00000000000E+00  0.00000000000E+00 -0.44038194529E+03  0.28273921602E+04  0.27928856349E+04 0.  0.
        5    1    3    3  502    0  0.63605882832E+03  0.81547054152E+02  0.10356231260E+04  0.12180960981E+04  0.46999998093E+01 0. -1.
       -5    1    3    3    0  502 -0.63605882832E+03 -0.81547054152E+02 -0.14760050713E+04  0.16092960621E+04  0.46999998093E+01 0.  1.
</event>
<event>
 5   0  0.2518686E-05  0.2015339E+04  0.7818609E-02  0.8599483E-01
       -2   -1    0    0    0  501  0.00000000000E+00  0.00000000000E+00  0.67081141338E+03  0.67081141339E+03  0.25500000920E-02 0. -1.
        2   -1    0    0  501    0  0.00000000000E+00  0.00000000000E+00 -0.15136862417E+04  0.15136862417E+04  0.25500000920E-02 0.  1.
    10030    2    1    2    0    0  0.00000000000E+00  0.00000000000E+00 -0.84287482832E+03  0.21844976551E+04  0.20153391846E+04 0.  0.
        5    1    3    3  502    0  0.87129721333E+03 -0.26566886435E+03  0.45583001106E+02  0.91205190611E+03  0.46999998093E+01 0. -1.
       -5    1    3    3    0  502 -0.87129721333E+03  0.26566886435E+03 -0.88845782943E+03  0.12724457490E+04  0.46999998093E+01 0.  1.
</event>
<event>
 5   0  0.2651061E-05  0.2941360E+04  0.7818609E-02  0.8260677E-01
        2   -1    0    0  501    0  0.00000000000E+00  0.00000000000E+00  0.18432912551E+04  0.18432912551E+04  0.25500000920E-02 0. -1.
       -2   -1    0    0    0  501  0.00000000000E+00  0.00000000000E+00 -0.11733901398E+04  0.11733901398E+04  0.25500000920E-02 0.  1.
    10030    2    1    2    0    0  0.00000000000E+00  0.00000000000E+00  0.66990111533E+03  0.30166813949E+04  0.29413600824E+04 0.  0.
        3    1    3    3  502    0 -0.19095932535E+03  0.35050830039E+02  0.18300901484E+04  0.18403597437E+04  0.10100000352E+00 0. -1.
       -3    1    3    3    0  502  0.19095932535E+03 -0.35050830039E+02 -0.11601890331E+04  0.11763216513E+04  0.10100000352E+00 0.  1.
</event>
<event>
 5   0  0.1017456E-05  0.2482848E+04  0.7818609E-02  0.8409122E-01
        1   -1    0    0  501    0  0.00000000000E+00  0.00000000000E+00  0.18953615367E+04  0.18953615367E+04  0.50400001928E-02 0. -1.
       -1   -1    0    0    0  501  0.00000000000E+00  0.00000000000E+00 -0.81310770270E+03  0.81310770272E+03  0.50400001928E-02 0.  1.
    10030    2    1    2    0    0  0.00000000000E+00  0.00000000000E+00  0.10822538340E+04  0.27084692394E+04  0.24828476110E+04 0.  0.
        5    1    3    3  502    0 -0.65507905719E+03  0.10118320003E+04  0.86505974849E+03  0.14836721425E+04  0.46999998093E+01 0. -1.
       -5    1    3    3    0  502  0.65507905719E+03 -0.10118320003E+04  0.21719408550E+03  0.12247970969E+04  0.46999998093E+01 0.  1.
</event>
<event>
 5   0  0.1078103E-05  0.2811686E+04  0.7818609E-02  0.8299649E-01
        1   -1    0    0  501    0  0.00000000000E+00  0.00000000000E+00  0.16010267290E+04  0.16010267291E+04  0.50400001928E-02 0.  1.
       -1   -1    0    0    0  501  0.00000000000E+00  0.00000000000E+00 -0.12344547113E+04  0.12344547113E+04  0.50400001928E-02 0. -1.
    10030    2    1    2    0    0  0.00000000000E+00  0.00000000000E+00  0.36657201775E+03  0.28354814404E+04  0.28116863186E+04 0.  0.
        1    1    3    3  502    0  0.16123194421E+03 -0.12472652931E+04 -0.45030528931E+03  0.13358298188E+04  0.50400001928E-02 0. -1.
       -1    1    3    3    0  502 -0.16123194421E+03  0.12472652931E+04  0.81687730706E+03  0.14996516216E+04  0.50400001928E-02 0.  1.
</event>
<event>
 5   0  0.2651061E-05  0.2791823E+04  0.7818609E-02  0.8305811E-01
       -2   -1    0    0    0  501  0.00000000000E+00  0.00000000000E+00  0.92869453699E+03  0.92869453700E+03  0.25500000920E-02 0. -1.
        2   -1    0    0  501    0  0.00000000000E+00  0.00000000000E+00 -0.20981806994E+04  0.20981806994E+04  0.25500000920E-02 0.  1.
    10030    2    1    2    0    0  0.00000000000E+00  0.00000000000E+00 -0.11694861624E+04  0.30268752364E+04  0.27918230268E+04 0.  0.
        3    1    3    3  502    0 -0.84355580751E+03 -0.15595690430E+03 -0.17786656429E+04  0.19747304717E+04  0.10100000352E+00 0. -1.
       -3    1    3    3    0  502  0.84355580751E+03  0.15595690430E+03  0.60917948045E+03  0.10521447647E+04  0.10100000352E+00 0.  1.
</event>
<event>
 5   0  0.1075146E-05  0.2717511E+04  0.7818609E-02  0.8329346E-01
        1   -1    0    0  501    0  0.00000000000E+00  0.00000000000E+00  0.16607704733E+04  0.16607704733E+04  0.50400001928E-02 0. -1.
       -1   -1    0    0    0  501  0.00000000000E+00  0.00000000000E+00 -0.11116624077E+04  0.11116624078E+04  0.50400001928E-02 0.  1.
    10030    2    1    2    0    0  0.00000000000E+00  0.00000000000E+00  0.54910806552E+03  0.27724328810E+04  0.27175107014E+04 0.  0.
        2    1    3    3  502    0 -0.26238676798E+03  0.43604986916E+03 -0.10107612815E+04  0.11316468851E+04  0.25500000920E-02 0.  1.
       -2    1    3    3    0  502  0.26238676798E+03 -0.43604986916E+03  0.15598693471E+04  0.16407859959E+04  0.25500000920E-02 0. -1.
</event>
<event>
 5   0  0.2624815E-05  0.1413844E+04  0.7818609E-02  0.8943858E-01
        2   -1    0    0  501    0  0.00000000000E+00  0.00000000000E+00  0.69889371724E+03  0.69889371724E+03  0.25500000920E-02 0.  1.
       -2   -1    0    0    0  501  0.00000000000E+00  0.00000000000E+00 -0.71504237922E+03  0.71504237923E+03  0.25500000920E-02 0. -1.
    10030    2    1    2    0    0  0.00000000000E+00  0.00000000000E+00 -0.16148661984E+02  0.14139360965E+04  0.14138438760E+04 0.  0.
        4    1    3    3  502    0  0.67135851214E+03 -0.17191966970E+03 -0.14757675872E+03  0.70856131511E+03  0.12699999809E+01 0. -1.
       -4    1    3    3    0  502 -0.67135851214E+03  0.17191966970E+03  0.13142809674E+03  0.70537478135E+03  0.12699999809E+01 0.  1.
</event>
<event>
 5   0  0.1067434E-05  0.2809374E+04  0.7818609E-02  0.8300364E-01
        1   -1    0    0  501    0  0.00000000000E+00  0.00000000000E+00  0.22839595809E+04  0.22839595809E+04  0.50400001928E-02 0.  1.
       -1   -1    0    0    0  501  0.00000000000E+00  0.00000000000E+00 -0.86391461917E+03  0.86391461919E+03  0.50400001928E-02 0. -1.
    10030    2    1    2    0    0  0.00000000000E+00  0.00000000000E+00  0.14200449618E+04  0.31478742001E+04  0.28093743585E+04 0.  0.
        4    1    3    3  502    0  0.13491031623E+04  0.39094606663E+03  0.72687790054E+03  0.15815407882E+04  0.12699999809E+01 0.  1.
       -4    1    3    3    0  502 -0.13491031623E+04 -0.39094606663E+03  0.69316706123E+03  0.15663334119E+04  0.12699999809E+01 0. -1.
</event>
<event>
 5   0  0.2624815E-05  0.2900048E+04  0.7818609E-02  0.8272863E-01
       -2   -1    0    0    0  501  0.00000000000E+00  0.00000000000E+00  0.17980396251E+04  0.17980396251E+04  0.25500000920E-02 0.  1.
        2   -1    0    0  501    0  0.00000000000E+00  0.00000000000E+00 -0.11693676447E+04  0.11693676447E+04  0.25500000920E-02 0. -1.
    10030    2    1    2    0    0  0.00000000000E+00  0.00000000000E+00  0.62867198038E+03  0.29674072698E+04  0.29000478351E+04 0.  0.
        4    1    3    3  502    0 -0.13022324407E+04  0.23361331299E+03  0.92157034830E+03  0.16123517077E+04  0.12699999809E+01 0.  1.
       -4    1    3    3    0  502  0.13022324407E+04 -0.23361331299E+03 -0.29289836792E+03  0.13550555621E+04  0.12699999809E+01 0. -1.
</event>
<event>
 5   0  0.2697964E-05  0.1427019E+04  0.7818609E-02  0.8934490E-01
        2   -1    0    0  501    0  0.00000000000E+00  0.00000000000E+00  0.20503379632E+04  0.20503379632E+04  0.25500000920E-02 0. -1.
       -2   -1    0    0    0  501  0.00000000000E+00  0.00000000000E+00 -0.24829840259E+03  0.24829840261E+03  0.25500000920E-02 0.  1.
    10030    2    1    2    0    0  0.00000000000E+00  0.00000000000E+00  0.18020395606E+04  0.22986363658E+04  0.14270187680E+04 0.  0.
        1    1    3    3  502    0 -0.59048511315E+03 -0.46720844885E+02  0.26025459023E+03  0.64698373856E+03  0.50400001928E-02 0.  1.
       -1    1    3    3    0  502  0.59048511315E+03  0.46720844885E+02  0.15417849704E+04  0.16516526273E+04  0.50400001928E-02 0. -1.
</event>
<event>
 5   0  0.2588048E-05  0.2791183E+04  0.7818609E-02  0.8306011E-01
       -2   -1    0    0    0  501  0.00000000000E+00  0.00000000000E+00  0.13315375877E+04  0.13315375877E+04  0.25500000920E-02 0. -1.
        2   -1    0    0  501    0  0.00000000000E+00  0.00000000000E+00 -0.14627267218E+04  0.14627267218E+04  0.25500000920E-02 0.  1.
    10030    2    1    2    0    0  0.00000000000E+00  0.00000000000E+00 -0.13118913409E+03  0.27942643094E+04  0.27911829826E+04 0.  0.
        2    1    3    3  502    0  0.10187390606E+03  0.70163870740E+02 -0.14572278499E+04  0.14624685528E+04  0.25500000920E-02 0.  1.
       -2    1    3    3    0  502 -0.10187390606E+03 -0.70163870740E+02  0.13260387158E+04  0.13317957566E+04  0.25500000920E-02 0. -1.
</event>
<event>
 5   0  0.1105862E-05  0.1599296E+04  0.7818609E-02  0.8820980E-01
       -1   -1    0    0    0  501  0.00000000000E+00  0.00000000000E+00  0.28519185055E+03  0.28519185059E+03  0.50400001928E-02 0.  1.
        1   -1    0    0  501    0  0.00000000000E+00  0.00000000000E+00 -0.22421299635E+04  0.22421299635E+04  0.50400001928E-02 0. -1.
    10030    2    1    2    0    0  0.00000000000E+00  0.00000000000E+00 -0.19569381130E+04  0.25273218141E+04  0.15992963372E+04 0.  0.
        3    1    3    3  502    0 -0.68918769891E+03  0.32001019234E+03 -0.13721151184E+04  0.15684661667E+04  0.10100000352E+00 0. -1.
       -3    1    3    3    0  502  0.68918769891E+03 -0.32001019234E+03 -0.58482299455E+03  0.95885564747E+03  0.10100000352E+00 0.  1.
</event>
<event>
 5   0  0.1078103E-05  0.2798186E+04  0.7818609E-02  0.8303832E-01
       -1   -1    0    0    0  501  0.00000000000E+00  0.00000000000E+00  0.11849183192E+04  0.11849183192E+04  0.50400001928E-02 0. -1.
        1   -1    0    0  501    0  0.00000000000E+00  0.00000000000E+00 -0.16519797571E+04  0.16519797571E+04  0.50400001928E-02 0.  1.
    10030    2    1    2    0    0  0.00000000000E+00  0.00000000000E+00 -0.46706143789E+03  0.28368980764E+04  0.27981858961E+04 0.  0.
        1    1    3    3  502    0 -0.63537873745E+03 -0.95454900076E+02  0.10265004027E+04  0.12109999400E+04  0.50400001928E-02 0. -1.
       -1    1    3    3    0  502  0.63537873745E+03  0.95454900076E+02 -0.14935618406E+04  0.16258981363E+04  0.50400001928E-02 0.  1.
</event>
<event>
 5   0  0.1075146E-05  0.2786032E+04  0.7818609E-02  0.8307618E-01
       -1   -1    0    0    0  501  0.00000000000E+00  0.00000000000E+00  0.11166986216E+04  0.11166986217E+04  0.50400001928E-02 0.  1.
        1   -1    0    0  501    0  0.00000000000E+00  0.00000000000E+00 -0.17377056764E+04  0.17377056765E+04  0.50400001928E-02 0. -1.
    10030    2    1    2    0    0  0.00000000000E+00  0.00000000000E+00 -0.62100705481E+03  0.28544042981E+04  0.27860319695E+04 0.  0.
        2    1    3    3  502    0  0.89194598844E+03  0.85026643282E+03  0.35503263989E+03  0.12824074347E+04  0.25500000920E-02 0. -1.
       -2    1    3    3    0  502 -0.89194598844E+03 -0.85026643282E+03 -0.97603969470E+03  0.15719968635E+04  0.25500000920E-02 0.  1.
</event>
<event>
 5   0  0.2588048E-05  0.1532376E+04  0.7818609E-02  0.8863204E-01
       -2   -1    0    0    0  501  0.00000000000E+00  0.00000000000E+00  0.65752776377E+03  0.65752776377E+03  0.25500000920E-02 0.  1.
        2   -1    0    0  501    0  0.00000000000E+00  0.00000000000E+00 -0.89280510508E+03  0.89280510508E+03  0.25500000920E-02 0. -1.
    10030    2    1    2    0    0  0.00000000000E+00  0.00000000000E+00 -0.23527734131E+03  0.15503328689E+04  0.15323761212E+04 0.  0.
        2    1    3    3  502    0  0.72306409943E+03 -0.46549647196E+02 -0.36966737559E+03  0.81341411970E+03  0.25500000920E-02 0.  1.
       -2    1    3    3    0  502 -0.72306409943E+03  0.46549647196E+02  0.13439003427E+03  0.73691874916E+03  0.25500000920E-02 0. -1.
</event>
<event>
 5   0  0.2518686E-05  0.2853968E+04  0.7818609E-02  0.8286707E-01
       -2   -1    0    0    0  501  0.00000000000E+00  0.00000000000E+00  0.15439760286E+04  0.15439760286E+04  0.25500000920E-02 0. -1.
        2   -1    0    0  501    0  0.00000000000E+00  0.00000000000E+00 -0.13188567840E+04  0.13188567840E+04  0.25500000920E-02 0.  1.
    10030    2    1    2    0    0  0.00000000000E+00  0.00000000000E+00  0.22511924467E+03  0.28628328126E+04  0.28539679463E+04 0.  0.
        5    1    3    3  502    0  0.90280076975E+03  0.63797901122E+03  0.10176897822E+04  0.15025914386E+04  0.46999998093E+01 0. -1.
       -5    1    3    3    0  502 -0.90280076975E+03 -0.63797901122E+03 -0.79257053748E+03  0.13602413740E+04  0.46999998093E+01 0.  1.
</event>
<event>
 5   0  0.1078103E-05  0.2892790E+04  0.7818609E-02  0.8275026E-01
        1   -1    0    0  501    0  0.00000000000E+00  0.00000000000E+00  0.14212626026E+04  0.14212626026E+04  0.50400001928E-02 0. -1.
       -1   -1    0    0    0  501  0.00000000000E+00  0.00000000000E+00 -0.14719717796E+04  0.14719717796E+04  0.50400001928E-02 0.  1.
    10030    2    1    2    0    0  0.00000000000E+00  0.00000000000E+00 -0.50709176924E+02  0.28932343822E+04  0.28927899629E+04 0.  0.
        1    1    3    3  502    0  0.90083473540E+03  0.34802272950E+03 -0.11022908341E+04  0.14654924509E+04  0.50400001928E-02 0.  1.
       -1    1    3    3    0  502 -0.90083473540E+03 -0.34802272950E+03  0.10515816571E+04  0.14277419313E+04  0.50400001928E-02 0. -1.
</event>
<event>
 5   0  0.2697964E-05  0.3064975E+04  0.7818609E-02  0.8225416E-01
        2   -1    0    0  501    0  0.00000000000E+00  0.00000000000E+00  0.25360929766E+04  0.25360929766E+04  0.25500000920E-02 0. -1.
       -2   -1    0    0    0  501  0.00000000000E+00  0.00000000000E+00 -0.92603792627E+03  0.92603792627E+03  0.25500000920E-02 0.  1.
    10030    2    1    2    0    0  0.00000000000E+00  0.00000000000E+00  0.16100550503E+04  0.34621309029E+04  0.30649752240E+04 0.  0.
        1    1    3    3  502    0 -0.10974831592E+04 -0.50300865766E+03 -0.26123216989E+03  0.12352041293E+04  0.50400001928E-02 0. -1.
       -1    1    3    3    0  502  0.10974831592E+04  0.50300865766E+03  0.18712872202E+04  0.22269267736E+04  0.50400001928E-02 0.  1.
</event>
<event>
 5   0  0.1078103E-05  0.2579379E+04  0.7818609E-02  0.8375240E-01
        1   -1    0    0  501    0  0.00000000000E+00  0.00000000000E+00  0.83790759515E+03  0.83790759516E+03  0.50400001928E-02 0.  1.
       -1   -1    0    0    0  501  0.00000000000E+00  0.00000000000E+00 -0.19850629046E+04  0.19850629046E+04  0.50400001928E-02 0. -1.
    10030    2    1    2    0    0  0.00000000000E+00  0.00000000000E+00 -0.11471553094E+04  0.28229704998E+04  0.25793792157E+04 0.  0.
        1    1    3    3  502    0 -0.10351591113E+04 -0.65730104445E+03 -0.13621275871E+03  0.12337556340E+04  0.50400001928E-02 0.  1.
       -1    1    3    3    0  502  0.10351591113E+04  0.65730104445E+03 -0.10109425507E+04  0.15892148658E+04  0.50400001928E-02 0. -1.
</event>
<event>
 5   0  0.2518686E-05  0.2805648E+04  0.7818609E-02  0.8301517E-01
        2   -1    0    0  501    0  0.00000000000E+00  0.00000000000E+00  0.14824712916E+04  0.14824712916E+04  0.25500000920E-02 0. -1.
       -2   -1    0    0    0  501  0.00000000000E+00  0.00000000000E+00 -0.13274561061E+04  0.13274561061E+04  0.25500000920E-02 0.  1.
    10030    2    1    2    0    0  0.00000000000E+00  0.00000000000E+00  0.15501518550E+03  0.28099273977E+04  0.28056482803E+04 0.  0.
        5    1    3    3  502    0 -0.35170690645E+03  0.13018115206E+04 -0.30971174833E+03  0.13836019804E+04  0.46999998093E+01 0.  1.
       -5    1    3    3    0  502  0.35170690645E+03 -0.13018115206E+04  0.46472693383E+03  0.14263254173E+04  0.46999998093E+01 0. -1.
</event>
<event>
 5   0  0.2624815E-05  0.2790352E+04  0.7818609E-02  0.8306270E-01
        2   -1    0    0  501    0  0.00000000000E+00  0.00000000000E+00  0.18676147333E+04  0.18676147333E+04  0.25500000920E-02 0.  1.
       -2   -1    0    0    0  501  0.00000000000E+00  0.00000000000E+00 -0.10422469344E+04  0.10422469344E+04  0.25500000920E-02 0. -1.
    10030    2    1    2    0    0  0.00000000000E+00  0.00000000000E+00  0.82536779891E+03  0.29098616677E+04  0.27903517559E+04 0.  0.
        4    1    3    3  502    0 -0.39691406869E+02  0.13827020484E+04  0.60233490205E+03  0.15087243981E+04  0.12699999809E+01 0.  1.
       -4    1    3    3    0  502  0.39691406869E+02 -0.13827020484E+04  0.22303289686E+03  0.14011372696E+04  0.12699999809E+01 0. -1.
</event>
<event>
 5   0  0.2518686E-05  0.2890472E+04  0.7818609E-02  0.8275718E-01
       -2   -1    0    0    0  501  0.00000000000E+00  0.00000000000E+00  0.12662954385E+04  0.12662954385E+04  0.25500000920E-02 0. -1.
        2   -1    0    0  501    0  0.00000000000E+00  0.00000000000E+00 -0.16494630004E+04  0.16494630004E+04  0.25500000920E-02 0.  1.
    10030    2    1    2    0    0  0.00000000000E+00  0.00000000000E+00 -0.38316756192E+03  0.29157584389E+04  0.28904722614E+04 0.  0.
        5    1    3    3  502    0 -0.12177815027E+04 -0.50624284764E+03 -0.78786551129E+03  0.15362381856E+04  0.46999998093E+01 0.  1.
       -5    1    3    3    0  502  0.12177815027E+04  0.50624284764E+03  0.40469794937E+03  0.13795202533E+04  0.46999998093E+01 0. -1.
</event>
<event>
 5   0  0.2518686E-05  0.2702989E+04  0.7818609E-02  0.8334036E-01
       -2   -1    0    0    0  501  0.00000000000E+00  0.00000000000E+00  0.11726502915E+04  0.11726502915E+04  0.25500000920E-02 0. -1.
        2   -1    0    0  501    0  0.00000000000E+00  0.00000000000E+00 -0.15576145192E+04  0.15576145192E+04  0.25500000920E-02 0.  1.
    10030    2    1    2    0    0  0.00000000000E+00  0.00000000000E+00 -0.38496422775E+03  0.27302648108E+04  0.27029888050E+04 0.  0.
        5    1    3    3  502    0  0.52370468003E+02  0.10235534823E+04 -0.10823434583E+04  0.14906018411E+04  0.46999998093E+01 0.  1.
       -5    1    3    3    0  502 -0.52370468003E+02 -0.10235534823E+04  0.69737923054E+03  0.12396629696E+04  0.46999998093E+01 0. -1.
</event>
<event>
 5   0  0.8958000E-06  0.2685238E+04  0.7818609E-02  0.8339811E-01
        4   -1    0    0  501    0  0.00000000000E+00  0.00000000000E+00  0.13467054970E+04  0.13467060959E+04  0.12699999809E+01 0. -1.
       -4   -1    0    0    0  501  0.00000000000E+00  0.00000000000E+00 -0.13385439498E+04  0.13385445523E+04  0.12699999809E+01 0.  1.
    10030    2    1    2    0    0  0.00000000000E+00  0.00000000000E+00  0.81615472072E+01  0.26852506482E+04  0.26852382451E+04 0.  0.
        4    1    3    3  502    0 -0.10362903619E+03 -0.17421219174E+03  0.13313154565E+04  0.13466593194E+04  0.12699999809E+01 0. -1.
       -4    1    3    3    0  502  0.10362903619E+03  0.17421219174E+03 -0.13231539093E+04  0.13385913288E+04  0.12699999809E+01 0.  1.
</event>
<event>
 5   0  0.2697964E-05  0.2714896E+04  0.7818609E-02  0.8330188E-01
        2   -1    0    0  501    0  0.00000000000E+00  0.00000000000E+00  0.16995422392E+04  0.16995422392E+04  0.25500000920E-02 0.  1.
       -2   -1    0    0    0  501  0.00000000000E+00  0.00000000000E+00 -0.10842124173E+04  0.10842124173E+04  0.25500000920E-02 0. -1.
    10030    2    1    2    0    0  0.00000000000E+00  0.00000000000E+00  0.61532982194E+03  0.27837546565E+04  0.27148957987E+04 0.  0.
        1    1    3    3  502    0 -0.10471455550E+04 -0.76616950572E+03 -0.10137060610E+03  0.13014628403E+04  0.50400001928E-02 0. -1.
       -1    1    3    3    0  502  0.10471455550E+04  0.76616950572E+03  0.71670042805E+03  0.14822918162E+04  0.50400001928E-02 0.  1.
</event>
<event>
 5   0  0.1075146E-05  0.2802061E+04  0.7818609E-02  0.8302629E-01
       -1   -1    0    0    0  501  0.00000000000E+00  0.00000000000E+00  0.88741682162E+03  0.88741682163E+03  0.50400001928E-02 0. -1.
        1   -1    0    0  501    0  0.00000000000E+00  0.00000000000E+00 -0.22119105061E+04  0.22119105061E+04  0.50400001928E-02 0.  1.
    10030    2    1    2    0    0  0.00000000000E+00  0.00000000000E+00 -0.13244936845E+04  0.30993273278E+04  0.28020610922E+04 0.  0.
        2    1    3    3  502    0 -0.35336053005E+01 -0.14009976920E+04 -0.67211348599E+03  0.15538801618E+04  0.25500000920E-02 0.  1.
       -2    1    3    3    0  502  0.35336053005E+01  0.14009976920E+04 -0.65238019854E+03  0.15454471659E+04  0.25500000920E-02 0. -1.
</event>
<event>
 5   0  0.2624815E-05  0.2853772E+04  0.7818609E-02  0.8286766E-01
       -2   -1    0    0    0  501  0.00000000000E+00  0.00000000000E+00  0.14050298128E+04  0.14050298128E+04  0.25500000920E-02 0.  1.
        2   -1    0    0  501    0  0.00000000000E+00  0.00000000000E+00 -0.14490818361E+04  0.14490818361E+04  0.25500000920E-02 0. -1.
    10030    2    1    2    0    0  0.00000000000E+00  0.00000000000E+00 -0.44052023318E+02  0.28541116490E+04  0.28537716664E+04 0.  0.
        4    1    3    3  502    0  0.20107271689E+03 -0.14123353548E+04  0.76452882339E+01  0.14265978603E+04  0.12699999809E+01 0.  1.
       -4    1    3    3    0  502 -0.20107271689E+03  0.14123353548E+04 -0.51697311552E+02  0.14275137886E+04  0.12699999809E+01 0. -1.
</event>
<event>
 5   0  0.1105862E-05  0.2691669E+04  0.7818609E-02  0.8337713E-01
       -1   -1    0    0    0  501  0.00000000000E+00  0.00000000000E+00  0.12102398927E+04  0.12102398927E+04  0.50400001928E-02 0. -1.
        1   -1    0    0  501    0  0.00000000000E+00  0.00000000000E+00 -0.14966215621E+04  0.14966215621E+04  0.50400001928E-02 0.  1.
    10030    2    1    2    0    0  0.00000000000E+00  0.00000000000E+00 -0.28638166939E+03  0.27068614548E+04  0.26916694587E+04 0.  0.
        3    1    3    3  502    0  0.46948179212E+03  0.46577227688E+02 -0.14107366896E+04  0.14875350782E+04  0.10100000352E+00 0.  1.
       -3    1    3    3    0  502 -0.46948179212E+03 -0.46577227688E+02  0.11243550202E+04  0.12193263767E+04  0.10100000352E+00 0. -1.
</event>
<event>
 5   0  0.2651061E-05  0.2795499E+04  0.7818609E-02  0.8304667E-01
        2   -1    0    0  501    0  0.00000000000E+00  0.00000000000E+00  0.27419541491E+04  0.27419541491E+04  0.25500000920E-02 0. -1.
       -2   -1    0    0    0  501  0.00000000000E+00  0.00000000000E+00 -0.71252254827E+03  0.71252254828E+03  0.25500000920E-02 0.  1.
    10030    2    1    2    0    0  0.00000000000E+00  0.00000000000E+00  0.20294316008E+04  0.34544766974E+04  0.27954993526E+04 0.  0.
        3    1    3    3  502    0  0.80015289772E+03 -0.10904324931E+04  0.14505906408E+04  0.19833055486E+04  0.10100000352E+00 0. -1.
       -3    1    3    3    0  502 -0.80015289772E+03  0.10904324931E+04  0.57884095997E+03  0.14711711487E+04  0.10100000352E+00 0.  1.
</event>
<event>
 5   0  0.1067434E-05  0.2602006E+04  0.7818609E-02  0.8367520E-01
        1   -1    0    0  501    0  0.00000000000E+00  0.00000000000E+00  0.19236832039E+04  0.19236832039E+04  0.50400001928E-02 0. -1.
       -1   -1    0    0    0  501  0.00000000000E+00  0.00000000000E+00 -0.87987917884E+03  0.87987917885E+03  0.50400001928E-02 0.  1.
    10030    2    1    2    0    0  0.00000000000E+00  0.00000000000E+00  0.10438040251E+04  0.28035623828E+04  0.26020059937E+04 0.  0.
        4    1    3    3  502    0 -0.10322112396E+04  0.78919722674E+03  0.59267804970E+03  0.14281320630E+04  0.12699999809E+01 0.  1.
       -4    1    3    3    0  502  0.10322112396E+04 -0.78919722674E+03  0.45112597536E+03  0.13754303197E+04  0.12699999809E+01 0. -1.
</event>
<event>
 5   0  0.2697964E-05  0.1615409E+04  0.7818609E-02  0.8811137E-01
        2   -1    0    0  501    0  0.00000000000E+00  0.00000000000E+00  0.55507424810E+03  0.55507424810E+03  0.25500000920E-02 0.  1.
       -2   -1    0    0    0  501  0.00000000000E+00  0.00000000000E+00 -0.11753145013E+04  0.11753145013E+04  0.25500000920E-02 0. -1.
    10030    2    1    2    0    0  0.00000000000E+00  0.00000000000E+00 -0.62024025316E+03  0.17303887494E+04  0.16154093142E+04 0.  0.
        1    1    3    3  502    0  0.62024349451E+03  0.30748333868E+03 -0.75583622783E+03  0.10249567793E+04  0.50400001928E-02 0. -1.
       -1    1    3    3    0  502 -0.62024349451E+03 -0.30748333868E+03  0.13559597468E+03  0.70543197009E+03  0.50400001928E-02 0.  1.
</event>
<event>
 5   0  0.1017456E-05  0.2722051E+04  0.7818609E-02  0.8327886E-01
       -1   -1    0    0    0  501  0.00000000000E+00  0.00000000000E+00  0.12463550520E+04  0.12463550520E+04  0.50400001928E-02 0. -1.
        1   -1    0    0  501    0  0.00000000000E+00  0.00000000000E+00 -0.14862456602E+04  0.14862456602E+04  0.50400001928E-02 0.  1.
    10030    2    1    2    0    0  0.00000000000E+00  0.00000000000E+00 -0.23989060819E+03  0.27326007123E+04  0.27220505412E+04 0.  0.
        5    1    3    3  502    0  0.40595161306E+03  0.98704675490E+03 -0.96779536180E+03  0.14407317449E+04  0.46999998093E+01 0.  1.
       -5    1    3    3    0  502 -0.40595161306E+03 -0.98704675490E+03  0.72790475361E+03  0.12918689674E+04  0.46999998093E+01 0. -1.
</event>
<event>
 5   0  0.1067434E-05  0.2458218E+04  0.7818609E-02  0.8418024E-01
       -1   -1    0    0    0  501  0.00000000000E+00  0.00000000000E+00  0.90886509529E+03  0.90886509530E+03  0.50400001928E-02 0.  1.
        1   -1    0    0  501    0  0.00000000000E+00  0.00000000000E+00 -0.16621924073E+04  0.16621924073E+04  0.50400001928E-02 0. -1.
    10030    2    1    2    0    0  0.00000000000E+00  0.00000000000E+00 -0.75332731200E+03  0.25710575026E+04  0.24582177777E+04 0.  0.
        4    1    3    3  502    0  0.93615318837E+03  0.77994323226E+03 -0.54535199819E+03  0.13349549253E+04  0.12699999809E+01 0.  1.
       -4    1    3    3    0  502 -0.93615318837E+03 -0.77994323226E+03 -0.20797531381E+03  0.12361025773E+04  0.12699999809E+01 0. -1.
</event>
<event>
 5   0  0.2651061E-05  0.2653789E+04  0.7818609E-02  0.8350156E-01
       -2   -1    0    0    0  501  0.00000000000E+00  0.00000000000E+00  0.85311787305E+03  0.85311787306E+03  0.25500000920E-02 0. -1.
        2   -1    0    0  501    0  0.00000000000E+00  0.00000000000E+00 -0.20637817188E+04  0.20637817188E+04  0.25500000920E-02 0.  1.
    10030    2    1    2    0    0  0.00000000000E+00  0.00000000000E+00 -0.12106638457E+04  0.29168995918E+04  0.26537890424E+04 0.  0.
        3    1    3    3  502    0 -0.35628591182E+03 -0.78178480674E+03 -0.17167856785E+04  0.19197604567E+04  0.10100000352E+00 0.  1.
       -3    1    3    3    0  502  0.35628591182E+03  0.78178480674E+03  0.50612183278E+03  0.99713913514E+03  0.10100000352E+00 0. -1.
</event>
<event>
 5   0  0.1017456E-05  0.2859129E+04  0.7818609E-02  0.8285143E-01
        1   -1    0    0  501    0  0.00000000000E+00  0.00000000000E+00  0.19347432722E+04  0.19347432722E+04  0.50400001928E-02 0.  1.
       -1   -1    0    0    0  501  0.00000000000E+00  0.00000000000E+00 -0.10562922931E+04  0.10562922931E+04  0.50400001928E-02 0. -1.
    10030    2    1    2    0    0  0.00000000000E+00  0.00000000000E+00  0.87845097909E+03  0.29910355652E+04  0.28591288236E+04 0.  0.
        5    1    3    3  502    0 -0.30401269911E+03 -0.11873817391E+04 -0.33047220486E+03  0.12694617300E+04  0.46999998093E+01 0. -1.
       -5    1    3    3    0  502  0.30401269911E+03  0.11873817391E+04  0.12089231840E+04  0.17215738353E+04  0.46999998093E+01 0.  1.
</event>
<event>
 5   0  0.1105862E-05  0.1474778E+04  0.7818609E-02  0.8901401E-01
       -1   -1    0    0    0  501  0.00000000000E+00  0.00000000000E+00  0.73482102820E+03  0.73482102822E+03  0.50400001928E-02 0. -1.
        1   -1    0    0  501    0  0.00000000000E+00  0.00000000000E+00 -0.73996574060E+03  0.73996574062E+03  0.50400001928E-02 0.  1.
    10030    2    1    2    0    0  0.00000000000E+00  0.00000000000E+00 -0.51447123989E+01  0.14747867688E+04  0.14747777953E+04 0.  0.
        3    1    3    3  502    0 -0.65519745862E+02 -0.72593681464E+03  0.10907634247E+03  0.73700390408E+03  0.10100000352E+00 0. -1.
       -3    1    3    3    0  502  0.65519745862E+02  0.72593681464E+03 -0.11422105487E+03  0.73778286475E+03  0.10100000352E+00 0.  1.
</event>
<event>
 5   0  0.1075146E-05  0.2772922E+04  0.7818609E-02  0.8311724E-01
        1   -1    0    0  501    0  0.00000000000E+00  0.00000000000E+00  0.33192139754E+04  0.33192139754E+04  0.50400001928E-02 0.  1.
       -1   -1    0    0    0  501  0.00000000000E+00  0.00000000000E+00 -0.57913550768E+03  0.57913550771E+03  0.50400001928E-02 0. -1.
    10030    2    1    2    0    0  0.00000000000E+00  0.00000000000E+00  0.27400784677E+04  0.38983494831E+04  0.27729224085E+04 0.  0.
        2    1    3    3  502    0 -0.76310393170E+03  0.63599723829E+03  0.10303833514E+02  0.99344162722E+03  0.25500000920E-02 0. -1.
       -2    1    3    3    0  502  0.76310393170E+03 -0.63599723829E+03  0.27297746342E+04  0.29049078559E+04  0.25500000920E-02 0.  1.
</event>
<event>
 5   0  0.2588048E-05  0.2909127E+04  0.7818609E-02  0.8270167E-01
       -2   -1    0    0    0  501  0.00000000000E+00  0.00000000000E+00  0.13412576995E+04  0.13412576995E+04  0.25500000920E-02 0.  1.
        2   -1    0    0  501    0  0.00000000000E+00  0.00000000000E+00 -0.15774410269E+04  0.15774410269E+04  0.25500000920E-02 0. -1.
    10030    2    1    2    0    0  0.00000000000E+00  0.00000000000E+00 -0.23618332739E+03  0.29186987264E+04  0.29091269638E+04 0.  0.
        2    1    3    3  502    0 -0.71630313391E+01 -0.14544244466E+04 -0.13694558859E+03  0.14608750372E+04  0.25500000920E-02 0. -1.
       -2    1    3    3    0  502  0.71630313391E+01  0.14544244466E+04 -0.99237738806E+02  0.14578236892E+04  0.25500000920E-02 0.  1.
</event>
<event>
 5   0  0.1075146E-05  0.2904538E+04  0.7818609E-02  0.8271529E-01
       -1   -1    0    0    0  501  0.00000000000E+00  0.00000000000E+00  0.14249796770E+04  0.14249796771E+04  0.50400001928E-02 0. -1.
        1   -1    0    0  501    0  0.00000000000E+00  0.00000000000E+00 -0.14800805175E+04  0.14800805175E+04  0.50400001928E-02 0.  1.
    10030    2    1    2    0    0  0.00000000000E+00  0.00000000000E+00 -0.55100840471E+02  0.29050601946E+04  0.29045375934E+04 0.  0.
        2    1    3    3  502    0 -0.15203476309E+03 -0.12553015565E+04  0.68685261683E+03  0.14389798762E+04  0.25500000920E-02 0. -1.
       -2    1    3    3    0  502  0.15203476309E+03  0.12553015565E+04 -0.74195345730E+03  0.14660803183E+04  0.25500000920E-02 0.  1.
</event>
<event>
 5   0  0.1075146E-05  0.2831415E+04  0.7818609E-02  0.8293581E-01
       -1   -1    0    0    0  501  0.00000000000E+00  0.00000000000E+00  0.10117730440E+04  0.10117730440E+04  0.50400001928E-02 0. -1.
        1   -1    0    0  501    0  0.00000000000E+00  0.00000000000E+00 -0.19809057549E+04  0.19809057549E+04  0.50400001928E-02 0.  1.
    10030    2    1    2    0    0  0.00000000000E+00  0.00000000000E+00 -0.96913271088E+03  0.29926787989E+04  0.28314145196E+04 0.  0.
        2    1    3    3  502    0 -0.28008445497E+03 -0.10855459926E+04 -0.13983100194E+04  0.17922411429E+04  0.25500000920E-02 0.  1.
       -2    1    3    3    0  502  0.28008445497E+03  0.10855459926E+04  0.42917730849E+03  0.12004376560E+04  0.25500000920E-02 0. -1.
</event>
<event>
 5   0  0.1105862E-05  0.2805541E+04  0.7818609E-02  0.8301550E-01
        1   -1    0    0  501    0  0.00000000000E+00  0.00000000000E+00  0.10214829918E+04  0.10214829918E+04  0.50400001928E-02 0.  1.
       -1   -1    0    0    0  501  0.00000000000E+00  0.00000000000E+00 -0.19263800152E+04  0.19263800152E+04  0.50400001928E-02 0. -1.
    10030    2    1    2    0    0  0.00000000000E+00  0.00000000000E+00 -0.90489702338E+03  0.29478630070E+04  0.28055405335E+04 0.  0.
        3    1    3    3  502    0 -0.91335461046E+03 -0.10629719769E+04 -0.51582710026E+03  0.14933866464E+04  0.10100000352E+00 0.  1.
       -3    1    3    3    0  502  0.91335461046E+03  0.10629719769E+04 -0.38906992312E+03  0.14544763605E+04  0.10100000352E+00 0. -1.
</event>
<event>
 5   0  0.2697964E-05  0.2966675E+04  0.7818609E-02  0.8253312E-01
        2   -1    0    0  501    0  0.00000000000E+00  0.00000000000E+00  0.26164682286E+04  0.26164682286E+04  0.25500000920E-02 0.  1.
       -2   -1    0    0    0  501  0.00000000000E+00  0.00000000000E+00 -0.84093880342E+03  0.84093880343E+03  0.25500000920E-02 0. -1.
    10030    2    1    2    0    0  0.00000000000E+00  0.00000000000E+00  0.17755294252E+04  0.34574070320E+04  0.29666746781E+04 0.  0.
        1    1    3    3  502    0  0.84021969537E+03 -0.75340707260E+03 -0.23412398106E+03  0.11525647019E+04  0.50400001928E-02 0. -1.
       -1    1    3    3    0  502 -0.84021969537E+03  0.75340707260E+03  0.20096534063E+04  0.23048423301E+04  0.50400001928E-02 0.  1.
</event>
<event>
 5   0  0.2624815E-05  0.2829285E+04  0.7818609E-02  0.8294234E-01
       -2   -1    0    0    0  501  0.00000000000E+00  0.00000000000E+00  0.10709845558E+04  0.10709845558E+04  0.25500000920E-02 0.  1.
        2   -1    0    0  501    0  0.00000000000E+00  0.00000000000E+00 -0.18685729020E+04  0.18685729020E+04  0.25500000920E-02 0. -1.
    10030    2    1    2    0    0  0.00000000000E+00  0.00000000000E+00 -0.79758834622E+03  0.29395574578E+04  0.28292845169E+04 0.  0.
        4    1    3    3  502    0  0.42633199479E+02  0.14086876353E+04 -0.27157729894E+03  0.14352610514E+04  0.12699999809E+01 0.  1.
       -4    1    3    3    0  502 -0.42633199479E+02 -0.14086876353E+04 -0.52601104729E+03  0.15042964064E+04  0.12699999809E+01 0. -1.
</event>
<event>
 5   0  0.1078103E-05  0.2757813E+04  0.7818609E-02  0.8316487E-01
        1   -1    0    0  501    0  0.00000000000E+00  0.00000000000E+00  0.11182674301E+04  0.11182674301E+04  0.50400001928E-02 0.  1.
       -1   -1    0    0    0  501  0.00000000000E+00  0.00000000000E+00 -0.17002934351E+04  0.17002934351E+04  0.50400001928E-02 0. -1.
    10030    2    1    2    0    0  0.00000000000E+00  0.00000000000E+00 -0.58202600499E+03  0.28185608653E+04  0.27578127349E+04 0.  0.
        1    1    3    3  502    0  0.11216913129E+04 -0.50712499104E+03 -0.92600036157E+03  0.15404037872E+04  0.50400001928E-02 0. -1.
       -1    1    3    3    0  502 -0.11216913129E+04  0.50712499104E+03  0.34397435658E+03  0.12781570780E+04  0.50400001928E-02 0.  1.
</event>
<event>
 5   0  0.2697964E-05  0.2811565E+04  0.7818609E-02  0.8299687E-01
        2   -1    0    0  501    0  0.00000000000E+00  0.00000000000E+00  0.21656937021E+04  0.21656937021E+04  0.25500000920E-02 0. -1.
       -2   -1    0    0    0  501  0.00000000000E+00  0.00000000000E+00 -0.91251334368E+03  0.91251334368E+03  0.25500000920E-02 0.  1.
    10030    2    1    2    0    0  0.00000000000E+00  0.00000000000E+00  0.12531803585E+04  0.30782070458E+04  0.28115649746E+04 0.  0.
        1    1    3    3  502    0 -0.68630919082E+03 -0.57940447838E+03  0.18105822775E+04  0.20211229648E+04  0.50400001928E-02 0. -1.
       -1    1    3    3    0  502  0.68630919082E+03  0.57940447838E+03 -0.55740191909E+03  0.10570840810E+04  0.50400001928E-02 0.  1.
</event>
<event>
 5   0  0.2624815E-05  0.2899155E+04  0.7818609E-02  0.8273129E-01
       -2   -1    0    0    0  501  0.00000000000E+00  0.00000000000E+00  0.15980103586E+04  0.15980103586E+04  0.25500000920E-02 0. -1.
        2   -1    0    0  501    0  0.00000000000E+00  0.00000000000E+00 -0.13149323759E+04  0.13149323759E+04  0.25500000920E-02 0.  1.
    10030    2    1    2    0    0  0.00000000000E+00  0.00000000000E+00  0.28307798267E+03  0.29129427345E+04  0.28991554340E+04 0.  0.
        4    1    3    3  502    0 -0.70991415616E+03  0.12237792085E+04 -0.17565248469E+03  0.14256468948E+04  0.12699999809E+01 0.  1.
       -4    1    3    3    0  502  0.70991415616E+03 -0.12237792085E+04  0.45873046736E+03  0.14872958397E+04  0.12699999809E+01 0. -1.
</event>
<event>
 5   0  0.2518686E-05  0.2742090E+04  0.7818609E-02  0.8321476E-01
       -2   -1    0    0    0  501  0.00000000000E+00  0.00000000000E+00  0.10819781616E+04  0.10819781616E+04  0.25500000920E-02 0. -1.
        2   -1    0    0  501    0  0.00000000000E+00  0.00000000000E+00 -0.17373410298E+04  0.17373410298E+04  0.25500000920E-02 0.  1.
    10030    2    1    2    0    0  0.00000000000E+00  0.00000000000E+00 -0.65536286825E+03  0.28193191914E+04  0.27420904824E+04 0.  0.
        5    1    3    3  502    0  0.64472312370E+03 -0.28760802280E+02  0.91603512619E+03  0.11205523336E+04  0.46999998093E+01 0. -1.
       -5    1    3    3    0  502 -0.64472312370E+03  0.28760802280E+02 -0.15713979944E+04  0.16987668577E+04  0.46999998093E+01 0.  1.
</event>
<event>
 5   0  0.2697964E-05  0.2885899E+04  0.7818609E-02  0.8277085E-01
        2   -1    0    0  501    0  0.00000000000E+00  0.00000000000E+00  0.18376567833E+04  0.18376567834E+04  0.25500000920E-02 0. -1.
       -2   -1    0    0    0  501  0.00000000000E+00  0.00000000000E+00 -0.11330207511E+04  0.11330207511E+04  0.25500000920E-02 0.  1.
    10030    2    1    2    0    0  0.00000000000E+00  0.00000000000E+00  0.70463603224E+03  0.29706775345E+04  0.28858990065E+04 0.  0.
        1    1    3    3  502    0 -0.11716166241E+04  0.38943333367E+03  0.11210905265E+04  0.16676893607E+04  0.50400001928E-02 0. -1.
       -1    1    3    3    0  502  0.11716166241E+04 -0.38943333367E+03 -0.41645449423E+03  0.13029881738E+04  0.50400001928E-02 0.  1.
</event>
<event>
 5   0  0.2518686E-05  0.2837579E+04  0.7818609E-02  0.8291696E-01
       -2   -1    0    0    0  501  0.00000000000E+00  0.00000000000E+00  0.10625039393E+04  0.10625039393E+04  0.25500000920E-02 0.  1.
        2   -1    0    0  501    0  0.00000000000E+00  0.00000000000E+00 -0.18945470273E+04  0.18945470273E+04  0.25500000920E-02 0. -1.
    10030    2    1    2    0    0  0.00000000000E+00  0.00000000000E+00 -0.83204308797E+03  0.29570509667E+04  0.28375790243E+04 0.  0.
        5    1    3    3  502    0 -0.18131119228E+03  0.15156431675E+02 -0.18823311720E+04  0.18911097791E+04  0.46999998093E+01 0. -1.
       -5    1    3    3    0  502  0.18131119228E+03 -0.15156431675E+02  0.10502880840E+04  0.10659411875E+04  0.46999998093E+01 0.  1.
</event>
<event>
 5   0  0.2697964E-05  0.2818136E+04  0.7818609E-02  0.8297660E-01
        2   -1    0    0  501    0  0.00000000000E+00  0.00000000000E+00  0.20537044908E+04  0.20537044908E+04  0.25500000920E-02 0.  1.
       -2   -1    0    0    0  501  0.00000000000E+00  0.00000000000E+00 -0.96677606290E+03  0.96677606291E+03  0.25500000920E-02 0. -1.
    10030    2    1    2    0    0  0.00000000000E+00  0.00000000000E+00  0.10869284279E+04  0.30204805538E+04  0.28181357966E+04 0.  0.
        1    1    3    3  502    0  0.46963466971E+03 -0.80290962579E+03  0.16778791696E+04  0.19184626913E+04  0.50400001928E-02 0.  1.
       -1    1    3    3    0  502 -0.46963466971E+03  0.80290962579E+03 -0.59095074161E+03  0.11020178625E+04  0.50400001928E-02 0. -1.
</event>
<event>
 5   0  0.1067434E-05  0.2781149E+04  0.7818609E-02  0.8309145E-01
       -1   -1    0    0    0  501  0.00000000000E+00  0.00000000000E+00  0.14639121858E+04  0.14639121858E+04  0.50400001928E-02 0. -1.
        1   -1    0    0  501    0  0.00000000000E+00  0.00000000000E+00 -0.13209104881E+04  0.13209104881E+04  0.50400001928E-02 0.  1.
    10030    2    1    2    0    0  0.00000000000E+00  0.00000000000E+00  0.14300169768E+03  0.27848226739E+04  0.27811486547E+04 0.  0.
        4    1    3    3  502    0 -0.48916850747E+03 -0.79538237769E+03 -0.96028573313E+03  0.13394287057E+04  0.12699999809E+01 0.  1.
       -4    1    3    3    0  502  0.48916850747E+03  0.79538237769E+03  0.11032874308E+04  0.14453939682E+04  0.12699999809E+01 0. -1.
</event>
<event>
 5   0  0.1105862E-05  0.2683905E+04  0.7818609E-02  0.8340246E-01
        1   -1    0    0  501    0  0.00000000000E+00  0.00000000000E+00  0.11023765880E+04  0.11023765881E+04  0.50400001928E-02 0. -1.
       -1   -1    0    0    0  501  0.00000000000E+00  0.00000000000E+00 -0.16335947733E+04  0.16335947733E+04  0.50400001928E-02 0.  1.
    10030    2    1    2    0    0  0.00000000000E+00  0.00000000000E+00 -0.53121818522E+03  0.27359713613E+04  0.26839050896E+04 0.  0.
        3    1    3    3  502    0 -0.45892225188E+03 -0.21870493864E+03  0.10004157191E+04  0.11221733844E+04  0.10100000352E+00 0. -1.
       -3    1    3    3    0  502  0.45892225188E+03  0.21870493864E+03 -0.15316339043E+04  0.16137979770E+04  0.10100000352E+00 0.  1.
</event>
<event>
 5   0  0.2697964E-05  0.2639562E+04  0.7818609E-02  0.8354886E-01
        2   -1    0    0  501    0  0.00000000000E+00  0.00000000000E+00  0.11244550979E+04  0.11244550979E+04  0.25500000920E-02 0.  1.
       -2   -1    0    0    0  501  0.00000000000E+00  0.00000000000E+00 -0.15490362447E+04  0.15490362447E+04  0.25500000920E-02 0. -1.
    10030    2    1    2    0    0  0.00000000000E+00  0.00000000000E+00 -0.42458114683E+03  0.26734913425E+04  0.26395618592E+04 0.  0.
        1    1    3    3  502    0 -0.58451570691E+03  0.27943777682E+03  0.95230574927E+03  0.11517943926E+04  0.50400001928E-02 0.  1.
       -1    1    3    3    0  502  0.58451570691E+03 -0.27943777682E+03 -0.13768868961E+04  0.15216969499E+04  0.50400001928E-02 0. -1.
</event>
<event>
 5   0  0.1075146E-05  0.2768834E+04  0.7818609E-02  0.8313010E-01
        1   -1    0    0  501    0  0.00000000000E+00  0.00000000000E+00  0.20935674620E+04  0.20935674620E+04  0.50400001928E-02 0. -1.
       -1   -1    0    0    0  501  0.00000000000E+00  0.00000000000E+00 -0.91547601805E+03  0.91547601807E+03  0.50400001928E-02 0.  1.
    10030    2    1    2    0    0  0.00000000000E+00  0.00000000000E+00  0.11780914439E+04  0.30090434801E+04  0.27688342700E+04 0.  0.
        2    1    3    3  502    0 -0.12609873528E+04  0.41801097238E+03  0.16564560433E+03  0.13387534289E+04  0.25500000920E-02 0.  1.
       -2    1    3    3    0  502  0.12609873528E+04 -0.41801097238E+03  0.10124458396E+04  0.16702900512E+04  0.25500000920E-02 0. -1.
</event>
<event>
 5   0  0.2588048E-05  0.2798622E+04  0.7818609E-02  0.8303696E-01
        2   -1    0    0  501    0  0.00000000000E+00  0.00000000000E+00  0.14150336065E+04  0.14150336065E+04  0.25500000920E-02 0. -1.
       -2   -1    0    0    0  501  0.00000000000E+00  0.00000000000E+00 -0.13837634158E+04  0.13837634158E+04  0.25500000920E-02 0.  1.
    10030    2    1    2    0    0  0.00000000000E+00  0.00000000000E+00  0.31270190736E+02  0.27987970224E+04  0.27986223303E+04 0.  0.
        2    1    3    3  502    0 -0.12242357340E+02  0.79763188912E+03  0.11653612540E+04  0.14122440859E+04  0.25500000920E-02 0. -1.
       -2    1    3    3    0  502  0.12242357340E+02 -0.79763188912E+03 -0.11340910633E+04  0.13865529365E+04  0.25500000920E-02 0.  1.
</event>
<event>
 5   0  0.1067434E-05  0.2899980E+04  0.7818609E-02  0.8272883E-01
        1   -1    0    0  501    0  0.00000000000E+00  0.00000000000E+00  0.10709966725E+04  0.10709966725E+04  0.50400001928E-02 0. -1.
       -1   -1    0    0    0  501  0.00000000000E+00  0.00000000000E+00 -0.19630979110E+04  0.19630979110E+04  0.50400001928E-02 0.  1.
    10030    2    1    2    0    0  0.00000000000E+00  0.00000000000E+00 -0.89210123848E+03  0.30340945836E+04  0.28999802279E+04 0.  0.
        4    1    3    3  502    0  0.61433894879E+02 -0.10285526269E+03  0.10658088672E+04  0.10725220197E+04  0.12699999809E+01 0. -1.
       -4    1    3    3    0  502 -0.61433894879E+02  0.10285526269E+03 -0.19579101057E+04  0.19615725639E+04  0.12699999809E+01 0.  1.
</event>
<event>
 5   0  0.2518686E-05  0.2809946E+04  0.7818609E-02  0.8300187E-01
       -2   -1    0    0    0  501  0.00000000000E+00  0.00000000000E+00  0.29324052568E+04  0.29324052568E+04  0.25500000920E-02 0. -1.
        2   -1    0    0  501    0  0.00000000000E+00  0.00000000000E+00 -0.67315028457E+03  0.67315028458E+03  0.25500000920E-02 0.  1.
    10030    2    1    2    0    0  0.00000000000E+00  0.00000000000E+00  0.22592549723E+04  0.36055555414E+04  0.28099462152E+04 0.  0.
        5    1    3    3  502    0  0.45536231447E+03  0.10552081149E+04  0.21665989316E+04  0.24525480675E+04  0.46999998093E+01 0. -1.
       -5    1    3    3    0  502 -0.45536231447E+03 -0.10552081149E+04  0.92656040713E+02  0.11530074739E+04  0.46999998093E+01 0.  1.
</event>
<event>
 5   0  0.1067434E-05  0.2859831E+04  0.7818609E-02  0.8284930E-01
       -1   -1    0    0    0  501  0.00000000000E+00  0.00000000000E+00  0.62362318509E+03  0.62362318511E+03  0.50400001928E-02 0. -1.
        1   -1    0    0  501    0  0.00000000000E+00  0.00000000000E+00 -0.32786761663E+04  0.32786761663E+04  0.50400001928E-02 0.  1.
    10030    2    1    2    0    0  0.00000000000E+00  0.00000000000E+00 -0.26550529812E+04  0.39022993514E+04  0.28598310956E+04 0.  0.
        4    1    3    3  502    0 -0.10712424383E+04  0.80432328737E+03 -0.64504699471E+03  0.14868031310E+04  0.12699999809E+01 0. -1.
       -4    1    3    3    0  502  0.10712424383E+04 -0.80432328737E+03 -0.20100059865E+04  0.24154962204E+04  0.12699999809E+01 0.  1.
</event>
<event>
 5   0  0.2697964E-05  0.2634712E+04  0.7818609E-02  0.8356505E-01
       -2   -1    0    0    0  501  0.00000000000E+00  0.00000000000E+00  0.11274503165E+04  0.11274503165E+04  0.25500000920E-02 0. -1.
        2   -1    0    0  501    0  0.00000000000E+00  0.00000000000E+00 -0.15392488180E+04  0.15392488180E+04  0.25500000920E-02 0.  1.
    10030    2    1    2    0    0  0.00000000000E+00  0.00000000000E+00 -0.41179850145E+03  0.26666991345E+04  0.26347117998E+04 0.  0.
        1    1    3    3  502    0 -0.12790290331E+04 -0.29869905321E+03 -0.30857131295E+03  0.13492044497E+04  0.50400001928E-02 0.  1.
       -1    1    3    3    0  502  0.12790290331E+04  0.29869905321E+03 -0.10322718850E+03  0.13174946848E+04  0.50400001928E-02 0. -1.
</event>
<event>
 5   0  0.1075146E-05  0.2183737E+04  0.7818609E-02  0.8525228E-01
       -1   -1    0    0    0  501  0.00000000000E+00  0.00000000000E+00  0.17074778564E+04  0.17074778564E+04  0.50400001928E-02 0. -1.
        1   -1    0    0  501    0  0.00000000000E+00  0.00000000000E+00 -0.69820913759E+03  0.69820913761E+03  0.50400001928E-02 0.  1.
    10030    2    1    2    0    0  0.00000000000E+00  0.00000000000E+00  0.10092687188E+04  0.24056869940E+04  0.21837368354E+04 0.  0.
        2    1    3    3  502    0 -0.12675221514E+03  0.59919107702E+03  0.15004323880E+04  0.16206151369E+04  0.25500000920E-02 0. -1.
       -2    1    3    3    0  502  0.12675221514E+03 -0.59919107702E+03 -0.49116366926E+03  0.78507185711E+03  0.25500000920E-02 0.  1.
</event>
<event>
 5   0  0.1075146E-05  0.2830647E+04  0.7818609E-02  0.8293816E-01
        1   -1    0    0  501    0  0.00000000000E+00  0.00000000000E+00  0.26293459776E+04  0.26293459776E+04  0.50400001928E-02 0. -1.
       -1   -1    0    0    0  501  0.00000000000E+00  0.00000000000E+00 -0.76183985128E+03  0.76183985129E+03  0.50400001928E-02 0.  1.
    10030    2    1    2    0    0  0.00000000000E+00  0.00000000000E+00  0.18675061263E+04  0.33911858289E+04  0.28306469568E+04 0.  0.
        2    1    3    3  502    0  0.11119028340E+04  0.82250388925E+03  0.12937590552E+04  0.18938461007E+04  0.25500000920E-02 0. -1.
       -2    1    3    3    0  502 -0.11119028340E+04 -0.82250388925E+03  0.57374707118E+03  0.14973397283E+04  0.25500000920E-02 0.  1.
</event>
<event>
 5   0  0.1105862E-05  0.1521654E+04  0.7818609E-02  0.8870180E-01
       -1   -1    0    0    0  501  0.00000000000E+00  0.00000000000E+00  0.51625151509E+03  0.51625151512E+03  0.50400001928E-02 0. -1.
        1   -1    0    0  501    0  0.00000000000E+00  0.00000000000E+00 -0.11212703826E+04  0.11212703826E+04  0.50400001928E-02 0.  1.
    10030    2    1    2    0    0  0.00000000000E+00  0.00000000000E+00 -0.60501886748E+03  0.16375218977E+04  0.15216537502E+04 0.  0.
        3    1    3    3  502    0 -0.48669125505E+03 -0.55586614221E+03 -0.49800695708E+03  0.89099185479E+03  0.10100000352E+00 0. -1.
       -3    1    3    3    0  502  0.48669125505E+03  0.55586614221E+03 -0.10701191040E+03  0.74653004291E+03  0.10100000352E+00 0.  1.
</event>
<event>
 5   0  0.1017456E-05  0.2849096E+04  0.7818609E-02  0.8288186E-01
        1   -1    0    0  501    0  0.00000000000E+00  0.00000000000E+00  0.14535289141E+04  0.14535289141E+04  0.50400001928E-02 0.  1.
       -1   -1    0    0    0  501  0.00000000000E+00  0.00000000000E+00 -0.13961448341E+04  0.13961448342E+04  0.50400001928E-02 0. -1.
    10030    2    1    2    0    0  0.00000000000E+00  0.00000000000E+00  0.57384079973E+02  0.28496737483E+04  0.28490959161E+04 0.  0.
        5    1    3    3  502    0 -0.15638052968E+03  0.86702086730E+03 -0.10909700048E+04  0.14022901611E+04  0.46999998093E+01 0. -1.
       -5    1    3    3    0  502  0.15638052968E+03 -0.86702086730E+03  0.11483540848E+04  0.14473835872E+04  0.46999998093E+01 0.  1.
</event>
<event>
 5   0  0.1067434E-05  0.2795127E+04  0.7818609E-02  0.8304783E-01
       -1   -1    0    0    0  501  0.00000000000E+00  0.00000000000E+00  0.87932651563E+03  0.87932651564E+03  0.50400001928E-02 0. -1.
        1   -1    0    0  501    0  0.00000000000E+00  0.00000000000E+00 -0.22212267735E+04  0.22212267735E+04  0.50400001928E-02 0.  1.
    10030    2    1    2    0    0  0.00000000000E+00  0.00000000000E+00 -0.13419002579E+04  0.31005532891E+04  0.27951269017E+04 0.  0.
        4    1    3    3  502    0 -0.98796534980E+03  0.82845149526E+03 -0.12691080853E+04  0.18091557029E+04  0.12699999809E+01 0.  1.
       -4    1    3    3    0  502  0.98796534980E+03 -0.82845149526E+03 -0.72792172601E+02  0.12913975862E+04  0.12699999809E+01 0. -1.
</event>
<event>
 5   0  0.2624815E-05  0.2913243E+04  0.7818609E-02  0.8268948E-01
        2   -1    0    0  501    0  0.00000000000E+00  0.00000000000E+00  0.14955110420E+04  0.14955110420E+04  0.25500000920E-02 0. -1.
       -2   -1    0    0    0  501  0.00000000000E+00  0.00000000000E+00 -0.14187433613E+04  0.14187433613E+04  0.25500000920E-02 0.  1.
    10030    2    1    2    0    0  0.00000000000E+00  0.00000000000E+00  0.76767680709E+02  0.29142544032E+04  0.29132431155E+04 0.  0.
        4    1    3    3  502    0  0.10778573469E+04  0.97400703025E+03 -0.67853751667E+02  0.14543286767E+04  0.12699999809E+01 0.  1.
       -4    1    3    3    0  502 -0.10778573469E+04 -0.97400703025E+03  0.14462143238E+03  0.14599257265E+04  0.12699999809E+01 0. -1.
</event>
<event>
 5   0  0.2697964E-05  0.1960332E+04  0.7818609E-02  0.8625394E-01
       -2   -1    0    0    0  501  0.00000000000E+00  0.00000000000E+00  0.59678525545E+03  0.59678525545E+03  0.25500000920E-02 0. -1.
        2   -1    0    0  501    0  0.00000000000E+00  0.00000000000E+00 -0.16098349550E+04  0.16098349550E+04  0.25500000920E-02 0.  1.
    10030    2    1    2    0    0  0.00000000000E+00  0.00000000000E+00 -0.10130496996E+04  0.22066202105E+04  0.19603323849E+04 0.  0.
        1    1    3    3  502    0  0.54316674353E+03 -0.25685740713E+03 -0.13782350269E+04  0.15035084397E+04  0.50400001928E-02 0.  1.
       -1    1    3    3    0  502 -0.54316674353E+03  0.25685740713E+03  0.36518532732E+03  0.70311177077E+03  0.50400001928E-02 0. -1.
</event>
<event>
 5   0  0.2518686E-05  0.2836565E+04  0.7818609E-02  0.8292005E-01
        2   -1    0    0  501    0  0.00000000000E+00  0.00000000000E+00  0.19548140026E+04  0.19548140026E+04  0.25500000920E-02 0. -1.
       -2   -1    0    0    0  501  0.00000000000E+00  0.00000000000E+00 -0.10290114239E+04  0.10290114239E+04  0.25500000920E-02 0.  1.
    10030    2    1    2    0    0  0.00000000000E+00  0.00000000000E+00  0.92580257869E+03  0.29838254264E+04  0.28365654868E+04 0.  0.
        5    1    3    3  502    0 -0.74856151054E+03  0.34468654386E+03  0.16771002967E+04  0.18686467413E+04  0.46999998093E+01 0. -1.
       -5    1    3    3    0  502  0.74856151054E+03 -0.34468654386E+03 -0.75129771805E+03  0.11151786851E+04  0.46999998093E+01 0.  1.
</event>
<event>
 5   0  0.2588048E-05  0.2781105E+04  0.7818609E-02  0.8309159E-01
       -2   -1    0    0    0  501  0.00000000000E+00  0.00000000000E+00  0.10193145808E+04  0.10193145808E+04  0.25500000920E-02 0. -1.
        2   -1    0    0  501    0  0.00000000000E+00  0.00000000000E+00 -0.18969967301E+04  0.18969967301E+04  0.25500000920E-02 0.  1.
    10030    2    1    2    0    0  0.00000000000E+00  0.00000000000E+00 -0.87768214933E+03  0.29163113110E+04  0.27811051234E+04 0.  0.
        2    1    3    3  502    0  0.65718414492E+03 -0.85176307961E+03  0.48503965390E+03  0.11801079654E+04  0.25500000920E-02 0. -1.
       -2    1    3    3    0  502 -0.65718414492E+03  0.85176307961E+03 -0.13627218032E+04  0.17362033456E+04  0.25500000920E-02 0.  1.
</event>
<event>
 5   0  0.1075146E-05  0.2759966E+04  0.7818609E-02  0.8315806E-01
       -1   -1    0    0    0  501  0.00000000000E+00  0.00000000000E+00  0.12371219829E+04  0.12371219829E+04  0.50400001928E-02 0. -1.
        1   -1    0    0  501    0  0.00000000000E+00  0.00000000000E+00 -0.15393412729E+04  0.15393412729E+04  0.50400001928E-02 0.  1.
    10030    2    1    2    0    0  0.00000000000E+00  0.00000000000E+00 -0.30221929003E+03  0.27764632557E+04  0.27599658895E+04 0.  0.
        2    1    3    3  502    0 -0.22556049759E+03 -0.12406455160E+04 -0.71506211978E+03  0.14496181116E+04  0.25500000920E-02 0. -1.
       -2    1    3    3    0  502  0.22556049759E+03  0.12406455160E+04  0.41284282975E+03  0.13268451441E+04  0.25500000920E-02 0.  1.
</event>
<event>
 5   0  0.1078103E-05  0.2346929E+04  0.7818609E-02  0.8459644E-01
       -1   -1    0    0    0  501  0.00000000000E+00  0.00000000000E+00  0.83642685213E+03  0.83642685215E+03  0.50400001928E-02 0. -1.
        1   -1    0    0  501    0  0.00000000000E+00  0.00000000000E+00 -0.16463112741E+04  0.16463112741E+04  0.50400001928E-02 0.  1.
    10030    2    1    2    0    0  0.00000000000E+00  0.00000000000E+00 -0.80988442199E+03  0.24827381263E+04  0.23469290204E+04 0.  0.
        1    1    3    3  502    0 -0.10563526236E+04 -0.39879813106E+03 -0.66924172291E+02  0.11311055033E+04  0.50400001928E-02 0. -1.
       -1    1    3    3    0  502  0.10563526236E+04  0.39879813106E+03 -0.74296024970E+03  0.13516326230E+04  0.50400001928E-02 0.  1.
</event>
<event>
 5   0  0.2518686E-05  0.2800290E+04  0.7818609E-02  0.8303178E-01
       -2   -1    0    0    0  501  0.00000000000E+00  0.00000000000E+00  0.77900401220E+03  0.77900401220E+03  0.25500000920E-02 0. -1.
        2   -1    0    0  501    0  0.00000000000E+00  0.00000000000E+00 -0.25165538541E+04  0.25165538541E+04  0.25500000920E-02 0.  1.
    10030    2    1    2    0    0  0.00000000000E+00  0.00000000000E+00 -0.17375498419E+04  0.32955578663E+04  0.28002896631E+04 0.  0.
        5    1    3    3  502    0 -0.94136084587E+01  0.76381654595E+03  0.51216216392E+03  0.91969370120E+03  0.46999998093E+01 0. -1.
       -5    1    3    3    0  502  0.94136084587E+01 -0.76381654595E+03 -0.22497120058E+04  0.23758641651E+04  0.46999998093E+01 0.  1.
</event>
<event>
 5   0  0.2697964E-05  0.2768538E+04  0.7818609E-02  0.8313103E-01
        2   -1    0    0  501    0  0.00000000000E+00  0.00000000000E+00  0.18896347211E+04  0.18896347211E+04  0.25500000920E-02 0. -1.
       -2   -1    0    0    0  501  0.00000000000E+00  0.00000000000E+00 -0.10140590539E+04  0.10140590539E+04  0.25500000920E-02 0.  1.
    10030    2    1    2    0    0  0.00000000000E+00  0.00000000000E+00  0.87557566726E+03  0.29036937750E+04  0.27685383851E+04 0.  0.
        1    1    3    3  502    0 -0.47856187410E+03 -0.23828370779E+03  0.17769939622E+04  0.18556691878E+04  0.50400001928E-02 0. -1.
       -1    1    3    3    0  502  0.47856187410E+03  0.23828370779E+03 -0.90141829499E+03  0.10480245872E+04  0.50400001928E-02 0.  1.
</event>
<event>
 5   0  0.1017456E-05  0.2763453E+04  0.7818609E-02  0.8314705E-01
       -1   -1    0    0    0  501  0.00000000000E+00  0.00000000000E+00  0.11460230901E+04  0.11460230901E+04  0.50400001928E-02 0.  1.
        1   -1    0    0  501    0  0.00000000000E+00  0.00000000000E+00 -0.16659075491E+04  0.16659075491E+04  0.50400001928E-02 0. -1.
    10030    2    1    2    0    0  0.00000000000E+00  0.00000000000E+00 -0.51988445900E+03  0.28119306391E+04  0.27634532869E+04 0.  0.
        5    1    3    3  502    0  0.11904477658E+04  0.22868632485E+03  0.41477588050E+03  0.12812199028E+04  0.46999998093E+01 0.  1.
       -5    1    3    3    0  502 -0.11904477658E+04 -0.22868632485E+03 -0.93466033950E+03  0.15307107364E+04  0.46999998093E+01 0. -1.
</event>
<event>
 5   0  0.1105862E-05  0.2503707E+04  0.7818609E-02  0.8401666E-01
        1   -1    0    0  501    0  0.00000000000E+00  0.00000000000E+00  0.22526340216E+04  0.22526340216E+04  0.50400001928E-02 0.  1.
       -1   -1    0    0    0  501  0.00000000000E+00  0.00000000000E+00 -0.69569097521E+03  0.69569097523E+03  0.50400001928E-02 0. -1.
    10030    2    1    2    0    0  0.00000000000E+00  0.00000000000E+00  0.15569430463E+04  0.29483249968E+04  0.25037069791E+04 0.  0.
        3    1    3    3  502    0  0.71893972409E+03 -0.30633153033E+03 -0.37316928478E+03  0.86600730866E+03  0.10100000352E+00 0.  1.
       -3    1    3    3    0  502 -0.71893972409E+03  0.30633153033E+03  0.19301123311E+04  0.20823176881E+04  0.10100000352E+00 0. -1.
</event>
<event>
 5   0  0.2518686E-05  0.2836546E+04  0.7818609E-02  0.8292011E-01
       -2   -1    0    0    0  501  0.00000000000E+00  0.00000000000E+00  0.71126513984E+03  0.71126513985E+03  0.25500000920E-02 0.  1.
        2   -1    0    0  501    0  0.00000000000E+00  0.00000000000E+00 -0.28280577617E+04  0.28280577617E+04  0.25500000920E-02 0. -1.
    10030    2    1    2    0    0  0.00000000000E+00  0.00000000000E+00 -0.21167926218E+04  0.35393229015E+04  0.28365464208E+04 0.  0.
        5    1    3    3  502    0  0.12207394693E+04 -0.62861098479E+03 -0.61527504342E+03  0.15046401866E+04  0.46999998093E+01 0.  1.
       -5    1    3    3    0  502 -0.12207394693E+04  0.62861098479E+03 -0.15015175784E+04  0.20346827149E+04  0.46999998093E+01 0. -1.
</event>
<event>
 5   0  0.1105862E-05  0.2597819E+04  0.7818609E-02  0.8368943E-01
        1   -1    0    0  501    0  0.00000000000E+00  0.00000000000E+00  0.22875873374E+04  0.22875873374E+04  0.50400001928E-02 0. -1.
       -1   -1    0    0    0  501  0.00000000000E+00  0.00000000000E+00 -0.73753053046E+03  0.73753053048E+03  0.50400001928E-02 0.  1.
    10030    2    1    2    0    0  0.00000000000E+00  0.00000000000E+00  0.15500568070E+04  0.30251178679E+04  0.25978187023E+04 0.  0.
        3    1    3    3  502    0 -0.13333774313E+03  0.10370341631E+04 -0.12241525350E+03  0.10527128354E+04  0.10100000352E+00 0.  1.
       -3    1    3    3    0  502  0.13333774313E+03 -0.10370341631E+04  0.16724720605E+04  0.19724050326E+04  0.10100000352E+00 0. -1.
</event>
<event>
 5   0  0.2518686E-05  0.2783759E+04  0.7818609E-02  0.8308328E-01
       -2   -1    0    0    0  501  0.00000000000E+00  0.00000000000E+00  0.26531928816E+04  0.26531928816E+04  0.25500000920E-02 0. -1.
        2   -1    0    0  501    0  0.00000000000E+00  0.00000000000E+00 -0.73018734237E+03  0.73018734237E+03  0.25500000920E-02 0.  1.
    10030    2    1    2    0    0  0.00000000000E+00  0.00000000000E+00  0.19230055392E+04  0.33833802240E+04  0.27837585089E+04 0.  0.
        5    1    3    3  502    0  0.13739571441E+04 -0.78409079127E+02  0.70830383735E+03  0.15477799047E+04  0.46999998093E+01 0.  1.
       -5    1    3    3    0  502 -0.13739571441E+04  0.78409079127E+02  0.12147017019E+04  0.18356003193E+04  0.46999998093E+01 0. -1.
</event>
<event>
 5   0  0.1075146E-05  0.2808799E+04  0.7818609E-02  0.8300542E-01
        1   -1    0    0  501    0  0.00000000000E+00  0.00000000000E+00  0.14586741748E+04  0.14586741748E+04  0.50400001928E-02 0.  1.
       -1   -1    0    0    0  501  0.00000000000E+00  0.00000000000E+00 -0.13521439924E+04  0.13521439924E+04  0.50400001928E-02 0. -1.
    10030    2    1    2    0    0  0.00000000000E+00  0.00000000000E+00  0.10653018236E+03  0.28108181672E+04  0.28087986915E+04 0.  0.
        2    1    3    3  502    0 -0.12260406761E+04  0.48203118561E+03 -0.43371371992E+03  0.13869525566E+04  0.25500000920E-02 0. -1.
       -2    1    3    3    0  502  0.12260406761E+04 -0.48203118561E+03  0.54024390228E+03  0.14238656107E+04  0.25500000920E-02 0.  1.
</event>
<event>
 5   0  0.2697964E-05  0.1453009E+04  0.7818609E-02  0.8916317E-01
        2   -1    0    0  501    0  0.00000000000E+00  0.00000000000E+00  0.14884190962E+04  0.14884190962E+04  0.25500000920E-02 0. -1.
       -2   -1    0    0    0  501  0.00000000000E+00  0.00000000000E+00 -0.35461034680E+03  0.35461034681E+03  0.25500000920E-02 0.  1.
    10030    2    1    2    0    0  0.00000000000E+00  0.00000000000E+00  0.11338087494E+04  0.18430294430E+04  0.14530090322E+04 0.  0.
        1    1    3    3  502    0 -0.42970024725E+03 -0.46407142182E+03  0.10203618489E+04  0.12004761096E+04  0.50400001928E-02 0. -1.
       -1    1    3    3    0  502  0.42970024725E+03  0.46407142182E+03  0.11344690053E+03  0.64255333342E+03  0.50400001928E-02 0.  1.
</event>
<event>
 5   0  0.1075146E-05  0.1477282E+04  0.7818609E-02  0.8899702E-01
        1   -1    0    0  501    0  0.00000000000E+00  0.00000000000E+00  0.11199564234E+04  0.11199564234E+04  0.50400001928E-02 0.  1.
       -1   -1    0    0    0  501  0.00000000000E+00  0.00000000000E+00 -0.48715356659E+03  0.48715356661E+03  0.50400001928E-02 0. -1.
    10030    2    1    2    0    0  0.00000000000E+00  0.00000000000E+00  0.63280285683E+03  0.16071099900E+04  0.14772823239E+04 0.  0.
        2    1    3    3  502    0 -0.63538421071E+03 -0.96896301774E+02  0.71237996465E+03  0.95947235633E+03  0.25500000920E-02 0.  1.
       -2    1    3    3    0  502  0.63538421071E+03  0.96896301774E+02 -0.79577107816E+02  0.64763763372E+03  0.25500000920E-02 0. -1.
</event>
<event>
 5   0  0.2624815E-05  0.2795509E+04  0.7818609E-02  0.8304664E-01
        2   -1    0    0  501    0  0.00000000000E+00  0.00000000000E+00  0.21306474711E+04  0.21306474711E+04  0.25500000920E-02 0.  1.
       -2   -1    0    0    0  501  0.00000000000E+00  0.00000000000E+00 -0.91695959564E+03  0.91695959564E+03  0.25500000920E-02 0. -1.
    10030    2    1    2    0    0  0.00000000000E+00  0.00000000000E+00  0.12136878755E+04  0.30476070668E+04  0.27955090009E+04 0.  0.
        4    1    3    3  502    0  0.12576833704E+04  0.59907123064E+03  0.73144070020E+03  0.15734233094E+04  0.12699999809E+01 0.  1.
       -4    1    3    3    0  502 -0.12576833704E+04 -0.59907123064E+03  0.48224717530E+03  0.14741837574E+04  0.12699999809E+01 0. -1.
</event>
<event>
 5   0  0.1067434E-05  0.2754785E+04  0.7818609E-02  0.8317445E-01
       -1   -1    0    0    0  501  0.00000000000E+00  0.00000000000E+00  0.12374191285E+04  0.12374191285E+04  0.50400001928E-02 0.  1.
        1   -1    0    0  501    0  0.00000000000E+00  0.00000000000E+00 -0.15331989928E+04  0.15331989928E+04  0.50400001928E-02 0. -1.
    10030    2    1    2    0    0  0.00000000000E+00  0.00000000000E+00 -0.29577986433E+03  0.27706181213E+04  0.27547847549E+04 0.  0.
        4    1    3    3  502    0 -0.35471364519E+03 -0.12984358350E+04  0.14610982164E+03  0.13539228488E+04  0.12699999809E+01 0.  1.
       -4    1    3    3    0  502  0.35471364519E+03  0.12984358350E+04 -0.44188968597E+03  0.14166952725E+04  0.12699999809E+01 0. -1.
</event>
<event>
 5   0  0.8958000E-06  0.1868229E+04  0.7818609E-02  0.8670835E-01
       -4   -1    0    0    0  501  0.00000000000E+00  0.00000000000E+00  0.93552557643E+03  0.93552643846E+03  0.12699999809E+01 0. -1.
        4   -1    0    0  501    0  0.00000000000E+00  0.00000000000E+00 -0.93270336021E+03  0.93270422485E+03  0.12699999809E+01 0.  1.
    10030    2    1    2    0    0  0.00000000000E+00  0.00000000000E+00  0.28222162149E+01  0.18682306633E+04  0.18682285316E+04 0.  0.
        3    1    3    3  502    0  0.91114439673E+03 -0.15367852249E+03  0.13840853241E+03  0.93432228487E+03  0.10100000352E+00 0.  1.
       -3    1    3    3    0  502 -0.91114439673E+03  0.15367852249E+03 -0.13558631619E+03  0.93390837843E+03  0.10100000352E+00 0. -1.
</event>
<event>
 5   0  0.1017456E-05  0.2758243E+04  0.7818609E-02  0.8316351E-01
       -1   -1    0    0    0  501  0.00000000000E+00  0.00000000000E+00  0.19732816138E+04  0.19732816138E+04  0.50400001928E-02 0.  1.
        1   -1    0    0  501    0  0.00000000000E+00  0.00000000000E+00 -0.96386470304E+03  0.96386470305E+03  0.50400001928E-02 0. -1.
    10030    2    1    2    0    0  0.00000000000E+00  0.00000000000E+00  0.10094169107E+04  0.29371463168E+04  0.27582432791E+04 0.  0.
        5    1    3    3  502    0 -0.84196832547E+03  0.53071366967E+03 -0.51187811368E+03  0.11192001401E+04  0.46999998093E+01 0. -1.
       -5    1    3    3    0  502  0.84196832547E+03 -0.53071366967E+03  0.15212950244E+04  0.18179461767E+04  0.46999998093E+01 0.  1.
</event>
<event>
 5   0  0.1075146E-05  0.2533472E+04  0.7818609E-02  0.8391157E-01
        1   -1    0    0  501    0  0.00000000000E+00  0.00000000000E+00  0.90329393190E+03  0.90329393192E+03  0.50400001928E-02 0.  1.
       -1   -1    0    0    0  501  0.00000000000E+00  0.00000000000E+00 -0.17764099158E+04  0.17764099158E+04  0.50400001928E-02 0. -1.
    10030    2    1    2    0    0  0.00000000000E+00  0.00000000000E+00 -0.87311598386E+03  0.26797038477E+04  0.25334721609E+04 0.  0.
        2    1    3    3  502    0  0.23650969984E+01  0.11254296051E+04 -0.10515135487E+04  0.15402201572E+04  0.25500000920E-02 0. -1.
       -2    1    3    3    0  502 -0.23650969984E+01 -0.11254296051E+04  0.17839756484E+03  0.11394836904E+04  0.25500000920E-02 0.  1.
</event>
<event>
 5   0  0.1105862E-05  0.2829292E+04  0.7818609E-02  0.8294232E-01
       -1   -1    0    0    0  501  0.00000000000E+00  0.00000000000E+00  0.10616521107E+04  0.10616521107E+04  0.50400001928E-02 0.  1.
        1   -1    0    0  501    0  0.00000000000E+00  0.00000000000E+00 -0.18850083051E+04  0.18850083051E+04  0.50400001928E-02 0. -1.
    10030    2    1    2    0    0  0.00000000000E+00  0.00000000000E+00 -0.82335619435E+03  0.29466604158E+04  0.28292918166E+04 0.  0.
        3    1    3    3  502    0  0.84482332734E+03  0.39883578370E+03  0.69466289176E+03  0.11641962808E+04  0.10100000352E+00 0.  1.
       -3    1    3    3    0  502 -0.84482332734E+03 -0.39883578370E+03 -0.15180190861E+04  0.17824641351E+04  0.10100000352E+00 0. -1.
</event>
<event>
 5   0  0.1017456E-05  0.2814846E+04  0.7818609E-02  0.8298674E-01
       -1   -1    0    0    0  501  0.00000000000E+00  0.00000000000E+00  0.19351444451E+04  0.19351444451E+04  0.50400001928E-02 0. -1.
        1   -1    0    0  501    0  0.00000000000E+00  0.00000000000E+00 -0.10236136038E+04  0.10236136038E+04  0.50400001928E-02 0.  1.
    10030    2    1    2    0    0  0.00000000000E+00  0.00000000000E+00  0.91153084128E+03  0.29587580489E+04  0.28148464820E+04 0.  0.
        5    1    3    3  502    0 -0.79178343681E+03  0.31126673130E+03 -0.72271975027E+03  0.11163126427E+04  0.46999998093E+01 0.  1.
       -5    1    3    3    0  502  0.79178343681E+03 -0.31126673130E+03  0.16342505915E+04  0.18424454062E+04  0.46999998093E+01 0. -1.
</event>
<event>
 5   0  0.1017456E-05  0.2853983E+04  0.7818609E-02  0.8286702E-01
        1   -1    0    0  501    0  0.00000000000E+00  0.00000000000E+00  0.16403241970E+04  0.16403241970E+04  0.50400001928E-02 0.  1.
       -1   -1    0    0    0  501  0.00000000000E+00  0.00000000000E+00 -0.12414037669E+04  0.12414037669E+04  0.50400001928E-02 0. -1.
    10030    2    1    2    0    0  0.00000000000E+00  0.00000000000E+00  0.39892043005E+03  0.28817279639E+04  0.28539829272E+04 0.  0.
        5    1    3    3  502    0  0.10849727544E+04  0.86835908503E+03  0.52675513014E+03  0.14861717382E+04  0.46999998093E+01 0.  1.
       -5    1    3    3    0  502 -0.10849727544E+04 -0.86835908503E+03 -0.12783470008E+03  0.13955562257E+04  0.46999998093E+01 0. -1.
</event>
<event>
 5   0  0.1017456E-05  0.2786614E+04  0.7818609E-02  0.8307436E-01
       -1   -1    0    0    0  501  0.00000000000E+00  0.00000000000E+00  0.11703617627E+04  0.11703617627E+04  0.50400001928E-02 0.  1.
        1   -1    0    0  501    0  0.00000000000E+00  0.00000000000E+00 -0.16587214011E+04  0.16587214011E+04  0.50400001928E-02 0. -1.
    10030    2    1    2    0    0  0.00000000000E+00  0.00000000000E+00 -0.48835963842E+03  0.28290831638E+04  0.27866137894E+04 0.  0.
        5    1    3    3  502    0  0.11954811990E+04  0.55057280297E+02 -0.96854904742E+03  0.15395830437E+04  0.46999998093E+01 0. -1.
       -5    1    3    3    0  502 -0.11954811990E+04 -0.55057280297E+02  0.48018940900E+03  0.12895001201E+04  0.46999998093E+01 0.  1.
</event>
<event>
 5   0  0.2624815E-05  0.2672771E+04  0.7818609E-02  0.8343894E-01
        2   -1    0    0  501    0  0.00000000000E+00  0.00000000000E+00  0.91257615918E+03  0.91257615919E+03  0.25500000920E-02 0. -1.
       -2   -1    0    0    0  501  0.00000000000E+00  0.00000000000E+00 -0.19570158559E+04  0.19570158559E+04  0.25500000920E-02 0.  1.
    10030    2    1    2    0    0  0.00000000000E+00  0.00000000000E+00 -0.10444396967E+04  0.28695920151E+04  0.26727708568E+04 0.  0.
        4    1    3    3  502    0 -0.15447454177E+03  0.80664758606E+03 -0.16540729008E+04  0.18467543112E+04  0.12699999809E+01 0.  1.
       -4    1    3    3    0  502  0.15447454177E+03 -0.80664758606E+03  0.60963320401E+03  0.10228377039E+04  0.12699999809E+01 0. -1.
</event>
<event>
 5   0  0.1067434E-05  0.1414993E+04  0.7818609E-02  0.8943037E-01
        1   -1    0    0  501    0  0.00000000000E+00  0.00000000000E+00  0.19721864608E+04  0.19721864608E+04  0.50400001928E-02 0. -1.
       -1   -1    0    0    0  501  0.00000000000E+00  0.00000000000E+00 -0.25380530806E+03  0.25380530811E+03  0.50400001928E-02 0.  1.
    10030    2    1    2    0    0  0.00000000000E+00  0.00000000000E+00  0.17183811527E+04  0.22259917689E+04  0.14149931340E+04 0.  0.
        4    1    3    3  502    0  0.67776085289E+03  0.45856813228E+02  0.54817204173E+03  0.87290138118E+03  0.12699999809E+01 0.  1.
       -4    1    3    3    0  502 -0.67776085289E+03 -0.45856813228E+02  0.11702091110E+04  0.13530903877E+04  0.12699999809E+01 0. -1.
</event>
<event>
 5   0  0.2651061E-05  0.1762056E+04  0.7818609E-02  0.8726742E-01
       -2   -1    0    0    0  501  0.00000000000E+00  0.00000000000E+00  0.17158173400E+04  0.17158173400E+04  0.25500000920E-02 0. -1.
        2   -1    0    0  501    0  0.00000000000E+00  0.00000000000E+00 -0.45238503183E+03  0.45238503184E+03  0.25500000920E-02 0.  1.
    10030    2    1    2    0    0  0.00000000000E+00  0.00000000000E+00  0.12634323082E+04  0.21682023718E+04  0.17620557108E+04 0.  0.
        3    1    3    3  502    0  0.51541918092E+03 -0.37181646210E+03 -0.11909375910E+03  0.64659705165E+03  0.10100000352E+00 0.  1.
       -3    1    3    3    0  502 -0.51541918092E+03  0.37181646210E+03  0.13825260673E+04  0.15216053202E+04  0.10100000352E+00 0. -1.
</event>
<event>
 5   0  0.2697964E-05  0.2725259E+04  0.7818609E-02  0.8326855E-01
        2   -1    0    0  501    0  0.00000000000E+00  0.00000000000E+00  0.90492278130E+03  0.90492278130E+03  0.25500000920E-02 0. -1.
       -2   -1    0    0    0  501  0.00000000000E+00  0.00000000000E+00 -0.20518430712E+04  0.20518430712E+04  0.25500000920E-02 0.  1.
    10030    2    1    2    0    0  0.00000000000E+00  0.00000000000E+00 -0.11469202899E+04  0.29567658525E+04  0.27252592822E+04 0.  0.
        1    1    3    3  502    0  0.10928485074E+04 -0.67849390229E+03 -0.85730615740E+02  0.12891941569E+04  0.50400001928E-02 0.  1.
       -1    1    3    3    0  502 -0.10928485074E+04  0.67849390229E+03 -0.10611896742E+04  0.16675716957E+04  0.50400001928E-02 0. -1.
</event>
<event>
 5   0  0.1067434E-05  0.2833566E+04  0.7818609E-02  0.8292923E-01
       -1   -1    0    0    0  501  0.00000000000E+00  0.00000000000E+00  0.70355195129E+03  0.70355195130E+03  0.50400001928E-02 0. -1.
        1   -1    0    0  501    0  0.00000000000E+00  0.00000000000E+00 -0.28530574929E+04  0.28530574929E+04  0.50400001928E-02 0.  1.
    10030    2    1    2    0    0  0.00000000000E+00  0.00000000000E+00 -0.21495055416E+04  0.35566094442E+04  0.28335660686E+04 0.  0.
        4    1    3    3  502    0  0.98730882469E+03 -0.98037576042E+03 -0.73946188062E+03  0.15756652032E+04  0.12699999809E+01 0. -1.
       -4    1    3    3    0  502 -0.98730882469E+03  0.98037576042E+03 -0.14100436609E+04  0.19809442409E+04  0.12699999809E+01 0.  1.
</event>
<event>
 5   0  0.2697964E-05  0.2809539E+04  0.7818609E-02  0.8300313E-01
        2   -1    0    0  501    0  0.00000000000E+00  0.00000000000E+00  0.14295947844E+04  0.14295947844E+04  0.25500000920E-02 0. -1.
       -2   -1    0    0    0  501  0.00000000000E+00  0.00000000000E+00 -0.13803757662E+04  0.13803757662E+04  0.25500000920E-02 0.  1.
    10030    2    1    2    0    0  0.00000000000E+00  0.00000000000E+00  0.49219018224E+02  0.28099705506E+04  0.28095394611E+04 0.  0.
        1    1    3    3  502    0  0.76467480684E+03  0.26951673530E+03 -0.11227418092E+04  0.13848884435E+04  0.50400001928E-02 0.  1.
       -1    1    3    3    0  502 -0.76467480684E+03 -0.26951673530E+03  0.11719608275E+04  0.14250821071E+04  0.50400001928E-02 0. -1.
</event>
<event>
 5   0  0.2651061E-05  0.2494940E+04  0.7818609E-02  0.8404791E-01
       -2   -1    0    0    0  501  0.00000000000E+00  0.00000000000E+00  0.51653793489E+03  0.51653793490E+03  0.25500000920E-02 0.  1.
        2   -1    0    0  501    0  0.00000000000E+00  0.00000000000E+00 -0.30127138594E+04  0.30127138594E+04  0.25500000920E-02 0. -1.
    10030    2    1    2    0    0  0.00000000000E+00  0.00000000000E+00 -0.24961759245E+04  0.35292517943E+04  0.24949396749E+04 0.  0.
        3    1    3    3  502    0  0.12467500117E+03  0.92728979934E+03 -0.80947726746E+02  0.93912873055E+03  0.10100000352E+00 0.  1.
       -3    1    3    3    0  502 -0.12467500117E+03 -0.92728979934E+03 -0.24152281978E+04  0.25901230637E+04  0.10100000352E+00 0. -1.
</event>
<event>
 5   0  0.1075146E-05  0.1405602E+04  0.7818609E-02  0.8949774E-01
        1   -1    0    0  501    0  0.00000000000E+00  0.00000000000E+00  0.31529857482E+03  0.31529857486E+03  0.50400001928E-02 0. -1.
       -1   -1    0    0    0  501  0.00000000000E+00  0.00000000000E+00 -0.15665437960E+04  0.15665437960E+04  0.50400001928E-02 0.  1.
    10030    2    1    2    0    0  0.00000000000E+00  0.00000000000E+00 -0.12512452212E+04  0.18818423709E+04  0.14056016880E+04 0.  0.
        2    1    3    3  502    0  0.15053872857E+03 -0.65438179294E+03 -0.34783328509E+03  0.75621784821E+03  0.25500000920E-02 0. -1.
       -2    1    3    3    0  502 -0.15053872857E+03  0.65438179294E+03 -0.90341193613E+03  0.11256245227E+04  0.25500000920E-02 0.  1.
</event>
<event>
 5   0  0.2651061E-05  0.1533288E+04  0.7818609E-02  0.8862614E-01
       -2   -1    0    0    0  501  0.00000000000E+00  0.00000000000E+00  0.55584884033E+03  0.55584884033E+03  0.25500000920E-02 0. -1.
        2   -1    0    0  501    0  0.00000000000E+00  0.00000000000E+00 -0.10573788669E+04  0.10573788669E+04  0.25500000920E-02 0.  1.
    10030    2    1    2    0    0  0.00000000000E+00  0.00000000000E+00 -0.50153002656E+03  0.16132277072E+04  0.15332877316E+04 0.  0.
        3    1    3    3  502    0  0.25449694199E+03 -0.70407052981E+03 -0.77054782711E+02  0.75260976221E+03  0.10100000352E+00 0. -1.
       -3    1    3    3    0  502 -0.25449694199E+03  0.70407052981E+03 -0.42447524385E+03  0.86061794502E+03  0.10100000352E+00 0.  1.
</event>
<event>
 5   0  0.1067434E-05  0.2608547E+04  0.7818609E-02  0.8365304E-01
        1   -1    0    0  501    0  0.00000000000E+00  0.00000000000E+00  0.79309677205E+03  0.79309677207E+03  0.50400001928E-02 0.  1.
       -1   -1    0    0    0  501  0.00000000000E+00  0.00000000000E+00 -0.21449204565E+04  0.21449204565E+04  0.50400001928E-02 0. -1.
    10030    2    1    2    0    0  0.00000000000E+00  0.00000000000E+00 -0.13518236845E+04  0.29380172286E+04  0.26085470978E+04 0.  0.
        4    1    3    3  502    0 -0.28389791272E+03 -0.97670439858E+03  0.24365068340E+03  0.10459047641E+04  0.12699999809E+01 0.  1.
       -4    1    3    3    0  502  0.28389791272E+03  0.97670439858E+03 -0.15954743679E+04  0.18921124645E+04  0.12699999809E+01 0. -1.
</event>
<event>
 5   0  0.1075146E-05  0.2190645E+04  0.7818609E-02  0.8522332E-01
        1   -1    0    0  501    0  0.00000000000E+00  0.00000000000E+00  0.15244026192E+04  0.15244026192E+04  0.50400001928E-02 0.  1.
       -1   -1    0    0    0  501  0.00000000000E+00  0.00000000000E+00 -0.78701714321E+03  0.78701714323E+03  0.50400001928E-02 0. -1.
    10030    2    1    2    0    0  0.00000000000E+00  0.00000000000E+00  0.73738547600E+03  0.23114197624E+04  0.21906446490E+04 0.  0.
        2    1    3    3  502    0  0.15977572215E+03  0.37413925578E+02 -0.77397352407E+03  0.79117829797E+03  0.25500000920E-02 0. -1.
       -2    1    3    3    0  502 -0.15977572215E+03 -0.37413925578E+02  0.15113590001E+04  0.15202414645E+04  0.25500000920E-02 0.  1.
</event>
<event>
 5   0  0.1078103E-05  0.2665778E+04  0.7818609E-02  0.8346195E-01
        1   -1    0    0  501    0  0.00000000000E+00  0.00000000000E+00  0.17299251000E+04  0.17299251000E+04  0.50400001928E-02 0. -1.
       -1   -1    0    0    0  501  0.00000000000E+00  0.00000000000E+00 -0.10269766120E+04  0.10269766120E+04  0.50400001928E-02 0.  1.
    10030    2    1    2    0    0  0.00000000000E+00  0.00000000000E+00  0.70294848804E+03  0.27569017121E+04  0.26657776489E+04 0.  0.
        1    1    3    3  502    0 -0.11950285501E+04  0.56694361715E+03  0.18130693865E+03  0.13350619860E+04  0.50400001928E-02 0. -1.
       -1    1    3    3    0  502  0.11950285501E+04 -0.56694361715E+03  0.52164154939E+03  0.14218397260E+04  0.50400001928E-02 0.  1.
</event>
<event>
 5   0  0.2697964E-05  0.2601912E+04  0.7818609E-02  0.8367552E-01
        2   -1    0    0  501    0  0.00000000000E+00  0.00000000000E+00  0.77094979697E+03  0.77094979698E+03  0.25500000920E-02 0. -1.
       -2   -1    0    0    0  501  0.00000000000E+00  0.00000000000E+00 -0.21953260534E+04  0.21953260534E+04  0.25500000920E-02 0.  1.
    10030    2    1    2    0    0  0.00000000000E+00  0.00000000000E+00 -0.14243762564E+04  0.29662758503E+04  0.26019117396E+04 0.  0.
        1    1    3    3  502    0  0.21836604215E+03 -0.98656863833E+03 -0.16463820954E+04  0.19317286068E+04  0.50400001928E-02 0.  1.
       -1    1    3    3    0  502 -0.21836604215E+03  0.98656863833E+03  0.22200583897E+03  0.10345472435E+04  0.50400001928E-02 0. -1.
</event>
<event>
 5   0  0.1078103E-05  0.2195789E+04  0.7818609E-02  0.8520183E-01
       -1   -1    0    0    0  501  0.00000000000E+00  0.00000000000E+00  0.64989642353E+03  0.64989642355E+03  0.50400001928E-02 0.  1.
        1   -1    0    0  501    0  0.00000000000E+00  0.00000000000E+00 -0.18547145433E+04  0.18547145433E+04  0.50400001928E-02 0. -1.
    10030    2    1    2    0    0  0.00000000000E+00  0.00000000000E+00 -0.12048181198E+04  0.25046109669E+04  0.21957890139E+04 0.  0.
        1    1    3    3  502    0 -0.72326981651E+03  0.76644454593E+03 -0.25118018895E+03  0.10833503389E+04  0.50400001928E-02 0.  1.
       -1    1    3    3    0  502  0.72326981651E+03 -0.76644454593E+03 -0.95363793084E+03  0.14212606280E+04  0.50400001928E-02 0. -1.
</event>
<event>
 5   0  0.1067434E-05  0.2773729E+04  0.7818609E-02  0.8311471E-01
        1   -1    0    0  501    0  0.00000000000E+00  0.00000000000E+00  0.80005864090E+03  0.80005864092E+03  0.50400001928E-02 0. -1.
       -1   -1    0    0    0  501  0.00000000000E+00  0.00000000000E+00 -0.24040656841E+04  0.24040656841E+04  0.50400001928E-02 0.  1.
    10030    2    1    2    0    0  0.00000000000E+00  0.00000000000E+00 -0.16040070432E+04  0.32041243250E+04  0.27737292758E+04 0.  0.
        4    1    3    3  502    0 -0.47539499619E+03  0.99369175317E+02 -0.23026189332E+04  0.23532807312E+04  0.12699999809E+01 0.  1.
       -4    1    3    3    0  502  0.47539499619E+03 -0.99369175317E+02  0.69861189000E+03  0.85084359383E+03  0.12699999809E+01 0. -1.
</event>
<event>
 5   0  0.2588048E-05  0.2777083E+04  0.7818609E-02  0.8310419E-01
       -2   -1    0    0    0  501  0.00000000000E+00  0.00000000000E+00  0.13265311833E+04  0.13265311833E+04  0.25500000920E-02 0. -1.
        2   -1    0    0  501    0  0.00000000000E+00  0.00000000000E+00 -0.14534501253E+04  0.14534501253E+04  0.25500000920E-02 0.  1.
    10030    2    1    2    0    0  0.00000000000E+00  0.00000000000E+00 -0.12691894195E+03  0.27799813086E+04  0.27770825804E+04 0.  0.
        2    1    3    3  502    0 -0.14477212731E+03  0.86900107736E+03  0.10109385441E+04  0.13409394398E+04  0.25500000920E-02 0. -1.
       -2    1    3    3    0  502  0.14477212731E+03 -0.86900107736E+03 -0.11378574861E+04  0.14390418687E+04  0.25500000920E-02 0.  1.
</event>
<event>
 5   0  0.2588048E-05  0.2842344E+04  0.7818609E-02  0.8290242E-01
        2   -1    0    0  501    0  0.00000000000E+00  0.00000000000E+00  0.15240677441E+04  0.15240677441E+04  0.25500000920E-02 0.  1.
       -2   -1    0    0    0  501  0.00000000000E+00  0.00000000000E+00 -0.13252230759E+04  0.13252230759E+04  0.25500000920E-02 0. -1.
    10030    2    1    2    0    0  0.00000000000E+00  0.00000000000E+00  0.19884466828E+03  0.28492908200E+04  0.28423439227E+04 0.  0.
        2    1    3    3  502    0  0.15368943128E+03  0.13978425990E+04 -0.10637279518E+03  0.14102834979E+04  0.25500000920E-02 0.  1.
       -2    1    3    3    0  502 -0.15368943128E+03 -0.13978425990E+04  0.30521746346E+03  0.14390073221E+04  0.25500000920E-02 0. -1.
</event>
<event>
 5   0  0.2518686E-05  0.2826130E+04  0.7818609E-02  0.8295202E-01
       -2   -1    0    0    0  501  0.00000000000E+00  0.00000000000E+00  0.13610000358E+04  0.13610000358E+04  0.25500000920E-02 0.  1.
        2   -1    0    0  501    0  0.00000000000E+00  0.00000000000E+00 -0.14671214332E+04  0.14671214332E+04  0.25500000920E-02 0. -1.
    10030    2    1    2    0    0  0.00000000000E+00  0.00000000000E+00 -0.10612139738E+03  0.28281214690E+04  0.28261297374E+04 0.  0.
        5    1    3    3  502    0 -0.32208271474E+03  0.58880835769E+03 -0.12974392459E+04  0.14607543407E+04  0.46999998093E+01 0. -1.
       -5    1    3    3    0  502  0.32208271474E+03 -0.58880835769E+03  0.11913178485E+04  0.13673671282E+04  0.46999998093E+01 0.  1.
</event>
<event>
 5   0  0.2697964E-05  0.2915085E+04  0.7818609E-02  0.8268403E-01
        2   -1    0    0  501    0  0.00000000000E+00  0.00000000000E+00  0.24376225256E+04  0.24376225256E+04  0.25500000920E-02 0. -1.
       -2   -1    0    0    0  501  0.00000000000E+00  0.00000000000E+00 -0.87151737234E+03  0.87151737235E+03  0.25500000920E-02 0.  1.
    10030    2    1    2    0    0  0.00000000000E+00  0.00000000000E+00  0.15661051533E+04  0.33091398980E+04  0.29150851640E+04 0.  0.
        1    1    3    3  502    0 -0.99414573169E+03  0.49209653775E+03 -0.29024323846E+03  0.11466149641E+04  0.50400001928E-02 0.  1.
       -1    1    3    3    0  502  0.99414573169E+03 -0.49209653775E+03  0.18563483918E+04  0.21625249339E+04  0.50400001928E-02 0. -1.
</event>
<event>
 5   0  0.1105862E-05  0.2750472E+04  0.7818609E-02  0.8318812E-01
        1   -1    0    0  501    0  0.00000000000E+00  0.00000000000E+00  0.12383158249E+04  0.12383158250E+04  0.50400001928E-02 0. -1.
       -1   -1    0    0    0  501  0.00000000000E+00  0.00000000000E+00 -0.15272951321E+04  0.15272951321E+04  0.50400001928E-02 0.  1.
    10030    2    1    2    0    0  0.00000000000E+00  0.00000000000E+00 -0.28897930713E+03  0.27656109570E+04  0.27504717642E+04 0.  0.
        3    1    3    3  502    0 -0.15527835552E+03 -0.23092550186E+03 -0.14986898638E+04  0.15243061612E+04  0.10100000352E+00 0.  1.
       -3    1    3    3    0  502  0.15527835552E+03  0.23092550186E+03  0.12097105566E+04  0.12413047958E+04  0.10100000352E+00 0. -1.
</event>
<event>
 5   0  0.2624815E-05  0.2818202E+04  0.7818609E-02  0.8297640E-01
        2   -1    0    0  501    0  0.00000000000E+00  0.00000000000E+00  0.10746023393E+04  0.10746023393E+04  0.25500000920E-02 0.  1.
       -2   -1    0    0    0  501  0.00000000000E+00  0.00000000000E+00 -0.18477215427E+04  0.18477215427E+04  0.25500000920E-02 0. -1.
    10030    2    1    2    0    0  0.00000000000E+00  0.00000000000E+00 -0.77311920338E+03  0.29223238820E+04  0.28182021874E+04 0.  0.
        4    1    3    3  502    0  0.21382775248E+03 -0.11861559819E+04 -0.11435132088E+04  0.16614187891E+04  0.12699999809E+01 0.  1.
       -4    1    3    3    0  502 -0.21382775248E+03  0.11861559819E+04  0.37039400544E+03  0.12609050929E+04  0.12699999809E+01 0. -1.
</event>
<event>
 5   0  0.2518686E-05  0.2812489E+04  0.7818609E-02  0.8299401E-01
        2   -1    0    0  501    0  0.00000000000E+00  0.00000000000E+00  0.15604576325E+04  0.15604576325E+04  0.25500000920E-02 0.  1.
       -2   -1    0    0    0  501  0.00000000000E+00  0.00000000000E+00 -0.12672716453E+04  0.12672716453E+04  0.25500000920E-02 0. -1.
    10030    2    1    2    0    0  0.00000000000E+00  0.00000000000E+00  0.29318598722E+03  0.28277292778E+04  0.28124890837E+04 0.  0.
        5    1    3    3  502    0  0.73403384172E+03 -0.78259947239E+03  0.10604926540E+04  0.15086200231E+04  0.46999998093E+01 0.  1.
       -5    1    3    3    0  502 -0.73403384172E+03  0.78259947239E+03 -0.76730666680E+03  0.13191092547E+04  0.46999998093E+01 0. -1.
</event>
<event>
 5   0  0.2651061E-05  0.2840600E+04  0.7818609E-02  0.8290773E-01
       -2   -1    0    0    0  501  0.00000000000E+00  0.00000000000E+00  0.25259733966E+04  0.25259733966E+04  0.25500000920E-02 0.  1.
        2   -1    0    0  501    0  0.00000000000E+00  0.00000000000E+00 -0.79860365465E+03  0.79860365465E+03  0.25500000920E-02 0. -1.
    10030    2    1    2    0    0  0.00000000000E+00  0.00000000000E+00  0.17273697419E+04  0.33245770512E+04  0.28405996452E+04 0.  0.
        3    1    3    3  502    0  0.72581436327E+03  0.25124533462E+03 -0.53457270771E+03  0.93578774203E+03  0.10100000352E+00 0. -1.
       -3    1    3    3    0  502 -0.72581436327E+03 -0.25124533462E+03  0.22619424496E+04  0.23887893092E+04  0.10100000352E+00 0.  1.
</event>
<event>
 5   0  0.1078103E-05  0.2619644E+04  0.7818609E-02  0.8361559E-01
        1   -1    0    0  501    0  0.00000000000E+00  0.00000000000E+00  0.22270432852E+04  0.22270432852E+04  0.50400001928E-02 0.  1.
       -1   -1    0    0    0  501  0.00000000000E+00  0.00000000000E+00 -0.77036398314E+03  0.77036398316E+03  0.50400001928E-02 0. -1.
    10030    2    1    2    0    0  0.00000000000E+00  0.00000000000E+00  0.14566793021E+04  0.29974072684E+04  0.26196442017E+04 0.  0.
        1    1    3    3  502    0  0.21556467467E+03  0.78569482411E+03  0.19018319354E+04  0.20689971475E+04  0.50400001928E-02 0.  1.
       -1    1    3    3    0  502 -0.21556467467E+03 -0.78569482411E+03 -0.44515263336E+03  0.92841012091E+03  0.50400001928E-02 0. -1.
</event>
<event>
 5   0  0.8958000E-06  0.2814395E+04  0.7818609E-02  0.8298813E-01
        4   -1    0    0  501    0  0.00000000000E+00  0.00000000000E+00  0.17064575147E+04  0.17064579873E+04  0.12699999809E+01 0.  1.
       -4   -1    0    0    0  501  0.00000000000E+00  0.00000000000E+00 -0.11604171667E+04  0.11604178617E+04  0.12699999809E+01 0. -1.
    10030    2    1    2    0    0  0.00000000000E+00  0.00000000000E+00  0.54604034797E+03  0.28668758490E+04  0.28143946190E+04 0.  0.
        5    1    3    3  502    0 -0.48911101501E+03 -0.10980317320E+04 -0.47225037580E+03  0.12914897510E+04  0.46999998093E+01 0. -1.
       -5    1    3    3    0  502  0.48911101501E+03  0.10980317320E+04  0.10182907238E+04  0.15753860980E+04  0.46999998093E+01 0.  1.
</event>
<event>
 5   0  0.1075146E-05  0.1795578E+04  0.7818609E-02  0.8708654E-01
        1   -1    0    0  501    0  0.00000000000E+00  0.00000000000E+00  0.84995245293E+03  0.84995245294E+03  0.50400001928E-02 0. -1.
       -1   -1    0    0    0  501  0.00000000000E+00  0.00000000000E+00 -0.94831834854E+03  0.94831834855E+03  0.50400001928E-02 0.  1.
    10030    2    1    2    0    0  0.00000000000E+00  0.00000000000E+00 -0.98365895611E+02  0.17982708015E+04  0.17955784656E+04 0.  0.
        2    1    3    3  502    0  0.47495662230E+03  0.46739503201E+03 -0.65173580534E+03  0.93209520382E+03  0.25500000920E-02 0.  1.
       -2    1    3    3    0  502 -0.47495662230E+03 -0.46739503201E+03  0.55336990973E+03  0.86617559768E+03  0.25500000920E-02 0. -1.
</event>
<event>
 5   0  0.2588048E-05  0.2777744E+04  0.7818609E-02  0.8310211E-01
       -2   -1    0    0    0  501  0.00000000000E+00  0.00000000000E+00  0.10165944009E+04  0.10165944009E+04  0.25500000920E-02 0. -1.
        2   -1    0    0  501    0  0.00000000000E+00  0.00000000000E+00 -0.18974780417E+04  0.18974780417E+04  0.25500000920E-02 0.  1.
    10030    2    1    2    0    0  0.00000000000E+00  0.00000000000E+00 -0.88088364078E+03  0.29140724426E+04  0.27777440869E+04 0.  0.
        2    1    3    3  502    0  0.35646902638E+02 -0.27729862388E+03  0.98676823111E+03  0.10256104379E+04  0.25500000920E-02 0. -1.
       -2    1    3    3    0  502 -0.35646902638E+02  0.27729862388E+03 -0.18676518719E+04  0.18884620047E+04  0.25500000920E-02 0.  1.
</event>
<event>
 5   0  0.2624815E-05  0.2900431E+04  0.7818609E-02  0.8272749E-01
        2   -1    0    0  501    0  0.00000000000E+00  0.00000000000E+00  0.12845656233E+04  0.12845656233E+04  0.25500000920E-02 0. -1.
       -2   -1    0    0    0  501  0.00000000000E+00  0.00000000000E+00 -0.16372268440E+04  0.16372268440E+04  0.25500000920E-02 0.  1.
    10030    2    1    2    0    0  0.00000000000E+00  0.00000000000E+00 -0.35266122072E+03  0.29217924672E+04  0.29004312240E+04 0.  0.
        4    1    3    3  502    0 -0.74447951823E+03 -0.25764448519E+02 -0.14297654106E+04  0.16121861872E+04  0.12699999809E+01 0.  1.
       -4    1    3    3    0  502  0.74447951823E+03  0.25764448519E+02  0.10771041899E+04  0.13096062800E+04  0.12699999809E+01 0. -1.
</event>
<event>
 5   0  0.2518686E-05  0.2784574E+04  0.7818609E-02  0.8308074E-01
       -2   -1    0    0    0  501  0.00000000000E+00  0.00000000000E+00  0.12376151134E+04  0.12376151134E+04  0.25500000920E-02 0. -1.
        2   -1    0    0  501    0  0.00000000000E+00  0.00000000000E+00 -0.15662887425E+04  0.15662887426E+04  0.25500000920E-02 0.  1.
    10030    2    1    2    0    0  0.00000000000E+00  0.00000000000E+00 -0.32867362911E+03  0.28039038560E+04  0.27845736620E+04 0.  0.
        5    1    3    3  502    0 -0.12514056982E+04 -0.60887700996E+03 -0.20576968962E+03  0.14068086899E+04  0.46999998093E+01 0.  1.
       -5    1    3    3    0  502  0.12514056982E+04  0.60887700996E+03 -0.12290393949E+03  0.13970951661E+04  0.46999998093E+01 0. -1.
</event>
<event>
 5   0  0.1078103E-05  0.2788674E+04  0.7818609E-02  0.8306793E-01
       -1   -1    0    0    0  501  0.00000000000E+00  0.00000000000E+00  0.10615937091E+04  0.10615937091E+04  0.50400001928E-02 0.  1.
        1   -1    0    0  501    0  0.00000000000E+00  0.00000000000E+00 -0.18313749066E+04  0.18313749066E+04  0.50400001928E-02 0. -1.
    10030    2    1    2    0    0  0.00000000000E+00  0.00000000000E+00 -0.76978119748E+03  0.28929686157E+04  0.27886742942E+04 0.  0.
        1    1    3    3  502    0 -0.74101336055E+02  0.48299056759E+03 -0.17396423408E+04  0.18069660679E+04  0.50400001928E-02 0. -1.
       -1    1    3    3    0  502  0.74101336055E+02 -0.48299056759E+03  0.96986114336E+03  0.10860025478E+04  0.50400001928E-02 0.  1.
</event>
<event>
 5   0  0.1067434E-05  0.2755895E+04  0.7818609E-02  0.8317094E-01
       -1   -1    0    0    0  501  0.00000000000E+00  0.00000000000E+00  0.72819313712E+03  0.72819313714E+03  0.50400001928E-02 0.  1.
        1   -1    0    0  501    0  0.00000000000E+00  0.00000000000E+00 -0.26074657948E+04  0.26074657948E+04  0.50400001928E-02 0. -1.
    10030    2    1    2    0    0  0.00000000000E+00  0.00000000000E+00 -0.18792726576E+04  0.33356589319E+04  0.27558945532E+04 0.  0.
        4    1    3    3  502    0 -0.32075537127E+03 -0.10843699610E+04 -0.18926806269E+04  0.22047638850E+04  0.12699999809E+01 0.  1.
       -4    1    3    3    0  502  0.32075537127E+03  0.10843699610E+04  0.13407969252E+02  0.11308950469E+04  0.12699999809E+01 0. -1.
</event>
<event>
 5   0  0.2588048E-05  0.2663982E+04  0.7818609E-02  0.8346787E-01
        2   -1    0    0  501    0  0.00000000000E+00  0.00000000000E+00  0.12494650040E+04  0.12494650040E+04  0.25500000920E-02 0.  1.
       -2   -1    0    0    0  501  0.00000000000E+00  0.00000000000E+00 -0.14199681301E+04  0.14199681301E+04  0.25500000920E-02 0. -1.
    10030    2    1    2    0    0  0.00000000000E+00  0.00000000000E+00 -0.17050312604E+03  0.26694331341E+04  0.26639823463E+04 0.  0.
        2    1    3    3  502    0  0.10748314240E+04  0.78534202298E+03 -0.38510624757E+02  0.13317311107E+04  0.25500000920E-02 0.  1.
       -2    1    3    3    0  502 -0.10748314240E+04 -0.78534202298E+03 -0.13199250128E+03  0.13377020234E+04  0.25500000920E-02 0. -1.
</event>
<event>
 5   0  0.2697964E-05  0.2765624E+04  0.7818609E-02  0.8314021E-01
       -2   -1    0    0    0  501  0.00000000000E+00  0.00000000000E+00  0.11842067865E+04  0.11842067865E+04  0.25500000920E-02 0. -1.
        2   -1    0    0  501    0  0.00000000000E+00  0.00000000000E+00 -0.16147260645E+04  0.16147260645E+04  0.25500000920E-02 0.  1.
    10030    2    1    2    0    0  0.00000000000E+00  0.00000000000E+00 -0.43051927803E+03  0.27989328510E+04  0.27656243880E+04 0.  0.
        1    1    3    3  502    0  0.82978214149E+03  0.75508024734E+03 -0.10333797879E+04  0.15253059917E+04  0.50400001928E-02 0.  1.
       -1    1    3    3    0  502 -0.82978214149E+03 -0.75508024734E+03  0.60286050989E+03  0.12736268593E+04  0.50400001928E-02 0. -1.
</event>
<event>
 5   0  0.2697964E-05  0.2590054E+04  0.7818609E-02  0.8371588E-01
       -2   -1    0    0    0  501  0.00000000000E+00  0.00000000000E+00  0.11407991484E+04  0.11407991484E+04  0.25500000920E-02 0. -1.
        2   -1    0    0  501    0  0.00000000000E+00  0.00000000000E+00 -0.14701050814E+04  0.14701050814E+04  0.25500000920E-02 0.  1.
    10030    2    1    2    0    0  0.00000000000E+00  0.00000000000E+00 -0.32930593294E+03  0.26109042298E+04  0.25900537639E+04 0.  0.
        1    1    3    3  502    0 -0.85351580189E+03  0.14571386785E+03  0.80610140703E+03  0.11830136237E+04  0.50400001928E-02 0. -1.
       -1    1    3    3    0  502  0.85351580189E+03 -0.14571386785E+03 -0.11354073400E+04  0.14278906061E+04  0.50400001928E-02 0.  1.
</event>
<event>
 5   0  0.1075146E-05  0.2695517E+04  0.7818609E-02  0.8336461E-01
        1   -1    0    0  501    0  0.00000000000E+00  0.00000000000E+00  0.13262199432E+04  0.13262199432E+04  0.50400001928E-02 0. -1.
       -1   -1    0    0    0  501  0.00000000000E+00  0.00000000000E+00 -0.13696468727E+04  0.13696468727E+04  0.50400001928E-02 0.  1.
    10030    2    1    2    0    0  0.00000000000E+00  0.00000000000E+00 -0.43426929566E+02  0.26958668159E+04  0.26955170174E+04 0.  0.
        2    1    3    3  502    0 -0.22218046295E+03  0.11093838322E+04  0.71074511280E+03  0.13361344471E+04  0.25500000920E-02 0. -1.
       -2    1    3    3    0  502  0.22218046295E+03 -0.11093838322E+04 -0.75417204236E+03  0.13597323688E+04  0.25500000920E-02 0.  1.
</event>
<event>
 5   0  0.2518686E-05  0.2841305E+04  0.7818609E-02  0.8290558E-01
       -2   -1    0    0    0  501  0.00000000000E+00  0.00000000000E+00  0.91413436429E+03  0.91413436429E+03  0.25500000920E-02 0. -1.
        2   -1    0    0  501    0  0.00000000000E+00  0.00000000000E+00 -0.22078298319E+04  0.22078298319E+04  0.25500000920E-02 0.  1.
    10030    2    1    2    0    0  0.00000000000E+00  0.00000000000E+00 -0.12936954677E+04  0.31219641962E+04  0.28413047143E+04 0.  0.
        5    1    3    3  502    0 -0.11428986906E+04  0.53808670157E+03  0.67338194664E+02  0.12650340857E+04  0.46999998093E+01 0. -1.
       -5    1    3    3    0  502  0.11428986906E+04 -0.53808670157E+03 -0.13610336623E+04  0.18569301106E+04  0.46999998093E+01 0.  1.
</event>
<event>
 5   0  0.1067434E-05  0.2920279E+04  0.7818609E-02  0.8266869E-01
        1   -1    0    0  501    0  0.00000000000E+00  0.00000000000E+00  0.18674200031E+04  0.18674200031E+04  0.50400001928E-02 0. -1.
       -1   -1    0    0    0  501  0.00000000000E+00  0.00000000000E+00 -0.11416858478E+04  0.11416858478E+04  0.50400001928E-02 0.  1.
    10030    2    1    2    0    0  0.00000000000E+00  0.00000000000E+00  0.72573415534E+03  0.30091058509E+04  0.29202787466E+04 0.  0.
        4    1    3    3  502    0  0.11193161336E+04 -0.84361424884E+03 -0.58788672264E+02  0.14028582711E+04  0.12699999809E+01 0.  1.
       -4    1    3    3    0  502 -0.11193161336E+04  0.84361424884E+03  0.78452282761E+03  0.16062475798E+04  0.12699999809E+01 0. -1.
</event>
<event>
 5   0  0.1078103E-05  0.2652732E+04  0.7818609E-02  0.8350507E-01
       -1   -1    0    0    0  501  0.00000000000E+00  0.00000000000E+00  0.97622208540E+03  0.97622208542E+03  0.50400001928E-02 0. -1.
        1   -1    0    0  501    0  0.00000000000E+00  0.00000000000E+00 -0.18020968645E+04  0.18020968645E+04  0.50400001928E-02 0.  1.
    10030    2    1    2    0    0  0.00000000000E+00  0.00000000000E+00 -0.82587477908E+03  0.27783189499E+04  0.26527319949E+04 0.  0.
        1    1    3    3  502    0 -0.34205283006E+03  0.72019466493E+03 -0.15231037697E+04  0.17191642118E+04  0.50400001928E-02 0.  1.
       -1    1    3    3    0  502  0.34205283006E+03 -0.72019466493E+03  0.69722899058E+03  0.10591547381E+04  0.50400001928E-02 0. -1.
</event>
<event>
 5   0  0.1078103E-05  0.2813901E+04  0.7818609E-02  0.8298966E-01
       -1   -1    0    0    0  501  0.00000000000E+00  0.00000000000E+00  0.10554597943E+04  0.10554597943E+04  0.50400001928E-02 0.  1.
        1   -1    0    0  501    0  0.00000000000E+00  0.00000000000E+00 -0.18754951403E+04  0.18754951403E+04  0.50400001928E-02 0. -1.
    10030    2    1    2    0    0  0.00000000000E+00  0.00000000000E+00 -0.82003534604E+03  0.29309549346E+04  0.28139010039E+04 0.  0.
        1    1    3    3  502    0  0.57393232091E+03 -0.27881730532E+03 -0.17161224592E+04  0.18309051570E+04  0.50400001928E-02 0. -1.
       -1    1    3    3    0  502 -0.57393232091E+03  0.27881730532E+03  0.89608711320E+03  0.11000497776E+04  0.50400001928E-02 0.  1.
</event>
<event>
 5   0  0.1075146E-05  0.2757239E+04  0.7818609E-02  0.8316668E-01
       -1   -1    0    0    0  501  0.00000000000E+00  0.00000000000E+00  0.73284887641E+03  0.73284887643E+03  0.50400001928E-02 0.  1.
        1   -1    0    0  501    0  0.00000000000E+00  0.00000000000E+00 -0.25934295176E+04  0.25934295176E+04  0.50400001928E-02 0. -1.
    10030    2    1    2    0    0  0.00000000000E+00  0.00000000000E+00 -0.18605806412E+04  0.33262783941E+04  0.27572391322E+04 0.  0.
        2    1    3    3  502    0 -0.11482754530E+04  0.55293559655E+03 -0.29614550031E+03  0.13084251784E+04  0.25500000920E-02 0.  1.
       -2    1    3    3    0  502  0.11482754530E+04 -0.55293559655E+03 -0.15644351409E+04  0.20178532157E+04  0.25500000920E-02 0. -1.
</event>
<event>
 5   0  0.1105862E-05  0.2683506E+04  0.7818609E-02  0.8340377E-01
        1   -1    0    0  501    0  0.00000000000E+00  0.00000000000E+00  0.14402516497E+04  0.14402516497E+04  0.50400001928E-02 0.  1.
       -1   -1    0    0    0  501  0.00000000000E+00  0.00000000000E+00 -0.12499907378E+04  0.12499907378E+04  0.50400001928E-02 0. -1.
    10030    2    1    2    0    0  0.00000000000E+00  0.00000000000E+00  0.19026091191E+03  0.26902423875E+04  0.26835060814E+04 0.  0.
        3    1    3    3  502    0 -0.11125062262E+04  0.34337325037E+03 -0.57342132218E+03  0.12978394798E+04  0.10100000352E+00 0. -1.
       -3    1    3    3    0  502  0.11125062262E+04 -0.34337325037E+03  0.76368223408E+03  0.13924029077E+04  0.10100000352E+00 0.  1.
</event>
<event>
 5   0  0.2651061E-05  0.2725566E+04  0.7818609E-02  0.8326757E-01
        2   -1    0    0  501    0  0.00000000000E+00  0.00000000000E+00  0.15116666635E+04  0.15116666635E+04  0.25500000920E-02 0. -1.
       -2   -1    0    0    0  501  0.00000000000E+00  0.00000000000E+00 -0.12285631864E+04  0.12285631864E+04  0.25500000920E-02 0.  1.
    10030    2    1    2    0    0  0.00000000000E+00  0.00000000000E+00  0.28310347709E+03  0.27402298499E+04  0.27255663726E+04 0.  0.
        3    1    3    3  502    0  0.12189957119E+04 -0.11316986159E+02  0.75400837730E+03  0.14333901294E+04  0.10100000352E+00 0. -1.
       -3    1    3    3    0  502 -0.12189957119E+04  0.11316986159E+02 -0.47090490022E+03  0.13068397205E+04  0.10100000352E+00 0.  1.
</event>
<event>
 5   0  0.1105862E-05  0.2838013E+04  0.7818609E-02  0.8291563E-01
        1   -1    0    0  501    0  0.00000000000E+00  0.00000000000E+00  0.16532216190E+04  0.16532216190E+04  0.50400001928E-02 0. -1.
       -1   -1    0    0    0  501  0.00000000000E+00  0.00000000000E+00 -0.12179727034E+04  0.12179727034E+04  0.50400001928E-02 0.  1.
    10030    2    1    2    0    0  0.00000000000E+00  0.00000000000E+00  0.43524891559E+03  0.28711943224E+04  0.28380125473E+04 0.  0.
        3    1    3    3  502    0 -0.40810598740E+03  0.13506305047E+04  0.37047211256E+03  0.14587675804E+04  0.10100000352E+00 0. -1.
       -3    1    3    3    0  502  0.40810598740E+03 -0.13506305047E+04  0.64776803025E+02  0.14124267420E+04  0.10100000352E+00 0.  1.
</event>
<event>
 5   0  0.2624815E-05  0.2621789E+04  0.7818609E-02  0.8360837E-01
       -2   -1    0    0    0  501  0.00000000000E+00  0.00000000000E+00  0.67128538234E+03  0.67128538235E+03  0.25500000920E-02 0.  1.
        2   -1    0    0  501    0  0.00000000000E+00  0.00000000000E+00 -0.25599317920E+04  0.25599317920E+04  0.25500000920E-02 0. -1.
    10030    2    1    2    0    0  0.00000000000E+00  0.00000000000E+00 -0.18886464097E+04  0.32312171744E+04  0.26217893064E+04 0.  0.
        4    1    3    3  502    0  0.12406274640E+04  0.39407924584E+03 -0.11352062680E+04  0.17271797359E+04  0.12699999809E+01 0.  1.
       -4    1    3    3    0  502 -0.12406274640E+04 -0.39407924584E+03 -0.75344014172E+03  0.15040374385E+04  0.12699999809E+01 0. -1.
</event>
<event>
 5   0  0.2651061E-05  0.2806726E+04  0.7818609E-02  0.8301183E-01
       -2   -1    0    0    0  501  0.00000000000E+00  0.00000000000E+00  0.82619443279E+03  0.82619443280E+03  0.25500000920E-02 0. -1.
        2   -1    0    0  501    0  0.00000000000E+00  0.00000000000E+00 -0.23837334604E+04  0.23837334604E+04  0.25500000920E-02 0.  1.
    10030    2    1    2    0    0  0.00000000000E+00  0.00000000000E+00 -0.15575390276E+04  0.32099278932E+04  0.28067257182E+04 0.  0.
        3    1    3    3  502    0 -0.12750579543E+04  0.26416200934E+03 -0.13772773936E+04  0.18953752618E+04  0.10100000352E+00 0. -1.
       -3    1    3    3    0  502  0.12750579543E+04 -0.26416200934E+03 -0.18026163402E+03  0.13145526314E+04  0.10100000352E+00 0.  1.
</event>
<event>
 5   0  0.2588048E-05  0.2700154E+04  0.7818609E-02  0.8334955E-01
       -2   -1    0    0    0  501  0.00000000000E+00  0.00000000000E+00  0.96745137027E+03  0.96745137027E+03  0.25500000920E-02 0. -1.
        2   -1    0    0  501    0  0.00000000000E+00  0.00000000000E+00 -0.18840310562E+04  0.18840310562E+04  0.25500000920E-02 0.  1.
    10030    2    1    2    0    0  0.00000000000E+00  0.00000000000E+00 -0.91657968593E+03  0.28514824265E+04  0.27001543859E+04 0.  0.
        2    1    3    3  502    0 -0.63931544187E+03 -0.42271080424E+03 -0.16320200537E+04  0.18030247125E+04  0.25500000920E-02 0.  1.
       -2    1    3    3    0  502  0.63931544187E+03  0.42271080424E+03  0.71544036774E+03  0.10484577140E+04  0.25500000920E-02 0. -1.
</event>
<event>
 5   0  0.1017456E-05  0.2895902E+04  0.7818609E-02  0.8274098E-01
       -1   -1    0    0    0  501  0.00000000000E+00  0.00000000000E+00  0.12840766325E+04  0.12840766325E+04  0.50400001928E-02 0.  1.
        1   -1    0    0  501    0  0.00000000000E+00  0.00000000000E+00 -0.16327393030E+04  0.16327393030E+04  0.50400001928E-02 0. -1.
    10030    2    1    2    0    0  0.00000000000E+00  0.00000000000E+00 -0.34866267052E+03  0.29168159354E+04  0.28959021985E+04 0.  0.
        5    1    3    3  502    0  0.12667386000E+04  0.67326849530E+03  0.23615685514E+02  0.14347462975E+04  0.46999998093E+01 0. -1.
       -5    1    3    3    0  502 -0.12667386000E+04 -0.67326849530E+03 -0.37227835603E+03  0.14820696380E+04  0.46999998093E+01 0.  1.
</event>
<event>
 5   0  0.1078103E-05  0.2767503E+04  0.7818609E-02  0.8313429E-01
        1   -1    0    0  501    0  0.00000000000E+00  0.00000000000E+00  0.10717855930E+04  0.10717855930E+04  0.50400001928E-02 0. -1.
       -1   -1    0    0    0  501  0.00000000000E+00  0.00000000000E+00 -0.17865214420E+04  0.17865214420E+04  0.50400001928E-02 0.  1.
    10030    2    1    2    0    0  0.00000000000E+00  0.00000000000E+00 -0.71473584901E+03  0.28583070350E+04  0.27675028044E+04 0.  0.
        1    1    3    3  502    0 -0.78563745666E+03 -0.27889205750E+03  0.78329722109E+03  0.11439237429E+04  0.50400001928E-02 0. -1.
       -1    1    3    3    0  502  0.78563745666E+03  0.27889205750E+03 -0.14980330701E+04  0.17143832921E+04  0.50400001928E-02 0.  1.
</event>
<event>
 5   0  0.2624815E-05  0.2904840E+04  0.7818609E-02  0.8271439E-01
       -2   -1    0    0    0  501  0.00000000000E+00  0.00000000000E+00  0.11709234597E+04  0.11709234597E+04  0.25500000920E-02 0.  1.
        2   -1    0    0  501    0  0.00000000000E+00  0.00000000000E+00 -0.18015904159E+04  0.18015904159E+04  0.25500000920E-02 0. -1.
    10030    2    1    2    0    0  0.00000000000E+00  0.00000000000E+00 -0.63066695626E+03  0.29725138756E+04  0.29048404312E+04 0.  0.
        4    1    3    3  502    0 -0.12399180351E+04  0.51604019508E+03 -0.88123478358E+03  0.16063220641E+04  0.12699999809E+01 0. -1.
       -4    1    3    3    0  502  0.12399180351E+04 -0.51604019508E+03  0.25056782732E+03  0.13661918115E+04  0.12699999809E+01 0.  1.
</event>
<event>
 5   0  0.2624815E-05  0.2578431E+04  0.7818609E-02  0.8375565E-01
       -2   -1    0    0    0  501  0.00000000000E+00  0.00000000000E+00  0.79833923468E+03  0.79833923468E+03  0.25500000920E-02 0. -1.
        2   -1    0    0  501    0  0.00000000000E+00  0.00000000000E+00 -0.20819178643E+04  0.20819178643E+04  0.25500000920E-02 0.  1.
    10030    2    1    2    0    0  0.00000000000E+00  0.00000000000E+00 -0.12835786296E+04  0.28802570990E+04  0.25784310845E+04 0.  0.
        4    1    3    3  502    0 -0.57254043355E+02 -0.63141263974E+03 -0.18957411193E+04  0.19989487115E+04  0.12699999809E+01 0.  1.
       -4    1    3    3    0  502  0.57254043355E+02  0.63141263974E+03  0.61216248968E+03  0.88130838744E+03  0.12699999809E+01 0. -1.
</event>
<event>
 5   0  0.2518686E-05  0.2384328E+04  0.7818609E-02  0.8445394E-01
       -2   -1    0    0    0  501  0.00000000000E+00  0.00000000000E+00  0.84852092045E+03  0.84852092045E+03  0.25500000920E-02 0. -1.
        2   -1    0    0  501    0  0.00000000000E+00  0.00000000000E+00 -0.16749800031E+04  0.16749800031E+04  0.25500000920E-02 0.  1.
    10030    2    1    2    0    0  0.00000000000E+00  0.00000000000E+00 -0.82645908261E+03  0.25235009235E+04  0.23843284790E+04 0.  0.
        5    1    3    3  502    0  0.10248628197E+04  0.47322938026E+03 -0.75222841659E+01  0.11288793205E+04  0.46999998093E+01 0. -1.
       -5    1    3    3    0  502 -0.10248628197E+04 -0.47322938026E+03 -0.81893679845E+03  0.13946216030E+04  0.46999998093E+01 0.  1.
</event>
<event>
 5   0  0.2651061E-05  0.2776921E+04  0.7818609E-02  0.8310470E-01
       -2   -1    0    0    0  501  0.00000000000E+00  0.00000000000E+00  0.12838240807E+04  0.12838240807E+04  0.25500000920E-02 0.  1.
        2   -1    0    0  501    0  0.00000000000E+00  0.00000000000E+00 -0.15016249256E+04  0.15016249256E+04  0.25500000920E-02 0. -1.
    10030    2    1    2    0    0  0.00000000000E+00  0.00000000000E+00 -0.21780084498E+03  0.27854490063E+04  0.27769207692E+04 0.  0.
        3    1    3    3  502    0 -0.20304841511E+03 -0.45166798040E+03  0.11922299787E+04  0.12909860401E+04  0.10100000352E+00 0.  1.
       -3    1    3    3    0  502  0.20304841511E+03  0.45166798040E+03 -0.14100308237E+04  0.14944629662E+04  0.10100000352E+00 0. -1.
</event>
<event>
 5   0  0.2624815E-05  0.2768049E+04  0.7818609E-02  0.8313257E-01
       -2   -1    0    0    0  501  0.00000000000E+00  0.00000000000E+00  0.14848247303E+04  0.14848247303E+04  0.25500000920E-02 0.  1.
        2   -1    0    0  501    0  0.00000000000E+00  0.00000000000E+00 -0.12900675184E+04  0.12900675184E+04  0.25500000920E-02 0. -1.
    10030    2    1    2    0    0  0.00000000000E+00  0.00000000000E+00  0.19475721189E+03  0.27748922487E+04  0.27680492445E+04 0.  0.
        4    1    3    3  502    0 -0.32539358520E+03 -0.10894020702E+04  0.88853472877E+03  0.14429738158E+04  0.12699999809E+01 0.  1.
       -4    1    3    3    0  502  0.32539358520E+03  0.10894020702E+04 -0.69377751688E+03  0.13319184329E+04  0.12699999809E+01 0. -1.
</event>
<event>
 5   0  0.1017456E-05  0.2778212E+04  0.7818609E-02  0.8310065E-01
       -1   -1    0    0    0  501  0.00000000000E+00  0.00000000000E+00  0.13833176086E+04  0.13833176086E+04  0.50400001928E-02 0. -1.
        1   -1    0    0  501    0  0.00000000000E+00  0.00000000000E+00 -0.13949187121E+04  0.13949187121E+04  0.50400001928E-02 0.  1.
    10030    2    1    2    0    0  0.00000000000E+00  0.00000000000E+00 -0.11601103505E+02  0.27782363207E+04  0.27782120992E+04 0.  0.
        5    1    3    3  502    0 -0.26364620874E+03 -0.73949334999E+03  0.11401735700E+04  0.13843329071E+04  0.46999998093E+01 0. -1.
       -5    1    3    3    0  502  0.26364620874E+03  0.73949334999E+03 -0.11517746735E+04  0.13939034136E+04  0.46999998093E+01 0.  1.
</event>
<event>
 5   0  0.1075146E-05  0.2479887E+04  0.7818609E-02  0.8410186E-01
        1   -1    0    0  501    0  0.00000000000E+00  0.00000000000E+00  0.20731745170E+04  0.20731745170E+04  0.50400001928E-02 0.  1.
       -1   -1    0    0    0  501  0.00000000000E+00  0.00000000000E+00 -0.74159676726E+03  0.74159676728E+03  0.50400001928E-02 0. -1.
    10030    2    1    2    0    0  0.00000000000E+00  0.00000000000E+00  0.13315777498E+04  0.28147712843E+04  0.24798867070E+04 0.  0.
        2    1    3    3  502    0 -0.19514491345E+03  0.11061531178E+04  0.69700062600E+02  0.11253951999E+04  0.25500000920E-02 0. -1.
       -2    1    3    3    0  502  0.19514491345E+03 -0.11061531178E+04  0.12618776872E+04  0.16893760844E+04  0.25500000920E-02 0.  1.
</event>
<event>
 5   0  0.2624815E-05  0.1897628E+04  0.7818609E-02  0.8656038E-01
       -2   -1    0    0    0  501  0.00000000000E+00  0.00000000000E+00  0.57321836698E+03  0.57321836699E+03  0.25500000920E-02 0.  1.
        2   -1    0    0  501    0  0.00000000000E+00  0.00000000000E+00 -0.15705154138E+04  0.15705154138E+04  0.25500000920E-02 0. -1.
    10030    2    1    2    0    0  0.00000000000E+00  0.00000000000E+00 -0.99729704686E+03  0.21437337808E+04  0.18976282890E+04 0.  0.
        4    1    3    3  502    0  0.74673864225E+03 -0.20584430568E+03 -0.11176699621E+04  0.13598449305E+04  0.12699999809E+01 0. -1.
       -4    1    3    3    0  502 -0.74673864225E+03  0.20584430568E+03  0.12037291523E+03  0.78388885030E+03  0.12699999809E+01 0.  1.
</event>
<event>
 5   0  0.2651061E-05  0.2650575E+04  0.7818609E-02  0.8351222E-01
       -2   -1    0    0    0  501  0.00000000000E+00  0.00000000000E+00  0.29455362138E+04  0.29455362138E+04  0.25500000920E-02 0.  1.
        2   -1    0    0  501    0  0.00000000000E+00  0.00000000000E+00 -0.59628753395E+03  0.59628753395E+03  0.25500000920E-02 0. -1.
    10030    2    1    2    0    0  0.00000000000E+00  0.00000000000E+00  0.23492486799E+04  0.35418237478E+04  0.26505746736E+04 0.  0.
        3    1    3    3  502    0  0.92252440412E+03 -0.45977773837E+03  0.22877591370E+04  0.25092406668E+04  0.10100000352E+00 0.  1.
       -3    1    3    3    0  502 -0.92252440412E+03  0.45977773837E+03  0.61489542821E+02  0.10325830809E+04  0.10100000352E+00 0. -1.
</event>
<event>
 5   0  0.8958000E-06  0.2850473E+04  0.7818609E-02  0.8287768E-01
        3   -1    0    0  501    0  0.00000000000E+00  0.00000000000E+00  0.28881701223E+04  0.28881701241E+04  0.10100000352E+00 0.  1.
       -3   -1    0    0    0  501  0.00000000000E+00  0.00000000000E+00 -0.70331696319E+03  0.70331697045E+03  0.10100000352E+00 0. -1.
    10030    2    1    2    0    0  0.00000000000E+00  0.00000000000E+00  0.21848531591E+04  0.35914870945E+04  0.28504729824E+04 0.  0.
        4    1    3    3  502    0 -0.37425771720E+03  0.49833148886E+03  0.27073881665E+04  0.27781928314E+04  0.12699999809E+01 0.  1.
       -4    1    3    3    0  502  0.37425771720E+03 -0.49833148886E+03 -0.52253500732E+03  0.81329426314E+03  0.12699999809E+01 0. -1.
</event>
<event>
 5   0  0.2588048E-05  0.2783764E+04  0.7818609E-02  0.8308327E-01
        2   -1    0    0  501    0  0.00000000000E+00  0.00000000000E+00  0.16132937142E+04  0.16132937142E+04  0.25500000920E-02 0.  1.
       -2   -1    0    0    0  501  0.00000000000E+00  0.00000000000E+00 -0.12008575520E+04  0.12008575520E+04  0.25500000920E-02 0. -1.
    10030    2    1    2    0    0  0.00000000000E+00  0.00000000000E+00  0.41243616218E+03  0.28141512662E+04  0.27837643150E+04 0.  0.
        2    1    3    3  502    0 -0.72894398480E+02  0.13067564832E+04 -0.27267208972E+03  0.13368904847E+04  0.25500000920E-02 0. -1.
       -2    1    3    3    0  502  0.72894398480E+02 -0.13067564832E+04  0.68510825190E+03  0.14772607815E+04  0.25500000920E-02 0.  1.
</event>
<event>
 5   0  0.2624815E-05  0.2592058E+04  0.7818609E-02  0.8370904E-01
       -2   -1    0    0    0  501  0.00000000000E+00  0.00000000000E+00  0.11642637595E+04  0.11642637595E+04  0.25500000920E-02 0.  1.
        2   -1    0    0  501    0  0.00000000000E+00  0.00000000000E+00 -0.14427067196E+04  0.14427067196E+04  0.25500000920E-02 0. -1.
    10030    2    1    2    0    0  0.00000000000E+00  0.00000000000E+00 -0.27844296009E+03  0.26069704791E+04  0.25920579848E+04 0.  0.
        4    1    3    3  502    0  0.10929587275E+04 -0.43410404749E+03 -0.68704261077E+03  0.13619964266E+04  0.12699999809E+01 0. -1.
       -4    1    3    3    0  502 -0.10929587275E+04  0.43410404749E+03  0.40859965068E+03  0.12449740525E+04  0.12699999809E+01 0.  1.
</event>
<event>
 5   0  0.1078103E-05  0.2842450E+04  0.7818609E-02  0.8290209E-01
       -1   -1    0    0    0  501  0.00000000000E+00  0.00000000000E+00  0.10298259055E+04  0.10298259055E+04  0.50400001928E-02 0. -1.
        1   -1    0    0  501    0  0.00000000000E+00  0.00000000000E+00 -0.19613809878E+04  0.19613809878E+04  0.50400001928E-02 0.  1.
    10030    2    1    2    0    0  0.00000000000E+00  0.00000000000E+00 -0.93155508230E+03  0.29912068933E+04  0.28424503175E+04 0.  0.
        1    1    3    3  502    0  0.14001959843E+02 -0.67921578340E+03  0.84789217088E+03  0.10864857425E+04  0.50400001928E-02 0. -1.
       -1    1    3    3    0  502 -0.14001959843E+02  0.67921578340E+03 -0.17794472532E+04  0.19047211508E+04  0.50400001928E-02 0.  1.
</event>
<event>
 5   0  0.2588048E-05  0.2653057E+04  0.7818609E-02  0.8350399E-01
       -2   -1    0    0    0  501  0.00000000000E+00  0.00000000000E+00  0.95346202456E+03  0.95346202456E+03  0.25500000920E-02 0. -1.
        2   -1    0    0  501    0  0.00000000000E+00  0.00000000000E+00 -0.18455671963E+04  0.18455671963E+04  0.25500000920E-02 0.  1.
    10030    2    1    2    0    0  0.00000000000E+00  0.00000000000E+00 -0.89210517170E+03  0.27990292208E+04  0.26530572820E+04 0.  0.
        2    1    3    3  502    0 -0.19037963894E+03  0.87129993635E+03  0.58994844918E+03  0.10693208867E+04  0.25500000920E-02 0. -1.
       -2    1    3    3    0  502  0.19037963894E+03 -0.87129993635E+03 -0.14820536209E+04  0.17297083341E+04  0.25500000920E-02 0.  1.
</event>
<event>
 5   0  0.1017456E-05  0.2673711E+04  0.7818609E-02  0.8343586E-01
        1   -1    0    0  501    0  0.00000000000E+00  0.00000000000E+00  0.24107691087E+04  0.24107691087E+04  0.50400001928E-02 0.  1.
       -1   -1    0    0    0  501  0.00000000000E+00  0.00000000000E+00 -0.74133270722E+03  0.74133270724E+03  0.50400001928E-02 0. -1.
    10030    2    1    2    0    0  0.00000000000E+00  0.00000000000E+00  0.16694364015E+04  0.31521018160E+04  0.26737105228E+04 0.  0.
        5    1    3    3  502    0 -0.66971343935E+03  0.18652784828E+03  0.21808880603E+04  0.22890180319E+04  0.46999998093E+01 0.  1.
       -5    1    3    3    0  502  0.66971343935E+03 -0.18652784828E+03 -0.51145165877E+03  0.86308378404E+03  0.46999998093E+01 0. -1.
</event>
<event>
 5   0  0.1105862E-05  0.2822542E+04  0.7818609E-02  0.8296304E-01
        1   -1    0    0  501    0  0.00000000000E+00  0.00000000000E+00  0.13741692549E+04  0.13741692549E+04  0.50400001928E-02 0.  1.
       -1   -1    0    0    0  501  0.00000000000E+00  0.00000000000E+00 -0.14493749100E+04  0.14493749100E+04  0.50400001928E-02 0. -1.
    10030    2    1    2    0    0  0.00000000000E+00  0.00000000000E+00 -0.75205655120E+02  0.28235441649E+04  0.28225424285E+04 0.  0.
        3    1    3    3  502    0 -0.28019323669E+01  0.13578542123E+04  0.34712503020E+03  0.14015247801E+04  0.10100000352E+00 0.  1.
       -3    1    3    3    0  502  0.28019323669E+01 -0.13578542123E+04 -0.42233068532E+03  0.14220193847E+04  0.10100000352E+00 0. -1.
</event>
<event>
 5   0  0.2518686E-05  0.2758172E+04  0.7818609E-02  0.8316373E-01
       -2   -1    0    0    0  501  0.00000000000E+00  0.00000000000E+00  0.12430354417E+04  0.12430354417E+04  0.25500000920E-02 0. -1.
        2   -1    0    0  501    0  0.00000000000E+00  0.00000000000E+00 -0.15300273565E+04  0.15300273565E+04  0.25500000920E-02 0.  1.
    10030    2    1    2    0    0  0.00000000000E+00  0.00000000000E+00 -0.28699191485E+03  0.27730627982E+04  0.27581720258E+04 0.  0.
        5    1    3    3  502    0  0.53194417320E+02  0.59635924781E+03 -0.13925323452E+04  0.15157976187E+04  0.46999998093E+01 0.  1.
       -5    1    3    3    0  502 -0.53194417320E+02 -0.59635924781E+03  0.11055404303E+04  0.12572651795E+04  0.46999998093E+01 0. -1.
</event>
<event>
 5   0  0.1017456E-05  0.2567127E+04  0.7818609E-02  0.8379454E-01
       -1   -1    0    0    0  501  0.00000000000E+00  0.00000000000E+00  0.10446120243E+04  0.10446120243E+04  0.50400001928E-02 0. -1.
        1   -1    0    0  501    0  0.00000000000E+00  0.00000000000E+00 -0.15771749210E+04  0.15771749210E+04  0.50400001928E-02 0.  1.
    10030    2    1    2    0    0  0.00000000000E+00  0.00000000000E+00 -0.53256289671E+03  0.26217869453E+04  0.25671274896E+04 0.  0.
        5    1    3    3  502    0  0.98394581166E+03 -0.75528394670E+03 -0.60332422789E+03  0.13793568843E+04  0.46999998093E+01 0. -1.
       -5    1    3    3    0  502 -0.98394581166E+03  0.75528394670E+03  0.70761331184E+02  0.12424300610E+04  0.46999998093E+01 0.  1.
</event>
<event>
 5   0  0.2651061E-05  0.2747489E+04  0.7818609E-02  0.8319759E-01
        2   -1    0    0  501    0  0.00000000000E+00  0.00000000000E+00  0.19061981877E+04  0.19061981877E+04  0.25500000920E-02 0.  1.
       -2   -1    0    0    0  501  0.00000000000E+00  0.00000000000E+00 -0.99001949594E+03  0.99001949594E+03  0.25500000920E-02 0. -1.
    10030    2    1    2    0    0  0.00000000000E+00  0.00000000000E+00  0.91617869174E+03  0.28962176836E+04  0.27474885761E+04 0.  0.
        3    1    3    3  502    0  0.15982309034E+03  0.79540757848E+03 -0.71050451483E+03  0.10784402218E+04  0.10100000352E+00 0. -1.
       -3    1    3    3    0  502 -0.15982309034E+03 -0.79540757848E+03  0.16266832066E+04  0.18177774619E+04  0.10100000352E+00 0.  1.
</event>
<event>
 5   0  0.1078103E-05  0.2610858E+04  0.7818609E-02  0.8364522E-01
       -1   -1    0    0    0  501  0.00000000000E+00  0.00000000000E+00  0.14336620826E+04  0.14336620826E+04  0.50400001928E-02 0. -1.
        1   -1    0    0  501    0  0.00000000000E+00  0.00000000000E+00 -0.11886658159E+04  0.11886658159E+04  0.50400001928E-02 0.  1.
    10030    2    1    2    0    0  0.00000000000E+00  0.00000000000E+00  0.24499626666E+03  0.26223278985E+04  0.26108581801E+04 0.  0.
        1    1    3    3  502    0  0.85036518572E+03 -0.15326994184E+03 -0.86033654512E+03  0.12193406395E+04  0.50400001928E-02 0.  1.
       -1    1    3    3    0  502 -0.85036518572E+03  0.15326994184E+03  0.11053328118E+04  0.14029872590E+04  0.50400001928E-02 0. -1.
</event>
<event>
 5   0  0.1017456E-05  0.2784719E+04  0.7818609E-02  0.8308028E-01
        1   -1    0    0  501    0  0.00000000000E+00  0.00000000000E+00  0.12229654978E+04  0.12229654978E+04  0.50400001928E-02 0.  1.
       -1   -1    0    0    0  501  0.00000000000E+00  0.00000000000E+00 -0.15852164160E+04  0.15852164160E+04  0.50400001928E-02 0. -1.
    10030    2    1    2    0    0  0.00000000000E+00  0.00000000000E+00 -0.36225091821E+03  0.28081819138E+04  0.27847190044E+04 0.  0.
        5    1    3    3  502    0  0.37731705473E+03  0.36490605442E+03 -0.14816107098E+04  0.15718514477E+04  0.46999998093E+01 0. -1.
       -5    1    3    3    0  502 -0.37731705473E+03 -0.36490605442E+03  0.11193597916E+04  0.12363304661E+04  0.46999998093E+01 0.  1.
</event>
<event>
 5   0  0.2651061E-05  0.2215767E+04  0.7818609E-02  0.8511894E-01
        2   -1    0    0  501    0  0.00000000000E+00  0.00000000000E+00  0.20067590916E+04  0.20067590916E+04  0.25500000920E-02 0. -1.
       -2   -1    0    0    0  501  0.00000000000E+00  0.00000000000E+00 -0.61163576205E+03  0.61163576205E+03  0.25500000920E-02 0.  1.
    10030    2    1    2    0    0  0.00000000000E+00  0.00000000000E+00  0.13951233295E+04  0.26183948536E+04  0.22157667984E+04 0.  0.
        3    1    3    3  502    0 -0.86010156861E+03  0.56078986899E+03  0.11892805137E+04  0.15711932204E+04  0.10100000352E+00 0. -1.
       -3    1    3    3    0  502  0.86010156861E+03 -0.56078986899E+03  0.20584281579E+03  0.10472016332E+04  0.10100000352E+00 0.  1.
</event>
<event>
 5   0  0.2518686E-05  0.2762015E+04  0.7818609E-02  0.8315159E-01
       -2   -1    0    0    0  501  0.00000000000E+00  0.00000000000E+00  0.87390941252E+03  0.87390941252E+03  0.25500000920E-02 0.  1.
        2   -1    0    0  501    0  0.00000000000E+00  0.00000000000E+00 -0.21823561364E+04  0.21823561364E+04  0.25500000920E-02 0. -1.
    10030    2    1    2    0    0  0.00000000000E+00  0.00000000000E+00 -0.13084467238E+04  0.30562655489E+04  0.27620148943E+04 0.  0.
        5    1    3    3  502    0  0.40507432794E+03 -0.65530239372E+03  0.61402820474E+03  0.98516961209E+03  0.46999998093E+01 0.  1.
       -5    1    3    3    0  502 -0.40507432794E+03  0.65530239372E+03 -0.19224749286E+04  0.20710959368E+04  0.46999998093E+01 0. -1.
</event>
<event>
 5   0  0.2518686E-05  0.2767080E+04  0.7818609E-02  0.8313562E-01
       -2   -1    0    0    0  501  0.00000000000E+00  0.00000000000E+00  0.14237389096E+04  0.14237389096E+04  0.25500000920E-02 0.  1.
        2   -1    0    0  501    0  0.00000000000E+00  0.00000000000E+00 -0.13444761819E+04  0.13444761819E+04  0.25500000920E-02 0. -1.
    10030    2    1    2    0    0  0.00000000000E+00  0.00000000000E+00  0.79262727694E+02  0.27682150915E+04  0.27670800879E+04 0.  0.
        5    1    3    3  502    0 -0.11931332033E+04 -0.47943364551E+02  0.73869947031E+03  0.14041240702E+04  0.46999998093E+01 0.  1.
       -5    1    3    3    0  502  0.11931332033E+04  0.47943364551E+02 -0.65943674262E+03  0.13640910213E+04  0.46999998093E+01 0. -1.
</event>
<event>
 5   0  0.1067434E-05  0.2804494E+04  0.7818609E-02  0.8301874E-01
        1   -1    0    0  501    0  0.00000000000E+00  0.00000000000E+00  0.24196394780E+04  0.24196394780E+04  0.50400001928E-02 0. -1.
       -1   -1    0    0    0  501  0.00000000000E+00  0.00000000000E+00 -0.81264058385E+03  0.81264058386E+03  0.50400001928E-02 0.  1.
    10030    2    1    2    0    0  0.00000000000E+00  0.00000000000E+00  0.16069988941E+04  0.32322800619E+04  0.28044944201E+04 0.  0.
        4    1    3    3  502    0 -0.50855975252E+03  0.95748350401E+03  0.18284711611E+04  0.21257271891E+04  0.12699999809E+01 0. -1.
       -4    1    3    3    0  502  0.50855975252E+03 -0.95748350401E+03 -0.22147226698E+03  0.11065528728E+04  0.12699999809E+01 0.  1.
</event>
<event>
 5   0  0.1017456E-05  0.2252036E+04  0.7818609E-02  0.8497076E-01
        1   -1    0    0  501    0  0.00000000000E+00  0.00000000000E+00  0.13832537141E+04  0.13832537142E+04  0.50400001928E-02 0.  1.
       -1   -1    0    0    0  501  0.00000000000E+00  0.00000000000E+00 -0.91661901625E+03  0.91661901626E+03  0.50400001928E-02 0. -1.
    10030    2    1    2    0    0  0.00000000000E+00  0.00000000000E+00  0.46663469790E+03  0.22998727304E+04  0.22520361087E+04 0.  0.
        5    1    3    3  502    0  0.10374778879E+04 -0.28499388835E+03  0.57250589704E+03  0.12187563236E+04  0.46999998093E+01 0. -1.
       -5    1    3    3    0  502 -0.10374778879E+04  0.28499388835E+03 -0.10587119914E+03  0.10811164068E+04  0.46999998093E+01 0.  1.
</event>
<event>
 5   0  0.1067434E-05  0.2666941E+04  0.7818609E-02  0.8345812E-01
        1   -1    0    0  501    0  0.00000000000E+00  0.00000000000E+00  0.16691600548E+04  0.16691600548E+04  0.50400001928E-02 0.  1.
       -1   -1    0    0    0  501  0.00000000000E+00  0.00000000000E+00 -0.10652922337E+04  0.10652922337E+04  0.50400001928E-02 0. -1.
    10030    2    1    2    0    0  0.00000000000E+00  0.00000000000E+00  0.60386782113E+03  0.27344522885E+04  0.26669407517E+04 0.  0.
        4    1    3    3  502    0 -0.11820043520E+04 -0.15218760542E+02 -0.33075702580E+03  0.12275046729E+04  0.12699999809E+01 0. -1.
       -4    1    3    3    0  502  0.11820043520E+04  0.15218760542E+02  0.93462484693E+03  0.15069476157E+04  0.12699999809E+01 0.  1.
</event>
<event>
 5   0  0.1105862E-05  0.2495427E+04  0.7818609E-02  0.8404617E-01
       -1   -1    0    0    0  501  0.00000000000E+00  0.00000000000E+00  0.64523215322E+03  0.64523215324E+03  0.50400001928E-02 0.  1.
        1   -1    0    0  501    0  0.00000000000E+00  0.00000000000E+00 -0.24127573138E+04  0.24127573139E+04  0.50400001928E-02 0. -1.
    10030    2    1    2    0    0  0.00000000000E+00  0.00000000000E+00 -0.17675251606E+04  0.30579894671E+04  0.24954266945E+04 0.  0.
        3    1    3    3  502    0 -0.39948398359E+03  0.98643065346E+03 -0.85668991390E+02  0.10676947473E+04  0.10100000352E+00 0.  1.
       -3    1    3    3    0  502  0.39948398359E+03 -0.98643065346E+03 -0.16818561692E+04  0.19902947197E+04  0.10100000352E+00 0. -1.
</event>
<event>
 5   0  0.1067434E-05  0.1530701E+04  0.7818609E-02  0.8864290E-01
       -1   -1    0    0    0  501  0.00000000000E+00  0.00000000000E+00  0.59290151110E+03  0.59290151112E+03  0.50400001928E-02 0.  1.
        1   -1    0    0  501    0  0.00000000000E+00  0.00000000000E+00 -0.98795691334E+03  0.98795691335E+03  0.50400001928E-02 0. -1.
    10030    2    1    2    0    0  0.00000000000E+00  0.00000000000E+00 -0.39505540224E+03  0.15808584245E+04  0.15307006851E+04 0.  0.
        4    1    3    3  502    0  0.35141900322E+03  0.62736842964E+03  0.73114762322E+02  0.72279585203E+03  0.12699999809E+01 0.  1.
       -4    1    3    3    0  502 -0.35141900322E+03 -0.62736842964E+03 -0.46817016456E+03  0.85806257244E+03  0.12699999809E+01 0. -1.
</event>
<event>
 5   0  0.2651061E-05  0.2630925E+04  0.7818609E-02  0.8357772E-01
       -2   -1    0    0    0  501  0.00000000000E+00  0.00000000000E+00  0.12303404410E+04  0.12303404410E+04  0.25500000920E-02 0.  1.
        2   -1    0    0  501    0  0.00000000000E+00  0.00000000000E+00 -0.14064737166E+04  0.14064737166E+04  0.25500000920E-02 0. -1.
    10030    2    1    2    0    0  0.00000000000E+00  0.00000000000E+00 -0.17613327559E+03  0.26368141576E+04  0.26309249269E+04 0.  0.
        3    1    3    3  502    0  0.96784077501E+03  0.10257113258E+03 -0.97503628544E+03  0.13776546632E+04  0.10100000352E+00 0. -1.
       -3    1    3    3    0  502 -0.96784077501E+03 -0.10257113258E+03  0.79890300985E+03  0.12591594944E+04  0.10100000352E+00 0.  1.
</event>
<event>
 5   0  0.2518686E-05  0.2725039E+04  0.7818609E-02  0.8326926E-01
        2   -1    0    0  501    0  0.00000000000E+00  0.00000000000E+00  0.11256434164E+04  0.11256434164E+04  0.25500000920E-02 0. -1.
       -2   -1    0    0    0  501  0.00000000000E+00  0.00000000000E+00 -0.16492423694E+04  0.16492423694E+04  0.25500000920E-02 0.  1.
    10030    2    1    2    0    0  0.00000000000E+00  0.00000000000E+00 -0.52359895298E+03  0.27748857858E+04  0.27250385797E+04 0.  0.
        5    1    3    3  502    0 -0.45670942848E+03 -0.18963132635E+03 -0.15546269912E+04  0.16313891975E+04  0.46999998093E+01 0.  1.
       -5    1    3    3    0  502  0.45670942848E+03  0.18963132635E+03  0.10310280382E+04  0.11434965883E+04  0.46999998093E+01 0. -1.
</event>
<event>
 5   0  0.2518686E-05  0.2733978E+04  0.7818609E-02  0.8324064E-01
       -2   -1    0    0    0  501  0.00000000000E+00  0.00000000000E+00  0.13650004534E+04  0.13650004534E+04  0.25500000920E-02 0. -1.
        2   -1    0    0  501    0  0.00000000000E+00  0.00000000000E+00 -0.13689804354E+04  0.13689804354E+04  0.25500000920E-02 0.  1.
    10030    2    1    2    0    0  0.00000000000E+00  0.00000000000E+00 -0.39799820534E+01  0.27339808888E+04  0.27339779919E+04 0.  0.
        5    1    3    3  502    0  0.12923953515E+04 -0.40776915171E+03  0.17710626082E+03  0.13667297257E+04  0.46999998093E+01 0. -1.
       -5    1    3    3    0  502 -0.12923953515E+04  0.40776915171E+03 -0.18108624288E+03  0.13672511631E+04  0.46999998093E+01 0.  1.
</event>
<event>
 5   0  0.1078103E-05  0.2751568E+04  0.7818609E-02  0.8318464E-01
        1   -1    0    0  501    0  0.00000000000E+00  0.00000000000E+00  0.11570521316E+04  0.11570521316E+04  0.50400001928E-02 0. -1.
       -1   -1    0    0    0  501  0.00000000000E+00  0.00000000000E+00 -0.16358659667E+04  0.16358659667E+04  0.50400001928E-02 0.  1.
    10030    2    1    2    0    0  0.00000000000E+00  0.00000000000E+00 -0.47881383513E+03  0.27929180983E+04  0.27515684282E+04 0.  0.
        1    1    3    3  502    0  0.83768940008E+03  0.98786532886E+03 -0.71025369896E+03  0.14771803397E+04  0.50400001928E-02 0.  1.
       -1    1    3    3    0  502 -0.83768940008E+03 -0.98786532886E+03  0.23143986383E+03  0.13157377587E+04  0.50400001928E-02 0. -1.
</event>
<event>
 5   0  0.2697964E-05  0.2792755E+04  0.7818609E-02  0.8305521E-01
        2   -1    0    0  501    0  0.00000000000E+00  0.00000000000E+00  0.25326072520E+04  0.25326072520E+04  0.25500000920E-02 0. -1.
       -2   -1    0    0    0  501  0.00000000000E+00  0.00000000000E+00 -0.76990615261E+03  0.76990615262E+03  0.25500000920E-02 0.  1.
    10030    2    1    2    0    0  0.00000000000E+00  0.00000000000E+00  0.17627010994E+04  0.33025134046E+04  0.27927548446E+04 0.  0.
        1    1    3    3  502    0 -0.71816342801E+03 -0.47815390650E+03 -0.41699946362E+03  0.95826844898E+03  0.50400001928E-02 0.  1.
       -1    1    3    3    0  502  0.71816342801E+03  0.47815390650E+03  0.21797005630E+04  0.23442449556E+04  0.50400001928E-02 0. -1.
</event>
<event>
 5   0  0.2697964E-05  0.2352324E+04  0.7818609E-02  0.8457572E-01
       -2   -1    0    0    0  501  0.00000000000E+00  0.00000000000E+00  0.16681629987E+04  0.16681629987E+04  0.25500000920E-02 0.  1.
        2   -1    0    0  501    0  0.00000000000E+00  0.00000000000E+00 -0.82926972299E+03  0.82926972300E+03  0.25500000920E-02 0. -1.
    10030    2    1    2    0    0  0.00000000000E+00  0.00000000000E+00  0.83889327572E+03  0.24974327217E+04  0.23523240150E+04 0.  0.
        1    1    3    3  502    0 -0.69831007525E+03 -0.15571524059E+03 -0.57166731731E+03  0.91579895122E+03  0.50400001928E-02 0. -1.
       -1    1    3    3    0  502  0.69831007525E+03  0.15571524059E+03  0.14105605930E+04  0.15816337705E+04  0.50400001928E-02 0.  1.
</event>
<event>
 5   0  0.1105862E-05  0.2858080E+04  0.7818609E-02  0.8285460E-01
        1   -1    0    0  501    0  0.00000000000E+00  0.00000000000E+00  0.22925670456E+04  0.22925670456E+04  0.50400001928E-02 0. -1.
       -1   -1    0    0    0  501  0.00000000000E+00  0.00000000000E+00 -0.89077218559E+03  0.89077218560E+03  0.50400001928E-02 0.  1.
    10030    2    1    2    0    0  0.00000000000E+00  0.00000000000E+00  0.14017948600E+04  0.31833392312E+04  0.28580797455E+04 0.  0.
        3    1    3    3  502    0  0.11354731253E+04 -0.76043110724E+03  0.23549245319E+03  0.13867268631E+04  0.10100000352E+00 0.  1.
       -3    1    3    3    0  502 -0.11354731253E+04  0.76043110724E+03  0.11663024068E+04  0.17966123682E+04  0.10100000352E+00 0. -1.
</event>
<event>
 5   0  0.2624815E-05  0.2628222E+04  0.7818609E-02  0.8358678E-01
        2   -1    0    0  501    0  0.00000000000E+00  0.00000000000E+00  0.26070554804E+04  0.26070554804E+04  0.25500000920E-02 0. -1.
       -2   -1    0    0    0  501  0.00000000000E+00  0.00000000000E+00 -0.66238990963E+03  0.66238990964E+03  0.25500000920E-02 0.  1.
    10030    2    1    2    0    0  0.00000000000E+00  0.00000000000E+00  0.19446655707E+04  0.32694453900E+04  0.26282216376E+04 0.  0.
        4    1    3    3  502    0  0.12357119796E+04 -0.32590938855E+03  0.13530883126E+04  0.18611960189E+04  0.12699999809E+01 0. -1.
       -4    1    3    3    0  502 -0.12357119796E+04  0.32590938855E+03  0.59157725814E+03  0.14082493711E+04  0.12699999809E+01 0.  1.
</event>
<event>
 5   0  0.1075146E-05  0.1612814E+04  0.7818609E-02  0.8812714E-01
        1   -1    0    0  501    0  0.00000000000E+00  0.00000000000E+00  0.90403523135E+03  0.90403523136E+03  0.50400001928E-02 0.  1.
       -1   -1    0    0    0  501  0.00000000000E+00  0.00000000000E+00 -0.71932223077E+03  0.71932223079E+03  0.50400001928E-02 0. -1.
    10030    2    1    2    0    0  0.00000000000E+00  0.00000000000E+00  0.18471300058E+03  0.16233574621E+04  0.16128144832E+04 0.  0.
        2    1    3    3  502    0 -0.51771175573E+03 -0.38480873500E+03 -0.39473816994E+03  0.75625488254E+03  0.25500000920E-02 0. -1.
       -2    1    3    3    0  502  0.51771175573E+03  0.38480873500E+03  0.57945117052E+03  0.86710257961E+03  0.25500000920E-02 0.  1.
</event>
<event>
 5   0  0.2588048E-05  0.1587580E+04  0.7818609E-02  0.8828214E-01
        2   -1    0    0  501    0  0.00000000000E+00  0.00000000000E+00  0.10371441272E+04  0.10371441272E+04  0.25500000920E-02 0.  1.
       -2   -1    0    0    0  501  0.00000000000E+00  0.00000000000E+00 -0.60753631831E+03  0.60753631832E+03  0.25500000920E-02 0. -1.
    10030    2    1    2    0    0  0.00000000000E+00  0.00000000000E+00  0.42960780885E+03  0.16446804455E+04  0.15875802022E+04 0.  0.
        2    1    3    3  502    0  0.56441281697E+03  0.30129011879E+03  0.70155969150E+03  0.94948594744E+03  0.25500000920E-02 0.  1.
       -2    1    3    3    0  502 -0.56441281697E+03 -0.30129011879E+03 -0.27195188264E+03  0.69519449805E+03  0.25500000920E-02 0. -1.
</event>
<event>
 5   0  0.1078103E-05  0.1468979E+04  0.7818609E-02  0.8905348E-01
        1   -1    0    0  501    0  0.00000000000E+00  0.00000000000E+00  0.53060685945E+03  0.53060685948E+03  0.50400001928E-02 0. -1.
       -1   -1    0    0    0  501  0.00000000000E+00  0.00000000000E+00 -0.10167125893E+04  0.10167125893E+04  0.50400001928E-02 0.  1.
    10030    2    1    2    0    0  0.00000000000E+00  0.00000000000E+00 -0.48610572982E+03  0.15473194488E+04  0.14689787936E+04 0.  0.
        1    1    3    3  502    0  0.35419062586E+03  0.17458615361E+03  0.40928364594E+03  0.56872174861E+03  0.50400001928E-02 0. -1.
       -1    1    3    3    0  502 -0.35419062586E+03 -0.17458615361E+03 -0.89538937577E+03  0.97859770015E+03  0.50400001928E-02 0.  1.
</event>
<event>
 5   0  0.2588048E-05  0.2894610E+04  0.7818609E-02  0.8274483E-01
        2   -1    0    0  501    0  0.00000000000E+00  0.00000000000E+00  0.16494639470E+04  0.16494639470E+04  0.25500000920E-02 0. -1.
       -2   -1    0    0    0  501  0.00000000000E+00  0.00000000000E+00 -0.12699229375E+04  0.12699229375E+04  0.25500000920E-02 0.  1.
    10030    2    1    2    0    0  0.00000000000E+00  0.00000000000E+00  0.37954100950E+03  0.29193868845E+04  0.28946102334E+04 0.  0.
        2    1    3    3  502    0  0.14392131532E+04 -0.15097426019E+03  0.16581061679E+03  0.14565784868E+04  0.25500000920E-02 0.  1.
       -2    1    3    3    0  502 -0.14392131532E+04  0.15097426019E+03  0.21373039271E+03  0.14628083977E+04  0.25500000920E-02 0. -1.
</event>
<event>
 5   0  0.2518686E-05  0.2517938E+04  0.7818609E-02  0.8396623E-01
        2   -1    0    0  501    0  0.00000000000E+00  0.00000000000E+00  0.18838270077E+04  0.18838270077E+04  0.25500000920E-02 0.  1.
       -2   -1    0    0    0  501  0.00000000000E+00  0.00000000000E+00 -0.84137368999E+03  0.84137369000E+03  0.25500000920E-02 0. -1.
    10030    2    1    2    0    0  0.00000000000E+00  0.00000000000E+00  0.10424533177E+04  0.27252006977E+04  0.25179376329E+04 0.  0.
        5    1    3    3  502    0 -0.71729862728E+03 -0.13309507949E+03  0.16317198343E+04  0.17873900885E+04  0.46999998093E+01 0.  1.
       -5    1    3    3    0  502  0.71729862728E+03  0.13309507949E+03 -0.58926651667E+03  0.93781060910E+03  0.46999998093E+01 0. -1.
</event>
<event>
 5   0  0.2518686E-05  0.2629552E+04  0.7818609E-02  0.8358232E-01
        2   -1    0    0  501    0  0.00000000000E+00  0.00000000000E+00  0.18671896545E+04  0.18671896545E+04  0.25500000920E-02 0. -1.
       -2   -1    0    0    0  501  0.00000000000E+00  0.00000000000E+00 -0.92579584661E+03  0.92579584662E+03  0.25500000920E-02 0.  1.
    10030    2    1    2    0    0  0.00000000000E+00  0.00000000000E+00  0.94139380789E+03  0.27929855011E+04  0.26295523779E+04 0.  0.
        5    1    3    3  502    0 -0.11887057514E+04 -0.54433276285E+03  0.61823602273E+03  0.14462217638E+04  0.46999998093E+01 0. -1.
       -5    1    3    3    0  502  0.11887057514E+04  0.54433276285E+03  0.32315778516E+03  0.13467637374E+04  0.46999998093E+01 0.  1.
</event>
<event>
 5   0  0.2518686E-05  0.2769093E+04  0.7818609E-02  0.8312929E-01
       -2   -1    0    0    0  501  0.00000000000E+00  0.00000000000E+00  0.11036877220E+04  0.11036877220E+04  0.25500000920E-02 0. -1.
        2   -1    0    0  501    0  0.00000000000E+00  0.00000000000E+00 -0.17368759188E+04  0.17368759188E+04  0.25500000920E-02 0.  1.
    10030    2    1    2    0    0  0.00000000000E+00  0.00000000000E+00 -0.63318819683E+03  0.28405636408E+04  0.27690927224E+04 0.  0.
        5    1    3    3  502    0 -0.90084878423E+03  0.63764791716E+03 -0.11741267465E+04  0.16114338662E+04  0.46999998093E+01 0.  1.
       -5    1    3    3    0  502  0.90084878423E+03 -0.63764791716E+03  0.54093854970E+03  0.12291297746E+04  0.46999998093E+01 0. -1.
</event>
<event>
 5   0  0.1078103E-05  0.2847647E+04  0.7818609E-02  0.8288627E-01
       -1   -1    0    0    0  501  0.00000000000E+00  0.00000000000E+00  0.28291573333E+04  0.28291573333E+04  0.50400001928E-02 0.  1.
        1   -1    0    0  501    0  0.00000000000E+00  0.00000000000E+00 -0.71656433729E+03  0.71656433731E+03  0.50400001928E-02 0. -1.
    10030    2    1    2    0    0  0.00000000000E+00  0.00000000000E+00  0.21125929960E+04  0.35457216706E+04  0.28476469231E+04 0.  0.
        1    1    3    3  502    0  0.11834625446E+04 -0.64592754646E+03  0.48642547158E+03  0.14333233163E+04  0.50400001928E-02 0. -1.
       -1    1    3    3    0  502 -0.11834625446E+04  0.64592754646E+03  0.16261675244E+04  0.21123983543E+04  0.50400001928E-02 0.  1.
</event>
<event>
 5   0  0.1105862E-05  0.2780427E+04  0.7818609E-02  0.8309371E-01
       -1   -1    0    0    0  501  0.00000000000E+00  0.00000000000E+00  0.12989306656E+04  0.12989306656E+04  0.50400001928E-02 0. -1.
        1   -1    0    0  501    0  0.00000000000E+00  0.00000000000E+00 -0.14879113241E+04  0.14879113241E+04  0.50400001928E-02 0.  1.
    10030    2    1    2    0    0  0.00000000000E+00  0.00000000000E+00 -0.18898065847E+03  0.27868419897E+04  0.27804270511E+04 0.  0.
        3    1    3    3  502    0  0.79186531190E+03  0.14394272469E+03 -0.12306502603E+04  0.14704659987E+04  0.10100000352E+00 0.  1.
       -3    1    3    3    0  502 -0.79186531190E+03 -0.14394272469E+03  0.10416696018E+04  0.13163759910E+04  0.10100000352E+00 0. -1.
</event>
<event>
 5   0  0.1105862E-05  0.2822685E+04  0.7818609E-02  0.8296260E-01
        1   -1    0    0  501    0  0.00000000000E+00  0.00000000000E+00  0.19352764027E+04  0.19352764027E+04  0.50400001928E-02 0.  1.
       -1   -1    0    0    0  501  0.00000000000E+00  0.00000000000E+00 -0.10292524229E+04  0.10292524230E+04  0.50400001928E-02 0. -1.
    10030    2    1    2    0    0  0.00000000000E+00  0.00000000000E+00  0.90602397977E+03  0.29645288257E+04  0.28226851944E+04 0.  0.
        3    1    3    3  502    0 -0.48230864983E+03 -0.47164060124E+03  0.17549938566E+04  0.18801781664E+04  0.10100000352E+00 0.  1.
       -3    1    3    3    0  502  0.48230864983E+03  0.47164060124E+03 -0.84896987681E+03  0.10843506593E+04  0.10100000352E+00 0. -1.
</event>
<event>
 5   0  0.2697964E-05  0.2493273E+04  0.7818609E-02  0.8405386E-01
        2   -1    0    0  501    0  0.00000000000E+00  0.00000000000E+00  0.11255769630E+04  0.11255769630E+04  0.25500000920E-02 0.  1.
       -2   -1    0    0    0  501  0.00000000000E+00  0.00000000000E+00 -0.13807168438E+04  0.13807168438E+04  0.25500000920E-02 0. -1.
    10030    2    1    2    0    0  0.00000000000E+00  0.00000000000E+00 -0.25513988074E+03  0.25062938068E+04  0.24932734081E+04 0.  0.
        1    1    3    3  502    0 -0.76513755165E+03  0.92827865127E+03 -0.45633499808E+03  0.12866150776E+04  0.50400001928E-02 0. -1.
       -1    1    3    3    0  502  0.76513755165E+03 -0.92827865127E+03  0.20119511734E+03  0.12196787293E+04  0.50400001928E-02 0.  1.
</event>
<event>
 5   0  0.1017456E-05  0.2553723E+04  0.7818609E-02  0.8384092E-01
       -1   -1    0    0    0  501  0.00000000000E+00  0.00000000000E+00  0.10582555086E+04  0.10582555086E+04  0.50400001928E-02 0.  1.
        1   -1    0    0  501    0  0.00000000000E+00  0.00000000000E+00 -0.15406256298E+04  0.15406256298E+04  0.50400001928E-02 0. -1.
    10030    2    1    2    0    0  0.00000000000E+00  0.00000000000E+00 -0.48237012120E+03  0.25988811384E+04  0.25537232109E+04 0.  0.
        5    1    3    3  502    0  0.39038792332E+03 -0.12101889195E+04 -0.12340821315E+03  0.12775803805E+04  0.46999998093E+01 0. -1.
       -5    1    3    3    0  502 -0.39038792332E+03  0.12101889195E+04 -0.35896190805E+03  0.13213007579E+04  0.46999998093E+01 0.  1.
</event>
<event>
 5   0  0.2697964E-05  0.2814599E+04  0.7818609E-02  0.8298750E-01
        2   -1    0    0  501    0  0.00000000000E+00  0.00000000000E+00  0.16967862491E+04  0.16967862491E+04  0.25500000920E-02 0.  1.
       -2   -1    0    0    0  501  0.00000000000E+00  0.00000000000E+00 -0.11672016999E+04  0.11672016999E+04  0.25500000920E-02 0. -1.
    10030    2    1    2    0    0  0.00000000000E+00  0.00000000000E+00  0.52958454913E+03  0.28639879490E+04  0.28145989372E+04 0.  0.
        1    1    3    3  502    0 -0.54616719261E+03  0.11155805665E+04  0.93796984913E+03  0.15564723063E+04  0.50400001928E-02 0.  1.
       -1    1    3    3    0  502  0.54616719261E+03 -0.11155805665E+04 -0.40838530000E+03  0.13075156427E+04  0.50400001928E-02 0. -1.
</event>
<event>
 5   0  0.2651061E-05  0.2701138E+04  0.7818609E-02  0.8334636E-01
       -2   -1    0    0    0  501  0.00000000000E+00  0.00000000000E+00  0.10883777017E+04  0.10883777017E+04  0.25500000920E-02 0.  1.
        2   -1    0    0  501    0  0.00000000000E+00  0.00000000000E+00 -0.16759223391E+04  0.16759223391E+04  0.25500000920E-02 0. -1.
    10030    2    1    2    0    0  0.00000000000E+00  0.00000000000E+00 -0.58754463741E+03  0.27643000408E+04  0.27011379111E+04 0.  0.
        3    1    3    3  502    0  0.10490688037E+04  0.74309305762E+03 -0.71733918404E+03  0.14721780335E+04  0.10100000352E+00 0. -1.
       -3    1    3    3    0  502 -0.10490688037E+04 -0.74309305762E+03  0.12979454663E+03  0.12921220073E+04  0.10100000352E+00 0.  1.
</event>
<event>
 5   0  0.2588048E-05  0.2870439E+04  0.7818609E-02  0.8281727E-01
        2   -1    0    0  501    0  0.00000000000E+00  0.00000000000E+00  0.23700469242E+04  0.23700469242E+04  0.25500000920E-02 0.  1.
       -2   -1    0    0    0  501  0.00000000000E+00  0.00000000000E+00 -0.86912001592E+03  0.86912001593E+03  0.25500000920E-02 0. -1.
    10030    2    1    2    0    0  0.00000000000E+00  0.00000000000E+00  0.15009269083E+04  0.32391669401E+04  0.28704391445E+04 0.  0.
        2    1    3    3  502    0 -0.11766926294E+04 -0.79494855375E+03  0.51562922687E+03  0.15107687602E+04  0.25500000920E-02 0. -1.
       -2    1    3    3    0  502  0.11766926294E+04  0.79494855375E+03  0.98529768141E+03  0.17283981799E+04  0.25500000920E-02 0.  1.
</event>
<event>
 5   0  0.1075146E-05  0.2761620E+04  0.7818609E-02  0.8315284E-01
       -1   -1    0    0    0  501  0.00000000000E+00  0.00000000000E+00  0.91521784777E+03  0.91521784778E+03  0.50400001928E-02 0. -1.
        1   -1    0    0  501    0  0.00000000000E+00  0.00000000000E+00 -0.20832594817E+04  0.20832594817E+04  0.50400001928E-02 0.  1.
    10030    2    1    2    0    0  0.00000000000E+00  0.00000000000E+00 -0.11680416339E+04  0.29984773295E+04  0.27616200022E+04 0.  0.
        2    1    3    3  502    0  0.44523711855E+03  0.53667409387E+01  0.83512817076E+03  0.94641637520E+03  0.25500000920E-02 0. -1.
       -2    1    3    3    0  502 -0.44523711855E+03 -0.53667409387E+01 -0.20031698047E+04  0.20520609543E+04  0.25500000920E-02 0.  1.
</event>
<event>
 5   0  0.2518686E-05  0.1948246E+04  0.7818609E-02  0.8631207E-01
        2   -1    0    0  501    0  0.00000000000E+00  0.00000000000E+00  0.19619376079E+04  0.19619376079E+04  0.25500000920E-02 0. -1.
       -2   -1    0    0    0  501  0.00000000000E+00  0.00000000000E+00 -0.48366257012E+03  0.48366257012E+03  0.25500000920E-02 0.  1.
    10030    2    1    2    0    0  0.00000000000E+00  0.00000000000E+00  0.14782750378E+04  0.24456001781E+04  0.19482461712E+04 0.  0.
        5    1    3    3  502    0  0.96599697794E+03  0.36463609732E+02  0.58843067479E+03  0.11317033645E+04  0.46999998093E+01 0.  1.
       -5    1    3    3    0  502 -0.96599697794E+03 -0.36463609732E+02  0.88984436303E+03  0.13138968135E+04  0.46999998093E+01 0. -1.
</event>
<event>
 5   0  0.8958000E-06  0.2715413E+04  0.7818609E-02  0.8330021E-01
        3   -1    0    0  501    0  0.00000000000E+00  0.00000000000E+00  0.98156033695E+03  0.98156034214E+03  0.10100000352E+00 0.  1.
       -3   -1    0    0    0  501  0.00000000000E+00  0.00000000000E+00 -0.18779971036E+04  0.18779971063E+04  0.10100000352E+00 0. -1.
    10030    2    1    2    0    0  0.00000000000E+00  0.00000000000E+00 -0.89643676665E+03  0.28595574485E+04  0.27154133984E+04 0.  0.
        3    1    3    3  502    0 -0.10060181428E+04  0.83968309256E+03 -0.74073796303E+02  0.13124889093E+04  0.10100000352E+00 0. -1.
       -3    1    3    3    0  502  0.10060181428E+04 -0.83968309256E+03 -0.82236297034E+03  0.15470685391E+04  0.10100000352E+00 0.  1.
</event>
<event>
 5   0  0.2518686E-05  0.2696310E+04  0.7818609E-02  0.8336203E-01
       -2   -1    0    0    0  501  0.00000000000E+00  0.00000000000E+00  0.81548246564E+03  0.81548246564E+03  0.25500000920E-02 0.  1.
        2   -1    0    0  501    0  0.00000000000E+00  0.00000000000E+00 -0.22287685696E+04  0.22287685696E+04  0.25500000920E-02 0. -1.
    10030    2    1    2    0    0  0.00000000000E+00  0.00000000000E+00 -0.14132861040E+04  0.30442510353E+04  0.26963098401E+04 0.  0.
        5    1    3    3  502    0 -0.79600265619E+03 -0.10235613722E+04 -0.11233220303E+04  0.17155677151E+04  0.46999998093E+01 0. -1.
       -5    1    3    3    0  502  0.79600265619E+03  0.10235613722E+04 -0.28996407374E+03  0.13286833202E+04  0.46999998093E+01 0.  1.
</event>
<event>
 5   0  0.2697964E-05  0.2738925E+04  0.7818609E-02  0.8322485E-01
        2   -1    0    0  501    0  0.00000000000E+00  0.00000000000E+00  0.23770779429E+04  0.23770779429E+04  0.25500000920E-02 0.  1.
       -2   -1    0    0    0  501  0.00000000000E+00  0.00000000000E+00 -0.78896330921E+03  0.78896330921E+03  0.25500000920E-02 0. -1.
    10030    2    1    2    0    0  0.00000000000E+00  0.00000000000E+00  0.15881146337E+04  0.31660412521E+04  0.27389248110E+04 0.  0.
        1    1    3    3  502    0 -0.12203201704E+04  0.11664810860E+03  0.88421336927E+02  0.12290673018E+04  0.50400001928E-02 0.  1.
       -1    1    3    3    0  502  0.12203201704E+04 -0.11664810860E+03  0.14996932967E+04  0.19369739502E+04  0.50400001928E-02 0. -1.
</event>
<event>
 5   0  0.2624815E-05  0.2791282E+04  0.7818609E-02  0.8305980E-01
        2   -1    0    0  501    0  0.00000000000E+00  0.00000000000E+00  0.17642152615E+04  0.17642152615E+04  0.25500000920E-02 0. -1.
       -2   -1    0    0    0  501  0.00000000000E+00  0.00000000000E+00 -0.11040678358E+04  0.11040678358E+04  0.25500000920E-02 0.  1.
    10030    2    1    2    0    0  0.00000000000E+00  0.00000000000E+00  0.66014742569E+03  0.28682830973E+04  0.27912816595E+04 0.  0.
        4    1    3    3  502    0 -0.22499383343E+03 -0.11175190417E+04  0.11574822305E+04  0.16245731010E+04  0.12699999809E+01 0. -1.
       -4    1    3    3    0  502  0.22499383343E+03  0.11175190417E+04 -0.49733480485E+03  0.12437099962E+04  0.12699999809E+01 0.  1.
</event>
<event>
 5   0  0.1075146E-05  0.2307241E+04  0.7818609E-02  0.8475072E-01
        1   -1    0    0  501    0  0.00000000000E+00  0.00000000000E+00  0.17478572086E+04  0.17478572086E+04  0.50400001928E-02 0. -1.
       -1   -1    0    0    0  501  0.00000000000E+00  0.00000000000E+00 -0.76141246615E+03  0.76141246616E+03  0.50400001928E-02 0.  1.
    10030    2    1    2    0    0  0.00000000000E+00  0.00000000000E+00  0.98644474249E+03  0.25092696748E+04  0.23072410084E+04 0.  0.
        2    1    3    3  502    0 -0.76962850982E+03 -0.35757078517E+03  0.13430922986E+04  0.15887359227E+04  0.25500000920E-02 0. -1.
       -2    1    3    3    0  502  0.76962850982E+03  0.35757078517E+03 -0.35664755609E+03  0.92053375212E+03  0.25500000920E-02 0.  1.
</event>
<event>
 5   0  0.1075146E-05  0.2802006E+04  0.7818609E-02  0.8302646E-01
       -1   -1    0    0    0  501  0.00000000000E+00  0.00000000000E+00  0.13441207775E+04  0.13441207775E+04  0.50400001928E-02 0.  1.
        1   -1    0    0  501    0  0.00000000000E+00  0.00000000000E+00 -0.14602925937E+04  0.14602925937E+04  0.50400001928E-02 0. -1.
    10030    2    1    2    0    0  0.00000000000E+00  0.00000000000E+00 -0.11617181618E+03  0.28044133711E+04  0.28020061501E+04 0.  0.
        2    1    3    3  502    0  0.34996918474E+03 -0.11768655517E+03  0.12945488140E+04  0.13461742783E+04  0.25500000920E-02 0.  1.
       -2    1    3    3    0  502 -0.34996918474E+03  0.11768655517E+03 -0.14107206302E+04  0.14582390929E+04  0.25500000920E-02 0. -1.
</event>
<event>
 5   0  0.2518686E-05  0.2761297E+04  0.7818609E-02  0.8315386E-01
        2   -1    0    0  501    0  0.00000000000E+00  0.00000000000E+00  0.17463456836E+04  0.17463456836E+04  0.25500000920E-02 0.  1.
       -2   -1    0    0    0  501  0.00000000000E+00  0.00000000000E+00 -0.10915309557E+04  0.10915309557E+04  0.25500000920E-02 0. -1.
    10030    2    1    2    0    0  0.00000000000E+00  0.00000000000E+00  0.65481472788E+03  0.28378766393E+04  0.27612970670E+04 0.  0.
        5    1    3    3  502    0  0.32960045158E+03  0.91312066557E+03 -0.68152227790E+03  0.11861368019E+04  0.46999998093E+01 0. -1.
       -5    1    3    3    0  502 -0.32960045158E+03 -0.91312066557E+03  0.13363370058E+04  0.16517398374E+04  0.46999998093E+01 0.  1.
</event>
<event>
 5   0  0.2651061E-05  0.2816518E+04  0.7818609E-02  0.8298159E-01
        2   -1    0    0  501    0  0.00000000000E+00  0.00000000000E+00  0.25245951927E+04  0.25245951927E+04  0.25500000920E-02 0. -1.
       -2   -1    0    0    0  501  0.00000000000E+00  0.00000000000E+00 -0.78554897626E+03  0.78554897626E+03  0.25500000920E-02 0.  1.
    10030    2    1    2    0    0  0.00000000000E+00  0.00000000000E+00  0.17390462165E+04  0.33101441690E+04  0.28165178282E+04 0.  0.
        3    1    3    3  502    0  0.77335493656E+03  0.27293283221E+03 -0.47594464124E+03  0.94820541052E+03  0.10100000352E+00 0.  1.
       -3    1    3    3    0  502 -0.77335493656E+03 -0.27293283221E+03  0.22149908577E+04  0.23619387585E+04  0.10100000352E+00 0. -1.
</event>
<event>
 5   0  0.1075146E-05  0.2747765E+04  0.7818609E-02  0.8319671E-01
        1   -1    0    0  501    0  0.00000000000E+00  0.00000000000E+00  0.24424095804E+04  0.24424095804E+04  0.50400001928E-02 0.  1.
       -1   -1    0    0    0  501  0.00000000000E+00  0.00000000000E+00 -0.77282435552E+03  0.77282435553E+03  0.50400001928E-02 0. -1.
    10030    2    1    2    0    0  0.00000000000E+00  0.00000000000E+00  0.16695852249E+04  0.32152339359E+04  0.27477653538E+04 0.  0.
        2    1    3    3  502    0  0.46800460953E+03 -0.36575694971E+03  0.22844031972E+04  0.23603610800E+04  0.25500000920E-02 0.  1.
       -2    1    3    3    0  502 -0.46800460953E+03  0.36575694971E+03 -0.61481797227E+03  0.85487285594E+03  0.25500000920E-02 0. -1.
</event>
<event>
 5   0  0.2624815E-05  0.2863268E+04  0.7818609E-02  0.8283891E-01
       -2   -1    0    0    0  501  0.00000000000E+00  0.00000000000E+00  0.12061730068E+04  0.12061730068E+04  0.25500000920E-02 0.  1.
        2   -1    0    0  501    0  0.00000000000E+00  0.00000000000E+00 -0.16992383857E+04  0.16992383857E+04  0.25500000920E-02 0. -1.
    10030    2    1    2    0    0  0.00000000000E+00  0.00000000000E+00 -0.49306537889E+03  0.29054113925E+04  0.28632676948E+04 0.  0.
        4    1    3    3  502    0 -0.68859459071E+03  0.47282661738E+03  0.93326990412E+03  0.12524862663E+04  0.12699999809E+01 0.  1.
       -4    1    3    3    0  502  0.68859459071E+03 -0.47282661738E+03 -0.14263352830E+04  0.16529251262E+04  0.12699999809E+01 0. -1.
</event>
<event>
 5   0  0.1067434E-05  0.2668732E+04  0.7818609E-02  0.8345222E-01
        1   -1    0    0  501    0  0.00000000000E+00  0.00000000000E+00  0.16299864040E+04  0.16299864040E+04  0.50400001928E-02 0. -1.
       -1   -1    0    0    0  501  0.00000000000E+00  0.00000000000E+00 -0.10923603007E+04  0.10923603007E+04  0.50400001928E-02 0.  1.
    10030    2    1    2    0    0  0.00000000000E+00  0.00000000000E+00  0.53762610331E+03  0.27223467047E+04  0.26687318625E+04 0.  0.
        4    1    3    3  502    0 -0.11255024759E+04  0.40576770905E+03 -0.33392771367E+03  0.12421403253E+04  0.12699999809E+01 0.  1.
       -4    1    3    3    0  502  0.11255024759E+04 -0.40576770905E+03  0.87155381698E+03  0.14802063794E+04  0.12699999809E+01 0. -1.
</event>
<event>
 5   0  0.1105862E-05  0.2791746E+04  0.7818609E-02  0.8305836E-01
       -1   -1    0    0    0  501  0.00000000000E+00  0.00000000000E+00  0.10637101890E+04  0.10637101890E+04  0.50400001928E-02 0. -1.
        1   -1    0    0  501    0  0.00000000000E+00  0.00000000000E+00 -0.18317593449E+04  0.18317593449E+04  0.50400001928E-02 0.  1.
    10030    2    1    2    0    0  0.00000000000E+00  0.00000000000E+00 -0.76804915586E+03  0.28954695339E+04  0.27917457470E+04 0.  0.
        3    1    3    3  502    0 -0.13680480433E+04 -0.24077137418E+03 -0.52674072103E+03  0.14855914986E+04  0.10100000352E+00 0.  1.
       -3    1    3    3    0  502  0.13680480433E+04  0.24077137418E+03 -0.24130843483E+03  0.14098780353E+04  0.10100000352E+00 0. -1.
</event>
<event>
 5   0  0.2697964E-05  0.2494881E+04  0.7818609E-02  0.8404811E-01
       -2   -1    0    0    0  501  0.00000000000E+00  0.00000000000E+00  0.65914143595E+03  0.65914143595E+03  0.25500000920E-02 0.  1.
        2   -1    0    0  501    0  0.00000000000E+00  0.00000000000E+00 -0.23608101867E+04  0.23608101867E+04  0.25500000920E-02 0. -1.
    10030    2    1    2    0    0  0.00000000000E+00  0.00000000000E+00 -0.17016687507E+04  0.30199516227E+04  0.24948810124E+04 0.  0.
        1    1    3    3  502    0 -0.10010921219E+04  0.47036090037E+03 -0.15490112422E+04  0.19033813705E+04  0.50400001928E-02 0. -1.
       -1    1    3    3    0  502  0.10010921219E+04 -0.47036090037E+03 -0.15265750852E+03  0.11165702521E+04  0.50400001928E-02 0.  1.
</event>
<event>
 5   0  0.1075146E-05  0.2819085E+04  0.7818609E-02  0.8297368E-01
        1   -1    0    0  501    0  0.00000000000E+00  0.00000000000E+00  0.12353755778E+04  0.12353755778E+04  0.50400001928E-02 0.  1.
       -1   -1    0    0    0  501  0.00000000000E+00  0.00000000000E+00 -0.16082635508E+04  0.16082635508E+04  0.50400001928E-02 0. -1.
    10030    2    1    2    0    0  0.00000000000E+00  0.00000000000E+00 -0.37288797300E+03  0.28436391286E+04  0.28190846127E+04 0.  0.
        2    1    3    3  502    0 -0.64466130219E+03  0.95494363905E+03  0.63260374955E+03  0.13144173813E+04  0.25500000920E-02 0.  1.
       -2    1    3    3    0  502  0.64466130219E+03 -0.95494363905E+03 -0.10054917225E+04  0.15292217473E+04  0.25500000920E-02 0. -1.
</event>
<event>
 5   0  0.2697964E-05  0.2712493E+04  0.7818609E-02  0.8330963E-01
       -2   -1    0    0    0  501  0.00000000000E+00  0.00000000000E+00  0.91749980121E+03  0.91749980122E+03  0.25500000920E-02 0.  1.
        2   -1    0    0  501    0  0.00000000000E+00  0.00000000000E+00 -0.20048005513E+04  0.20048005513E+04  0.25500000920E-02 0. -1.
    10030    2    1    2    0    0  0.00000000000E+00  0.00000000000E+00 -0.10873007501E+04  0.29223003525E+04  0.27124926598E+04 0.  0.
        1    1    3    3  502    0  0.10008958884E+02  0.43693459564E+03 -0.19268553408E+04  0.19757994646E+04  0.50400001928E-02 0. -1.
       -1    1    3    3    0  502 -0.10008958884E+02 -0.43693459564E+03  0.83955459066E+03  0.94650088792E+03  0.50400001928E-02 0.  1.
</event>
<event>
 5   0  0.2651061E-05  0.1615396E+04  0.7818609E-02  0.8811145E-01
       -2   -1    0    0    0  501  0.00000000000E+00  0.00000000000E+00  0.67249084410E+03  0.67249084410E+03  0.25500000920E-02 0.  1.
        2   -1    0    0  501    0  0.00000000000E+00  0.00000000000E+00 -0.97008860076E+03  0.97008860076E+03  0.25500000920E-02 0. -1.
    10030    2    1    2    0    0  0.00000000000E+00  0.00000000000E+00 -0.29759775666E+03  0.16425794449E+04  0.16153955577E+04 0.  0.
        3    1    3    3  502    0  0.31300889598E+03  0.13792263767E+03 -0.89280746908E+03  0.95608703056E+03  0.10100000352E+00 0. -1.
       -3    1    3    3    0  502 -0.31300889598E+03 -0.13792263767E+03  0.59520971242E+03  0.68649241431E+03  0.10100000352E+00 0.  1.
</event>
<event>
 5   0  0.1078103E-05  0.2801624E+04  0.7818609E-02  0.8302764E-01
        1   -1    0    0  501    0  0.00000000000E+00  0.00000000000E+00  0.20563940543E+04  0.20563940543E+04  0.50400001928E-02 0.  1.
       -1   -1    0    0    0  501  0.00000000000E+00  0.00000000000E+00 -0.95423092883E+03  0.95423092884E+03  0.50400001928E-02 0. -1.
    10030    2    1    2    0    0  0.00000000000E+00  0.00000000000E+00  0.11021631255E+04  0.30106249832E+04  0.28016243920E+04 0.  0.
        1    1    3    3  502    0 -0.88714118046E+03 -0.10167194339E+04  0.95536098159E+03  0.16533156040E+04  0.50400001928E-02 0.  1.
       -1    1    3    3    0  502  0.88714118046E+03  0.10167194339E+04  0.14680214390E+03  0.13573093792E+04  0.50400001928E-02 0. -1.
</event>
<event>
 5   0  0.1078103E-05  0.2732803E+04  0.7818609E-02  0.8324439E-01
       -1   -1    0    0    0  501  0.00000000000E+00  0.00000000000E+00  0.15916979785E+04  0.15916979785E+04  0.50400001928E-02 0.  1.
        1   -1    0    0  501    0  0.00000000000E+00  0.00000000000E+00 -0.11729942568E+04  0.11729942568E+04  0.50400001928E-02 0. -1.
    10030    2    1    2    0    0  0.00000000000E+00  0.00000000000E+00  0.41870372173E+03  0.27646922354E+04  0.27328026547E+04 0.  0.
        1    1    3    3  502    0  0.12345655883E+04  0.46862583539E+03  0.56457630173E+03  0.14361437135E+04  0.50400001928E-02 0.  1.
       -1    1    3    3    0  502 -0.12345655883E+04 -0.46862583539E+03 -0.14587258001E+03  0.13285485219E+04  0.50400001928E-02 0. -1.
</event>
<event>
 5   0  0.2697964E-05  0.2633201E+04  0.7818609E-02  0.8357010E-01
        2   -1    0    0  501    0  0.00000000000E+00  0.00000000000E+00  0.18721841046E+04  0.18721841046E+04  0.25500000920E-02 0.  1.
       -2   -1    0    0    0  501  0.00000000000E+00  0.00000000000E+00 -0.92589036241E+03  0.92589036241E+03  0.25500000920E-02 0. -1.
    10030    2    1    2    0    0  0.00000000000E+00  0.00000000000E+00  0.94629374218E+03  0.27980744670E+04  0.26332012601E+04 0.  0.
        1    1    3    3  502    0 -0.10983791562E+04  0.58747843212E+03  0.92631065920E+03  0.15522947904E+04  0.50400001928E-02 0.  1.
       -1    1    3    3    0  502  0.10983791562E+04 -0.58747843212E+03  0.19983082978E+02  0.12457796766E+04  0.50400001928E-02 0. -1.
</event>
<event>
 5   0  0.1075146E-05  0.2687323E+04  0.7818609E-02  0.8339130E-01
        1   -1    0    0  501    0  0.00000000000E+00  0.00000000000E+00  0.16192644513E+04  0.16192644513E+04  0.50400001928E-02 0.  1.
       -1   -1    0    0    0  501  0.00000000000E+00  0.00000000000E+00 -0.11149670014E+04  0.11149670014E+04  0.50400001928E-02 0. -1.
    10030    2    1    2    0    0  0.00000000000E+00  0.00000000000E+00  0.50429744984E+03  0.27342314527E+04  0.26873231512E+04 0.  0.
        2    1    3    3  502    0  0.59339622098E+03 -0.26467677955E+03 -0.94449888871E+03  0.11464078783E+04  0.25500000920E-02 0. -1.
       -2    1    3    3    0  502 -0.59339622098E+03  0.26467677955E+03  0.14487963386E+04  0.15878235744E+04  0.25500000920E-02 0.  1.
</event>
<event>
 5   0  0.1078103E-05  0.2729225E+04  0.7818609E-02  0.8325584E-01
        1   -1    0    0  501    0  0.00000000000E+00  0.00000000000E+00  0.26942953486E+04  0.26942953486E+04  0.50400001928E-02 0.  1.
       -1   -1    0    0    0  501  0.00000000000E+00  0.00000000000E+00 -0.69115210270E+03  0.69115210272E+03  0.50400001928E-02 0. -1.
    10030    2    1    2    0    0  0.00000000000E+00  0.00000000000E+00  0.20031432459E+04  0.33854474513E+04  0.27292254546E+04 0.  0.
        1    1    3    3  502    0  0.52326989816E+02  0.12780053579E+04  0.15914435924E+04  0.20417464379E+04  0.50400001928E-02 0.  1.
       -1    1    3    3    0  502 -0.52326989816E+02 -0.12780053579E+04  0.41169965352E+03  0.13437010134E+04  0.50400001928E-02 0. -1.
</event>
<event>
 5   0  0.2651061E-05  0.2845468E+04  0.7818609E-02  0.8289290E-01
       -2   -1    0    0    0  501  0.00000000000E+00  0.00000000000E+00  0.80121450926E+03  0.80121450927E+03  0.25500000920E-02 0.  1.
        2   -1    0    0  501    0  0.00000000000E+00  0.00000000000E+00 -0.25263796983E+04  0.25263796983E+04  0.25500000920E-02 0. -1.
    10030    2    1    2    0    0  0.00000000000E+00  0.00000000000E+00 -0.17251651890E+04  0.33275942076E+04  0.28454680249E+04 0.  0.
        3    1    3    3  502    0  0.71532485277E+03 -0.13248251475E+03  0.56725658958E+03  0.92250816275E+03  0.10100000352E+00 0.  1.
       -3    1    3    3    0  502 -0.71532485277E+03  0.13248251475E+03 -0.22924217786E+04  0.24050860448E+04  0.10100000352E+00 0. -1.
</event>
<event>
 5   0  0.1067434E-05  0.3076736E+04  0.7818609E-02  0.8222152E-01
        1   -1    0    0  501    0  0.00000000000E+00  0.00000000000E+00  0.16700315746E+04  0.16700315746E+04  0.50400001928E-02 0. -1.
       -1   -1    0    0    0  501  0.00000000000E+00  0.00000000000E+00 -0.14170842340E+04  0.14170842340E+04  0.50400001928E-02 0.  1.
    10030    2    1    2    0    0  0.00000000000E+00  0.00000000000E+00  0.25294734065E+03  0.30871158086E+04  0.30767355523E+04 0.  0.
        4    1    3    3  502    0  0.70766956187E+03  0.50522331869E+03  0.13998206298E+04  0.16478914464E+04  0.12699999809E+01 0. -1.
       -4    1    3    3    0  502 -0.70766956187E+03 -0.50522331869E+03 -0.11468732892E+04  0.14392243622E+04  0.12699999809E+01 0.  1.
</event>
<event>
 5   0  0.1078103E-05  0.2813397E+04  0.7818609E-02  0.8299121E-01
        1   -1    0    0  501    0  0.00000000000E+00  0.00000000000E+00  0.12038427315E+04  0.12038427315E+04  0.50400001928E-02 0.  1.
       -1   -1    0    0    0  501  0.00000000000E+00  0.00000000000E+00 -0.16437363622E+04  0.16437363622E+04  0.50400001928E-02 0. -1.
    10030    2    1    2    0    0  0.00000000000E+00  0.00000000000E+00 -0.43989363069E+03  0.28475790938E+04  0.28133965751E+04 0.  0.
        1    1    3    3  502    0  0.30632041516E+03 -0.82443053507E+03  0.89124544309E+03  0.12521327181E+04  0.50400001928E-02 0.  1.
       -1    1    3    3    0  502 -0.30632041516E+03  0.82443053507E+03 -0.13311390738E+04  0.15954463757E+04  0.50400001928E-02 0. -1.
</event>
<event>
 5   0  0.1067434E-05  0.1504662E+04  0.7818609E-02  0.8881359E-01
       -1   -1    0    0    0  501  0.00000000000E+00  0.00000000000E+00  0.68465063261E+03  0.68465063263E+03  0.50400001928E-02 0.  1.
        1   -1    0    0  501    0  0.00000000000E+00  0.00000000000E+00 -0.82670184182E+03  0.82670184184E+03  0.50400001928E-02 0. -1.
    10030    2    1    2    0    0  0.00000000000E+00  0.00000000000E+00 -0.14205120921E+03  0.15113524745E+04  0.15046620072E+04 0.  0.
        4    1    3    3  502    0 -0.47363954286E+02  0.23089753471E+03  0.64660436027E+03  0.68822658138E+03  0.12699999809E+01 0.  1.
       -4    1    3    3    0  502  0.47363954286E+02 -0.23089753471E+03 -0.78865556948E+03  0.82312589309E+03  0.12699999809E+01 0. -1.
</event>
<event>
 5   0  0.2588048E-05  0.2759342E+04  0.7818609E-02  0.8316003E-01
        2   -1    0    0  501    0  0.00000000000E+00  0.00000000000E+00  0.14488711525E+04  0.14488711525E+04  0.25500000920E-02 0.  1.
       -2   -1    0    0    0  501  0.00000000000E+00  0.00000000000E+00 -0.13137758123E+04  0.13137758123E+04  0.25500000920E-02 0. -1.
    10030    2    1    2    0    0  0.00000000000E+00  0.00000000000E+00  0.13509534018E+03  0.27626469649E+04  0.27593418602E+04 0.  0.
        2    1    3    3  502    0 -0.66650782048E+03 -0.83216865850E+03  0.94424171146E+03  0.14241944251E+04  0.25500000920E-02 0.  1.
       -2    1    3    3    0  502  0.66650782048E+03  0.83216865850E+03 -0.80914637128E+03  0.13384525397E+04  0.25500000920E-02 0. -1.
</event>
<event>
 5   0  0.2624815E-05  0.2844013E+04  0.7818609E-02  0.8289733E-01
        2   -1    0    0  501    0  0.00000000000E+00  0.00000000000E+00  0.13485208922E+04  0.13485208922E+04  0.25500000920E-02 0. -1.
       -2   -1    0    0    0  501  0.00000000000E+00  0.00000000000E+00 -0.14994965398E+04  0.14994965398E+04  0.25500000920E-02 0.  1.
    10030    2    1    2    0    0  0.00000000000E+00  0.00000000000E+00 -0.15097564758E+03  0.28480174321E+04  0.28440129478E+04 0.  0.
        4    1    3    3  502    0  0.82500500422E+03  0.11119846942E+04 -0.39991556448E+03  0.14412068861E+04  0.12699999809E+01 0.  1.
       -4    1    3    3    0  502 -0.82500500422E+03 -0.11119846942E+04  0.24893991690E+03  0.14068105459E+04  0.12699999809E+01 0. -1.
</event>
<event>
 5   0  0.2651061E-05  0.2732299E+04  0.7818609E-02  0.8324601E-01
       -2   -1    0    0    0  501  0.00000000000E+00  0.00000000000E+00  0.12754838932E+04  0.12754838932E+04  0.25500000920E-02 0.  1.
        2   -1    0    0  501    0  0.00000000000E+00  0.00000000000E+00 -0.14632594752E+04  0.14632594752E+04  0.25500000920E-02 0. -1.
    10030    2    1    2    0    0  0.00000000000E+00  0.00000000000E+00 -0.18777558198E+03  0.27387433684E+04  0.27322985871E+04 0.  0.
        3    1    3    3  502    0 -0.92657532113E+03  0.52773133312E+03  0.76212991575E+03  0.13106808171E+04  0.10100000352E+00 0.  1.
       -3    1    3    3    0  502  0.92657532113E+03 -0.52773133312E+03 -0.94990549774E+03  0.14280625513E+04  0.10100000352E+00 0. -1.
</event>
<event>
 5   0  0.1105862E-05  0.2793778E+04  0.7818609E-02  0.8305202E-01
       -1   -1    0    0    0  501  0.00000000000E+00  0.00000000000E+00  0.10827806260E+04  0.10827806260E+04  0.50400001928E-02 0. -1.
        1   -1    0    0  501    0  0.00000000000E+00  0.00000000000E+00 -0.18021190227E+04  0.18021190227E+04  0.50400001928E-02 0.  1.
    10030    2    1    2    0    0  0.00000000000E+00  0.00000000000E+00 -0.71933839666E+03  0.28848996487E+04  0.27937784906E+04 0.  0.
        3    1    3    3  502    0  0.17860909956E+01 -0.12944753860E+04 -0.90179722112E+03  0.15776273176E+04  0.10100000352E+00 0. -1.
       -3    1    3    3    0  502 -0.17860909956E+01  0.12944753860E+04  0.18245882446E+03  0.13072723312E+04  0.10100000352E+00 0.  1.
</event>
<event>
 5   0  0.2518686E-05  0.2739360E+04  0.7818609E-02  0.8322346E-01
       -2   -1    0    0    0  501  0.00000000000E+00  0.00000000000E+00  0.66952505073E+03  0.66952505073E+03  0.25500000920E-02 0. -1.
        2   -1    0    0  501    0  0.00000000000E+00  0.00000000000E+00 -0.28020204400E+04  0.28020204400E+04  0.25500000920E-02 0.  1.
    10030    2    1    2    0    0  0.00000000000E+00  0.00000000000E+00 -0.21324953893E+04  0.34715454907E+04  0.27393596896E+04 0.  0.
        5    1    3    3  502    0 -0.75926913548E+03  0.10281769068E+04 -0.44235868974E+03  0.13525312093E+04  0.46999998093E+01 0. -1.
       -5    1    3    3    0  502  0.75926913548E+03 -0.10281769068E+04 -0.16901366995E+04  0.21190142814E+04  0.46999998093E+01 0.  1.
</event>
<event>
 5   0  0.2588048E-05  0.2330991E+04  0.7818609E-02  0.8465801E-01
       -2   -1    0    0    0  501  0.00000000000E+00  0.00000000000E+00  0.78415461108E+03  0.78415461109E+03  0.25500000920E-02 0. -1.
        2   -1    0    0  501    0  0.00000000000E+00  0.00000000000E+00 -0.17322855585E+04  0.17322855585E+04  0.25500000920E-02 0.  1.
    10030    2    1    2    0    0  0.00000000000E+00  0.00000000000E+00 -0.94813094744E+03  0.25164401696E+04  0.23309909553E+04 0.  0.
        2    1    3    3  502    0 -0.24522912530E+03  0.10629369902E+03  0.75062362264E+03  0.79678823863E+03  0.25500000920E-02 0. -1.
       -2    1    3    3    0  502  0.24522912530E+03 -0.10629369902E+03 -0.16987545701E+04  0.17196519310E+04  0.25500000920E-02 0.  1.
</event>
<event>
 5   0  0.1105862E-05  0.3015939E+04  0.7818609E-02  0.8239194E-01
       -1   -1    0    0    0  501  0.00000000000E+00  0.00000000000E+00  0.13360700458E+04  0.13360700458E+04  0.50400001928E-02 0.  1.
        1   -1    0    0  501    0  0.00000000000E+00  0.00000000000E+00 -0.17019855423E+04  0.17019855423E+04  0.50400001928E-02 0. -1.
    10030    2    1    2    0    0  0.00000000000E+00  0.00000000000E+00 -0.36591549650E+03  0.30380555882E+04  0.30159389262E+04 0.  0.
        3    1    3    3  502    0 -0.32281281079E+03  0.67370170662E+03 -0.15024834946E+04  0.16779567224E+04  0.10100000352E+00 0. -1.
       -3    1    3    3    0  502  0.32281281079E+03 -0.67370170662E+03  0.11365679981E+04  0.13600988658E+04  0.10100000352E+00 0.  1.
</event>
<event>
 5   0  0.2518686E-05  0.2924837E+04  0.7818609E-02  0.8265526E-01
       -2   -1    0    0    0  501  0.00000000000E+00  0.00000000000E+00  0.11942150777E+04  0.11942150777E+04  0.25500000920E-02 0. -1.
        2   -1    0    0  501    0  0.00000000000E+00  0.00000000000E+00 -0.17908563139E+04  0.17908563139E+04  0.25500000920E-02 0.  1.
    10030    2    1    2    0    0  0.00000000000E+00  0.00000000000E+00 -0.59664123616E+03  0.29850713916E+04  0.29248368242E+04 0.  0.
        5    1    3    3  502    0 -0.39386663247E+03 -0.72743837795E+03 -0.15291199447E+04  0.17385417491E+04  0.46999998093E+01 0.  1.
       -5    1    3    3    0  502  0.39386663247E+03  0.72743837795E+03  0.93247870856E+03  0.12465296426E+04  0.46999998093E+01 0. -1.
</event>
<event>
 5   0  0.8958000E-06  0.2733696E+04  0.7818609E-02  0.8324154E-01
       -3   -1    0    0    0  501  0.00000000000E+00  0.00000000000E+00  0.12995645542E+04  0.12995645581E+04  0.10100000352E+00 0.  1.
        3   -1    0    0  501    0  0.00000000000E+00  0.00000000000E+00 -0.14376146754E+04  0.14376146790E+04  0.10100000352E+00 0. -1.
    10030    2    1    2    0    0  0.00000000000E+00  0.00000000000E+00 -0.13805012128E+03  0.27371792371E+04  0.27336957292E+04 0.  0.
        2    1    3    3  502    0 -0.43533944586E+03 -0.11187782801E+04 -0.72337738828E+03  0.14015919945E+04  0.25500000920E-02 0. -1.
       -2    1    3    3    0  502  0.43533944586E+03  0.11187782801E+04  0.58532726701E+03  0.13355872426E+04  0.25500000920E-02 0.  1.
</event>
<event>
 5   0  0.2518686E-05  0.2478872E+04  0.7818609E-02  0.8410551E-01
        2   -1    0    0  501    0  0.00000000000E+00  0.00000000000E+00  0.19824823386E+04  0.19824823386E+04  0.25500000920E-02 0.  1.
       -2   -1    0    0    0  501  0.00000000000E+00  0.00000000000E+00 -0.77488798071E+03  0.77488798071E+03  0.25500000920E-02 0. -1.
    10030    2    1    2    0    0  0.00000000000E+00  0.00000000000E+00  0.12075943579E+04  0.27573703193E+04  0.24788721114E+04 0.  0.
        5    1    3    3  502    0  0.30351352108E+03  0.98730894512E+03  0.13658009258E+04  0.17124058133E+04  0.46999998093E+01 0.  1.
       -5    1    3    3    0  502 -0.30351352108E+03 -0.98730894512E+03 -0.15820656793E+03  0.10449645060E+04  0.46999998093E+01 0. -1.
</event>
<event>
 5   0  0.2697964E-05  0.2762615E+04  0.7818609E-02  0.8314970E-01
        2   -1    0    0  501    0  0.00000000000E+00  0.00000000000E+00  0.11636977588E+04  0.11636977588E+04  0.25500000920E-02 0.  1.
       -2   -1    0    0    0  501  0.00000000000E+00  0.00000000000E+00 -0.16396096762E+04  0.16396096762E+04  0.25500000920E-02 0. -1.
    10030    2    1    2    0    0  0.00000000000E+00  0.00000000000E+00 -0.47591191745E+03  0.28033074350E+04  0.27626147799E+04 0.  0.
        1    1    3    3  502    0 -0.10874722845E+04 -0.64717521765E+03  0.32389503837E+03  0.13062693933E+04  0.50400001928E-02 0.  1.
       -1    1    3    3    0  502  0.10874722845E+04  0.64717521765E+03 -0.79980695582E+03  0.14970380418E+04  0.50400001928E-02 0. -1.
</event>
<event>
 5   0  0.2624815E-05  0.2695634E+04  0.7818609E-02  0.8336423E-01
       -2   -1    0    0    0  501  0.00000000000E+00  0.00000000000E+00  0.68830991774E+03  0.68830991775E+03  0.25500000920E-02 0.  1.
        2   -1    0    0  501    0  0.00000000000E+00  0.00000000000E+00 -0.26392337744E+04  0.26392337744E+04  0.25500000920E-02 0. -1.
    10030    2    1    2    0    0  0.00000000000E+00  0.00000000000E+00 -0.19509238566E+04  0.33275436921E+04  0.26956340866E+04 0.  0.
        4    1    3    3  502    0  0.39394626304E+03  0.12384698693E+03  0.60829292212E+03  0.73522352134E+03  0.12699999809E+01 0.  1.
       -4    1    3    3    0  502 -0.39394626304E+03 -0.12384698693E+03 -0.25592167788E+04  0.25923201708E+04  0.12699999809E+01 0. -1.
</event>
<event>
 5   0  0.1105862E-05  0.2360665E+04  0.7818609E-02  0.8454379E-01
        1   -1    0    0  501    0  0.00000000000E+00  0.00000000000E+00  0.94957731350E+03  0.94957731351E+03  0.50400001928E-02 0.  1.
       -1   -1    0    0    0  501  0.00000000000E+00  0.00000000000E+00 -0.14671631519E+04  0.14671631519E+04  0.50400001928E-02 0. -1.
    10030    2    1    2    0    0  0.00000000000E+00  0.00000000000E+00 -0.51758583841E+03  0.24167404654E+04  0.23606650286E+04 0.  0.
        3    1    3    3  502    0  0.63970535840E+03  0.96474435095E+03 -0.22595688274E+02  0.11577846016E+04  0.10100000352E+00 0.  1.
       -3    1    3    3    0  502 -0.63970535840E+03 -0.96474435095E+03 -0.49499015014E+03  0.12589558639E+04  0.10100000352E+00 0. -1.
</event>
<event>
 5   0  0.1067434E-05  0.1918525E+04  0.7818609E-02  0.8645690E-01
       -1   -1    0    0    0  501  0.00000000000E+00  0.00000000000E+00  0.92957106017E+03  0.92957106019E+03  0.50400001928E-02 0.  1.
        1   -1    0    0  501    0  0.00000000000E+00  0.00000000000E+00 -0.98990206042E+03  0.98990206043E+03  0.50400001928E-02 0. -1.
    10030    2    1    2    0    0  0.00000000000E+00  0.00000000000E+00 -0.60331000247E+02  0.19194731206E+04  0.19185247539E+04 0.  0.
        4    1    3    3  502    0  0.72973624126E+03  0.30715362168E+03 -0.57202750298E+03  0.97676783638E+03  0.12699999809E+01 0. -1.
       -4    1    3    3    0  502 -0.72973624126E+03 -0.30715362168E+03  0.51169650273E+03  0.94270528424E+03  0.12699999809E+01 0.  1.
</event>
<event>
 5   0  0.2697964E-05  0.2732206E+04  0.7818609E-02  0.8324630E-01
        2   -1    0    0  501    0  0.00000000000E+00  0.00000000000E+00  0.17466030873E+04  0.17466030873E+04  0.25500000920E-02 0.  1.
       -2   -1    0    0    0  501  0.00000000000E+00  0.00000000000E+00 -0.10684950664E+04  0.10684950664E+04  0.25500000920E-02 0. -1.
    10030    2    1    2    0    0  0.00000000000E+00  0.00000000000E+00  0.67810802088E+03  0.28150981537E+04  0.27322055426E+04 0.  0.
        1    1    3    3  502    0 -0.47971543348E+03  0.93011060753E+03  0.12437622166E+04  0.16254774963E+04  0.50400001928E-02 0.  1.
       -1    1    3    3    0  502  0.47971543348E+03 -0.93011060753E+03 -0.56565419572E+03  0.11896206574E+04  0.50400001928E-02 0. -1.
</event>
<event>
 5   0  0.1078103E-05  0.2884752E+04  0.7818609E-02  0.8277429E-01
        1   -1    0    0  501    0  0.00000000000E+00  0.00000000000E+00  0.15220745788E+04  0.15220745788E+04  0.50400001928E-02 0.  1.
       -1   -1    0    0    0  501  0.00000000000E+00  0.00000000000E+00 -0.13668510421E+04  0.13668510421E+04  0.50400001928E-02 0. -1.
    10030    2    1    2    0    0  0.00000000000E+00  0.00000000000E+00  0.15522353669E+03  0.28889256210E+04  0.28847524846E+04 0.  0.
        1    1    3    3  502    0 -0.49659131094E+02 -0.11958819006E+04 -0.72844369709E+03  0.14011530142E+04  0.50400001928E-02 0. -1.
       -1    1    3    3    0  502  0.49659131094E+02  0.11958819006E+04  0.88366723378E+03  0.14877726068E+04  0.50400001928E-02 0.  1.
</event>
<event>
 5   0  0.2624815E-05  0.2879209E+04  0.7818609E-02  0.8279090E-01
       -2   -1    0    0    0  501  0.00000000000E+00  0.00000000000E+00  0.76513375322E+03  0.76513375323E+03  0.25500000920E-02 0.  1.
        2   -1    0    0  501    0  0.00000000000E+00  0.00000000000E+00 -0.27086258026E+04  0.27086258026E+04  0.25500000920E-02 0. -1.
    10030    2    1    2    0    0  0.00000000000E+00  0.00000000000E+00 -0.19434920494E+04  0.34737595558E+04  0.28792089375E+04 0.  0.
        4    1    3    3  502    0  0.46457438029E+03  0.97709915585E+02 -0.26114662685E+04  0.26542671808E+04  0.12699999809E+01 0. -1.
       -4    1    3    3    0  502 -0.46457438029E+03 -0.97709915585E+02  0.66797421915E+03  0.81949237505E+03  0.12699999809E+01 0.  1.
</event>
<event>
 5   0  0.2518686E-05  0.2838532E+04  0.7818609E-02  0.8291405E-01
       -2   -1    0    0    0  501  0.00000000000E+00  0.00000000000E+00  0.83805593737E+03  0.83805593737E+03  0.25500000920E-02 0. -1.
        2   -1    0    0  501    0  0.00000000000E+00  0.00000000000E+00 -0.24035579463E+04  0.24035579463E+04  0.25500000920E-02 0.  1.
    10030    2    1    2    0    0  0.00000000000E+00  0.00000000000E+00 -0.15655020089E+04  0.32416138837E+04  0.28385320204E+04 0.  0.
        5    1    3    3  502    0 -0.75732388892E+03  0.11699253201E+04 -0.10892448458E+04  0.17688247939E+04  0.46999998093E+01 0.  1.
       -5    1    3    3    0  502  0.75732388892E+03 -0.11699253201E+04 -0.47625716310E+03  0.14727890897E+04  0.46999998093E+01 0. -1.
</event>
<event>
 5   0  0.2518686E-05  0.2696603E+04  0.7818609E-02  0.8336108E-01
       -2   -1    0    0    0  501  0.00000000000E+00  0.00000000000E+00  0.11743826848E+04  0.11743826848E+04  0.25500000920E-02 0. -1.
        2   -1    0    0  501    0  0.00000000000E+00  0.00000000000E+00 -0.15479763916E+04  0.15479763916E+04  0.25500000920E-02 0.  1.
    10030    2    1    2    0    0  0.00000000000E+00  0.00000000000E+00 -0.37359370679E+03  0.27223590764E+04  0.26966028041E+04 0.  0.
        5    1    3    3  502    0 -0.13278333730E+04  0.34697518042E+02  0.46820395735E+02  0.13291198681E+04  0.46999998093E+01 0. -1.
       -5    1    3    3    0  502  0.13278333730E+04 -0.34697518042E+02 -0.42041410253E+03  0.13932392084E+04  0.46999998093E+01 0.  1.
</event>
<event>
 5   0  0.1067434E-05  0.2793439E+04  0.7818609E-02  0.8305308E-01
        1   -1    0    0  501    0  0.00000000000E+00  0.00000000000E+00  0.12275397609E+04  0.12275397609E+04  0.50400001928E-02 0. -1.
       -1   -1    0    0    0  501  0.00000000000E+00  0.00000000000E+00 -0.15892160647E+04  0.15892160647E+04  0.50400001928E-02 0.  1.
    10030    2    1    2    0    0  0.00000000000E+00  0.00000000000E+00 -0.36167630376E+03  0.28167558256E+04  0.27934393912E+04 0.  0.
        4    1    3    3  502    0 -0.13944171344E+04  0.32725857047E+02 -0.25462109557E+03  0.14178517699E+04  0.12699999809E+01 0. -1.
       -4    1    3    3    0  502  0.13944171344E+04 -0.32725857047E+02 -0.10705520819E+03  0.13989040556E+04  0.12699999809E+01 0.  1.
</event>
<event>
 5   0  0.1067434E-05  0.2836882E+04  0.7818609E-02  0.8291909E-01
        1   -1    0    0  501    0  0.00000000000E+00  0.00000000000E+00  0.19170876243E+04  0.19170876243E+04  0.50400001928E-02 0. -1.
       -1   -1    0    0    0  501  0.00000000000E+00  0.00000000000E+00 -0.10494956111E+04  0.10494956112E+04  0.50400001928E-02 0.  1.
    10030    2    1    2    0    0  0.00000000000E+00  0.00000000000E+00  0.86759201313E+03  0.29665832354E+04  0.28368821251E+04 0.  0.
        4    1    3    3  502    0  0.13683229854E+04  0.88921808002E+02  0.54214837984E+02  0.13722812182E+04  0.12699999809E+01 0.  1.
       -4    1    3    3    0  502 -0.13683229854E+04 -0.88921808002E+02  0.81337717515E+03  0.15943020173E+04  0.12699999809E+01 0. -1.
</event>
<event>
 5   0  0.1078103E-05  0.2662959E+04  0.7818609E-02  0.8347124E-01
        1   -1    0    0  501    0  0.00000000000E+00  0.00000000000E+00  0.82522722243E+03  0.82522722244E+03  0.50400001928E-02 0. -1.
       -1   -1    0    0    0  501  0.00000000000E+00  0.00000000000E+00 -0.21483029254E+04  0.21483029254E+04  0.50400001928E-02 0.  1.
    10030    2    1    2    0    0  0.00000000000E+00  0.00000000000E+00 -0.13230757029E+04  0.29735301478E+04  0.26629592983E+04 0.  0.
        1    1    3    3  502    0  0.90718437162E+03 -0.13439047802E+03  0.41633546060E+03  0.10071640882E+04  0.50400001928E-02 0. -1.
       -1    1    3    3    0  502 -0.90718437162E+03  0.13439047802E+03 -0.17394111635E+04  0.19663660596E+04  0.50400001928E-02 0.  1.
</event>
<event>
 5   0  0.2518686E-05  0.2851135E+04  0.7818609E-02  0.8287567E-01
       -2   -1    0    0    0  501  0.00000000000E+00  0.00000000000E+00  0.64579048851E+03  0.64579048851E+03  0.25500000920E-02 0. -1.
        2   -1    0    0  501    0  0.00000000000E+00  0.00000000000E+00 -0.31469070878E+04  0.31469070878E+04  0.25500000920E-02 0.  1.
    10030    2    1    2    0    0  0.00000000000E+00  0.00000000000E+00 -0.25011165992E+04  0.37926975763E+04  0.28511349779E+04 0.  0.
        5    1    3    3  502    0  0.26802379532E+03 -0.11079075117E+04 -0.23893915393E+04  0.26473590288E+04  0.46999998093E+01 0.  1.
       -5    1    3    3    0  502 -0.26802379532E+03  0.11079075117E+04 -0.11172505992E+03  0.11453385474E+04  0.46999998093E+01 0. -1.
</event>
<event>
 5   0  0.2624815E-05  0.2853126E+04  0.7818609E-02  0.8286962E-01
        2   -1    0    0  501    0  0.00000000000E+00  0.00000000000E+00  0.15412915500E+04  0.15412915500E+04  0.25500000920E-02 0. -1.
       -2   -1    0    0    0  501  0.00000000000E+00  0.00000000000E+00 -0.13203742979E+04  0.13203742979E+04  0.25500000920E-02 0.  1.
    10030    2    1    2    0    0  0.00000000000E+00  0.00000000000E+00  0.22091725211E+03  0.28616658479E+04  0.28531258284E+04 0.  0.
        4    1    3    3  502    0 -0.80556682850E+03 -0.66405566868E+03  0.10855683456E+04  0.15061102523E+04  0.12699999809E+01 0. -1.
       -4    1    3    3    0  502  0.80556682850E+03  0.66405566868E+03 -0.86465109352E+03  0.13555555956E+04  0.12699999809E+01 0.  1.
</event>
<event>
 5   0  0.2697964E-05  0.2541559E+04  0.7818609E-02  0.8388328E-01
        2   -1    0    0  501    0  0.00000000000E+00  0.00000000000E+00  0.15871691395E+04  0.15871691395E+04  0.25500000920E-02 0.  1.
       -2   -1    0    0    0  501  0.00000000000E+00  0.00000000000E+00 -0.10174597469E+04  0.10174597469E+04  0.25500000920E-02 0. -1.
    10030    2    1    2    0    0  0.00000000000E+00  0.00000000000E+00  0.56970939268E+03  0.26046288864E+04  0.25415591364E+04 0.  0.
        1    1    3    3  502    0  0.91670276574E+02  0.97939645826E+03 -0.53963449624E+03  0.11219742651E+04  0.50400001928E-02 0. -1.
       -1    1    3    3    0  502 -0.91670276574E+02 -0.97939645826E+03  0.11093438889E+04  0.14826546213E+04  0.50400001928E-02 0.  1.
</event>
<event>
 5   0  0.2697964E-05  0.2481236E+04  0.7818609E-02  0.8409701E-01
       -2   -1    0    0    0  501  0.00000000000E+00  0.00000000000E+00  0.10624287058E+04  0.10624287058E+04  0.25500000920E-02 0. -1.
        2   -1    0    0  501    0  0.00000000000E+00  0.00000000000E+00 -0.14486930896E+04  0.14486930896E+04  0.25500000920E-02 0.  1.
    10030    2    1    2    0    0  0.00000000000E+00  0.00000000000E+00 -0.38626438381E+03  0.25111217953E+04  0.24812360824E+04 0.  0.
        1    1    3    3  502    0 -0.27152767514E+03 -0.71869762026E+03 -0.11789694758E+04  0.14072038135E+04  0.50400001928E-02 0.  1.
       -1    1    3    3    0  502  0.27152767514E+03  0.71869762026E+03  0.79270509201E+03  0.11039179819E+04  0.50400001928E-02 0. -1.
</event>
<event>
 5   0  0.1075146E-05  0.2822023E+04  0.7818609E-02  0.8296464E-01
       -1   -1    0    0    0  501  0.00000000000E+00  0.00000000000E+00  0.18195923852E+04  0.18195923852E+04  0.50400001928E-02 0.  1.
        1   -1    0    0  501    0  0.00000000000E+00  0.00000000000E+00 -0.10941755687E+04  0.10941755687E+04  0.50400001928E-02 0. -1.
    10030    2    1    2    0    0  0.00000000000E+00  0.00000000000E+00  0.72541681653E+03  0.29137679540E+04  0.28220230566E+04 0.  0.
        2    1    3    3  502    0  0.45363540205E+02  0.10543707455E+04 -0.60432888892E+03  0.12161286633E+04  0.25500000920E-02 0. -1.
       -2    1    3    3    0  502 -0.45363540205E+02 -0.10543707455E+04  0.13297457055E+04  0.16976392906E+04  0.25500000920E-02 0.  1.
</event>
<event>
 5   0  0.1017456E-05  0.2771433E+04  0.7818609E-02  0.8312192E-01
       -1   -1    0    0    0  501  0.00000000000E+00  0.00000000000E+00  0.66452407648E+03  0.66452407649E+03  0.50400001928E-02 0.  1.
        1   -1    0    0  501    0  0.00000000000E+00  0.00000000000E+00 -0.28896027145E+04  0.28896027145E+04  0.50400001928E-02 0. -1.
    10030    2    1    2    0    0  0.00000000000E+00  0.00000000000E+00 -0.22250786381E+04  0.35541267910E+04  0.27714332576E+04 0.  0.
        5    1    3    3  502    0  0.32400518205E+03  0.72585425222E+03  0.34306902223E+03  0.86577260148E+03  0.46999998093E+01 0.  1.
       -5    1    3    3    0  502 -0.32400518205E+03 -0.72585425222E+03 -0.25681476603E+04  0.26883541895E+04  0.46999998093E+01 0. -1.
</event>
<event>
 5   0  0.2518686E-05  0.2814556E+04  0.7818609E-02  0.8298764E-01
       -2   -1    0    0    0  501  0.00000000000E+00  0.00000000000E+00  0.93707902603E+03  0.93707902603E+03  0.25500000920E-02 0. -1.
        2   -1    0    0  501    0  0.00000000000E+00  0.00000000000E+00 -0.21134089465E+04  0.21134089465E+04  0.25500000920E-02 0.  1.
    10030    2    1    2    0    0  0.00000000000E+00  0.00000000000E+00 -0.11763299205E+04  0.30504879726E+04  0.28145558777E+04 0.  0.
        5    1    3    3  502    0 -0.10123572260E+03  0.11962424497E+04 -0.13839945108E+04  0.18321319728E+04  0.46999998093E+01 0.  1.
       -5    1    3    3    0  502  0.10123572260E+03 -0.11962424497E+04  0.20766459026E+03  0.12183559997E+04  0.46999998093E+01 0. -1.
</event>
<event>
 5   0  0.1067434E-05  0.2802900E+04  0.7818609E-02  0.8302369E-01
        1   -1    0    0  501    0  0.00000000000E+00  0.00000000000E+00  0.13839413667E+04  0.13839413667E+04  0.50400001928E-02 0. -1.
       -1   -1    0    0    0  501  0.00000000000E+00  0.00000000000E+00 -0.14191797716E+04  0.14191797716E+04  0.50400001928E-02 0.  1.
    10030    2    1    2    0    0  0.00000000000E+00  0.00000000000E+00 -0.35238404839E+02  0.28031211383E+04  0.28028996362E+04 0.  0.
        4    1    3    3  502    0  0.77105417295E+03  0.11646715382E+04  0.96738643790E+02  0.14001229616E+04  0.12699999809E+01 0.  1.
       -4    1    3    3    0  502 -0.77105417295E+03 -0.11646715382E+04 -0.13197704863E+03  0.14029981767E+04  0.12699999809E+01 0. -1.
</event>
<event>
 5   0  0.2588048E-05  0.2934670E+04  0.7818609E-02  0.8262636E-01
       -2   -1    0    0    0  501  0.00000000000E+00  0.00000000000E+00  0.79621376714E+03  0.79621376714E+03  0.25500000920E-02 0.  1.
        2   -1    0    0  501    0  0.00000000000E+00  0.00000000000E+00 -0.27041385496E+04  0.27041385496E+04  0.25500000920E-02 0. -1.
    10030    2    1    2    0    0  0.00000000000E+00  0.00000000000E+00 -0.19079247824E+04  0.35003523167E+04  0.29346702312E+04 0.  0.
        2    1    3    3  502    0  0.12566700576E+04  0.30909071819E+03 -0.12904636461E+03  0.13005420678E+04  0.25500000920E-02 0. -1.
       -2    1    3    3    0  502 -0.12566700576E+04 -0.30909071819E+03 -0.17788784178E+04  0.21998102489E+04  0.25500000920E-02 0.  1.
</event>
<event>
 5   0  0.1078103E-05  0.2674231E+04  0.7818609E-02  0.8343415E-01
       -1   -1    0    0    0  501  0.00000000000E+00  0.00000000000E+00  0.11106268848E+04  0.11106268848E+04  0.50400001928E-02 0.  1.
        1   -1    0    0  501    0  0.00000000000E+00  0.00000000000E+00 -0.16097917688E+04  0.16097917688E+04  0.50400001928E-02 0. -1.
    10030    2    1    2    0    0  0.00000000000E+00  0.00000000000E+00 -0.49916488405E+03  0.27204186536E+04  0.26742311175E+04 0.  0.
        1    1    3    3  502    0 -0.21039238546E+03  0.12717179978E+04  0.11200907591E+03  0.12938615285E+04  0.50400001928E-02 0.  1.
       -1    1    3    3    0  502  0.21039238546E+03 -0.12717179978E+04 -0.61117395996E+03  0.14265571251E+04  0.50400001928E-02 0. -1.
</event>
<event>
 5   0  0.2651061E-05  0.1852864E+04  0.7818609E-02  0.8678681E-01
        2   -1    0    0  501    0  0.00000000000E+00  0.00000000000E+00  0.13277223922E+04  0.13277223922E+04  0.25500000920E-02 0.  1.
       -2   -1    0    0    0  501  0.00000000000E+00  0.00000000000E+00 -0.64642767562E+03  0.64642767562E+03  0.25500000920E-02 0. -1.
    10030    2    1    2    0    0  0.00000000000E+00  0.00000000000E+00  0.68129471655E+03  0.19741500678E+04  0.18528642690E+04 0.  0.
        3    1    3    3  502    0 -0.12911674300E+03  0.13728693835E+03  0.13070820739E+04  0.13205992560E+04  0.10100000352E+00 0.  1.
       -3    1    3    3    0  502  0.12911674300E+03 -0.13728693835E+03 -0.62578735736E+03  0.65355081180E+03  0.10100000352E+00 0. -1.
</event>
<event>
 5   0  0.2518686E-05  0.2760469E+04  0.7818609E-02  0.8315647E-01
        2   -1    0    0  501    0  0.00000000000E+00  0.00000000000E+00  0.18298219596E+04  0.18298219596E+04  0.25500000920E-02 0.  1.
       -2   -1    0    0    0  501  0.00000000000E+00  0.00000000000E+00 -0.10411109807E+04  0.10411109807E+04  0.25500000920E-02 0. -1.
    10030    2    1    2    0    0  0.00000000000E+00  0.00000000000E+00  0.78871097896E+03  0.28709329403E+04  0.27604693332E+04 0.  0.
        5    1    3    3  502    0  0.12469700844E+03  0.73280865547E+03  0.16038491172E+04  0.17677420485E+04  0.46999998093E+01 0.  1.
       -5    1    3    3    0  502 -0.12469700844E+03 -0.73280865547E+03 -0.81513813819E+03  0.11031908918E+04  0.46999998093E+01 0. -1.
</event>
<event>
 5   0  0.1078103E-05  0.2042348E+04  0.7818609E-02  0.8587074E-01
        1   -1    0    0  501    0  0.00000000000E+00  0.00000000000E+00  0.17714124816E+04  0.17714124816E+04  0.50400001928E-02 0. -1.
       -1   -1    0    0    0  501  0.00000000000E+00  0.00000000000E+00 -0.58868054177E+03  0.58868054179E+03  0.50400001928E-02 0.  1.
    10030    2    1    2    0    0  0.00000000000E+00  0.00000000000E+00  0.11827319399E+04  0.23600930234E+04  0.20423477269E+04 0.  0.
        1    1    3    3  502    0 -0.69935557939E+03 -0.72203923330E+03  0.79923259143E+03  0.12842163432E+04  0.50400001928E-02 0.  1.
       -1    1    3    3    0  502  0.69935557939E+03  0.72203923330E+03  0.38349934844E+03  0.10758766803E+04  0.50400001928E-02 0. -1.
</event>
<event>
 5   0  0.1067434E-05  0.1701059E+04  0.7818609E-02  0.8760761E-01
       -1   -1    0    0    0  501  0.00000000000E+00  0.00000000000E+00  0.67072544298E+03  0.67072544300E+03  0.50400001928E-02 0.  1.
        1   -1    0    0  501    0  0.00000000000E+00  0.00000000000E+00 -0.10785344175E+04  0.10785344175E+04  0.50400001928E-02 0. -1.
    10030    2    1    2    0    0  0.00000000000E+00  0.00000000000E+00 -0.40780897451E+03  0.17492598605E+04  0.17010590524E+04 0.  0.
        4    1    3    3  502    0  0.78859618587E+03  0.25006703699E+03 -0.87289195241E+00  0.82729670748E+03  0.12699999809E+01 0.  1.
       -4    1    3    3    0  502 -0.78859618587E+03 -0.25006703699E+03 -0.40693608256E+03  0.92196315303E+03  0.12699999809E+01 0. -1.
</event>
<event>
 5   0  0.1017456E-05  0.2828774E+04  0.7818609E-02  0.8294390E-01
       -1   -1    0    0    0  501  0.00000000000E+00  0.00000000000E+00  0.18864040255E+04  0.18864040255E+04  0.50400001928E-02 0.  1.
        1   -1    0    0  501    0  0.00000000000E+00  0.00000000000E+00 -0.10604786651E+04  0.10604786651E+04  0.50400001928E-02 0. -1.
    10030    2    1    2    0    0  0.00000000000E+00  0.00000000000E+00  0.82592536037E+03  0.29468826906E+04  0.28287744504E+04 0.  0.
        5    1    3    3  502    0  0.15756592483E+03  0.11810100122E+04 -0.38099858293E+03  0.12509171354E+04  0.46999998093E+01 0. -1.
       -5    1    3    3    0  502 -0.15756592483E+03 -0.11810100122E+04  0.12069239433E+04  0.16959655552E+04  0.46999998093E+01 0.  1.
</event>
<event>
 5   0  0.1017456E-05  0.1541964E+04  0.7818609E-02  0.8857017E-01
        1   -1    0    0  501    0  0.00000000000E+00  0.00000000000E+00  0.79550703088E+03  0.79550703089E+03  0.50400001928E-02 0. -1.
       -1   -1    0    0    0  501  0.00000000000E+00  0.00000000000E+00 -0.74721350953E+03  0.74721350955E+03  0.50400001928E-02 0.  1.
    10030    2    1    2    0    0  0.00000000000E+00  0.00000000000E+00  0.48293521343E+02  0.15427205404E+04  0.15419644619E+04 0.  0.
        5    1    3    3  502    0 -0.42747245850E+03  0.58661609448E+03  0.28415948411E+03  0.77949974181E+03  0.46999998093E+01 0. -1.
       -5    1    3    3    0  502  0.42747245850E+03 -0.58661609448E+03 -0.23586596277E+03  0.76322079863E+03  0.46999998093E+01 0.  1.
</event>
<event>
 5   0  0.2518686E-05  0.2761147E+04  0.7818609E-02  0.8315433E-01
       -2   -1    0    0    0  501  0.00000000000E+00  0.00000000000E+00  0.78128871052E+03  0.78128871053E+03  0.25500000920E-02 0.  1.
        2   -1    0    0  501    0  0.00000000000E+00  0.00000000000E+00 -0.24395382580E+04  0.24395382580E+04  0.25500000920E-02 0. -1.
    10030    2    1    2    0    0  0.00000000000E+00  0.00000000000E+00 -0.16582495475E+04  0.32208269685E+04  0.27611473701E+04 0.  0.
        5    1    3    3  502    0  0.83188541964E+03 -0.69444319861E+03 -0.18269109435E+04  0.21241257950E+04  0.46999998093E+01 0. -1.
       -5    1    3    3    0  502 -0.83188541964E+03  0.69444319861E+03  0.16866139603E+03  0.10967011735E+04  0.46999998093E+01 0.  1.
</event>
<event>
 5   0  0.2518686E-05  0.2736178E+04  0.7818609E-02  0.8323361E-01
        2   -1    0    0  501    0  0.00000000000E+00  0.00000000000E+00  0.16942682654E+04  0.16942682654E+04  0.25500000920E-02 0.  1.
       -2   -1    0    0    0  501  0.00000000000E+00  0.00000000000E+00 -0.11047056126E+04  0.11047056126E+04  0.25500000920E-02 0. -1.
    10030    2    1    2    0    0  0.00000000000E+00  0.00000000000E+00  0.58956265286E+03  0.27989738780E+04  0.27361781097E+04 0.  0.
        5    1    3    3  502    0 -0.39043709385E+03  0.78767310510E+03 -0.77750056125E+03  0.11736265409E+04  0.46999998093E+01 0. -1.
       -5    1    3    3    0  502  0.39043709385E+03 -0.78767310510E+03  0.13670632141E+04  0.16253473371E+04  0.46999998093E+01 0.  1.
</event>
<event>
 5   0  0.2651061E-05  0.1466225E+04  0.7818609E-02  0.8907229E-01
        2   -1    0    0  501    0  0.00000000000E+00  0.00000000000E+00  0.74877777555E+03  0.74877777555E+03  0.25500000920E-02 0.  1.
       -2   -1    0    0    0  501  0.00000000000E+00  0.00000000000E+00 -0.71777449240E+03  0.71777449240E+03  0.25500000920E-02 0. -1.
    10030    2    1    2    0    0  0.00000000000E+00  0.00000000000E+00  0.31003283151E+02  0.14665522680E+04  0.14662245227E+04 0.  0.
        3    1    3    3  502    0 -0.57204648785E+02  0.68248504789E+03  0.27708517583E+03  0.73880607557E+03  0.10100000352E+00 0. -1.
       -3    1    3    3    0  502  0.57204648785E+02 -0.68248504789E+03 -0.24608189268E+03  0.72774619239E+03  0.10100000352E+00 0.  1.
</event>
<event>
 5   0  0.2518686E-05  0.2828392E+04  0.7818609E-02  0.8294507E-01
        2   -1    0    0  501    0  0.00000000000E+00  0.00000000000E+00  0.16744178407E+04  0.16744178407E+04  0.25500000920E-02 0.  1.
       -2   -1    0    0    0  501  0.00000000000E+00  0.00000000000E+00 -0.11944156860E+04  0.11944156860E+04  0.25500000920E-02 0. -1.
    10030    2    1    2    0    0  0.00000000000E+00  0.00000000000E+00  0.48000215475E+03  0.28688335267E+04  0.28283924295E+04 0.  0.
        5    1    3    3  502    0 -0.12608625935E+04  0.10548261139E+03  0.88071955552E+03  0.15416193066E+04  0.46999998093E+01 0.  1.
       -5    1    3    3    0  502  0.12608625935E+04 -0.10548261139E+03 -0.40071740077E+03  0.13272142201E+04  0.46999998093E+01 0. -1.
</event>
<event>
 5   0  0.1075146E-05  0.1872809E+04  0.7818609E-02  0.8668511E-01
        1   -1    0    0  501    0  0.00000000000E+00  0.00000000000E+00  0.14993298700E+04  0.14993298700E+04  0.50400001928E-02 0. -1.
       -1   -1    0    0    0  501  0.00000000000E+00  0.00000000000E+00 -0.58483005598E+03  0.58483005600E+03  0.50400001928E-02 0.  1.
    10030    2    1    2    0    0  0.00000000000E+00  0.00000000000E+00  0.91449981403E+03  0.20841599260E+04  0.18728087696E+04 0.  0.
        2    1    3    3  502    0  0.78282746789E+03  0.44054428595E+03  0.75158847444E+03  0.11712315515E+04  0.25500000920E-02 0. -1.
       -2    1    3    3    0  502 -0.78282746789E+03 -0.44054428595E+03  0.16291133959E+03  0.91292837449E+03  0.25500000920E-02 0.  1.
</event>
<event>
 5   0  0.2651061E-05  0.2170782E+04  0.7818609E-02  0.8530689E-01
       -2   -1    0    0    0  501  0.00000000000E+00  0.00000000000E+00  0.10804503577E+04  0.10804503577E+04  0.25500000920E-02 0. -1.
        2   -1    0    0  501    0  0.00000000000E+00  0.00000000000E+00 -0.10903538362E+04  0.10903538362E+04  0.25500000920E-02 0.  1.
    10030    2    1    2    0    0  0.00000000000E+00  0.00000000000E+00 -0.99034784959E+01  0.21708041938E+04  0.21707816033E+04 0.  0.
        3    1    3    3  502    0 -0.98001839243E+03  0.44993995965E+03  0.11830198867E+03  0.10848397981E+04  0.10100000352E+00 0.  1.
       -3    1    3    3    0  502  0.98001839243E+03 -0.44993995965E+03 -0.12820546716E+03  0.10859643957E+04  0.10100000352E+00 0. -1.
</event>
<event>
 5   0  0.2588048E-05  0.1467548E+04  0.7818609E-02  0.8906324E-01
       -2   -1    0    0    0  501  0.00000000000E+00  0.00000000000E+00  0.18839509716E+04  0.18839509716E+04  0.25500000920E-02 0. -1.
        2   -1    0    0  501    0  0.00000000000E+00  0.00000000000E+00 -0.28579534258E+03  0.28579534259E+03  0.25500000920E-02 0.  1.
    10030    2    1    2    0    0  0.00000000000E+00  0.00000000000E+00  0.15981556290E+04  0.21697463142E+04  0.14675481775E+04 0.  0.
        2    1    3    3  502    0  0.47157420504E+03 -0.51880039281E+03  0.11192244905E+04  0.13206814675E+04  0.25500000920E-02 0.  1.
       -2    1    3    3    0  502 -0.47157420504E+03  0.51880039281E+03  0.47893113851E+03  0.84906484669E+03  0.25500000920E-02 0. -1.
</event>
<event>
 5   0  0.2651061E-05  0.2751259E+04  0.7818609E-02  0.8318562E-01
       -2   -1    0    0    0  501  0.00000000000E+00  0.00000000000E+00  0.91184271288E+03  0.91184271288E+03  0.25500000920E-02 0.  1.
        2   -1    0    0  501    0  0.00000000000E+00  0.00000000000E+00 -0.20753097298E+04  0.20753097298E+04  0.25500000920E-02 0. -1.
    10030    2    1    2    0    0  0.00000000000E+00  0.00000000000E+00 -0.11634670169E+04  0.29871524427E+04  0.27512586604E+04 0.  0.
        3    1    3    3  502    0 -0.11010424950E+04 -0.80927218676E+03 -0.40958289946E+03  0.14265252223E+04  0.10100000352E+00 0.  1.
       -3    1    3    3    0  502  0.11010424950E+04  0.80927218676E+03 -0.75388411744E+03  0.15606272204E+04  0.10100000352E+00 0. -1.
</event>
<event>
 5   0  0.1075146E-05  0.2877962E+04  0.7818609E-02  0.8279465E-01
        1   -1    0    0  501    0  0.00000000000E+00  0.00000000000E+00  0.15682172090E+04  0.15682172090E+04  0.50400001928E-02 0. -1.
       -1   -1    0    0    0  501  0.00000000000E+00  0.00000000000E+00 -0.13203946788E+04  0.13203946788E+04  0.50400001928E-02 0.  1.
    10030    2    1    2    0    0  0.00000000000E+00  0.00000000000E+00  0.24782253019E+03  0.28886118878E+04  0.28779615411E+04 0.  0.
        2    1    3    3  502    0 -0.60817922913E+03 -0.10643186505E+04  0.88036436218E+03  0.15092042853E+04  0.25500000920E-02 0. -1.
       -2    1    3    3    0  502  0.60817922913E+03  0.10643186505E+04 -0.63254183199E+03  0.13794076025E+04  0.25500000920E-02 0.  1.
</event>
<event>
 5   0  0.2588048E-05  0.2829283E+04  0.7818609E-02  0.8294235E-01
        2   -1    0    0  501    0  0.00000000000E+00  0.00000000000E+00  0.13136907243E+04  0.13136907243E+04  0.25500000920E-02 0. -1.
       -2   -1    0    0    0  501  0.00000000000E+00  0.00000000000E+00 -0.15233494299E+04  0.15233494299E+04  0.25500000920E-02 0.  1.
    10030    2    1    2    0    0  0.00000000000E+00  0.00000000000E+00 -0.20965870563E+03  0.28370401541E+04  0.28292826058E+04 0.  0.
        2    1    3    3  502    0 -0.94078366783E+02  0.13944008943E+04 -0.32453150056E+03  0.14347561772E+04  0.25500000920E-02 0. -1.
       -2    1    3    3    0  502  0.94078366783E+02 -0.13944008943E+04  0.11487279493E+03  0.14022839770E+04  0.25500000920E-02 0.  1.
</event>
<event>
 5   0  0.1067434E-05  0.2795850E+04  0.7818609E-02  0.8304558E-01
        1   -1    0    0  501    0  0.00000000000E+00  0.00000000000E+00  0.21489546119E+04  0.21489546119E+04  0.50400001928E-02 0. -1.
       -1   -1    0    0    0  501  0.00000000000E+00  0.00000000000E+00 -0.90936975966E+03  0.90936975967E+03  0.50400001928E-02 0.  1.
    10030    2    1    2    0    0  0.00000000000E+00  0.00000000000E+00  0.12395848522E+04  0.30583243716E+04  0.27958500238E+04 0.  0.
        4    1    3    3  502    0  0.24164643800E+03 -0.11797329419E+04 -0.15680836639E+03  0.12143942077E+04  0.12699999809E+01 0.  1.
       -4    1    3    3    0  502 -0.24164643800E+03  0.11797329419E+04  0.13963932186E+04  0.18439301638E+04  0.12699999809E+01 0. -1.
</event>
<event>
 5   0  0.1067434E-05  0.1930051E+04  0.7818609E-02  0.8640041E-01
        1   -1    0    0  501    0  0.00000000000E+00  0.00000000000E+00  0.16742776131E+04  0.16742776131E+04  0.50400001928E-02 0. -1.
       -1   -1    0    0    0  501  0.00000000000E+00  0.00000000000E+00 -0.55622475545E+03  0.55622475547E+03  0.50400001928E-02 0.  1.
    10030    2    1    2    0    0  0.00000000000E+00  0.00000000000E+00  0.11180528576E+04  0.22305023685E+04  0.19300514562E+04 0.  0.
        4    1    3    3  502    0 -0.64668759629E+03 -0.59230140031E+03  0.10245294128E+04  0.13485873819E+04  0.12699999809E+01 0. -1.
       -4    1    3    3    0  502  0.64668759629E+03  0.59230140031E+03  0.93523444786E+02  0.88191498662E+03  0.12699999809E+01 0.  1.
</event>
<event>
 5   0  0.2624815E-05  0.2817788E+04  0.7818609E-02  0.8297767E-01
       -2   -1    0    0    0  501  0.00000000000E+00  0.00000000000E+00  0.14986329150E+04  0.14986329150E+04  0.25500000920E-02 0. -1.
        2   -1    0    0  501    0  0.00000000000E+00  0.00000000000E+00 -0.13245291309E+04  0.13245291309E+04  0.25500000920E-02 0.  1.
    10030    2    1    2    0    0  0.00000000000E+00  0.00000000000E+00  0.17410378411E+03  0.28231620459E+04  0.28177884607E+04 0.  0.
        4    1    3    3  502    0 -0.87300754737E+03 -0.34558397289E+03  0.11394887549E+04  0.14764845734E+04  0.12699999809E+01 0. -1.
       -4    1    3    3    0  502  0.87300754737E+03  0.34558397289E+03 -0.96538497079E+03  0.13466774724E+04  0.12699999809E+01 0.  1.
</event>
<event>
 5   0  0.1105862E-05  0.2750647E+04  0.7818609E-02  0.8318756E-01
       -1   -1    0    0    0  501  0.00000000000E+00  0.00000000000E+00  0.13306439224E+04  0.13306439224E+04  0.50400001928E-02 0.  1.
        1   -1    0    0  501    0  0.00000000000E+00  0.00000000000E+00 -0.14215036440E+04  0.14215036440E+04  0.50400001928E-02 0. -1.
    10030    2    1    2    0    0  0.00000000000E+00  0.00000000000E+00 -0.90859721641E+02  0.27521475664E+04  0.27506473308E+04 0.  0.
        3    1    3    3  502    0  0.93391614611E+03 -0.33062757488E+03 -0.99988998819E+03  0.14075844415E+04  0.10100000352E+00 0. -1.
       -3    1    3    3    0  502 -0.93391614611E+03  0.33062757488E+03  0.90903026655E+03  0.13445631249E+04  0.10100000352E+00 0.  1.
</event>
<event>
 5   0  0.1075146E-05  0.2983976E+04  0.7818609E-02  0.8248321E-01
        1   -1    0    0  501    0  0.00000000000E+00  0.00000000000E+00  0.24928378409E+04  0.24928378409E+04  0.50400001928E-02 0.  1.
       -1   -1    0    0    0  501  0.00000000000E+00  0.00000000000E+00 -0.89296962023E+03  0.89296962024E+03  0.50400001928E-02 0. -1.
    10030    2    1    2    0    0  0.00000000000E+00  0.00000000000E+00  0.15998682207E+04  0.33858074612E+04  0.29839761796E+04 0.  0.
        2    1    3    3  502    0  0.67069216495E+02 -0.67967272655E+03 -0.70518481840E+03  0.98170205415E+03  0.25500000920E-02 0. -1.
       -2    1    3    3    0  502 -0.67069216495E+02  0.67967272655E+03  0.23050530391E+04  0.24041054070E+04  0.25500000920E-02 0.  1.
</event>
<event>
 5   0  0.2697964E-05  0.2706240E+04  0.7818609E-02  0.8332983E-01
        2   -1    0    0  501    0  0.00000000000E+00  0.00000000000E+00  0.11856524054E+04  0.11856524054E+04  0.25500000920E-02 0.  1.
       -2   -1    0    0    0  501  0.00000000000E+00  0.00000000000E+00 -0.15442415284E+04  0.15442415284E+04  0.25500000920E-02 0. -1.
    10030    2    1    2    0    0  0.00000000000E+00  0.00000000000E+00 -0.35858912302E+03  0.27298939338E+04  0.27062399618E+04 0.  0.
        1    1    3    3  502    0  0.28003165462E+03  0.94680010953E+03 -0.11126306169E+04  0.14875466597E+04  0.50400001928E-02 0. -1.
       -1    1    3    3    0  502 -0.28003165462E+03 -0.94680010953E+03  0.75404149392E+03  0.12423472741E+04  0.50400001928E-02 0.  1.
</event>
<event>
 5   0  0.2651061E-05  0.2848010E+04  0.7818609E-02  0.8288516E-01
       -2   -1    0    0    0  501  0.00000000000E+00  0.00000000000E+00  0.11695351270E+04  0.11695351270E+04  0.25500000920E-02 0. -1.
        2   -1    0    0  501    0  0.00000000000E+00  0.00000000000E+00 -0.17338433102E+04  0.17338433102E+04  0.25500000920E-02 0.  1.
    10030    2    1    2    0    0  0.00000000000E+00  0.00000000000E+00 -0.56430818327E+03  0.29033784372E+04  0.28480102921E+04 0.  0.
        3    1    3    3  502    0  0.34987734563E+03  0.11646609861E+04 -0.10374637471E+04  0.15984931674E+04  0.10100000352E+00 0.  1.
       -3    1    3    3    0  502 -0.34987734563E+03 -0.11646609861E+04  0.47315556386E+03  0.13048852698E+04  0.10100000352E+00 0. -1.
</event>
<event>
 5   0  0.2588048E-05  0.2952003E+04  0.7818609E-02  0.8257571E-01
        2   -1    0    0  501    0  0.00000000000E+00  0.00000000000E+00  0.12253641610E+04  0.12253641610E+04  0.25500000920E-02 0. -1.
       -2   -1    0    0    0  501  0.00000000000E+00  0.00000000000E+00 -0.17779043637E+04  0.17779043637E+04  0.25500000920E-02 0.  1.
    10030    2    1    2    0    0  0.00000000000E+00  0.00000000000E+00 -0.55254020267E+03  0.30032685247E+04  0.29520029058E+04 0.  0.
        2    1    3    3  502    0  0.75706138097E+03  0.32683779058E+03 -0.15217091592E+04  0.17307696673E+04  0.25500000920E-02 0.  1.
       -2    1    3    3    0  502 -0.75706138097E+03 -0.32683779058E+03  0.96916895654E+03  0.12724988575E+04  0.25500000920E-02 0. -1.
</event>
<event>
 5   0  0.1078103E-05  0.2799458E+04  0.7818609E-02  0.8303437E-01
        1   -1    0    0  501    0  0.00000000000E+00  0.00000000000E+00  0.13656283023E+04  0.13656283023E+04  0.50400001928E-02 0.  1.
       -1   -1    0    0    0  501  0.00000000000E+00  0.00000000000E+00 -0.14346807462E+04  0.14346807462E+04  0.50400001928E-02 0. -1.
    10030    2    1    2    0    0  0.00000000000E+00  0.00000000000E+00 -0.69052443972E+02  0.28003090485E+04  0.27994575416E+04 0.  0.
        1    1    3    3  502    0  0.84672005377E+03  0.26344747145E+03 -0.11178612763E+04  0.14268683376E+04  0.50400001928E-02 0. -1.
       -1    1    3    3    0  502 -0.84672005377E+03 -0.26344747145E+03  0.10488088323E+04  0.13734407110E+04  0.50400001928E-02 0.  1.
</event>
<event>
 5   0  0.2624815E-05  0.2856295E+04  0.7818609E-02  0.8286001E-01
       -2   -1    0    0    0  501  0.00000000000E+00  0.00000000000E+00  0.14742254450E+04  0.14742254450E+04  0.25500000920E-02 0. -1.
        2   -1    0    0  501    0  0.00000000000E+00  0.00000000000E+00 -0.13835096488E+04  0.13835096488E+04  0.25500000920E-02 0.  1.
    10030    2    1    2    0    0  0.00000000000E+00  0.00000000000E+00  0.90715796198E+02  0.28577350938E+04  0.28562948921E+04 0.  0.
        4    1    3    3  502    0 -0.72226924825E+03  0.46908396512E+02  0.12771286395E+04  0.14679688141E+04  0.12699999809E+01 0. -1.
       -4    1    3    3    0  502  0.72226924825E+03 -0.46908396512E+02 -0.11864128433E+04  0.13897662797E+04  0.12699999809E+01 0.  1.
</event>
<event>
 5   0  0.1105862E-05  0.2687766E+04  0.7818609E-02  0.8338985E-01
        1   -1    0    0  501    0  0.00000000000E+00  0.00000000000E+00  0.16397386517E+04  0.16397386517E+04  0.50400001928E-02 0.  1.
       -1   -1    0    0    0  501  0.00000000000E+00  0.00000000000E+00 -0.11014083744E+04  0.11014083744E+04  0.50400001928E-02 0. -1.
    10030    2    1    2    0    0  0.00000000000E+00  0.00000000000E+00  0.53833027729E+03  0.27411470261E+04  0.26877662717E+04 0.  0.
        3    1    3    3  502    0  0.42225723150E+03  0.17574004827E+03  0.15579220487E+04  0.16236707961E+04  0.10100000352E+00 0.  1.
       -3    1    3    3    0  502 -0.42225723150E+03 -0.17574004827E+03 -0.10195917714E+04  0.11174762300E+04  0.10100000352E+00 0. -1.
</event>
<event>
 5   0  0.2651061E-05  0.2754529E+04  0.7818609E-02  0.8317526E-01
       -2   -1    0    0    0  501  0.00000000000E+00  0.00000000000E+00  0.11406645513E+04  0.11406645513E+04  0.25500000920E-02 0.  1.
        2   -1    0    0  501    0  0.00000000000E+00  0.00000000000E+00 -0.16629406751E+04  0.16629406751E+04  0.25500000920E-02 0. -1.
    10030    2    1    2    0    0  0.00000000000E+00  0.00000000000E+00 -0.52227612381E+03  0.28036052264E+04  0.27545289826E+04 0.  0.
        3    1    3    3  502    0 -0.60578781600E+03 -0.53536597995E+03 -0.13960203543E+04  0.16132168020E+04  0.10100000352E+00 0. -1.
       -3    1    3    3    0  502  0.60578781600E+03  0.53536597995E+03  0.87374423049E+03  0.11903884244E+04  0.10100000352E+00 0.  1.
</event>
<event>
 5   0  0.2651061E-05  0.2866466E+04  0.7818609E-02  0.8282925E-01
        2   -1    0    0  501    0  0.00000000000E+00  0.00000000000E+00  0.15535453375E+04  0.15535453375E+04  0.25500000920E-02 0.  1.
       -2   -1    0    0    0  501  0.00000000000E+00  0.00000000000E+00 -0.13222381935E+04  0.13222381935E+04  0.25500000920E-02 0. -1.
    10030    2    1    2    0    0  0.00000000000E+00  0.00000000000E+00  0.23130714401E+03  0.28757835309E+04  0.28664661034E+04 0.  0.
        3    1    3    3  502    0  0.40209445095E+03 -0.10857675207E+04 -0.73183239553E+03  0.13697261485E+04  0.10100000352E+00 0. -1.
       -3    1    3    3    0  502 -0.40209445095E+03  0.10857675207E+04  0.96313953954E+03  0.15060573825E+04  0.10100000352E+00 0.  1.
</event>
<event>
 5   0  0.1067434E-05  0.2738095E+04  0.7818609E-02  0.8322749E-01
       -1   -1    0    0    0  501  0.00000000000E+00  0.00000000000E+00  0.21623392886E+04  0.21623392886E+04  0.50400001928E-02 0.  1.
        1   -1    0    0  501    0  0.00000000000E+00  0.00000000000E+00 -0.86678879776E+03  0.86678879778E+03  0.50400001928E-02 0. -1.
    10030    2    1    2    0    0  0.00000000000E+00  0.00000000000E+00  0.12955504909E+04  0.30291280864E+04  0.27380953032E+04 0.  0.
        4    1    3    3  502    0 -0.36231966028E+03  0.32536103830E+03  0.20632884109E+04  0.21199754765E+04  0.12699999809E+01 0.  1.
       -4    1    3    3    0  502  0.36231966028E+03 -0.32536103830E+03 -0.76773792000E+03  0.90915260995E+03  0.12699999809E+01 0. -1.
</event>
<event>
 5   0  0.1078103E-05  0.2763552E+04  0.7818609E-02  0.8314674E-01
       -1   -1    0    0    0  501  0.00000000000E+00  0.00000000000E+00  0.11612467668E+04  0.11612467668E+04  0.50400001928E-02 0.  1.
        1   -1    0    0  501    0  0.00000000000E+00  0.00000000000E+00 -0.16441858790E+04  0.16441858790E+04  0.50400001928E-02 0. -1.
    10030    2    1    2    0    0  0.00000000000E+00  0.00000000000E+00 -0.48293911222E+03  0.28054326458E+04  0.27635524501E+04 0.  0.
        1    1    3    3  502    0  0.15827014929E+00 -0.12066884792E+04  0.44194011811E+03  0.12850712738E+04  0.50400001928E-02 0.  1.
       -1    1    3    3    0  502 -0.15827014929E+00  0.12066884792E+04 -0.92487923033E+03  0.15203613720E+04  0.50400001928E-02 0. -1.
</event>
<event>
 5   0  0.2697964E-05  0.3414595E+04  0.7818609E-02  0.8134334E-01
       -2   -1    0    0    0  501  0.00000000000E+00  0.00000000000E+00  0.18695309031E+04  0.18695309031E+04  0.25500000920E-02 0.  1.
        2   -1    0    0  501    0  0.00000000000E+00  0.00000000000E+00 -0.15591419729E+04  0.15591419729E+04  0.25500000920E-02 0. -1.
    10030    2    1    2    0    0  0.00000000000E+00  0.00000000000E+00  0.31038893019E+03  0.34286728759E+04  0.34145946175E+04 0.  0.
        1    1    3    3  502    0 -0.13571839640E+02  0.13910491783E+04  0.11490540979E+04  0.18043079924E+04  0.50400001928E-02 0.  1.
       -1    1    3    3    0  502  0.13571839640E+02 -0.13910491783E+04 -0.83866516774E+03  0.16243648836E+04  0.50400001928E-02 0. -1.
</event>
<event>
 5   0  0.1067434E-05  0.2789934E+04  0.7818609E-02  0.8306400E-01
        1   -1    0    0  501    0  0.00000000000E+00  0.00000000000E+00  0.14872390166E+04  0.14872390166E+04  0.50400001928E-02 0.  1.
       -1   -1    0    0    0  501  0.00000000000E+00  0.00000000000E+00 -0.13084195703E+04  0.13084195703E+04  0.50400001928E-02 0. -1.
    10030    2    1    2    0    0  0.00000000000E+00  0.00000000000E+00  0.17881944631E+03  0.27956585869E+04  0.27899337878E+04 0.  0.
        4    1    3    3  502    0 -0.28892431514E+03 -0.44492137484E+03  0.13822115914E+04  0.14805211198E+04  0.12699999809E+01 0.  1.
       -4    1    3    3    0  502  0.28892431514E+03  0.44492137484E+03 -0.12033921451E+04  0.13151374672E+04  0.12699999809E+01 0. -1.
</event>
<event>
 5   0  0.2518686E-05  0.2780651E+04  0.7818609E-02  0.8309301E-01
       -2   -1    0    0    0  501  0.00000000000E+00  0.00000000000E+00  0.13589631558E+04  0.13589631558E+04  0.25500000920E-02 0.  1.
        2   -1    0    0  501    0  0.00000000000E+00  0.00000000000E+00 -0.14224118502E+04  0.14224118502E+04  0.25500000920E-02 0. -1.
    10030    2    1    2    0    0  0.00000000000E+00  0.00000000000E+00 -0.63448694416E+02  0.27813750060E+04  0.27806512164E+04 0.  0.
        5    1    3    3  502    0  0.28683665247E+03 -0.13602142698E+04 -0.88037181540E+01  0.13901646379E+04  0.46999998093E+01 0. -1.
       -5    1    3    3    0  502 -0.28683665247E+03  0.13602142698E+04 -0.54644976262E+02  0.13912103681E+04  0.46999998093E+01 0.  1.
</event>
<event>
 5   0  0.1075146E-05  0.2673865E+04  0.7818609E-02  0.8343535E-01
        1   -1    0    0  501    0  0.00000000000E+00  0.00000000000E+00  0.17772495516E+04  0.17772495516E+04  0.50400001928E-02 0.  1.
       -1   -1    0    0    0  501  0.00000000000E+00  0.00000000000E+00 -0.10057045448E+04  0.10057045448E+04  0.50400001928E-02 0. -1.
    10030    2    1    2    0    0  0.00000000000E+00  0.00000000000E+00  0.77154500676E+03  0.27829540964E+04  0.26738645824E+04 0.  0.
        2    1    3    3  502    0 -0.20326536531E+03  0.33293598917E+03 -0.94515795100E+03  0.10224904567E+04  0.25500000920E-02 0. -1.
       -2    1    3    3    0  502  0.20326536531E+03 -0.33293598917E+03  0.17167029578E+04  0.17604636397E+04  0.25500000920E-02 0.  1.
</event>
<event>
 5   0  0.1017456E-05  0.2750640E+04  0.7818609E-02  0.8318759E-01
       -1   -1    0    0    0  501  0.00000000000E+00  0.00000000000E+00  0.81019736867E+03  0.81019736869E+03  0.50400001928E-02 0. -1.
        1   -1    0    0  501    0  0.00000000000E+00  0.00000000000E+00 -0.23346230792E+04  0.23346230792E+04  0.50400001928E-02 0.  1.
    10030    2    1    2    0    0  0.00000000000E+00  0.00000000000E+00 -0.15244257106E+04  0.31448204479E+04  0.27506402714E+04 0.  0.
        5    1    3    3  502    0  0.85032352561E+01 -0.75243023150E+03 -0.20783846334E+04  0.22104136112E+04  0.46999998093E+01 0.  1.
       -5    1    3    3    0  502 -0.85032352561E+01  0.75243023150E+03  0.55395892285E+03  0.93440683671E+03  0.46999998093E+01 0. -1.
</event>
<event>
 5   0  0.1078103E-05  0.2689444E+04  0.7818609E-02  0.8338438E-01
       -1   -1    0    0    0  501  0.00000000000E+00  0.00000000000E+00  0.76848854559E+03  0.76848854560E+03  0.50400001928E-02 0. -1.
        1   -1    0    0  501    0  0.00000000000E+00  0.00000000000E+00 -0.23530312297E+04  0.23530312297E+04  0.50400001928E-02 0.  1.
    10030    2    1    2    0    0  0.00000000000E+00  0.00000000000E+00 -0.15845426841E+04  0.31215197753E+04  0.26894442158E+04 0.  0.
        1    1    3    3  502    0  0.86920406764E+03  0.93382871250E+03 -0.12856877578E+04  0.18112274253E+04  0.50400001928E-02 0. -1.
       -1    1    3    3    0  502 -0.86920406764E+03 -0.93382871250E+03 -0.29885492630E+03  0.13102923500E+04  0.50400001928E-02 0.  1.
</event>
<event>
 5   0  0.2518686E-05  0.1670832E+04  0.7818609E-02  0.8778177E-01
        2   -1    0    0  501    0  0.00000000000E+00  0.00000000000E+00  0.81694986084E+03  0.81694986084E+03  0.25500000920E-02 0. -1.
       -2   -1    0    0    0  501  0.00000000000E+00  0.00000000000E+00 -0.85429946783E+03  0.85429946784E+03  0.25500000920E-02 0.  1.
    10030    2    1    2    0    0  0.00000000000E+00  0.00000000000E+00 -0.37349606999E+02  0.16712493287E+04  0.16708319262E+04 0.  0.
        5    1    3    3  502    0  0.14646688592E+03 -0.79961991346E+03 -0.21121493452E+03  0.83992761190E+03  0.46999998093E+01 0.  1.
       -5    1    3    3    0  502 -0.14646688592E+03  0.79961991346E+03  0.17386532752E+03  0.83132171678E+03  0.46999998093E+01 0. -1.
</event>
<event>
 5   0  0.1075146E-05  0.2797407E+04  0.7818609E-02  0.8304074E-01
        1   -1    0    0  501    0  0.00000000000E+00  0.00000000000E+00  0.23349223374E+04  0.23349223374E+04  0.50400001928E-02 0. -1.
       -1   -1    0    0    0  501  0.00000000000E+00  0.00000000000E+00 -0.83787409203E+03  0.83787409204E+03  0.50400001928E-02 0.  1.
    10030    2    1    2    0    0  0.00000000000E+00  0.00000000000E+00  0.14970482454E+04  0.31727964294E+04  0.27974066086E+04 0.  0.
        2    1    3    3  502    0  0.88827045656E+03  0.36232530299E+03 -0.40594018928E+03  0.10416772372E+04  0.25500000920E-02 0.  1.
       -2    1    3    3    0  502 -0.88827045656E+03 -0.36232530299E+03  0.19029884346E+04  0.21311191922E+04  0.25500000920E-02 0. -1.
</event>
<event>
 5   0  0.1105862E-05  0.2902998E+04  0.7818609E-02  0.8271986E-01
        1   -1    0    0  501    0  0.00000000000E+00  0.00000000000E+00  0.11232898658E+04  0.11232898658E+04  0.50400001928E-02 0. -1.
       -1   -1    0    0    0  501  0.00000000000E+00  0.00000000000E+00 -0.18756063928E+04  0.18756063928E+04  0.50400001928E-02 0.  1.
    10030    2    1    2    0    0  0.00000000000E+00  0.00000000000E+00 -0.75231652699E+03  0.29988962586E+04  0.29029982110E+04 0.  0.
        3    1    3    3  502    0 -0.27285129861E+02  0.26353187472E+03  0.10980998515E+04  0.11296091454E+04  0.10100000352E+00 0. -1.
       -3    1    3    3    0  502  0.27285129861E+02 -0.26353187472E+03 -0.18504163785E+04  0.18692871132E+04  0.10100000352E+00 0.  1.
</event>
<event>
 5   0  0.2651061E-05  0.2738906E+04  0.7818609E-02  0.8322491E-01
       -2   -1    0    0    0  501  0.00000000000E+00  0.00000000000E+00  0.11377859799E+04  0.11377859799E+04  0.25500000920E-02 0.  1.
        2   -1    0    0  501    0  0.00000000000E+00  0.00000000000E+00 -0.16482902579E+04  0.16482902579E+04  0.25500000920E-02 0. -1.
    10030    2    1    2    0    0  0.00000000000E+00  0.00000000000E+00 -0.51050427800E+03  0.27860762378E+04  0.27389060197E+04 0.  0.
        3    1    3    3  502    0  0.50949113648E+02 -0.66363407386E+03 -0.14726915194E+04  0.16161145744E+04  0.10100000352E+00 0. -1.
       -3    1    3    3    0  502 -0.50949113648E+02  0.66363407386E+03  0.96218724137E+03  0.11699616634E+04  0.10100000352E+00 0.  1.
</event>
<event>
 5   0  0.2518686E-05  0.2751427E+04  0.7818609E-02  0.8318509E-01
       -2   -1    0    0    0  501  0.00000000000E+00  0.00000000000E+00  0.19703234434E+04  0.19703234434E+04  0.25500000920E-02 0.  1.
        2   -1    0    0  501    0  0.00000000000E+00  0.00000000000E+00 -0.96054658724E+03  0.96054658724E+03  0.25500000920E-02 0. -1.
    10030    2    1    2    0    0  0.00000000000E+00  0.00000000000E+00  0.10097768562E+04  0.29308700307E+04  0.27514268730E+04 0.  0.
        5    1    3    3  502    0 -0.31392005048E+03 -0.48488745512E+03 -0.82510113556E+03  0.10072118030E+04  0.46999998093E+01 0. -1.
       -5    1    3    3    0  502  0.31392005048E+03  0.48488745512E+03  0.18348779917E+04  0.19236582276E+04  0.46999998093E+01 0.  1.
</event>
<event>
 5   0  0.2697964E-05  0.2797703E+04  0.7818609E-02  0.8303982E-01
       -2   -1    0    0    0  501  0.00000000000E+00  0.00000000000E+00  0.14228406024E+04  0.14228406024E+04  0.25500000920E-02 0. -1.
        2   -1    0    0  501    0  0.00000000000E+00  0.00000000000E+00 -0.13752667483E+04  0.13752667483E+04  0.25500000920E-02 0.  1.
    10030    2    1    2    0    0  0.00000000000E+00  0.00000000000E+00  0.47573854096E+02  0.27981073507E+04  0.27977028924E+04 0.  0.
        1    1    3    3  502    0 -0.10246386696E+04  0.63601863493E+03  0.73267798240E+03  0.14111063507E+04  0.50400001928E-02 0. -1.
       -1    1    3    3    0  502  0.10246386696E+04 -0.63601863493E+03 -0.68510412830E+03  0.13870009999E+04  0.50400001928E-02 0.  1.
</event>
<event>
 5   0  0.1067434E-05  0.2844580E+04  0.7818609E-02  0.8289560E-01
       -1   -1    0    0    0  501  0.00000000000E+00  0.00000000000E+00  0.21268972724E+04  0.21268972724E+04  0.50400001928E-02 0. -1.
        1   -1    0    0  501    0  0.00000000000E+00  0.00000000000E+00 -0.95110823547E+03  0.95110823548E+03  0.50400001928E-02 0.  1.
    10030    2    1    2    0    0  0.00000000000E+00  0.00000000000E+00  0.11757890369E+04  0.30780055078E+04  0.28445804694E+04 0.  0.
        4    1    3    3  502    0  0.81975055365E+03 -0.85967835909E+03  0.14343044795E+04  0.18623288657E+04  0.12699999809E+01 0. -1.
       -4    1    3    3    0  502 -0.81975055365E+03  0.85967835909E+03 -0.25851544258E+03  0.12156766421E+04  0.12699999809E+01 0.  1.
</event>
<event>
 5   0  0.1017456E-05  0.2786805E+04  0.7818609E-02  0.8307377E-01
        1   -1    0    0  501    0  0.00000000000E+00  0.00000000000E+00  0.18810633000E+04  0.18810633000E+04  0.50400001928E-02 0. -1.
       -1   -1    0    0    0  501  0.00000000000E+00  0.00000000000E+00 -0.10321666202E+04  0.10321666202E+04  0.50400001928E-02 0.  1.
    10030    2    1    2    0    0  0.00000000000E+00  0.00000000000E+00  0.84889667977E+03  0.29132299202E+04  0.27868051592E+04 0.  0.
        5    1    3    3  502    0 -0.68215144919E+03  0.12773380376E+03  0.16875259236E+04  0.18246677388E+04  0.46999998093E+01 0. -1.
       -5    1    3    3    0  502  0.68215144919E+03 -0.12773380376E+03 -0.83862924381E+03  0.10885621814E+04  0.46999998093E+01 0.  1.
</event>
<event>
 5   0  0.1078103E-05  0.1960070E+04  0.7818609E-02  0.8625520E-01
       -1   -1    0    0    0  501  0.00000000000E+00  0.00000000000E+00  0.97182434976E+03  0.97182434977E+03  0.50400001928E-02 0.  1.
        1   -1    0    0  501    0  0.00000000000E+00  0.00000000000E+00 -0.98831459382E+03  0.98831459383E+03  0.50400001928E-02 0. -1.
    10030    2    1    2    0    0  0.00000000000E+00  0.00000000000E+00 -0.16490244062E+02  0.19601389436E+04  0.19600695779E+04 0.  0.
        1    1    3    3  502    0 -0.20776772124E+03  0.23235236818E+03  0.92093421690E+03  0.97225247795E+03  0.50400001928E-02 0.  1.
       -1    1    3    3    0  502  0.20776772124E+03 -0.23235236818E+03 -0.93742446096E+03  0.98788646566E+03  0.50400001928E-02 0. -1.
</event>
<event>
 5   0  0.2588048E-05  0.2799773E+04  0.7818609E-02  0.8303339E-01
       -2   -1    0    0    0  501  0.00000000000E+00  0.00000000000E+00  0.80523153181E+03  0.80523153181E+03  0.25500000920E-02 0. -1.
        2   -1    0    0  501    0  0.00000000000E+00  0.00000000000E+00 -0.24336886416E+04  0.24336886416E+04  0.25500000920E-02 0.  1.
    10030    2    1    2    0    0  0.00000000000E+00  0.00000000000E+00 -0.16284571098E+04  0.32389201734E+04  0.27997734429E+04 0.  0.
        2    1    3    3  502    0  0.43058783931E+03  0.92514420346E+03  0.29440949664E+03  0.10620615031E+04  0.25500000920E-02 0. -1.
       -2    1    3    3    0  502 -0.43058783931E+03 -0.92514420346E+03 -0.19228666064E+04  0.21768586704E+04  0.25500000920E-02 0.  1.
</event>
<event>
 5   0  0.1078103E-05  0.2664153E+04  0.7818609E-02  0.8346731E-01
       -1   -1    0    0    0  501  0.00000000000E+00  0.00000000000E+00  0.14154720054E+04  0.14154720054E+04  0.50400001928E-02 0. -1.
        1   -1    0    0  501    0  0.00000000000E+00  0.00000000000E+00 -0.12535944373E+04  0.12535944373E+04  0.50400001928E-02 0.  1.
    10030    2    1    2    0    0  0.00000000000E+00  0.00000000000E+00  0.16187756815E+03  0.26690664427E+04  0.26641530228E+04 0.  0.
        1    1    3    3  502    0  0.12229062008E+03 -0.11007683625E+04  0.82242663156E+03  0.13795040949E+04  0.50400001928E-02 0. -1.
       -1    1    3    3    0  502 -0.12229062008E+03  0.11007683625E+04 -0.66054906341E+03  0.12895623478E+04  0.50400001928E-02 0.  1.
</event>
<event>
 5   0  0.8958000E-06  0.2776381E+04  0.7818609E-02  0.8310639E-01
       -4   -1    0    0    0  501  0.00000000000E+00  0.00000000000E+00  0.11941612745E+04  0.11941619499E+04  0.12699999809E+01 0. -1.
        4   -1    0    0  501    0  0.00000000000E+00  0.00000000000E+00 -0.16137441268E+04  0.16137446266E+04  0.12699999809E+01 0.  1.
    10030    2    1    2    0    0  0.00000000000E+00  0.00000000000E+00 -0.41958285231E+03  0.28079065764E+04  0.27763806605E+04 0.  0.
        1    1    3    3  502    0  0.11710680371E+04 -0.54479319614E+03 -0.72436388055E+03  0.14808453686E+04  0.50400001928E-02 0.  1.
       -1    1    3    3    0  502 -0.11710680371E+04  0.54479319614E+03  0.30478102825E+03  0.13270612079E+04  0.50400001928E-02 0. -1.
</event>
<event>
 5   0  0.1067434E-05  0.2811423E+04  0.7818609E-02  0.8299731E-01
        1   -1    0    0  501    0  0.00000000000E+00  0.00000000000E+00  0.99502188337E+03  0.99502188338E+03  0.50400001928E-02 0.  1.
       -1   -1    0    0    0  501  0.00000000000E+00  0.00000000000E+00 -0.19859102660E+04  0.19859102660E+04  0.50400001928E-02 0. -1.
    10030    2    1    2    0    0  0.00000000000E+00  0.00000000000E+00 -0.99088838259E+03  0.29809321493E+04  0.28114225389E+04 0.  0.
        4    1    3    3  502    0 -0.79070808837E+03  0.18221936211E+02 -0.17276085395E+04  0.19000484727E+04  0.12699999809E+01 0. -1.
       -4    1    3    3    0  502  0.79070808837E+03 -0.18221936211E+02  0.73672015690E+03  0.10808836766E+04  0.12699999809E+01 0.  1.
</event>
<event>
 5   0  0.2697964E-05  0.2800415E+04  0.7818609E-02  0.8303139E-01
        2   -1    0    0  501    0  0.00000000000E+00  0.00000000000E+00  0.15589923877E+04  0.15589923877E+04  0.25500000920E-02 0. -1.
       -2   -1    0    0    0  501  0.00000000000E+00  0.00000000000E+00 -0.12575954355E+04  0.12575954355E+04  0.25500000920E-02 0.  1.
    10030    2    1    2    0    0  0.00000000000E+00  0.00000000000E+00  0.30139695217E+03  0.28165878232E+04  0.28004154768E+04 0.  0.
        1    1    3    3  502    0  0.80007555558E+02  0.94118200578E+03 -0.88888415459E+03  0.12970504297E+04  0.50400001928E-02 0.  1.
       -1    1    3    3    0  502 -0.80007555558E+02 -0.94118200578E+03  0.11902811068E+04  0.15195373934E+04  0.50400001928E-02 0. -1.
</event>
<event>
 5   0  0.2651061E-05  0.2045483E+04  0.7818609E-02  0.8585646E-01
       -2   -1    0    0    0  501  0.00000000000E+00  0.00000000000E+00  0.81736472923E+03  0.81736472924E+03  0.25500000920E-02 0.  1.
        2   -1    0    0  501    0  0.00000000000E+00  0.00000000000E+00 -0.12797230607E+04  0.12797230607E+04  0.25500000920E-02 0. -1.
    10030    2    1    2    0    0  0.00000000000E+00  0.00000000000E+00 -0.46235833150E+03  0.20970877900E+04  0.20454833102E+04 0.  0.
        3    1    3    3  502    0 -0.84222993448E+02 -0.78638747413E+03  0.43364156727E+03  0.90196662420E+03  0.10100000352E+00 0.  1.
       -3    1    3    3    0  502  0.84222993448E+02  0.78638747413E+03 -0.89599989878E+03  0.11951211658E+04  0.10100000352E+00 0. -1.
</event>
<event>
 5   0  0.1075146E-05  0.2249415E+04  0.7818609E-02  0.8498137E-01
        1   -1    0    0  501    0  0.00000000000E+00  0.00000000000E+00  0.99733344396E+03  0.99733344397E+03  0.50400001928E-02 0. -1.
       -1   -1    0    0    0  501  0.00000000000E+00  0.00000000000E+00 -0.12683494462E+04  0.12683494462E+04  0.50400001928E-02 0.  1.
    10030    2    1    2    0    0  0.00000000000E+00  0.00000000000E+00 -0.27101600225E+03  0.22656828902E+04  0.22494153208E+04 0.  0.
        2    1    3    3  502    0  0.85579753739E+03 -0.72971925406E+03 -0.12607509297E+03  0.11317131014E+04  0.25500000920E-02 0.  1.
       -2    1    3    3    0  502 -0.85579753739E+03  0.72971925406E+03 -0.14494090927E+03  0.11339697888E+04  0.25500000920E-02 0. -1.
</event>
<event>
 5   0  0.1017456E-05  0.2728807E+04  0.7818609E-02  0.8325718E-01
       -1   -1    0    0    0  501  0.00000000000E+00  0.00000000000E+00  0.11225869414E+04  0.11225869414E+04  0.50400001928E-02 0. -1.
        1   -1    0    0  501    0  0.00000000000E+00  0.00000000000E+00 -0.16583099394E+04  0.16583099395E+04  0.50400001928E-02 0.  1.
    10030    2    1    2    0    0  0.00000000000E+00  0.00000000000E+00 -0.53572299802E+03  0.27808968809E+04  0.27288071261E+04 0.  0.
        5    1    3    3  502    0  0.29353931346E+02 -0.10366640323E+04 -0.11713750089E+04  0.15645048643E+04  0.46999998093E+01 0.  1.
       -5    1    3    3    0  502 -0.29353931346E+02  0.10366640323E+04  0.63565201084E+03  0.12163920166E+04  0.46999998093E+01 0. -1.
</event>
<event>
 5   0  0.2518686E-05  0.2784794E+04  0.7818609E-02  0.8308005E-01
       -2   -1    0    0    0  501  0.00000000000E+00  0.00000000000E+00  0.90496080618E+03  0.90496080618E+03  0.25500000920E-02 0. -1.
        2   -1    0    0  501    0  0.00000000000E+00  0.00000000000E+00 -0.21423792538E+04  0.21423792538E+04  0.25500000920E-02 0.  1.
    10030    2    1    2    0    0  0.00000000000E+00  0.00000000000E+00 -0.12374184476E+04  0.30473400600E+04  0.27847938930E+04 0.  0.
        5    1    3    3  502    0 -0.22186472870E+03 -0.90231486786E+03  0.51604812103E+03  0.10628846747E+04  0.46999998093E+01 0. -1.
       -5    1    3    3    0  502  0.22186472870E+03  0.90231486786E+03 -0.17534665686E+04  0.19844553852E+04  0.46999998093E+01 0.  1.
</event>
<event>
 5   0  0.2697964E-05  0.2762667E+04  0.7818609E-02  0.8314953E-01
       -2   -1    0    0    0  501  0.00000000000E+00  0.00000000000E+00  0.17813255675E+04  0.17813255675E+04  0.25500000920E-02 0.  1.
        2   -1    0    0  501    0  0.00000000000E+00  0.00000000000E+00 -0.10711586020E+04  0.10711586020E+04  0.25500000920E-02 0. -1.
    10030    2    1    2    0    0  0.00000000000E+00  0.00000000000E+00  0.71016696544E+03  0.28524841695E+04  0.27626669757E+04 0.  0.
        1    1    3    3  502    0  0.11567217843E+04 -0.48203648215E+03 -0.24494469964E+03  0.12768564377E+04  0.50400001928E-02 0. -1.
       -1    1    3    3    0  502 -0.11567217843E+04  0.48203648215E+03  0.95511166508E+03  0.15756277318E+04  0.50400001928E-02 0.  1.
</event>
<event>
 5   0  0.1017456E-05  0.2790467E+04  0.7818609E-02  0.8306234E-01
       -1   -1    0    0    0  501  0.00000000000E+00  0.00000000000E+00  0.13161697244E+04  0.13161697244E+04  0.50400001928E-02 0.  1.
        1   -1    0    0  501    0  0.00000000000E+00  0.00000000000E+00 -0.14790470757E+04  0.14790470758E+04  0.50400001928E-02 0. -1.
    10030    2    1    2    0    0  0.00000000000E+00  0.00000000000E+00 -0.16287735137E+03  0.27952168001E+04  0.27904673315E+04 0.  0.
        5    1    3    3  502    0  0.19027422983E+03 -0.13723528463E+04 -0.24633439287E+03  0.14072168775E+04  0.46999998093E+01 0. -1.
       -5    1    3    3    0  502 -0.19027422983E+03  0.13723528463E+04  0.83457041501E+02  0.13879999226E+04  0.46999998093E+01 0.  1.
</event>
<event>
 5   0  0.1067434E-05  0.2758026E+04  0.7818609E-02  0.8316419E-01
        1   -1    0    0  501    0  0.00000000000E+00  0.00000000000E+00  0.11396397440E+04  0.11396397440E+04  0.50400001928E-02 0.  1.
       -1   -1    0    0    0  501  0.00000000000E+00  0.00000000000E+00 -0.16686654674E+04  0.16686654674E+04  0.50400001928E-02 0. -1.
    10030    2    1    2    0    0  0.00000000000E+00  0.00000000000E+00 -0.52902572344E+03  0.28083052114E+04  0.27580264582E+04 0.  0.
        4    1    3    3  502    0 -0.36515203137E+02  0.79097106242E+02 -0.16658600395E+04  0.16681369837E+04  0.12699999809E+01 0. -1.
       -4    1    3    3    0  502  0.36515203137E+02 -0.79097106242E+02  0.11368343161E+04  0.11401682277E+04  0.12699999809E+01 0.  1.
</event>
<event>
 5   0  0.2624815E-05  0.2834941E+04  0.7818609E-02  0.8292502E-01
       -2   -1    0    0    0  501  0.00000000000E+00  0.00000000000E+00  0.10146623818E+04  0.10146623818E+04  0.25500000920E-02 0. -1.
        2   -1    0    0  501    0  0.00000000000E+00  0.00000000000E+00 -0.19801887227E+04  0.19801887227E+04  0.25500000920E-02 0.  1.
    10030    2    1    2    0    0  0.00000000000E+00  0.00000000000E+00 -0.96552634084E+03  0.29948511045E+04  0.28349412733E+04 0.  0.
        4    1    3    3  502    0  0.94458717387E+03  0.71518501401E+03  0.33925899798E+03  0.12324093532E+04  0.12699999809E+01 0. -1.
       -4    1    3    3    0  502 -0.94458717387E+03 -0.71518501401E+03 -0.13047853388E+04  0.17624417513E+04  0.12699999809E+01 0.  1.
</event>
<event>
 5   0  0.2697964E-05  0.2703991E+04  0.7818609E-02  0.8333711E-01
       -2   -1    0    0    0  501  0.00000000000E+00  0.00000000000E+00  0.15923388040E+04  0.15923388040E+04  0.25500000920E-02 0. -1.
        2   -1    0    0  501    0  0.00000000000E+00  0.00000000000E+00 -0.11479289316E+04  0.11479289316E+04  0.25500000920E-02 0.  1.
    10030    2    1    2    0    0  0.00000000000E+00  0.00000000000E+00  0.44440987245E+03  0.27402677356E+04  0.27039909630E+04 0.  0.
        1    1    3    3  502    0 -0.36860740488E+03 -0.80728053042E+02  0.15378918975E+04  0.15835087388E+04  0.50400001928E-02 0. -1.
       -1    1    3    3    0  502  0.36860740488E+03  0.80728053042E+02 -0.10934820250E+04  0.11567589968E+04  0.50400001928E-02 0.  1.
</event>
<event>
 5   0  0.2518686E-05  0.1570437E+04  0.7818609E-02  0.8838919E-01
       -2   -1    0    0    0  501  0.00000000000E+00  0.00000000000E+00  0.25544604035E+03  0.25544604036E+03  0.25500000920E-02 0.  1.
        2   -1    0    0  501    0  0.00000000000E+00  0.00000000000E+00 -0.24136907601E+04  0.24136907601E+04  0.25500000920E-02 0. -1.
    10030    2    1    2    0    0  0.00000000000E+00  0.00000000000E+00 -0.21582447198E+04  0.26691368005E+04  0.15704365601E+04 0.  0.
        5    1    3    3  502    0  0.24591654511E+03 -0.65765819477E+03 -0.48169779657E+03  0.85149521756E+03  0.46999998093E+01 0. -1.
       -5    1    3    3    0  502 -0.24591654511E+03  0.65765819477E+03 -0.16765469232E+04  0.18176415830E+04  0.46999998093E+01 0.  1.
</event>
<event>
 5   0  0.2518686E-05  0.2758878E+04  0.7818609E-02  0.8316150E-01
        2   -1    0    0  501    0  0.00000000000E+00  0.00000000000E+00  0.18873957105E+04  0.18873957105E+04  0.25500000920E-02 0. -1.
       -2   -1    0    0    0  501  0.00000000000E+00  0.00000000000E+00 -0.10081891181E+04  0.10081891181E+04  0.25500000920E-02 0.  1.
    10030    2    1    2    0    0  0.00000000000E+00  0.00000000000E+00  0.87920659238E+03  0.28955848287E+04  0.27588779001E+04 0.  0.
        5    1    3    3  502    0  0.43583454647E+03  0.11528037050E+04 -0.21071366562E+03  0.12503321451E+04  0.46999998093E+01 0.  1.
       -5    1    3    3    0  502 -0.43583454647E+03 -0.11528037050E+04  0.10899202580E+04  0.16452526836E+04  0.46999998093E+01 0. -1.
</event>
<event>
 5   0  0.2518686E-05  0.2850168E+04  0.7818609E-02  0.8287860E-01
        2   -1    0    0  501    0  0.00000000000E+00  0.00000000000E+00  0.21619663515E+04  0.21619663515E+04  0.25500000920E-02 0.  1.
       -2   -1    0    0    0  501  0.00000000000E+00  0.00000000000E+00 -0.93935983597E+03  0.93935983597E+03  0.25500000920E-02 0. -1.
    10030    2    1    2    0    0  0.00000000000E+00  0.00000000000E+00  0.12226065156E+04  0.31013261875E+04  0.28501679651E+04 0.  0.
        5    1    3    3  502    0 -0.11367998115E+04 -0.61268962037E+03  0.12670165201E+04  0.18091587367E+04  0.46999998093E+01 0.  1.
       -5    1    3    3    0  502  0.11367998115E+04  0.61268962037E+03 -0.44410004509E+02  0.12921674508E+04  0.46999998093E+01 0. -1.
</event>
<event>
 5   0  0.1017456E-05  0.2676652E+04  0.7818609E-02  0.8342621E-01
        1   -1    0    0  501    0  0.00000000000E+00  0.00000000000E+00  0.11900053758E+04  0.11900053758E+04  0.50400001928E-02 0. -1.
       -1   -1    0    0    0  501  0.00000000000E+00  0.00000000000E+00 -0.15051327911E+04  0.15051327911E+04  0.50400001928E-02 0.  1.
    10030    2    1    2    0    0  0.00000000000E+00  0.00000000000E+00 -0.31512741530E+03  0.26951381668E+04  0.26766517238E+04 0.  0.
        5    1    3    3  502    0  0.57875500893E+02  0.97388962931E+03 -0.10800151091E+04  0.14554261608E+04  0.46999998093E+01 0.  1.
       -5    1    3    3    0  502 -0.57875500893E+02 -0.97388962931E+03  0.76488769383E+03  0.12397120060E+04  0.46999998093E+01 0. -1.
</event>
<event>
 5   0  0.2697964E-05  0.1807464E+04  0.7818609E-02  0.8702340E-01
        2   -1    0    0  501    0  0.00000000000E+00  0.00000000000E+00  0.49646649350E+03  0.49646649350E+03  0.25500000920E-02 0.  1.
       -2   -1    0    0    0  501  0.00000000000E+00  0.00000000000E+00 -0.16450880896E+04  0.16450880896E+04  0.25500000920E-02 0. -1.
    10030    2    1    2    0    0  0.00000000000E+00  0.00000000000E+00 -0.11486215961E+04  0.21415545831E+04  0.18074635436E+04 0.  0.
        1    1    3    3  502    0  0.29324009492E+03  0.68666909526E+03  0.28942420822E+02  0.74722276691E+03  0.50400001928E-02 0.  1.
       -1    1    3    3    0  502 -0.29324009492E+03 -0.68666909526E+03 -0.11775640169E+04  0.13943318162E+04  0.50400001928E-02 0. -1.
</event>
<event>
 5   0  0.1075146E-05  0.2719954E+04  0.7818609E-02  0.8328559E-01
       -1   -1    0    0    0  501  0.00000000000E+00  0.00000000000E+00  0.73122436327E+03  0.73122436329E+03  0.50400001928E-02 0. -1.
        1   -1    0    0  501    0  0.00000000000E+00  0.00000000000E+00 -0.25293715592E+04  0.25293715592E+04  0.50400001928E-02 0.  1.
    10030    2    1    2    0    0  0.00000000000E+00  0.00000000000E+00 -0.17981471959E+04  0.32605959225E+04  0.27199544907E+04 0.  0.
        2    1    3    3  502    0  0.72761228253E+03 -0.79787391770E+03 -0.18901555925E+04  0.21768579619E+04  0.25500000920E-02 0.  1.
       -2    1    3    3    0  502 -0.72761228253E+03  0.79787391770E+03  0.92008396597E+02  0.10837379606E+04  0.25500000920E-02 0. -1.
</event>
<event>
 5   0  0.1075146E-05  0.2663827E+04  0.7818609E-02  0.8346838E-01
       -1   -1    0    0    0  501  0.00000000000E+00  0.00000000000E+00  0.67578914287E+03  0.67578914289E+03  0.50400001928E-02 0. -1.
        1   -1    0    0  501    0  0.00000000000E+00  0.00000000000E+00 -0.26250693257E+04  0.26250693257E+04  0.50400001928E-02 0.  1.
    10030    2    1    2    0    0  0.00000000000E+00  0.00000000000E+00 -0.19492801829E+04  0.33008584686E+04  0.26638268335E+04 0.  0.
        2    1    3    3  502    0  0.41443163855E+03 -0.26737101674E+03 -0.25077503992E+04  0.25557881188E+04  0.25500000920E-02 0.  1.
       -2    1    3    3    0  502 -0.41443163855E+03  0.26737101674E+03  0.55847021634E+03  0.74507034981E+03  0.25500000920E-02 0. -1.
</event>
<event>
 5   0  0.1105862E-05  0.2372142E+04  0.7818609E-02  0.8450007E-01
       -1   -1    0    0    0  501  0.00000000000E+00  0.00000000000E+00  0.70062849554E+03  0.70062849556E+03  0.50400001928E-02 0. -1.
        1   -1    0    0  501    0  0.00000000000E+00  0.00000000000E+00 -0.20078614702E+04  0.20078614702E+04  0.50400001928E-02 0.  1.
    10030    2    1    2    0    0  0.00000000000E+00  0.00000000000E+00 -0.13072329747E+04  0.27084899658E+04  0.23721424587E+04 0.  0.
        3    1    3    3  502    0 -0.33658646570E+03  0.29652899010E+03 -0.19072719226E+04  0.19593126569E+04  0.10100000352E+00 0.  1.
       -3    1    3    3    0  502  0.33658646570E+03 -0.29652899010E+03  0.60003894790E+03  0.74917730882E+03  0.10100000352E+00 0. -1.
</event>
<event>
 5   0  0.2697964E-05  0.2824932E+04  0.7818609E-02  0.8295570E-01
        2   -1    0    0  501    0  0.00000000000E+00  0.00000000000E+00  0.17539560589E+04  0.17539560589E+04  0.25500000920E-02 0.  1.
       -2   -1    0    0    0  501  0.00000000000E+00  0.00000000000E+00 -0.11374628757E+04  0.11374628757E+04  0.25500000920E-02 0. -1.
    10030    2    1    2    0    0  0.00000000000E+00  0.00000000000E+00  0.61649318319E+03  0.28914189346E+04  0.28249317887E+04 0.  0.
        1    1    3    3  502    0  0.12948860218E+04 -0.37335046778E+03 -0.12472179830E+03  0.13533942176E+04  0.50400001928E-02 0. -1.
       -1    1    3    3    0  502 -0.12948860218E+04  0.37335046778E+03  0.74121498149E+03  0.15380247170E+04  0.50400001928E-02 0.  1.
</event>
<event>
 5   0  0.1067434E-05  0.2812758E+04  0.7818609E-02  0.8299319E-01
       -1   -1    0    0    0  501  0.00000000000E+00  0.00000000000E+00  0.18476817342E+04  0.18476817342E+04  0.50400001928E-02 0. -1.
        1   -1    0    0  501    0  0.00000000000E+00  0.00000000000E+00 -0.10704773417E+04  0.10704773417E+04  0.50400001928E-02 0.  1.
    10030    2    1    2    0    0  0.00000000000E+00  0.00000000000E+00  0.77720439252E+03  0.29181590760E+04  0.28127576726E+04 0.  0.
        4    1    3    3  502    0  0.92471693763E+03  0.36625892101E+02  0.14872739205E+04  0.17516929521E+04  0.12699999809E+01 0. -1.
       -4    1    3    3    0  502 -0.92471693763E+03 -0.36625892101E+02 -0.71006952802E+03  0.11664661239E+04  0.12699999809E+01 0.  1.
</event>
<event>
 5   0  0.1067434E-05  0.2777128E+04  0.7818609E-02  0.8310405E-01
       -1   -1    0    0    0  501  0.00000000000E+00  0.00000000000E+00  0.96912989667E+03  0.96912989669E+03  0.50400001928E-02 0. -1.
        1   -1    0    0  501    0  0.00000000000E+00  0.00000000000E+00 -0.19895266298E+04  0.19895266298E+04  0.50400001928E-02 0.  1.
    10030    2    1    2    0    0  0.00000000000E+00  0.00000000000E+00 -0.10203967331E+04  0.29586565265E+04  0.27771278236E+04 0.  0.
        4    1    3    3  502    0 -0.77506228442E+03 -0.42320795929E+03 -0.16518218249E+04  0.18730572537E+04  0.12699999809E+01 0.  1.
       -4    1    3    3    0  502  0.77506228442E+03  0.42320795929E+03  0.63142509181E+03  0.10855992728E+04  0.12699999809E+01 0. -1.
</event>
<event>
 5   0  0.1017456E-05  0.2726022E+04  0.7818609E-02  0.8326611E-01
        1   -1    0    0  501    0  0.00000000000E+00  0.00000000000E+00  0.16179166097E+04  0.16179166097E+04  0.50400001928E-02 0.  1.
       -1   -1    0    0    0  501  0.00000000000E+00  0.00000000000E+00 -0.11482664559E+04  0.11482664559E+04  0.50400001928E-02 0. -1.
    10030    2    1    2    0    0  0.00000000000E+00  0.00000000000E+00  0.46965015378E+03  0.27661830656E+04  0.27260222826E+04 0.  0.
        5    1    3    3  502    0 -0.76070641368E+02 -0.10384744460E+03  0.16117261446E+04  0.16168655755E+04  0.46999998093E+01 0.  1.
       -5    1    3    3    0  502  0.76070641368E+02  0.10384744460E+03 -0.11420759908E+04  0.11493174900E+04  0.46999998093E+01 0. -1.
</event>
<event>
 5   0  0.2588048E-05  0.2856883E+04  0.7818609E-02  0.8285823E-01
        2   -1    0    0  501    0  0.00000000000E+00  0.00000000000E+00  0.78803727233E+03  0.78803727234E+03  0.25500000920E-02 0.  1.
       -2   -1    0    0    0  501  0.00000000000E+00  0.00000000000E+00 -0.25892751850E+04  0.25892751850E+04  0.25500000920E-02 0. -1.
    10030    2    1    2    0    0  0.00000000000E+00  0.00000000000E+00 -0.18012379127E+04  0.33773124574E+04  0.28568831647E+04 0.  0.
        2    1    3    3  502    0 -0.15534408518E+03 -0.12150245482E+04 -0.31884054549E+02  0.12253297639E+04  0.25500000920E-02 0.  1.
       -2    1    3    3    0  502  0.15534408518E+03  0.12150245482E+04 -0.17693538582E+04  0.21519826934E+04  0.25500000920E-02 0. -1.
</event>
<event>
 5   0  0.2624815E-05  0.2797095E+04  0.7818609E-02  0.8304171E-01
        2   -1    0    0  501    0  0.00000000000E+00  0.00000000000E+00  0.21822316457E+04  0.21822316457E+04  0.25500000920E-02 0.  1.
       -2   -1    0    0    0  501  0.00000000000E+00  0.00000000000E+00 -0.89630048178E+03  0.89630048178E+03  0.25500000920E-02 0. -1.
    10030    2    1    2    0    0  0.00000000000E+00  0.00000000000E+00  0.12859311639E+04  0.30785321275E+04  0.27970951184E+04 0.  0.
        4    1    3    3  502    0  0.11453301200E+03  0.12880848809E+04  0.12291446309E+04  0.17841184400E+04  0.12699999809E+01 0.  1.
       -4    1    3    3    0  502 -0.11453301200E+03 -0.12880848809E+04  0.56786532983E+02  0.12944136875E+04  0.12699999809E+01 0. -1.
</event>
<event>
 5   0  0.2518686E-05  0.2800779E+04  0.7818609E-02  0.8303026E-01
        2   -1    0    0  501    0  0.00000000000E+00  0.00000000000E+00  0.20093857884E+04  0.20093857884E+04  0.25500000920E-02 0.  1.
       -2   -1    0    0    0  501  0.00000000000E+00  0.00000000000E+00 -0.97596547592E+03  0.97596547592E+03  0.25500000920E-02 0. -1.
    10030    2    1    2    0    0  0.00000000000E+00  0.00000000000E+00  0.10334203125E+04  0.29853512643E+04  0.28007792896E+04 0.  0.
        5    1    3    3  502    0  0.13657858602E+04  0.26153176199E+03  0.34059715271E+03  0.14317116989E+04  0.46999998093E+01 0. -1.
       -5    1    3    3    0  502 -0.13657858602E+04 -0.26153176199E+03  0.69282315980E+03  0.15536395654E+04  0.46999998093E+01 0.  1.
</event>
<event>
 5   0  0.2651061E-05  0.2757980E+04  0.7818609E-02  0.8316434E-01
       -2   -1    0    0    0  501  0.00000000000E+00  0.00000000000E+00  0.13837209108E+04  0.13837209108E+04  0.25500000920E-02 0. -1.
        2   -1    0    0  501    0  0.00000000000E+00  0.00000000000E+00 -0.13742749996E+04  0.13742749996E+04  0.25500000920E-02 0.  1.
    10030    2    1    2    0    0  0.00000000000E+00  0.00000000000E+00  0.94459111900E+01  0.27579959105E+04  0.27579797347E+04 0.  0.
        3    1    3    3  502    0 -0.44573884723E+03  0.11088129336E+04  0.69281405146E+03  0.13813546111E+04  0.10100000352E+00 0. -1.
       -3    1    3    3    0  502  0.44573884723E+03 -0.11088129336E+04 -0.68336814027E+03  0.13766412993E+04  0.10100000352E+00 0.  1.
</event>
<event>
 5   0  0.2518686E-05  0.2114949E+04  0.7818609E-02  0.8554687E-01
        2   -1    0    0  501    0  0.00000000000E+00  0.00000000000E+00  0.17835436792E+04  0.17835436792E+04  0.25500000920E-02 0. -1.
       -2   -1    0    0    0  501  0.00000000000E+00  0.00000000000E+00 -0.62698362211E+03  0.62698362211E+03  0.25500000920E-02 0.  1.
    10030    2    1    2    0    0  0.00000000000E+00  0.00000000000E+00  0.11565600571E+04  0.24105273013E+04  0.21149493385E+04 0.  0.
        5    1    3    3  502    0  0.74491018694E+02  0.84073152421E+03 -0.14781928571E+03  0.85688449565E+03  0.46999998093E+01 0.  1.
       -5    1    3    3    0  502 -0.74491018694E+02 -0.84073152421E+03  0.13043793428E+04  0.15536428056E+04  0.46999998093E+01 0. -1.
</event>
<event>
 5   0  0.2588048E-05  0.2681522E+04  0.7818609E-02  0.8341025E-01
       -2   -1    0    0    0  501  0.00000000000E+00  0.00000000000E+00  0.97507863554E+03  0.97507863554E+03  0.25500000920E-02 0. -1.
        2   -1    0    0  501    0  0.00000000000E+00  0.00000000000E+00 -0.18435851415E+04  0.18435851415E+04  0.25500000920E-02 0.  1.
    10030    2    1    2    0    0  0.00000000000E+00  0.00000000000E+00 -0.86850650592E+03  0.28186637770E+04  0.26815223171E+04 0.  0.
        2    1    3    3  502    0  0.10249824049E+04  0.64625367839E+03  0.16904040008E+03  0.12234408053E+04  0.25500000920E-02 0. -1.
       -2    1    3    3    0  502 -0.10249824049E+04 -0.64625367839E+03 -0.10375469060E+04  0.15952229717E+04  0.25500000920E-02 0.  1.
</event>
<event>
 5   0  0.1078103E-05  0.2764200E+04  0.7818609E-02  0.8314470E-01
       -1   -1    0    0    0  501  0.00000000000E+00  0.00000000000E+00  0.71888910084E+03  0.71888910086E+03  0.50400001928E-02 0.  1.
        1   -1    0    0  501    0  0.00000000000E+00  0.00000000000E+00 -0.26571557957E+04  0.26571557957E+04  0.50400001928E-02 0. -1.
    10030    2    1    2    0    0  0.00000000000E+00  0.00000000000E+00 -0.19382666949E+04  0.33760448966E+04  0.27641999499E+04 0.  0.
        1    1    3    3  502    0 -0.11656564784E+04  0.57531909152E+03 -0.39568141629E+03  0.13587902214E+04  0.50400001928E-02 0.  1.
       -1    1    3    3    0  502  0.11656564784E+04 -0.57531909152E+03 -0.15425852786E+04  0.20172546751E+04  0.50400001928E-02 0. -1.
</event>
<event>
 5   0  0.1067434E-05  0.2748467E+04  0.7818609E-02  0.8319448E-01
       -1   -1    0    0    0  501  0.00000000000E+00  0.00000000000E+00  0.13020635280E+04  0.13020635280E+04  0.50400001928E-02 0. -1.
        1   -1    0    0  501    0  0.00000000000E+00  0.00000000000E+00 -0.14504036462E+04  0.14504036462E+04  0.50400001928E-02 0.  1.
    10030    2    1    2    0    0  0.00000000000E+00  0.00000000000E+00 -0.14834011814E+03  0.27524671742E+04  0.27484669826E+04 0.  0.
        4    1    3    3  502    0 -0.37810707869E+03 -0.12038461435E+04  0.47096176453E+03  0.13468545195E+04  0.12699999809E+01 0.  1.
       -4    1    3    3    0  502  0.37810707869E+03  0.12038461435E+04 -0.61930188267E+03  0.14056126547E+04  0.12699999809E+01 0. -1.
</event>
<event>
 5   0  0.2624815E-05  0.2768167E+04  0.7818609E-02  0.8313220E-01
        2   -1    0    0  501    0  0.00000000000E+00  0.00000000000E+00  0.12632139312E+04  0.12632139312E+04  0.25500000920E-02 0. -1.
       -2   -1    0    0    0  501  0.00000000000E+00  0.00000000000E+00 -0.15165181525E+04  0.15165181525E+04  0.25500000920E-02 0.  1.
    10030    2    1    2    0    0  0.00000000000E+00  0.00000000000E+00 -0.25330422132E+03  0.27797320837E+04  0.27681667992E+04 0.  0.
        4    1    3    3  502    0  0.23380765071E+03  0.47382971261E+03 -0.14112562095E+04  0.15069261149E+04  0.12699999809E+01 0.  1.
       -4    1    3    3    0  502 -0.23380765071E+03 -0.47382971261E+03  0.11579519882E+04  0.12728059687E+04  0.12699999809E+01 0. -1.
</event>
<event>
 5   0  0.2624815E-05  0.2739778E+04  0.7818609E-02  0.8322213E-01
        2   -1    0    0  501    0  0.00000000000E+00  0.00000000000E+00  0.19887581785E+04  0.19887581785E+04  0.25500000920E-02 0. -1.
       -2   -1    0    0    0  501  0.00000000000E+00  0.00000000000E+00 -0.94360156800E+03  0.94360156800E+03  0.25500000920E-02 0.  1.
    10030    2    1    2    0    0  0.00000000000E+00  0.00000000000E+00  0.10451566105E+04  0.29323597465E+04  0.27397776082E+04 0.  0.
        4    1    3    3  502    0 -0.12500108245E+04 -0.18299681542E+03  0.10895082344E+04  0.16682459955E+04  0.12699999809E+01 0. -1.
       -4    1    3    3    0  502  0.12500108245E+04  0.18299681542E+03 -0.44351623886E+02  0.12641137510E+04  0.12699999809E+01 0.  1.
</event>
<event>
 5   0  0.1075146E-05  0.1533360E+04  0.7818609E-02  0.8862567E-01
       -1   -1    0    0    0  501  0.00000000000E+00  0.00000000000E+00  0.49140202794E+03  0.49140202796E+03  0.50400001928E-02 0. -1.
        1   -1    0    0  501    0  0.00000000000E+00  0.00000000000E+00 -0.11961654047E+04  0.11961654047E+04  0.50400001928E-02 0.  1.
    10030    2    1    2    0    0  0.00000000000E+00  0.00000000000E+00 -0.70476337676E+03  0.16875674327E+04  0.15333598477E+04 0.  0.
        2    1    3    3  502    0 -0.69451529825E+03 -0.22246499659E+03 -0.92042160105E+02  0.73506049645E+03  0.25500000920E-02 0. -1.
       -2    1    3    3    0  502  0.69451529825E+03  0.22246499659E+03 -0.61272121666E+03  0.95250693622E+03  0.25500000920E-02 0.  1.
</event>
<event>
 5   0  0.1075146E-05  0.2870989E+04  0.7818609E-02  0.8281562E-01
       -1   -1    0    0    0  501  0.00000000000E+00  0.00000000000E+00  0.11117367911E+04  0.11117367911E+04  0.50400001928E-02 0. -1.
        1   -1    0    0  501    0  0.00000000000E+00  0.00000000000E+00 -0.18535368268E+04  0.18535368268E+04  0.50400001928E-02 0.  1.
    10030    2    1    2    0    0  0.00000000000E+00  0.00000000000E+00 -0.74180003571E+03  0.29652736179E+04  0.28709894350E+04 0.  0.
        2    1    3    3  502    0 -0.12547053278E+04 -0.62131843103E+02 -0.10883332743E+04  0.16621116513E+04  0.25500000920E-02 0.  1.
       -2    1    3    3    0  502  0.12547053278E+04  0.62131843103E+02  0.34653323857E+03  0.13031619665E+04  0.25500000920E-02 0. -1.
</event>
<event>
 5   0  0.2588048E-05  0.2768460E+04  0.7818609E-02  0.8313128E-01
       -2   -1    0    0    0  501  0.00000000000E+00  0.00000000000E+00  0.16360190112E+04  0.16360190112E+04  0.25500000920E-02 0.  1.
        2   -1    0    0  501    0  0.00000000000E+00  0.00000000000E+00 -0.11711918429E+04  0.11711918429E+04  0.25500000920E-02 0. -1.
    10030    2    1    2    0    0  0.00000000000E+00  0.00000000000E+00  0.46482716826E+03  0.28072108541E+04  0.27684595867E+04 0.  0.
        2    1    3    3  502    0  0.56064733794E+03  0.80257108172E+03 -0.75987826343E+03  0.12392984927E+04  0.25500000920E-02 0. -1.
       -2    1    3    3    0  502 -0.56064733794E+03 -0.80257108172E+03  0.12247054317E+04  0.15679123614E+04  0.25500000920E-02 0.  1.
</event>
<event>
 5   0  0.2651061E-05  0.2864500E+04  0.7818609E-02  0.8283519E-01
       -2   -1    0    0    0  501  0.00000000000E+00  0.00000000000E+00  0.11596164873E+04  0.11596164873E+04  0.25500000920E-02 0.  1.
        2   -1    0    0  501    0  0.00000000000E+00  0.00000000000E+00 -0.17689820446E+04  0.17689820446E+04  0.25500000920E-02 0. -1.
    10030    2    1    2    0    0  0.00000000000E+00  0.00000000000E+00 -0.60936555726E+03  0.29285985319E+04  0.28645004763E+04 0.  0.
        3    1    3    3  502    0 -0.81511877800E+03  0.11776851685E+03  0.89331094562E+03  0.12150277781E+04  0.10100000352E+00 0.  1.
       -3    1    3    3    0  502  0.81511877800E+03 -0.11776851685E+03 -0.15026765029E+04  0.17135707538E+04  0.10100000352E+00 0. -1.
</event>
<event>
 5   0  0.2588048E-05  0.2836188E+04  0.7818609E-02  0.8292121E-01
        2   -1    0    0  501    0  0.00000000000E+00  0.00000000000E+00  0.20404250141E+04  0.20404250141E+04  0.25500000920E-02 0. -1.
       -2   -1    0    0    0  501  0.00000000000E+00  0.00000000000E+00 -0.98557463160E+03  0.98557463161E+03  0.25500000920E-02 0.  1.
    10030    2    1    2    0    0  0.00000000000E+00  0.00000000000E+00  0.10548503825E+04  0.30259996457E+04  0.28361883799E+04 0.  0.
        2    1    3    3  502    0 -0.12803888190E+04 -0.60954607483E+03  0.51994252539E+03  0.15103913979E+04  0.25500000920E-02 0. -1.
       -2    1    3    3    0  502  0.12803888190E+04  0.60954607483E+03  0.53490785714E+03  0.15156082478E+04  0.25500000920E-02 0.  1.
</event>
<event>
 5   0  0.2697964E-05  0.2796156E+04  0.7818609E-02  0.8304463E-01
       -2   -1    0    0    0  501  0.00000000000E+00  0.00000000000E+00  0.14268964248E+04  0.14268964248E+04  0.25500000920E-02 0.  1.
        2   -1    0    0  501    0  0.00000000000E+00  0.00000000000E+00 -0.13698412211E+04  0.13698412211E+04  0.25500000920E-02 0. -1.
    10030    2    1    2    0    0  0.00000000000E+00  0.00000000000E+00  0.57055203736E+02  0.27967376459E+04  0.27961556044E+04 0.  0.
        1    1    3    3  502    0 -0.62996888974E+03  0.54672514296E+03 -0.10936918470E+04  0.13754748417E+04  0.50400001928E-02 0. -1.
       -1    1    3    3    0  502  0.62996888974E+03 -0.54672514296E+03  0.11507470507E+04  0.14212628042E+04  0.50400001928E-02 0.  1.
</event>
<event>
 5   0  0.1017456E-05  0.2797436E+04  0.7818609E-02  0.8304065E-01
        1   -1    0    0  501    0  0.00000000000E+00  0.00000000000E+00  0.14807443234E+04  0.14807443234E+04  0.50400001928E-02 0.  1.
       -1   -1    0    0    0  501  0.00000000000E+00  0.00000000000E+00 -0.13212354307E+04  0.13212354307E+04  0.50400001928E-02 0. -1.
    10030    2    1    2    0    0  0.00000000000E+00  0.00000000000E+00  0.15950889263E+03  0.28019797541E+04  0.27974358716E+04 0.  0.
        5    1    3    3  502    0 -0.59235106502E+03  0.39483973975E+03  0.12857082639E+04  0.14696414645E+04  0.46999998093E+01 0.  1.
       -5    1    3    3    0  502  0.59235106502E+03 -0.39483973975E+03 -0.11261993712E+04  0.13323382896E+04  0.46999998093E+01 0. -1.
</event>
<event>
 5   0  0.2518686E-05  0.2535205E+04  0.7818609E-02  0.8390550E-01
        2   -1    0    0  501    0  0.00000000000E+00  0.00000000000E+00  0.63012301191E+03  0.63012301192E+03  0.25500000920E-02 0. -1.
       -2   -1    0    0    0  501  0.00000000000E+00  0.00000000000E+00 -0.25500039622E+04  0.25500039622E+04  0.25500000920E-02 0.  1.
    10030    2    1    2    0    0  0.00000000000E+00  0.00000000000E+00 -0.19198809503E+04  0.31801269742E+04  0.25352050624E+04 0.  0.
        5    1    3    3  502    0 -0.49173968351E+03  0.29319314525E+02 -0.24250115625E+04  0.24745445453E+04  0.46999998093E+01 0.  1.
       -5    1    3    3    0  502  0.49173968351E+03 -0.29319314525E+02  0.50513061216E+03  0.70558242884E+03  0.46999998093E+01 0. -1.
</event>
<event>
 5   0  0.2624815E-05  0.2831334E+04  0.7818609E-02  0.8293606E-01
       -2   -1    0    0    0  501  0.00000000000E+00  0.00000000000E+00  0.11616273400E+04  0.11616273400E+04  0.25500000920E-02 0. -1.
        2   -1    0    0  501    0  0.00000000000E+00  0.00000000000E+00 -0.17252627392E+04  0.17252627392E+04  0.25500000920E-02 0.  1.
    10030    2    1    2    0    0  0.00000000000E+00  0.00000000000E+00 -0.56363539919E+03  0.28868900791E+04  0.28313335137E+04 0.  0.
        4    1    3    3  502    0  0.23367529315E+01  0.74024540765E+02  0.11596501089E+04  0.11620133739E+04  0.12699999809E+01 0. -1.
       -4    1    3    3    0  502 -0.23367529315E+01 -0.74024540765E+02 -0.17232855081E+04  0.17248767053E+04  0.12699999809E+01 0.  1.
</event>
<event>
 5   0  0.2588048E-05  0.2464869E+04  0.7818609E-02  0.8415609E-01
       -2   -1    0    0    0  501  0.00000000000E+00  0.00000000000E+00  0.20942722047E+04  0.20942722047E+04  0.25500000920E-02 0. -1.
        2   -1    0    0  501    0  0.00000000000E+00  0.00000000000E+00 -0.72526138529E+03  0.72526138529E+03  0.25500000920E-02 0.  1.
    10030    2    1    2    0    0  0.00000000000E+00  0.00000000000E+00  0.13690108194E+04  0.28195335900E+04  0.24648689704E+04 0.  0.
        2    1    3    3  502    0  0.93473184819E+01 -0.41984077068E+03 -0.64089540319E+03  0.76622487751E+03  0.25500000920E-02 0.  1.
       -2    1    3    3    0  502 -0.93473184819E+01  0.41984077068E+03  0.20099062226E+04  0.20533087125E+04  0.25500000920E-02 0. -1.
</event>
<event>
 5   0  0.1105862E-05  0.2629612E+04  0.7818609E-02  0.8358212E-01
        1   -1    0    0  501    0  0.00000000000E+00  0.00000000000E+00  0.14597300017E+04  0.14597300017E+04  0.50400001928E-02 0.  1.
       -1   -1    0    0    0  501  0.00000000000E+00  0.00000000000E+00 -0.11842698737E+04  0.11842698737E+04  0.50400001928E-02 0. -1.
    10030    2    1    2    0    0  0.00000000000E+00  0.00000000000E+00  0.27546012805E+03  0.26439998754E+04  0.26296115795E+04 0.  0.
        3    1    3    3  502    0 -0.27149528373E+03  0.43362572937E+03  0.13555439744E+04  0.14488755775E+04  0.10100000352E+00 0.  1.
       -3    1    3    3    0  502  0.27149528373E+03 -0.43362572937E+03 -0.10800838463E+04  0.11951242980E+04  0.10100000352E+00 0. -1.
</event>
<event>
 5   0  0.1017456E-05  0.2596334E+04  0.7818609E-02  0.8369448E-01
       -1   -1    0    0    0  501  0.00000000000E+00  0.00000000000E+00  0.16149502240E+04  0.16149502240E+04  0.50400001928E-02 0.  1.
        1   -1    0    0  501    0  0.00000000000E+00  0.00000000000E+00 -0.10435227080E+04  0.10435227080E+04  0.50400001928E-02 0. -1.
    10030    2    1    2    0    0  0.00000000000E+00  0.00000000000E+00  0.57142751606E+03  0.26584729320E+04  0.25963337466E+04 0.  0.
        5    1    3    3  502    0 -0.77952466250E+03 -0.76830769387E+03  0.10004601706E+04  0.14828681853E+04  0.46999998093E+01 0.  1.
       -5    1    3    3    0  502  0.77952466250E+03  0.76830769387E+03 -0.42903265452E+03  0.11756047467E+04  0.46999998093E+01 0. -1.
</event>
<event>
 5   0  0.2697964E-05  0.2524962E+04  0.7818609E-02  0.8394146E-01
        2   -1    0    0  501    0  0.00000000000E+00  0.00000000000E+00  0.16048735973E+04  0.16048735973E+04  0.25500000920E-02 0.  1.
       -2   -1    0    0    0  501  0.00000000000E+00  0.00000000000E+00 -0.99313625199E+03  0.99313625199E+03  0.25500000920E-02 0. -1.
    10030    2    1    2    0    0  0.00000000000E+00  0.00000000000E+00  0.61173734531E+03  0.25980098493E+04  0.25249619002E+04 0.  0.
        1    1    3    3  502    0  0.12190077650E+04 -0.55231803787E+02  0.63900647928E+03  0.13774468280E+04  0.50400001928E-02 0. -1.
       -1    1    3    3    0  502 -0.12190077650E+04  0.55231803787E+02 -0.27269133975E+02  0.12205630213E+04  0.50400001928E-02 0.  1.
</event>
<event>
 5   0  0.2518686E-05  0.2823330E+04  0.7818609E-02  0.8296062E-01
        2   -1    0    0  501    0  0.00000000000E+00  0.00000000000E+00  0.19089194798E+04  0.19089194798E+04  0.25500000920E-02 0. -1.
       -2   -1    0    0    0  501  0.00000000000E+00  0.00000000000E+00 -0.10439406200E+04  0.10439406200E+04  0.25500000920E-02 0.  1.
    10030    2    1    2    0    0  0.00000000000E+00  0.00000000000E+00  0.86497885977E+03  0.29528600998E+04  0.28233303634E+04 0.  0.
        5    1    3    3  502    0 -0.69094207116E+03  0.98768743225E+03  0.12009425138E+04  0.17015323744E+04  0.46999998093E+01 0.  1.
       -5    1    3    3    0  502  0.69094207116E+03 -0.98768743225E+03 -0.33596365406E+03  0.12513277254E+04  0.46999998093E+01 0. -1.
</event>
<event>
 5   0  0.2518686E-05  0.2826053E+04  0.7818609E-02  0.8295225E-01
       -2   -1    0    0    0  501  0.00000000000E+00  0.00000000000E+00  0.13265021621E+04  0.13265021621E+04  0.25500000920E-02 0. -1.
        2   -1    0    0  501    0  0.00000000000E+00  0.00000000000E+00 -0.15051946815E+04  0.15051946815E+04  0.25500000920E-02 0.  1.
    10030    2    1    2    0    0  0.00000000000E+00  0.00000000000E+00 -0.17869251946E+03  0.28316968436E+04  0.28260530776E+04 0.  0.
        5    1    3    3  502    0  0.67626914348E+03  0.11255557174E+04  0.43362160320E+03  0.13828468506E+04  0.46999998093E+01 0. -1.
       -5    1    3    3    0  502 -0.67626914348E+03 -0.11255557174E+04 -0.61231412266E+03  0.14488499930E+04  0.46999998093E+01 0.  1.
</event>
<event>
 5   0  0.1067434E-05  0.2729410E+04  0.7818609E-02  0.8325525E-01
        1   -1    0    0  501    0  0.00000000000E+00  0.00000000000E+00  0.17181274514E+04  0.17181274514E+04  0.50400001928E-02 0. -1.
       -1   -1    0    0    0  501  0.00000000000E+00  0.00000000000E+00 -0.10839823168E+04  0.10839823168E+04  0.50400001928E-02 0.  1.
    10030    2    1    2    0    0  0.00000000000E+00  0.00000000000E+00  0.63414513460E+03  0.28021097682E+04  0.27294100281E+04 0.  0.
        4    1    3    3  502    0  0.28016718200E+03 -0.79570647104E+03 -0.78424282019E+03  0.11518163273E+04  0.12699999809E+01 0.  1.
       -4    1    3    3    0  502 -0.28016718200E+03  0.79570647104E+03  0.14183879548E+04  0.16502934409E+04  0.12699999809E+01 0. -1.
</event>
<event>
 5   0  0.1067434E-05  0.2738552E+04  0.7818609E-02  0.8322604E-01
       -1   -1    0    0    0  501  0.00000000000E+00  0.00000000000E+00  0.15289816297E+04  0.15289816297E+04  0.50400001928E-02 0.  1.
        1   -1    0    0  501    0  0.00000000000E+00  0.00000000000E+00 -0.12262519845E+04  0.12262519845E+04  0.50400001928E-02 0. -1.
    10030    2    1    2    0    0  0.00000000000E+00  0.00000000000E+00  0.30272964523E+03  0.27552336143E+04  0.27385519953E+04 0.  0.
        4    1    3    3  502    0  0.21695848811E+03  0.13127351350E+04  0.47670843788E+03  0.14133637422E+04  0.12699999809E+01 0.  1.
       -4    1    3    3    0  502 -0.21695848811E+03 -0.13127351350E+04 -0.17397879265E+03  0.13418698720E+04  0.12699999809E+01 0. -1.
</event>
<event>
 5   0  0.1075146E-05  0.2500792E+04  0.7818609E-02  0.8402704E-01
        1   -1    0    0  501    0  0.00000000000E+00  0.00000000000E+00  0.12376717701E+04  0.12376717702E+04  0.50400001928E-02 0.  1.
       -1   -1    0    0    0  501  0.00000000000E+00  0.00000000000E+00 -0.12632507501E+04  0.12632507501E+04  0.50400001928E-02 0. -1.
    10030    2    1    2    0    0  0.00000000000E+00  0.00000000000E+00 -0.25578979994E+02  0.25009225203E+04  0.25007917083E+04 0.  0.
        2    1    3    3  502    0 -0.25608864752E+03 -0.99373236954E+03 -0.72725276584E+03  0.12577686604E+04  0.25500000920E-02 0. -1.
       -2    1    3    3    0  502  0.25608864752E+03  0.99373236954E+03  0.70167378584E+03  0.12431538599E+04  0.25500000920E-02 0.  1.
</event>
<event>
 5   0  0.2697964E-05  0.2846972E+04  0.7818609E-02  0.8288832E-01
       -2   -1    0    0    0  501  0.00000000000E+00  0.00000000000E+00  0.13074412009E+04  0.13074412009E+04  0.25500000920E-02 0. -1.
        2   -1    0    0  501    0  0.00000000000E+00  0.00000000000E+00 -0.15498304368E+04  0.15498304368E+04  0.25500000920E-02 0.  1.
    10030    2    1    2    0    0  0.00000000000E+00  0.00000000000E+00 -0.24238923589E+03  0.28572716378E+04  0.28469718422E+04 0.  0.
        1    1    3    3  502    0  0.10455278615E+02  0.45126469063E+03  0.12337128520E+04  0.13136957544E+04  0.50400001928E-02 0. -1.
       -1    1    3    3    0  502 -0.10455278615E+02 -0.45126469063E+03 -0.14761020879E+04  0.15435758834E+04  0.50400001928E-02 0.  1.
</event>
<event>
 5   0  0.2518686E-05  0.2841929E+04  0.7818609E-02  0.8290368E-01
        2   -1    0    0  501    0  0.00000000000E+00  0.00000000000E+00  0.18381436907E+04  0.18381436907E+04  0.25500000920E-02 0.  1.
       -2   -1    0    0    0  501  0.00000000000E+00  0.00000000000E+00 -0.10984667483E+04  0.10984667483E+04  0.25500000920E-02 0. -1.
    10030    2    1    2    0    0  0.00000000000E+00  0.00000000000E+00  0.73967694244E+03  0.29366104390E+04  0.28419287273E+04 0.  0.
        5    1    3    3  502    0  0.82546117560E+03  0.21517235555E+03  0.15441112264E+04  0.17640824427E+04  0.46999998093E+01 0.  1.
       -5    1    3    3    0  502 -0.82546117560E+03 -0.21517235555E+03 -0.80443428394E+03  0.11725279963E+04  0.46999998093E+01 0. -1.
</event>
<event>
 5   0  0.2651061E-05  0.2517078E+04  0.7818609E-02  0.8396927E-01
       -2   -1    0    0    0  501  0.00000000000E+00  0.00000000000E+00  0.85839180794E+03  0.85839180794E+03  0.25500000920E-02 0.  1.
        2   -1    0    0  501    0  0.00000000000E+00  0.00000000000E+00 -0.18452177546E+04  0.18452177546E+04  0.25500000920E-02 0. -1.
    10030    2    1    2    0    0  0.00000000000E+00  0.00000000000E+00 -0.98682594665E+03  0.27036095625E+04  0.25170775152E+04 0.  0.
        3    1    3    3  502    0  0.17495118121E+03  0.61556784522E+03  0.67058763106E+03  0.92694091991E+03  0.10100000352E+00 0.  1.
       -3    1    3    3    0  502 -0.17495118121E+03 -0.61556784522E+03 -0.16574135777E+04  0.17766686426E+04  0.10100000352E+00 0. -1.
</event>
<event>
 5   0  0.1067434E-05  0.2328806E+04  0.7818609E-02  0.8466649E-01
       -1   -1    0    0    0  501  0.00000000000E+00  0.00000000000E+00  0.89139888324E+03  0.89139888325E+03  0.50400001928E-02 0.  1.
        1   -1    0    0  501    0  0.00000000000E+00  0.00000000000E+00 -0.15210189023E+04  0.15210189023E+04  0.50400001928E-02 0. -1.
    10030    2    1    2    0    0  0.00000000000E+00  0.00000000000E+00 -0.62962001908E+03  0.24124177856E+04  0.23288061757E+04 0.  0.
        4    1    3    3  502    0  0.55352156063E+03 -0.25453313829E+03  0.71311695743E+03  0.93792891226E+03  0.12699999809E+01 0.  1.
       -4    1    3    3    0  502 -0.55352156063E+03  0.25453313829E+03 -0.13427369765E+04  0.14744888733E+04  0.12699999809E+01 0. -1.
</event>
<event>
 5   0  0.2697964E-05  0.1650354E+04  0.7818609E-02  0.8790197E-01
       -2   -1    0    0    0  501  0.00000000000E+00  0.00000000000E+00  0.50365484807E+03  0.50365484807E+03  0.25500000920E-02 0. -1.
        2   -1    0    0  501    0  0.00000000000E+00  0.00000000000E+00 -0.13519520369E+04  0.13519520369E+04  0.25500000920E-02 0.  1.
    10030    2    1    2    0    0  0.00000000000E+00  0.00000000000E+00 -0.84829718881E+03  0.18556068850E+04  0.16503541411E+04 0.  0.
        1    1    3    3  502    0 -0.75074072162E+03 -0.33680234662E+03 -0.35420466070E+03  0.89582832812E+03  0.50400001928E-02 0. -1.
       -1    1    3    3    0  502  0.75074072162E+03  0.33680234662E+03 -0.49409252811E+03  0.95977855683E+03  0.50400001928E-02 0.  1.
</event>
<event>
 5   0  0.1067434E-05  0.2023014E+04  0.7818609E-02  0.8595936E-01
        1   -1    0    0  501    0  0.00000000000E+00  0.00000000000E+00  0.96914975803E+03  0.96914975804E+03  0.50400001928E-02 0. -1.
       -1   -1    0    0    0  501  0.00000000000E+00  0.00000000000E+00 -0.10557158879E+04  0.10557158879E+04  0.50400001928E-02 0.  1.
    10030    2    1    2    0    0  0.00000000000E+00  0.00000000000E+00 -0.86566129847E+02  0.20248656459E+04  0.20230143819E+04 0.  0.
        4    1    3    3  502    0  0.50238748415E+03 -0.83759841309E+03  0.21998024741E+03  0.10011779103E+04  0.12699999809E+01 0. -1.
       -4    1    3    3    0  502 -0.50238748415E+03  0.83759841309E+03 -0.30654637725E+03  0.10236877357E+04  0.12699999809E+01 0.  1.
</event>
<event>
 5   0  0.2651061E-05  0.2752786E+04  0.7818609E-02  0.8318078E-01
       -2   -1    0    0    0  501  0.00000000000E+00  0.00000000000E+00  0.63262852306E+03  0.63262852306E+03  0.25500000920E-02 0.  1.
        2   -1    0    0  501    0  0.00000000000E+00  0.00000000000E+00 -0.29945819277E+04  0.29945819277E+04  0.25500000920E-02 0. -1.
    10030    2    1    2    0    0  0.00000000000E+00  0.00000000000E+00 -0.23619534046E+04  0.36272104508E+04  0.27527861828E+04 0.  0.
        3    1    3    3  502    0  0.39254485162E+03 -0.90811342843E+03 -0.24418633476E+04  0.26346646994E+04  0.10100000352E+00 0. -1.
       -3    1    3    3    0  502 -0.39254485162E+03  0.90811342843E+03  0.79909942978E+02  0.99254575140E+03  0.10100000352E+00 0.  1.
</event>
<event>
 5   0  0.2624815E-05  0.2506234E+04  0.7818609E-02  0.8400768E-01
        2   -1    0    0  501    0  0.00000000000E+00  0.00000000000E+00  0.18621838607E+04  0.18621838607E+04  0.25500000920E-02 0.  1.
       -2   -1    0    0    0  501  0.00000000000E+00  0.00000000000E+00 -0.84325830964E+03  0.84325830964E+03  0.25500000920E-02 0. -1.
    10030    2    1    2    0    0  0.00000000000E+00  0.00000000000E+00  0.10189255511E+04  0.27054421703E+04  0.25062338395E+04 0.  0.
        4    1    3    3  502    0  0.33045447679E+03 -0.33211089322E+03  0.17640839379E+04  0.18252373981E+04  0.12699999809E+01 0.  1.
       -4    1    3    3    0  502 -0.33045447679E+03  0.33211089322E+03 -0.74515838685E+03  0.88020477221E+03  0.12699999809E+01 0. -1.
</event>
<event>
 5   0  0.1078103E-05  0.3071360E+04  0.7818609E-02  0.8223642E-01
       -1   -1    0    0    0  501  0.00000000000E+00  0.00000000000E+00  0.91199737490E+03  0.91199737491E+03  0.50400001928E-02 0.  1.
        1   -1    0    0  501    0  0.00000000000E+00  0.00000000000E+00 -0.25858777341E+04  0.25858777341E+04  0.50400001928E-02 0. -1.
    10030    2    1    2    0    0  0.00000000000E+00  0.00000000000E+00 -0.16738803592E+04  0.34978751090E+04  0.30713604186E+04 0.  0.
        1    1    3    3  502    0 -0.11905885995E+04  0.88295768420E+03 -0.37969026104E+03  0.15301242367E+04  0.50400001928E-02 0.  1.
       -1    1    3    3    0  502  0.11905885995E+04 -0.88295768420E+03 -0.12941900981E+04  0.19677508723E+04  0.50400001928E-02 0. -1.
</event>
<event>
 5   0  0.2697964E-05  0.2702058E+04  0.7818609E-02  0.8334338E-01
       -2   -1    0    0    0  501  0.00000000000E+00  0.00000000000E+00  0.18892174521E+04  0.18892174521E+04  0.25500000920E-02 0.  1.
        2   -1    0    0  501    0  0.00000000000E+00  0.00000000000E+00 -0.96615597606E+03  0.96615597606E+03  0.25500000920E-02 0. -1.
    10030    2    1    2    0    0  0.00000000000E+00  0.00000000000E+00  0.92306147608E+03  0.28553734282E+04  0.27020575356E+04 0.  0.
        1    1    3    3  502    0  0.22147199956E+03 -0.78472526679E+03 -0.67682698218E+03  0.10596878572E+04  0.50400001928E-02 0. -1.
       -1    1    3    3    0  502 -0.22147199956E+03  0.78472526679E+03  0.15998884583E+04  0.17956855710E+04  0.50400001928E-02 0.  1.
</event>
<event>
 5   0  0.1017456E-05  0.2761782E+04  0.7818609E-02  0.8315233E-01
        1   -1    0    0  501    0  0.00000000000E+00  0.00000000000E+00  0.33639515128E+04  0.33639515128E+04  0.50400001928E-02 0.  1.
       -1   -1    0    0    0  501  0.00000000000E+00  0.00000000000E+00 -0.56685100333E+03  0.56685100335E+03  0.50400001928E-02 0. -1.
    10030    2    1    2    0    0  0.00000000000E+00  0.00000000000E+00  0.27971005095E+04  0.39308025161E+04  0.27617815194E+04 0.  0.
        5    1    3    3  502    0 -0.39697611912E+03  0.23098179396E+02 -0.48358684065E+03  0.62610054104E+03  0.46999998093E+01 0. -1.
       -5    1    3    3    0  502  0.39697611912E+03 -0.23098179396E+02  0.32806873501E+04  0.33047019751E+04  0.46999998093E+01 0.  1.
</event>
<event>
 5   0  0.1017456E-05  0.2821600E+04  0.7818609E-02  0.8296594E-01
        1   -1    0    0  501    0  0.00000000000E+00  0.00000000000E+00  0.11312572075E+04  0.11312572075E+04  0.50400001928E-02 0. -1.
       -1   -1    0    0    0  501  0.00000000000E+00  0.00000000000E+00 -0.17594203478E+04  0.17594203478E+04  0.50400001928E-02 0.  1.
    10030    2    1    2    0    0  0.00000000000E+00  0.00000000000E+00 -0.62816314036E+03  0.28906775553E+04  0.28216002193E+04 0.  0.
        5    1    3    3  502    0  0.77744316364E+02  0.11113060546E+04  0.57272520638E+03  0.12526298646E+04  0.46999998093E+01 0. -1.
       -5    1    3    3    0  502 -0.77744316364E+02 -0.11113060546E+04 -0.12008883467E+04  0.16380476907E+04  0.46999998093E+01 0.  1.
</event>
<event>
 5   0  0.1067434E-05  0.1576760E+04  0.7818609E-02  0.8834954E-01
        1   -1    0    0  501    0  0.00000000000E+00  0.00000000000E+00  0.12310822626E+04  0.12310822626E+04  0.50400001928E-02 0. -1.
       -1   -1    0    0    0  501  0.00000000000E+00  0.00000000000E+00 -0.50487531898E+03  0.50487531900E+03  0.50400001928E-02 0.  1.
    10030    2    1    2    0    0  0.00000000000E+00  0.00000000000E+00  0.72620694361E+03  0.17359575816E+04  0.15767600325E+04 0.  0.
        4    1    3    3  502    0  0.64051611030E+03 -0.38931115847E+03  0.63214780419E+03  0.98052869662E+03  0.12699999809E+01 0. -1.
       -4    1    3    3    0  502 -0.64051611030E+03  0.38931115847E+03  0.94059139427E+02  0.75542888498E+03  0.12699999809E+01 0.  1.
</event>
<event>
 5   0  0.1105862E-05  0.2498130E+04  0.7818609E-02  0.8403652E-01
        1   -1    0    0  501    0  0.00000000000E+00  0.00000000000E+00  0.15925997765E+04  0.15925997765E+04  0.50400001928E-02 0. -1.
       -1   -1    0    0    0  501  0.00000000000E+00  0.00000000000E+00 -0.97963324096E+03  0.97963324097E+03  0.50400001928E-02 0.  1.
    10030    2    1    2    0    0  0.00000000000E+00  0.00000000000E+00  0.61296653552E+03  0.25722330175E+04  0.24981302453E+04 0.  0.
        3    1    3    3  502    0  0.31191819996E+03 -0.72910510681E+03  0.13001357951E+04  0.15229052223E+04  0.10100000352E+00 0. -1.
       -3    1    3    3    0  502 -0.31191819996E+03  0.72910510681E+03 -0.68716925955E+03  0.10493277952E+04  0.10100000352E+00 0.  1.
</event>
<event>
 5   0  0.1105862E-05  0.1654000E+04  0.7818609E-02  0.8788044E-01
        1   -1    0    0  501    0  0.00000000000E+00  0.00000000000E+00  0.12796153865E+04  0.12796153865E+04  0.50400001928E-02 0. -1.
       -1   -1    0    0    0  501  0.00000000000E+00  0.00000000000E+00 -0.53448022124E+03  0.53448022126E+03  0.50400001928E-02 0.  1.
    10030    2    1    2    0    0  0.00000000000E+00  0.00000000000E+00  0.74513516525E+03  0.18140956078E+04  0.16540001389E+04 0.  0.
        3    1    3    3  502    0 -0.52098848811E+03  0.64219261455E+03  0.36223524833E+03  0.90280382380E+03  0.10100000352E+00 0.  1.
       -3    1    3    3    0  502  0.52098848811E+03 -0.64219261455E+03  0.38289991692E+03  0.91129178396E+03  0.10100000352E+00 0. -1.
</event>
<event>
 5   0  0.1067434E-05  0.2744414E+04  0.7818609E-02  0.8320736E-01
        1   -1    0    0  501    0  0.00000000000E+00  0.00000000000E+00  0.16449665505E+04  0.16449665505E+04  0.50400001928E-02 0.  1.
       -1   -1    0    0    0  501  0.00000000000E+00  0.00000000000E+00 -0.11446747402E+04  0.11446747402E+04  0.50400001928E-02 0. -1.
    10030    2    1    2    0    0  0.00000000000E+00  0.00000000000E+00  0.50029181024E+03  0.27896412907E+04  0.27444137143E+04 0.  0.
        4    1    3    3  502    0 -0.98256799216E+03  0.32447424636E+03 -0.66594252728E+03  0.12305301533E+04  0.12699999809E+01 0. -1.
       -4    1    3    3    0  502  0.98256799216E+03 -0.32447424636E+03  0.11662343375E+04  0.15591111374E+04  0.12699999809E+01 0.  1.
</event>
<event>
 5   0  0.1105862E-05  0.2633561E+04  0.7818609E-02  0.8356890E-01
        1   -1    0    0  501    0  0.00000000000E+00  0.00000000000E+00  0.19979096815E+04  0.19979096815E+04  0.50400001928E-02 0. -1.
       -1   -1    0    0    0  501  0.00000000000E+00  0.00000000000E+00 -0.86786235983E+03  0.86786235984E+03  0.50400001928E-02 0.  1.
    10030    2    1    2    0    0  0.00000000000E+00  0.00000000000E+00  0.11300473216E+04  0.28657720413E+04  0.26335607917E+04 0.  0.
        3    1    3    3  502    0 -0.25974261203E+03  0.70211210830E+03 -0.61376700431E+03  0.96805866708E+03  0.10100000352E+00 0. -1.
       -3    1    3    3    0  502  0.25974261203E+03 -0.70211210830E+03  0.17438143259E+04  0.18977133742E+04  0.10100000352E+00 0.  1.
</event>
<event>
 5   0  0.1078103E-05  0.2612325E+04  0.7818609E-02  0.8364027E-01
       -1   -1    0    0    0  501  0.00000000000E+00  0.00000000000E+00  0.20556675179E+04  0.20556675179E+04  0.50400001928E-02 0. -1.
        1   -1    0    0  501    0  0.00000000000E+00  0.00000000000E+00 -0.82993032704E+03  0.82993032705E+03  0.50400001928E-02 0.  1.
    10030    2    1    2    0    0  0.00000000000E+00  0.00000000000E+00  0.12257371909E+04  0.28855978450E+04  0.26123252596E+04 0.  0.
        1    1    3    3  502    0  0.83147913074E+03  0.68267259292E+03  0.14310710149E+04  0.17903529439E+04  0.50400001928E-02 0. -1.
       -1    1    3    3    0  502 -0.83147913074E+03 -0.68267259292E+03 -0.20533382405E+03  0.10952449011E+04  0.50400001928E-02 0.  1.
</event>
<event>
 5   0  0.1017456E-05  0.2197935E+04  0.7818609E-02  0.8519288E-01
       -1   -1    0    0    0  501  0.00000000000E+00  0.00000000000E+00  0.10511343681E+04  0.10511343681E+04  0.50400001928E-02 0. -1.
        1   -1    0    0  501    0  0.00000000000E+00  0.00000000000E+00 -0.11489778101E+04  0.11489778101E+04  0.50400001928E-02 0.  1.
    10030    2    1    2    0    0  0.00000000000E+00  0.00000000000E+00 -0.97843442026E+02  0.22001121782E+04  0.21979354535E+04 0.  0.
        5    1    3    3  502    0  0.80139688116E+03 -0.67989850084E+03  0.27265808112E+03  0.10857547844E+04  0.46999998093E+01 0.  1.
       -5    1    3    3    0  502 -0.80139688116E+03  0.67989850084E+03 -0.37050152315E+03  0.11143573938E+04  0.46999998093E+01 0. -1.
</event>
<event>
 5   0  0.2651061E-05  0.2783478E+04  0.7818609E-02  0.8308416E-01
        2   -1    0    0  501    0  0.00000000000E+00  0.00000000000E+00  0.87261137815E+03  0.87261137815E+03  0.25500000920E-02 0. -1.
       -2   -1    0    0    0  501  0.00000000000E+00  0.00000000000E+00 -0.22197020175E+04  0.22197020175E+04  0.25500000920E-02 0.  1.
    10030    2    1    2    0    0  0.00000000000E+00  0.00000000000E+00 -0.13470906394E+04  0.30923133957E+04  0.27834778509E+04 0.  0.
        3    1    3    3  502    0 -0.82252579657E+03  0.10960247383E+04 -0.94366532515E+03  0.16638278664E+04  0.10100000352E+00 0.  1.
       -3    1    3    3    0  502  0.82252579657E+03 -0.10960247383E+04 -0.40342531424E+03  0.14284855293E+04  0.10100000352E+00 0. -1.
</event>
<event>
 5   0  0.2588048E-05  0.2596652E+04  0.7818609E-02  0.8369339E-01
        2   -1    0    0  501    0  0.00000000000E+00  0.00000000000E+00  0.12728838449E+04  0.12728838449E+04  0.25500000920E-02 0.  1.
       -2   -1    0    0    0  501  0.00000000000E+00  0.00000000000E+00 -0.13242769409E+04  0.13242769409E+04  0.25500000920E-02 0. -1.
    10030    2    1    2    0    0  0.00000000000E+00  0.00000000000E+00 -0.51393095976E+02  0.25971607858E+04  0.25966522480E+04 0.  0.
        2    1    3    3  502    0  0.23274902778E+03  0.41221401706E+03 -0.12348825338E+04  0.13225079879E+04  0.25500000920E-02 0. -1.
       -2    1    3    3    0  502 -0.23274902778E+03 -0.41221401706E+03  0.11834894378E+04  0.12746527979E+04  0.25500000920E-02 0.  1.
</event>
<event>
 5   0  0.1017456E-05  0.2774258E+04  0.7818609E-02  0.8311305E-01
       -1   -1    0    0    0  501  0.00000000000E+00  0.00000000000E+00  0.15098805954E+04  0.15098805954E+04  0.50400001928E-02 0. -1.
        1   -1    0    0  501    0  0.00000000000E+00  0.00000000000E+00 -0.12743566101E+04  0.12743566101E+04  0.50400001928E-02 0.  1.
    10030    2    1    2    0    0  0.00000000000E+00  0.00000000000E+00  0.23552398530E+03  0.27842372055E+04  0.27742576068E+04 0.  0.
        5    1    3    3  502    0  0.11529211535E+04 -0.22970623604E+03  0.85669317189E+03  0.14546262138E+04  0.46999998093E+01 0. -1.
       -5    1    3    3    0  502 -0.11529211535E+04  0.22970623604E+03 -0.62116918659E+03  0.13296109917E+04  0.46999998093E+01 0.  1.
</event>
<event>
 5   0  0.2651061E-05  0.2655787E+04  0.7818609E-02  0.8349495E-01
       -2   -1    0    0    0  501  0.00000000000E+00  0.00000000000E+00  0.61585254771E+03  0.61585254771E+03  0.25500000920E-02 0. -1.
        2   -1    0    0  501    0  0.00000000000E+00  0.00000000000E+00 -0.28631877894E+04  0.28631877894E+04  0.25500000920E-02 0.  1.
    10030    2    1    2    0    0  0.00000000000E+00  0.00000000000E+00 -0.22473352417E+04  0.34790403371E+04  0.26557872616E+04 0.  0.
        3    1    3    3  502    0 -0.73360115211E+03 -0.64336057971E+03  0.56204582143E+02  0.97736505521E+03  0.10100000352E+00 0. -1.
       -3    1    3    3    0  502  0.73360115211E+03  0.64336057971E+03 -0.23035398238E+04  0.25016752819E+04  0.10100000352E+00 0.  1.
</event>
<event>
 5   0  0.2697964E-05  0.2773839E+04  0.7818609E-02  0.8311437E-01
       -2   -1    0    0    0  501  0.00000000000E+00  0.00000000000E+00  0.10103811515E+04  0.10103811515E+04  0.25500000920E-02 0. -1.
        2   -1    0    0  501    0  0.00000000000E+00  0.00000000000E+00 -0.19037826584E+04  0.19037826584E+04  0.25500000920E-02 0.  1.
    10030    2    1    2    0    0  0.00000000000E+00  0.00000000000E+00 -0.89340150687E+03  0.29141638099E+04  0.27738392993E+04 0.  0.
        1    1    3    3  502    0  0.12575271429E+04 -0.31424287743E+03 -0.96503926926E+03  0.16159900657E+04  0.50400001928E-02 0.  1.
       -1    1    3    3    0  502 -0.12575271429E+04  0.31424287743E+03  0.71637762387E+02  0.12981737442E+04  0.50400001928E-02 0. -1.
</event>
<event>
 5   0  0.2624815E-05  0.2704203E+04  0.7818609E-02  0.8333642E-01
       -2   -1    0    0    0  501  0.00000000000E+00  0.00000000000E+00  0.77535783907E+03  0.77535783907E+03  0.25500000920E-02 0. -1.
        2   -1    0    0  501    0  0.00000000000E+00  0.00000000000E+00 -0.23578521006E+04  0.23578521006E+04  0.25500000920E-02 0.  1.
    10030    2    1    2    0    0  0.00000000000E+00  0.00000000000E+00 -0.15824942615E+04  0.31332099397E+04  0.27042034757E+04 0.  0.
        4    1    3    3  502    0  0.39846376791E+03 -0.12686905407E+04 -0.10746498073E+04  0.17097435140E+04  0.12699999809E+01 0.  1.
       -4    1    3    3    0  502 -0.39846376791E+03  0.12686905407E+04 -0.50784445426E+03  0.14234664257E+04  0.12699999809E+01 0. -1.
</event>
<event>
 5   0  0.2588048E-05  0.2322708E+04  0.7818609E-02  0.8469021E-01
       -2   -1    0    0    0  501  0.00000000000E+00  0.00000000000E+00  0.53433442328E+03  0.53433442328E+03  0.25500000920E-02 0.  1.
        2   -1    0    0  501    0  0.00000000000E+00  0.00000000000E+00 -0.25241557777E+04  0.25241557777E+04  0.25500000920E-02 0. -1.
    10030    2    1    2    0    0  0.00000000000E+00  0.00000000000E+00 -0.19898213544E+04  0.30584902010E+04  0.23227081795E+04 0.  0.
        2    1    3    3  502    0 -0.91343213915E+03  0.32232413307E+03 -0.18385657066E+04  0.20781181336E+04  0.25500000920E-02 0.  1.
       -2    1    3    3    0  502  0.91343213915E+03 -0.32232413307E+03 -0.15125564784E+03  0.98037206743E+03  0.25500000920E-02 0. -1.
</event>
<event>
 5   0  0.1017456E-05  0.1519352E+04  0.7818609E-02  0.8871685E-01
       -1   -1    0    0    0  501  0.00000000000E+00  0.00000000000E+00  0.51424078024E+03  0.51424078027E+03  0.50400001928E-02 0.  1.
        1   -1    0    0  501    0  0.00000000000E+00  0.00000000000E+00 -0.11222511620E+04  0.11222511620E+04  0.50400001928E-02 0. -1.
    10030    2    1    2    0    0  0.00000000000E+00  0.00000000000E+00 -0.60801038172E+03  0.16364919422E+04  0.15193515896E+04 0.  0.
        5    1    3    3  502    0  0.66441346699E+03  0.21610482309E+03 -0.62522395777E+03  0.93758926885E+03  0.46999998093E+01 0. -1.
       -5    1    3    3    0  502 -0.66441346699E+03 -0.21610482309E+03  0.17213576053E+02  0.69890267340E+03  0.46999998093E+01 0.  1.
</event>
<event>
 5   0  0.2588048E-05  0.2718929E+04  0.7818609E-02  0.8328889E-01
       -2   -1    0    0    0  501  0.00000000000E+00  0.00000000000E+00  0.68563433674E+03  0.68563433675E+03  0.25500000920E-02 0.  1.
        2   -1    0    0  501    0  0.00000000000E+00  0.00000000000E+00 -0.26955242016E+04  0.26955242016E+04  0.25500000920E-02 0. -1.
    10030    2    1    2    0    0  0.00000000000E+00  0.00000000000E+00 -0.20098898649E+04  0.33811585384E+04  0.27189291629E+04 0.  0.
        2    1    3    3  502    0  0.89708003496E+03  0.88662558203E+03 -0.37416758620E+03  0.13156211059E+04  0.25500000920E-02 0. -1.
       -2    1    3    3    0  502 -0.89708003496E+03 -0.88662558203E+03 -0.16357222787E+04  0.20655374325E+04  0.25500000920E-02 0.  1.
</event>
<event>
 5   0  0.1017456E-05  0.1743319E+04  0.7818609E-02  0.8737036E-01
       -1   -1    0    0    0  501  0.00000000000E+00  0.00000000000E+00  0.14224994175E+04  0.14224994175E+04  0.50400001928E-02 0.  1.
        1   -1    0    0  501    0  0.00000000000E+00  0.00000000000E+00 -0.53412351042E+03  0.53412351044E+03  0.50400001928E-02 0. -1.
    10030    2    1    2    0    0  0.00000000000E+00  0.00000000000E+00  0.88837590706E+03  0.19566229279E+04  0.17433191130E+04 0.  0.
        5    1    3    3  502    0 -0.33764727510E+03 -0.72409439170E+03  0.83532492326E+03  0.11559014612E+04  0.46999998093E+01 0.  1.
       -5    1    3    3    0  502  0.33764727510E+03  0.72409439170E+03  0.53050983795E+02  0.80072146677E+03  0.46999998093E+01 0. -1.
</event>
<event>
 5   0  0.1067434E-05  0.2806843E+04  0.7818609E-02  0.8301147E-01
       -1   -1    0    0    0  501  0.00000000000E+00  0.00000000000E+00  0.25464051526E+04  0.25464051526E+04  0.50400001928E-02 0.  1.
        1   -1    0    0  501    0  0.00000000000E+00  0.00000000000E+00 -0.77347919089E+03  0.77347919091E+03  0.50400001928E-02 0. -1.
    10030    2    1    2    0    0  0.00000000000E+00  0.00000000000E+00  0.17729259617E+04  0.33198843435E+04  0.28068426370E+04 0.  0.
        4    1    3    3  502    0 -0.37684482184E+03  0.87492487940E+03 -0.33248274080E+03  0.10089856045E+04  0.12699999809E+01 0. -1.
       -4    1    3    3    0  502  0.37684482184E+03 -0.87492487940E+03  0.21054087025E+04  0.23108987390E+04  0.12699999809E+01 0.  1.
</event>
<event>
 5   0  0.1075146E-05  0.2801847E+04  0.7818609E-02  0.8302695E-01
       -1   -1    0    0    0  501  0.00000000000E+00  0.00000000000E+00  0.16031411402E+04  0.16031411402E+04  0.50400001928E-02 0.  1.
        1   -1    0    0  501    0  0.00000000000E+00  0.00000000000E+00 -0.12242136546E+04  0.12242136546E+04  0.50400001928E-02 0. -1.
    10030    2    1    2    0    0  0.00000000000E+00  0.00000000000E+00  0.37892748561E+03  0.28273547949E+04  0.28018474435E+04 0.  0.
        2    1    3    3  502    0 -0.11677909554E+04 -0.13322191240E+03  0.95870499037E+03  0.15167725775E+04  0.25500000920E-02 0.  1.
       -2    1    3    3    0  502  0.11677909554E+04  0.13322191240E+03 -0.57977750476E+03  0.13105822173E+04  0.25500000920E-02 0. -1.
</event>
<event>
 5   0  0.1067434E-05  0.2780102E+04  0.7818609E-02  0.8309473E-01
       -1   -1    0    0    0  501  0.00000000000E+00  0.00000000000E+00  0.25663595451E+04  0.25663595451E+04  0.50400001928E-02 0. -1.
        1   -1    0    0  501    0  0.00000000000E+00  0.00000000000E+00 -0.75291146116E+03  0.75291146117E+03  0.50400001928E-02 0.  1.
    10030    2    1    2    0    0  0.00000000000E+00  0.00000000000E+00  0.18134480840E+04  0.33192710063E+04  0.27801018075E+04 0.  0.
        4    1    3    3  502    0  0.79420604026E+03 -0.59169575413E+03 -0.25782391591E+03  0.10233972271E+04  0.12699999809E+01 0.  1.
       -4    1    3    3    0  502 -0.79420604026E+03  0.59169575413E+03  0.20712719999E+04  0.22958737792E+04  0.12699999809E+01 0. -1.
</event>
<event>
 5   0  0.2697964E-05  0.2819615E+04  0.7818609E-02  0.8297205E-01
       -2   -1    0    0    0  501  0.00000000000E+00  0.00000000000E+00  0.89719955974E+03  0.89719955974E+03  0.25500000920E-02 0. -1.
        2   -1    0    0  501    0  0.00000000000E+00  0.00000000000E+00 -0.22152896023E+04  0.22152896023E+04  0.25500000920E-02 0.  1.
    10030    2    1    2    0    0  0.00000000000E+00  0.00000000000E+00 -0.13180900426E+04  0.31124891620E+04  0.28196147651E+04 0.  0.
        1    1    3    3  502    0 -0.47043581342E+03 -0.44518017720E+03  0.72324646477E+03  0.97086595034E+03  0.50400001928E-02 0. -1.
       -1    1    3    3    0  502  0.47043581342E+03  0.44518017720E+03 -0.20413365073E+04  0.21416232117E+04  0.50400001928E-02 0.  1.
</event>
<event>
 5   0  0.2624815E-05  0.2823458E+04  0.7818609E-02  0.8296022E-01
        2   -1    0    0  501    0  0.00000000000E+00  0.00000000000E+00  0.22255891979E+04  0.22255891979E+04  0.25500000920E-02 0.  1.
       -2   -1    0    0    0  501  0.00000000000E+00  0.00000000000E+00 -0.89548393538E+03  0.89548393539E+03  0.25500000920E-02 0. -1.
    10030    2    1    2    0    0  0.00000000000E+00  0.00000000000E+00  0.13301052625E+04  0.31210731333E+04  0.28234584279E+04 0.  0.
        4    1    3    3  502    0 -0.27308584803E+03  0.78471147073E+03 -0.59658039791E+03  0.10228674189E+04  0.12699999809E+01 0. -1.
       -4    1    3    3    0  502  0.27308584803E+03 -0.78471147073E+03  0.19266856604E+04  0.20982057143E+04  0.12699999809E+01 0.  1.
</event>
<event>
 5   0  0.1105862E-05  0.2732563E+04  0.7818609E-02  0.8324516E-01
       -1   -1    0    0    0  501  0.00000000000E+00  0.00000000000E+00  0.92817607297E+03  0.92817607299E+03  0.50400001928E-02 0. -1.
        1   -1    0    0  501    0  0.00000000000E+00  0.00000000000E+00 -0.20111761290E+04  0.20111761290E+04  0.50400001928E-02 0.  1.
    10030    2    1    2    0    0  0.00000000000E+00  0.00000000000E+00 -0.10830000560E+04  0.29393522020E+04  0.27325633105E+04 0.  0.
        3    1    3    3  502    0 -0.10282374488E+04 -0.19588306741E+03 -0.14860653429E+04  0.18176998214E+04  0.10100000352E+00 0.  1.
       -3    1    3    3    0  502  0.10282374488E+04  0.19588306741E+03  0.40306528683E+03  0.11216523806E+04  0.10100000352E+00 0. -1.
</event>
<event>
 5   0  0.2651061E-05  0.2845633E+04  0.7818609E-02  0.8289239E-01
        2   -1    0    0  501    0  0.00000000000E+00  0.00000000000E+00  0.11334667988E+04  0.11334667988E+04  0.25500000920E-02 0.  1.
       -2   -1    0    0    0  501  0.00000000000E+00  0.00000000000E+00 -0.17860312624E+04  0.17860312624E+04  0.25500000920E-02 0. -1.
    10030    2    1    2    0    0  0.00000000000E+00  0.00000000000E+00 -0.65256446356E+03  0.29194980612E+04  0.28456332424E+04 0.  0.
        3    1    3    3  502    0 -0.94125114181E+03 -0.29070942262E+03  0.72698241572E+03  0.12243239454E+04  0.10100000352E+00 0.  1.
       -3    1    3    3    0  502  0.94125114181E+03  0.29070942262E+03 -0.13795468793E+04  0.16951741157E+04  0.10100000352E+00 0. -1.
</event>
<event>
 5   0  0.1105862E-05  0.2852148E+04  0.7818609E-02  0.8287259E-01
        1   -1    0    0  501    0  0.00000000000E+00  0.00000000000E+00  0.21862258648E+04  0.21862258648E+04  0.50400001928E-02 0. -1.
       -1   -1    0    0    0  501  0.00000000000E+00  0.00000000000E+00 -0.93022751981E+03  0.93022751983E+03  0.50400001928E-02 0.  1.
    10030    2    1    2    0    0  0.00000000000E+00  0.00000000000E+00  0.12559983450E+04  0.31164533846E+04  0.28521482878E+04 0.  0.
        3    1    3    3  502    0  0.38325999761E+03  0.64741694112E+03 -0.69573220052E+03  0.10247342223E+04  0.10100000352E+00 0.  1.
       -3    1    3    3    0  502 -0.38325999761E+03 -0.64741694112E+03  0.19517305455E+04  0.20917191623E+04  0.10100000352E+00 0. -1.
</event>
<event>
 5   0  0.1075146E-05  0.2838838E+04  0.7818609E-02  0.8291311E-01
        1   -1    0    0  501    0  0.00000000000E+00  0.00000000000E+00  0.20373645799E+04  0.20373645799E+04  0.50400001928E-02 0. -1.
       -1   -1    0    0    0  501  0.00000000000E+00  0.00000000000E+00 -0.98889989877E+03  0.98889989878E+03  0.50400001928E-02 0.  1.
    10030    2    1    2    0    0  0.00000000000E+00  0.00000000000E+00  0.10484646811E+04  0.30262644787E+04  0.28388375275E+04 0.  0.
        2    1    3    3  502    0 -0.97486217541E+03 -0.85099362729E+03 -0.97545939890E+02  0.12977139997E+04  0.25500000920E-02 0.  1.
       -2    1    3    3    0  502  0.97486217541E+03  0.85099362729E+03  0.11460106210E+04  0.17285504789E+04  0.25500000920E-02 0. -1.
</event>
<event>
 5   0  0.2588048E-05  0.2805610E+04  0.7818609E-02  0.8301529E-01
       -2   -1    0    0    0  501  0.00000000000E+00  0.00000000000E+00  0.11055721031E+04  0.11055721031E+04  0.25500000920E-02 0.  1.
        2   -1    0    0  501    0  0.00000000000E+00  0.00000000000E+00 -0.17799494539E+04  0.17799494539E+04  0.25500000920E-02 0. -1.
    10030    2    1    2    0    0  0.00000000000E+00  0.00000000000E+00 -0.67437735077E+03  0.28855215570E+04  0.28056104228E+04 0.  0.
        2    1    3    3  502    0 -0.62897992256E+03  0.11578460539E+04  0.15780883716E+03  0.13270745483E+04  0.25500000920E-02 0. -1.
       -2    1    3    3    0  502  0.62897992256E+03 -0.11578460539E+04 -0.83218618793E+03  0.15584470087E+04  0.25500000920E-02 0.  1.
</event>
<event>
 5   0  0.1017456E-05  0.2792697E+04  0.7818609E-02  0.8305539E-01
       -1   -1    0    0    0  501  0.00000000000E+00  0.00000000000E+00  0.11225071007E+04  0.11225071007E+04  0.50400001928E-02 0.  1.
        1   -1    0    0  501    0  0.00000000000E+00  0.00000000000E+00 -0.17369945927E+04  0.17369945927E+04  0.50400001928E-02 0. -1.
    10030    2    1    2    0    0  0.00000000000E+00  0.00000000000E+00 -0.61448749196E+03  0.28595016934E+04  0.27926967356E+04 0.  0.
        5    1    3    3  502    0 -0.13399123184E+04 -0.26397138289E+03 -0.60527479286E+03  0.14937956944E+04  0.46999998093E+01 0. -1.
       -5    1    3    3    0  502  0.13399123184E+04  0.26397138289E+03 -0.92126991013E+01  0.13657059990E+04  0.46999998093E+01 0.  1.
</event>
<event>
 5   0  0.1078103E-05  0.1829941E+04  0.7818609E-02  0.8690537E-01
       -1   -1    0    0    0  501  0.00000000000E+00  0.00000000000E+00  0.70414316046E+03  0.70414316048E+03  0.50400001928E-02 0.  1.
        1   -1    0    0  501    0  0.00000000000E+00  0.00000000000E+00 -0.11889212774E+04  0.11889212774E+04  0.50400001928E-02 0. -1.
    10030    2    1    2    0    0  0.00000000000E+00  0.00000000000E+00 -0.48477811689E+03  0.18930644378E+04  0.18299407485E+04 0.  0.
        1    1    3    3  502    0  0.39769114333E+03 -0.82045415512E+03 -0.32163109803E+03  0.96682461149E+03  0.50400001928E-02 0.  1.
       -1    1    3    3    0  502 -0.39769114333E+03  0.82045415512E+03 -0.16314701887E+03  0.92623982635E+03  0.50400001928E-02 0. -1.
</event>
<event>
 5   0  0.2624815E-05  0.2774698E+04  0.7818609E-02  0.8311167E-01
       -2   -1    0    0    0  501  0.00000000000E+00  0.00000000000E+00  0.71482352476E+03  0.71482352476E+03  0.25500000920E-02 0.  1.
        2   -1    0    0  501    0  0.00000000000E+00  0.00000000000E+00 -0.26926044741E+04  0.26926044741E+04  0.25500000920E-02 0. -1.
    10030    2    1    2    0    0  0.00000000000E+00  0.00000000000E+00 -0.19777809493E+04  0.34074279988E+04  0.27746978365E+04 0.  0.
        4    1    3    3  502    0  0.75954330788E+03  0.11444711713E+04 -0.12283262912E+04  0.18426902585E+04  0.12699999809E+01 0. -1.
       -4    1    3    3    0  502 -0.75954330788E+03 -0.11444711713E+04 -0.74945465814E+03  0.15647377403E+04  0.12699999809E+01 0.  1.
</event>
<event>
 5   0  0.1078103E-05  0.2456835E+04  0.7818609E-02  0.8418527E-01
       -1   -1    0    0    0  501  0.00000000000E+00  0.00000000000E+00  0.75598896024E+03  0.75598896026E+03  0.50400001928E-02 0.  1.
        1   -1    0    0  501    0  0.00000000000E+00  0.00000000000E+00 -0.19960733726E+04  0.19960733726E+04  0.50400001928E-02 0. -1.
    10030    2    1    2    0    0  0.00000000000E+00  0.00000000000E+00 -0.12400844123E+04  0.27520623328E+04  0.24568349017E+04 0.  0.
        1    1    3    3  502    0 -0.39605070518E+03  0.11089995956E+04 -0.22834734138E+03  0.11995327309E+04  0.50400001928E-02 0. -1.
       -1    1    3    3    0  502  0.39605070518E+03 -0.11089995956E+04 -0.10117370710E+04  0.15525296019E+04  0.50400001928E-02 0.  1.
</event>
<event>
 5   0  0.2624815E-05  0.1751056E+04  0.7818609E-02  0.8732769E-01
        2   -1    0    0  501    0  0.00000000000E+00  0.00000000000E+00  0.79897616813E+03  0.79897616813E+03  0.25500000920E-02 0. -1.
       -2   -1    0    0    0  501  0.00000000000E+00  0.00000000000E+00 -0.95941412542E+03  0.95941412542E+03  0.25500000920E-02 0.  1.
    10030    2    1    2    0    0  0.00000000000E+00  0.00000000000E+00 -0.16043795729E+03  0.17583902936E+04  0.17510557062E+04 0.  0.
        4    1    3    3  502    0 -0.60892659563E+03 -0.47229812820E+03  0.33708187396E+03  0.84112004103E+03  0.12699999809E+01 0. -1.
       -4    1    3    3    0  502  0.60892659563E+03  0.47229812820E+03 -0.49751983125E+03  0.91727025252E+03  0.12699999809E+01 0.  1.
</event>
<event>
 5   0  0.2518686E-05  0.2829435E+04  0.7818609E-02  0.8294188E-01
       -2   -1    0    0    0  501  0.00000000000E+00  0.00000000000E+00  0.18293198249E+04  0.18293198249E+04  0.25500000920E-02 0.  1.
        2   -1    0    0  501    0  0.00000000000E+00  0.00000000000E+00 -0.10940817834E+04  0.10940817834E+04  0.25500000920E-02 0. -1.
    10030    2    1    2    0    0  0.00000000000E+00  0.00000000000E+00  0.73523804150E+03  0.29234016082E+04  0.28294349233E+04 0.  0.
        5    1    3    3  502    0 -0.53709917605E+03 -0.39157287658E+03  0.16579323544E+04  0.17862157273E+04  0.46999998093E+01 0.  1.
       -5    1    3    3    0  502  0.53709917605E+03  0.39157287658E+03 -0.92269431295E+03  0.11371858809E+04  0.46999998093E+01 0. -1.
</event>
<event>
 5   0  0.1067434E-05  0.2150880E+04  0.7818609E-02  0.8539156E-01
        1   -1    0    0  501    0  0.00000000000E+00  0.00000000000E+00  0.23003265960E+04  0.23003265960E+04  0.50400001928E-02 0. -1.
       -1   -1    0    0    0  501  0.00000000000E+00  0.00000000000E+00 -0.50278566472E+03  0.50278566474E+03  0.50400001928E-02 0.  1.
    10030    2    1    2    0    0  0.00000000000E+00  0.00000000000E+00  0.17975409312E+04  0.28031122607E+04  0.21508800400E+04 0.  0.
        4    1    3    3  502    0 -0.21841022006E+03  0.74314516969E+03 -0.73521342778E+02  0.77805833213E+03  0.12699999809E+01 0.  1.
       -4    1    3    3    0  502  0.21841022006E+03 -0.74314516969E+03  0.18710622740E+04  0.20250539286E+04  0.12699999809E+01 0. -1.
</event>
<event>
 5   0  0.2518686E-05  0.2556772E+04  0.7818609E-02  0.8383035E-01
       -2   -1    0    0    0  501  0.00000000000E+00  0.00000000000E+00  0.10217271121E+04  0.10217271121E+04  0.25500000920E-02 0. -1.
        2   -1    0    0  501    0  0.00000000000E+00  0.00000000000E+00 -0.15995184189E+04  0.15995184189E+04  0.25500000920E-02 0.  1.
    10030    2    1    2    0    0  0.00000000000E+00  0.00000000000E+00 -0.57779130673E+03  0.26212455310E+04  0.25567724458E+04 0.  0.
        5    1    3    3  502    0 -0.10529984007E+04 -0.68053246699E+03 -0.32962544908E+02  0.12542083917E+04  0.46999998093E+01 0.  1.
       -5    1    3    3    0  502  0.10529984007E+04  0.68053246699E+03 -0.54482876183E+03  0.13670371393E+04  0.46999998093E+01 0. -1.
</event>
<event>
 5   0  0.1075146E-05  0.1496784E+04  0.7818609E-02  0.8886595E-01
       -1   -1    0    0    0  501  0.00000000000E+00  0.00000000000E+00  0.35320107848E+03  0.35320107852E+03  0.50400001928E-02 0. -1.
        1   -1    0    0  501    0  0.00000000000E+00  0.00000000000E+00 -0.15857548133E+04  0.15857548133E+04  0.50400001928E-02 0.  1.
    10030    2    1    2    0    0  0.00000000000E+00  0.00000000000E+00 -0.12325537349E+04  0.19389558919E+04  0.14967836321E+04 0.  0.
        2    1    3    3  502    0 -0.41937526593E+03  0.52210755933E+03 -0.10490664389E+04  0.12445932309E+04  0.25500000920E-02 0.  1.
       -2    1    3    3    0  502  0.41937526593E+03 -0.52210755933E+03 -0.18348729599E+03  0.69436266099E+03  0.25500000920E-02 0. -1.
</event>
<event>
 5   0  0.2588048E-05  0.2618224E+04  0.7818609E-02  0.8362037E-01
        2   -1    0    0  501    0  0.00000000000E+00  0.00000000000E+00  0.14839395534E+04  0.14839395534E+04  0.25500000920E-02 0. -1.
       -2   -1    0    0    0  501  0.00000000000E+00  0.00000000000E+00 -0.11548818085E+04  0.11548818085E+04  0.25500000920E-02 0.  1.
    10030    2    1    2    0    0  0.00000000000E+00  0.00000000000E+00  0.32905774494E+03  0.26388213619E+04  0.26182244328E+04 0.  0.
        2    1    3    3  502    0  0.50047308361E+03  0.46491507102E+03 -0.96101756268E+03  0.11790564390E+04  0.25500000920E-02 0.  1.
       -2    1    3    3    0  502 -0.50047308361E+03 -0.46491507102E+03  0.12900753076E+04  0.14597649229E+04  0.25500000920E-02 0. -1.
</event>
<event>
 5   0  0.1017456E-05  0.2845567E+04  0.7818609E-02  0.8289260E-01
       -1   -1    0    0    0  501  0.00000000000E+00  0.00000000000E+00  0.10042726240E+04  0.10042726240E+04  0.50400001928E-02 0.  1.
        1   -1    0    0  501    0  0.00000000000E+00  0.00000000000E+00 -0.20157007377E+04  0.20157007377E+04  0.50400001928E-02 0. -1.
    10030    2    1    2    0    0  0.00000000000E+00  0.00000000000E+00 -0.10114281137E+04  0.30199733618E+04  0.28455671274E+04 0.  0.
        5    1    3    3  502    0  0.32840215376E+03 -0.12133206329E+04 -0.12131229275E+04  0.17469070553E+04  0.46999998093E+01 0. -1.
       -5    1    3    3    0  502 -0.32840215376E+03  0.12133206329E+04  0.20169481379E+03  0.12730663065E+04  0.46999998093E+01 0.  1.
</event>
</LesHouchesEvents>
