<LesHouchesEvents version="3.0">
<header>
<!--
#*********************************************************************
#                                                                    *
#                        MadGraph5_aMC@NLO                           *
#                                                                    *
#                           Going Beyond                             *
#                                                                    *
#                   http://madgraph.hep.uiuc.edu                     *
#                   http://madgraph.phys.ucl.ac.be                   *
#                   http://amcatnlo.cern.ch                          *
#                                                                    *
#                     The MadGraph5_aMC@NLO team                     *
#                                                                    *
#....................................................................*
#                                                                    *
# This file contains all the information necessary to reproduce      *
# the events generated:                                              *
#                                                                    *
# 1. software version                                                *
# 2. proc_card          : code generation info including model       *
# 3. param_card         : model primary parameters in the LH format  *
# 4. run_card           : running parameters (collider and cuts)     *
# 5. pythia_card        : present only if pythia has been run        *
# 6. pgs_card           : present only if pgs has been run           *
# 7. delphes_cards      : present only if delphes has been run       *
#                                                                    *
#                                                                    *
#*********************************************************************
-->
<MGVersion>
#5.2.2.3
</MGVersion>
<MG5ProcCard>
#************************************************************
#*                     MadGraph5_aMC@NLO                    *
#*                                                          *
#*                *                       *                 *
#*                  *        * *        *                   *
#*                    * * * * 5 * * * *                     *
#*                  *        * *        *                   *
#*                *                       *                 *
#*                                                          *
#*                                                          *
#*         VERSION 2.2.3                 2015-02-10         *
#*                                                          *
#*    The MadGraph5_aMC@NLO Development Team - Find us at   *
#*    https://server06.fynu.ucl.ac.be/projects/madgraph     *
#*                                                          *
#************************************************************
#*                                                          *
#*               Command File for MadGraph5_aMC@NLO         *
#*                                                          *
#*     run as ./bin/mg5_aMC  filename                       *
#*                                                          *
#************************************************************
set group_subprocesses Auto
set ignore_six_quark_processes False
set loop_optimized_output True
set gauge unitary
set complex_mass_scheme False
import model sm
define p = g u c d s u~ c~ d~ s~
define j = g u c d s u~ c~ d~ s~
define l+ = e+ mu+
define l- = e- mu-
define vl = ve vm vt
define vl~ = ve~ vm~ vt~
import model Zprime_UFO
generate p p > zph, zph > j j
add process p p > zph, zph > b b~
output Dijet_signal
</MG5ProcCard>
<MGProcCard>
#*********************************************************************
#                        MadGraph/MadEvent                           *
#                   http://madgraph.hep.uiuc.edu                     *
#                                                                    *
#                          proc_card.dat                             *
#*********************************************************************
#                                                                    *
#            This Files is generated by MADGRAPH 5                   *
#                                                                    *
# WARNING: This Files is generated for MADEVENT (compatibility issue)*
#          This files is NOT a valid MG4 proc_card.dat               *
#          Running this in MG4 will NEVER reproduce the result of MG5*
#                                                                    *
#*********************************************************************
#*********************************************************************
# Process(es) requested : mg2 input                                  *
#*********************************************************************
# Begin PROCESS # This is TAG. Do not modify this line
p p > zph , zph > j j           #Process
# Be carefull the coupling are here in MG5 convention
          
end_coup           # End the couplings input

done               # this tells MG there are no more procs
# End PROCESS  # This is TAG. Do not modify this line
#*********************************************************************
# Model information                                                  *
#*********************************************************************
# Begin MODEL  # This is TAG. Do not modify this line
Zprime_UFO
# End   MODEL  # This is TAG. Do not modify this line
#*********************************************************************
# Start multiparticle definitions                                    *
#*********************************************************************
# Begin MULTIPARTICLES # This is TAG. Do not modify this line

# End  MULTIPARTICLES # This is TAG. Do not modify this line
</MGProcCard>
<MGRunCard>
#*********************************************************************
#                       MadGraph5_aMC@NLO                            *
#                                                                    *
#                     run_card.dat MadEvent                          *
#                                                                    *
#  This file is used to set the parameters of the run.               *
#                                                                    *
#  Some notation/conventions:                                        *
#                                                                    *
#   Lines starting with a '# ' are info or comments                  *
#                                                                    *
#   mind the format:   value    = variable     ! comment             *
#*********************************************************************
#
#*******************                                                 
# Running parameters
#*******************                                                 
#                                                                    
#*********************************************************************
# Tag name for the run (one word)                                    *
#*********************************************************************
  tag_1     = run_tag ! name of the run 
#*********************************************************************
# Run to generate the grid pack                                      *
#*********************************************************************
  .false.     = gridpack  !True = setting up the grid pack
#*********************************************************************
# Number of events and rnd seed                                      *
# Warning: Do not generate more than 1M events in a single run       *
# If you want to run Pythia, avoid more than 50k events in a run.    *
#*********************************************************************
  2000 = nevents ! Number of unweighted events requested 
 1344 = iseed   ! rnd seed (0=assigned automatically=default))
#*********************************************************************
# Collider type and energy                                           *
# lpp: 0=No PDF, 1=proton, -1=antiproton, 2=photon from proton,      *
#                                         3=photon from electron     *
#*********************************************************************
        1     = lpp1    ! beam 1 type 
        1     = lpp2    ! beam 2 type
     4000     = ebeam1  ! beam 1 total energy in GeV
     4000     = ebeam2  ! beam 2 total energy in GeV
#*********************************************************************
# Beam polarization from -100 (left-handed) to 100 (right-handed)    *
#*********************************************************************
        0     = polbeam1 ! beam polarization for beam 1
        0     = polbeam2 ! beam polarization for beam 2
#*********************************************************************
# PDF CHOICE: this automatically fixes also alpha_s and its evol.    *
#*********************************************************************
 'nn23lo1'    = pdlabel     ! PDF set                                     
 230000    = lhaid     ! if pdlabel=lhapdf, this is the lhapdf number
#*********************************************************************
# Renormalization and factorization scales                           *
#*********************************************************************
 F        = fixed_ren_scale  ! if .true. use fixed ren scale
 F        = fixed_fac_scale  ! if .true. use fixed fac scale
 91.1880  = scale            ! fixed ren scale
 91.1880  = dsqrt_q2fact1    ! fixed fact scale for pdf1
 91.1880  = dsqrt_q2fact2    ! fixed fact scale for pdf2
 1        = scalefact        ! scale factor for event-by-event scales
#*********************************************************************
# Matching - Warning! ickkw > 1 is still beta
#*********************************************************************
 0        = ickkw            ! 0 no matching, 1 MLM, 2 CKKW matching
 1        = highestmult      ! for ickkw=2, highest mult group
 1        = ktscheme         ! for ickkw=1, 1 Durham kT, 2 Pythia pTE
 1        = alpsfact         ! scale factor for QCD emission vx
 F        = chcluster        ! cluster only according to channel diag
 T        = pdfwgt           ! for ickkw=1, perform pdf reweighting
 5        = asrwgtflavor     ! highest quark flavor for a_s reweight
 T        = clusinfo         ! include clustering tag in output
 3.0      = lhe_version       ! Change the way clustering information pass to shower.        
#*********************************************************************
#**********************************************************
#
#**********************************************************
# Automatic ptj and mjj cuts if xqcut > 0
# (turn off for VBF and single top processes)
#**********************************************************
   T  = auto_ptj_mjj  ! Automatic setting of ptj and mjj
#**********************************************************
#                                                                    
#**********************************
# BW cutoff (M+/-bwcutoff*Gamma)
#**********************************
  15  = bwcutoff      ! (M+/-bwcutoff*Gamma)
#**********************************************************
# Apply pt/E/eta/dr/mij cuts on decay products or not
# (note that etmiss/ptll/ptheavy/ht/sorted cuts always apply)
#**********************************************************
   T  = cut_decays    ! Cut decay products 
#*************************************************************
# Number of helicities to sum per event (0 = all helicities)
# 0 gives more stable result, but longer run time (needed for
# long decay chains e.g.).
# Use >=2 if most helicities contribute, e.g. pure QCD.
#*************************************************************
   0  = nhel          ! Number of helicities used per event
#*******************                                                 
# Standard Cuts
#*******************                                                 
#                                                                    
#*********************************************************************
# Minimum and maximum pt's (for max, -1 means no cut)                *
#*********************************************************************
 20  = ptj       ! minimum pt for the jets 
  0  = ptb       ! minimum pt for the b 
 10  = pta       ! minimum pt for the photons 
 10  = ptl       ! minimum pt for the charged leptons 
  0  = misset    ! minimum missing Et (sum of neutrino's momenta)
  0  = ptheavy   ! minimum pt for one heavy final state
 1.0 = ptonium   ! minimum pt for the quarkonium states
 -1  = ptjmax    ! maximum pt for the jets
 -1  = ptbmax    ! maximum pt for the b
 -1  = ptamax    ! maximum pt for the photons
 -1  = ptlmax    ! maximum pt for the charged leptons
 -1  = missetmax ! maximum missing Et (sum of neutrino's momenta)
#*********************************************************************
# Minimum and maximum E's (in the center of mass frame)              *
#*********************************************************************
  0  = ej     ! minimum E for the jets 
  0  = eb     ! minimum E for the b 
  0  = ea     ! minimum E for the photons 
  0  = el     ! minimum E for the charged leptons 
 -1   = ejmax ! maximum E for the jets
 -1   = ebmax ! maximum E for the b
 -1   = eamax ! maximum E for the photons
 -1   = elmax ! maximum E for the charged leptons
#*********************************************************************
# Maximum and minimum absolute rapidity (for max, -1 means no cut)   *
#*********************************************************************
   5  = etaj    ! max rap for the jets 
  -1  = etab    ! max rap for the b
 2.5  = etaa    ! max rap for the photons 
 2.5  = etal    ! max rap for the charged leptons 
 0.6  = etaonium ! max rap for the quarkonium states
   0  = etajmin ! min rap for the jets
   0  = etabmin ! min rap for the b
   0  = etaamin ! min rap for the photons
   0  = etalmin ! main rap for the charged leptons
#*********************************************************************
# Minimum and maximum DeltaR distance                                *
#*********************************************************************
 0.4 = drjj    ! min distance between jets 
 0   = drbb    ! min distance between b's 
 0.4 = drll    ! min distance between leptons 
 0.4 = draa    ! min distance between gammas 
 0   = drbj    ! min distance between b and jet 
 0.4 = draj    ! min distance between gamma and jet 
 0.4 = drjl    ! min distance between jet and lepton 
 0   = drab    ! min distance between gamma and b 
 0   = drbl    ! min distance between b and lepton 
 0.4 = dral    ! min distance between gamma and lepton 
 -1  = drjjmax ! max distance between jets
 -1  = drbbmax ! max distance between b's
 -1  = drllmax ! max distance between leptons
 -1  = draamax ! max distance between gammas
 -1  = drbjmax ! max distance between b and jet
 -1  = drajmax ! max distance between gamma and jet
 -1  = drjlmax ! max distance between jet and lepton
 -1  = drabmax ! max distance between gamma and b
 -1  = drblmax ! max distance between b and lepton
 -1  = dralmax ! maxdistance between gamma and lepton
#*********************************************************************
# Minimum and maximum invariant mass for pairs                       *
# WARNING: for four lepton final state mmll cut require to have      *
#          different lepton masses for each flavor!                  *           
#*********************************************************************
 0   = mmjj    ! min invariant mass of a jet pair 
 0   = mmbb    ! min invariant mass of a b pair 
 0   = mmaa    ! min invariant mass of gamma gamma pair
 0   = mmll    ! min invariant mass of l+l- (same flavour) lepton pair
 -1  = mmjjmax ! max invariant mass of a jet pair
 -1  = mmbbmax ! max invariant mass of a b pair
 -1  = mmaamax ! max invariant mass of gamma gamma pair
 -1  = mmllmax ! max invariant mass of l+l- (same flavour) lepton pair
#*********************************************************************
# Minimum and maximum invariant mass for all letpons                 *
#*********************************************************************
 0   = mmnl    ! min invariant mass for all letpons (l+- and vl) 
 -1  = mmnlmax ! max invariant mass for all letpons (l+- and vl) 
#*********************************************************************
# Minimum and maximum pt for 4-momenta sum of leptons                *
#*********************************************************************
 0   = ptllmin  ! Minimum pt for 4-momenta sum of leptons(l and vl)
 -1  = ptllmax  ! Maximum pt for 4-momenta sum of leptons(l and vl)
#*********************************************************************
# Inclusive cuts                                                     *
#*********************************************************************
 0  = xptj ! minimum pt for at least one jet  
 0  = xptb ! minimum pt for at least one b 
 0  = xpta ! minimum pt for at least one photon 
 0  = xptl ! minimum pt for at least one charged lepton 
#*********************************************************************
# Control the pt's of the jets sorted by pt                          *
#*********************************************************************
 0   = ptj1min ! minimum pt for the leading jet in pt
 0   = ptj2min ! minimum pt for the second jet in pt
 0   = ptj3min ! minimum pt for the third jet in pt
 0   = ptj4min ! minimum pt for the fourth jet in pt
 -1  = ptj1max ! maximum pt for the leading jet in pt 
 -1  = ptj2max ! maximum pt for the second jet in pt
 -1  = ptj3max ! maximum pt for the third jet in pt
 -1  = ptj4max ! maximum pt for the fourth jet in pt
 0   = cutuse  ! reject event if fails any (0) / all (1) jet pt cuts
#*********************************************************************
# Control the pt's of leptons sorted by pt                           *
#*********************************************************************
 0   = ptl1min ! minimum pt for the leading lepton in pt
 0   = ptl2min ! minimum pt for the second lepton in pt
 0   = ptl3min ! minimum pt for the third lepton in pt
 0   = ptl4min ! minimum pt for the fourth lepton in pt
 -1  = ptl1max ! maximum pt for the leading lepton in pt 
 -1  = ptl2max ! maximum pt for the second lepton in pt
 -1  = ptl3max ! maximum pt for the third lepton in pt
 -1  = ptl4max ! maximum pt for the fourth lepton in pt
#*********************************************************************
# Control the Ht(k)=Sum of k leading jets                            *
#*********************************************************************
 0   = htjmin ! minimum jet HT=Sum(jet pt)
 -1  = htjmax ! maximum jet HT=Sum(jet pt)
 0   = ihtmin  !inclusive Ht for all partons (including b)
 -1  = ihtmax  !inclusive Ht for all partons (including b)
 0   = ht2min ! minimum Ht for the two leading jets
 0   = ht3min ! minimum Ht for the three leading jets
 0   = ht4min ! minimum Ht for the four leading jets
 -1  = ht2max ! maximum Ht for the two leading jets
 -1  = ht3max ! maximum Ht for the three leading jets
 -1  = ht4max ! maximum Ht for the four leading jets
#***********************************************************************
# Photon-isolation cuts, according to hep-ph/9801442                   *
# When ptgmin=0, all the other parameters are ignored                  *
# When ptgmin>0, pta and draj are not going to be used                 *
#***********************************************************************
   0 = ptgmin ! Min photon transverse momentum
 0.4 = R0gamma ! Radius of isolation code
 1.0 = xn ! n parameter of eq.(3.4) in hep-ph/9801442
 1.0 = epsgamma ! epsilon_gamma parameter of eq.(3.4) in hep-ph/9801442
 .true. = isoEM ! isolate photons from EM energy (photons and leptons)
#*********************************************************************
# WBF cuts                                                           *
#*********************************************************************
 0   = xetamin ! minimum rapidity for two jets in the WBF case  
 0   = deltaeta ! minimum rapidity for two jets in the WBF case 
#*********************************************************************
# KT DURHAM CUT                                                      *
#*********************************************************************
 -1    =  ktdurham        
 0.4  =  dparameter 
#*********************************************************************
# maximal pdg code for quark to be considered as a light jet         *
# (otherwise b cuts are applied)                                     *
#*********************************************************************
 4 = maxjetflavor    ! Maximum jet pdg code
#*********************************************************************
# Jet measure cuts                                                   *
#*********************************************************************
 0   = xqcut   ! minimum kt jet measure between partons
#*********************************************************************
#
#*********************************************************************
# Store info for systematics studies                                 *
# WARNING: If use_syst is T, matched Pythia output is                *
#          meaningful ONLY if plotted taking matchscale              *
#          reweighting into account!                                 *
#*********************************************************************
   F  = use_syst      ! Enable systematics studies
#
#**************************************
# Parameter of the systematics study
#  will be used by SysCalc (if installed)
#**************************************                                  
#
0.5 1 2 = sys_scalefact  # factorization/renormalization scale factor
0.5 1 2 = sys_alpsfact  # \alpha_s emission scale factors
30 50 = sys_matchscale # variation of merging scale
# PDF sets and number of members (0 or none for all members).
CT10nlo.LHgrid = sys_pdf # matching scales
# MSTW2008nlo68cl.LHgrid 1  = sys_pdf
</MGRunCard>
<slha>
######################################################################
## PARAM_CARD AUTOMATICALY GENERATED BY MG5 FOLLOWING UFO MODEL   ####
######################################################################
##                                                                  ##
##  Width set on Auto will be computed following the information    ##
##        present in the decay.py files of the model.               ##
##        See  arXiv:1402.1178 for more details.                    ##
##                                                                  ##
######################################################################

###################################
## INFORMATION FOR CKMBLOCK
###################################
Block ckmblock 
    1 2.277360e-01 # cabi 

###################################
## INFORMATION FOR FRBLOCK
###################################
Block frblock 
    1 6.000000e-01 # gz 

###################################
## INFORMATION FOR MASS
###################################
Block mass 
    1 5.040000e-03 # MD 
    2 2.550000e-03 # MU 
    3 1.010000e-01 # MS 
    4 1.270000e+00 # MC 
    5 4.700000e+00 # MB 
    6 1.720000e+02 # MT 
   11 5.110000e-04 # Me 
   13 1.056600e-01 # MM 
   15 1.777000e+00 # MTA 
   23 9.118760e+01 # MZ 
   25 1.200000e+02 # MH 
  10030 2.700000e+03 # MZph 
  10031 3.000000e+02 # MZpl 
## Dependent parameters, given by model restrictions.
## Those values should be edited following the 
## analytical expression. MG5 ignores those values 
## but they are important for interfacing the output of MG5
## to external program such as Pythia.
  12 0.000000 # ve : 0.0 
  14 0.000000 # vm : 0.0 
  16 0.000000 # vt : 0.0 
  21 0.000000 # g : 0.0 
  22 0.000000 # a : 0.0 
  24 79.824360 # w+ : cmath.sqrt(MZ__exp__2/2. + cmath.sqrt(MZ__exp__4/4. - (aEW*cmath.pi*MZ__exp__2)/(Gf*sqrt__2))) 

###################################
## INFORMATION FOR SMINPUTS
###################################
Block sminputs 
    1 1.279000e+02 # aEWM1 
    2 1.166370e-05 # Gf 
    3 1.184000e-01 # aS 

###################################
## INFORMATION FOR YUKAWA
###################################
Block yukawa 
    1 5.040000e-03 # ymdo 
    2 2.550000e-03 # ymup 
    3 1.010000e-01 # yms 
    4 1.270000e+00 # ymc 
    5 4.700000e+00 # ymb 
    6 1.720000e+02 # ymt 
   11 5.110000e-04 # yme 
   13 1.056600e-01 # ymm 
   15 1.777000e+00 # ymtau 

###################################
## INFORMATION FOR DECAY
###################################
DECAY   6 1.508336e+00 # WT 
DECAY  23 2.495200e+00 # WZ 
DECAY  24 2.085000e+00 # WW 
DECAY  25 5.753088e-03 # WH 
## Dependent parameters, given by model restrictions.
## Those values should be edited following the 
## analytical expression. MG5 ignores those values 
## but they are important for interfacing the output of MG5
## to external program such as Pythia.
DECAY  1 0.000000 # d : 0.0 
DECAY  2 0.000000 # u : 0.0 
DECAY  3 0.000000 # s : 0.0 
DECAY  4 0.000000 # c : 0.0 
DECAY  5 0.000000 # b : 0.0 
DECAY  11 0.000000 # e- : 0.0 
DECAY  12 0.000000 # ve : 0.0 
DECAY  13 0.000000 # mu- : 0.0 
DECAY  14 0.000000 # vm : 0.0 
DECAY  15 0.000000 # ta- : 0.0 
DECAY  16 0.000000 # vt : 0.0 
DECAY  21 0.000000 # g : 0.0 
DECAY  22 0.000000 # a : 0.0 
DECAY  10030 0.308725 # zph : (gz__exp__2*MZph*(5 + cmath.sqrt(1 - (4*MT__exp__2)/MZph__exp__2)))/(144.*cmath.pi) 
DECAY  10031 0.132629 # zpl : (5*gz__exp__2*MZpl)/(144.*cmath.pi) 
#===========================================================
# QUANTUM NUMBERS OF NEW STATE(S) (NON SM PDG CODE)
#===========================================================

Block QNUMBERS 10030  # zph 
        1 0  # 3 times electric charge
        2 3  # number of spin states (2S+1)
        3 1  # colour rep (1: singlet, 3: triplet, 8: octet)
        4 0  # Particle/Antiparticle distinction (0=own anti)
Block QNUMBERS 10031  # zpl 
        1 0  # 3 times electric charge
        2 3  # number of spin states (2S+1)
        3 1  # colour rep (1: singlet, 3: triplet, 8: octet)
        4 0  # Particle/Antiparticle distinction (0=own anti)
</slha>
## END BANNER##
<MGGenerationInfo>
#  Number of Events        :         3861
#  Integrated weight (pb)  :  0.11863E-02
#  Max wgt                 :  0.46559E-06
#  Average wgt             :  0.30725E-06
</MGGenerationInfo>
</header>
<init>
     2212     2212  0.40000000000E+04  0.40000000000E+04 0 0  247000  247000 2   1
  0.11873955742E-02  0.27478353451E-05  0.46558820000E-06   0
</init>
<event>
 5   0  0.4655882E-06  0.2680748E+04  0.7818609E-02  0.8341279E-01
       -2   -1    0    0    0  501  0.00000000000E+00  0.00000000000E+00  0.90310808495E+03  0.90310808495E+03  0.25500000920E-02 0. -1.
        2   -1    0    0  501    0  0.00000000000E+00  0.00000000000E+00 -0.19893553313E+04  0.19893553313E+04  0.25500000920E-02 0.  1.
    10030    2    1    2    0    0  0.00000000000E+00  0.00000000000E+00 -0.10862472463E+04  0.28924634162E+04  0.26807483161E+04 0.  0.
        1    1    3    3  502    0 -0.20172019013E+03  0.83396237583E+03  0.56796960857E+03  0.10289673249E+04  0.50400001928E-02 0. -1.
       -1    1    3    3    0  502  0.20172019013E+03 -0.83396237583E+03 -0.16542168549E+04  0.18634960913E+04  0.50400001928E-02 0.  1.
</event>
<event>
 5   0  0.4655882E-06  0.2703014E+04  0.7818609E-02  0.8334028E-01
        2   -1    0    0  501    0  0.00000000000E+00  0.00000000000E+00  0.26556366943E+04  0.26556366943E+04  0.25500000920E-02 0. -1.
       -2   -1    0    0    0  501  0.00000000000E+00  0.00000000000E+00 -0.68780911221E+03  0.68780911221E+03  0.25500000920E-02 0.  1.
    10030    2    1    2    0    0  0.00000000000E+00  0.00000000000E+00  0.19678275821E+04  0.33434458065E+04  0.27030139600E+04 0.  0.
        1    1    3    3  502    0 -0.90208035480E+03 -0.50466399002E+03 -0.93096060959E+02  0.10378350475E+04  0.50400001928E-02 0.  1.
       -1    1    3    3    0  502  0.90208035480E+03  0.50466399002E+03  0.20609236430E+04  0.23056107589E+04  0.50400001928E-02 0. -1.
</event>
<event>
 5   0  0.4487186E-06  0.2710885E+04  0.7818609E-02  0.8331482E-01
       -2   -1    0    0    0  501  0.00000000000E+00  0.00000000000E+00  0.11686375254E+04  0.11686375254E+04  0.25500000920E-02 0.  1.
        2   -1    0    0  501    0  0.00000000000E+00  0.00000000000E+00 -0.15721079055E+04  0.15721079055E+04  0.25500000920E-02 0. -1.
    10030    2    1    2    0    0  0.00000000000E+00  0.00000000000E+00 -0.40347038009E+03  0.27407454310E+04  0.27108849422E+04 0.  0.
        3    1    3    3  502    0  0.69026058663E+03 -0.11169073262E+04  0.13854704290E+03  0.13202791167E+04  0.10100000352E+00 0.  1.
       -3    1    3    3    0  502 -0.69026058663E+03  0.11169073262E+04 -0.54201742299E+03  0.14204663142E+04  0.10100000352E+00 0. -1.
</event>
<event>
 5   0  0.4655882E-06  0.2708754E+04  0.7818609E-02  0.8332170E-01
        2   -1    0    0  501    0  0.00000000000E+00  0.00000000000E+00  0.22854204770E+04  0.22854204770E+04  0.25500000920E-02 0.  1.
       -2   -1    0    0    0  501  0.00000000000E+00  0.00000000000E+00 -0.80262585981E+03  0.80262585981E+03  0.25500000920E-02 0. -1.
    10030    2    1    2    0    0  0.00000000000E+00  0.00000000000E+00  0.14827946172E+04  0.30880463368E+04  0.27087543819E+04 0.  0.
        1    1    3    3  502    0  0.75907398472E+03  0.26815005601E+03  0.19830508416E+04  0.21402309238E+04  0.50400001928E-02 0.  1.
       -1    1    3    3    0  502 -0.75907398472E+03 -0.26815005601E+03 -0.50025622449E+03  0.94781541293E+03  0.50400001928E-02 0. -1.
</event>
<event>
 5   0  0.4487186E-06  0.2690874E+04  0.7818609E-02  0.8337972E-01
        2   -1    0    0  501    0  0.00000000000E+00  0.00000000000E+00  0.11342357489E+04  0.11342357489E+04  0.25500000920E-02 0.  1.
       -2   -1    0    0    0  501  0.00000000000E+00  0.00000000000E+00 -0.15959652385E+04  0.15959652385E+04  0.25500000920E-02 0. -1.
    10030    2    1    2    0    0  0.00000000000E+00  0.00000000000E+00 -0.46172948960E+03  0.27302009874E+04  0.26908740792E+04 0.  0.
        3    1    3    3  502    0 -0.69989657659E+03  0.36374996899E+03 -0.13367631531E+04  0.15521291813E+04  0.10100000352E+00 0. -1.
       -3    1    3    3    0  502  0.69989657659E+03 -0.36374996899E+03  0.87503366350E+03  0.11780718061E+04  0.10100000352E+00 0.  1.
</event>
<event>
 5   0  0.1723605E-06  0.2695366E+04  0.7818609E-02  0.8336510E-01
       -1   -1    0    0    0  501  0.00000000000E+00  0.00000000000E+00  0.20915042022E+04  0.20915042022E+04  0.50400001928E-02 0. -1.
        1   -1    0    0  501    0  0.00000000000E+00  0.00000000000E+00 -0.86839398707E+03  0.86839398708E+03  0.50400001928E-02 0.  1.
    10030    2    1    2    0    0  0.00000000000E+00  0.00000000000E+00  0.12231102151E+04  0.29598981893E+04  0.26953661519E+04 0.  0.
        1    1    3    3  502    0 -0.13707048222E+03  0.13221140823E+04  0.36729360856E+03  0.13790136180E+04  0.50400001928E-02 0. -1.
       -1    1    3    3    0  502  0.13707048222E+03 -0.13221140823E+04  0.85581660657E+03  0.15808845713E+04  0.50400001928E-02 0.  1.
</event>
<event>
 5   0  0.1753474E-06  0.2704712E+04  0.7818609E-02  0.8333478E-01
        1   -1    0    0  501    0  0.00000000000E+00  0.00000000000E+00  0.23163111226E+04  0.23163111226E+04  0.50400001928E-02 0.  1.
       -1   -1    0    0    0  501  0.00000000000E+00  0.00000000000E+00 -0.78956029910E+03  0.78956029912E+03  0.50400001928E-02 0. -1.
    10030    2    1    2    0    0  0.00000000000E+00  0.00000000000E+00  0.15267508235E+04  0.31058714217E+04  0.27047124082E+04 0.  0.
        3    1    3    3  502    0 -0.75531216489E+03  0.98518481975E+02  0.20465487794E+04  0.21837042553E+04  0.10100000352E+00 0.  1.
       -3    1    3    3    0  502  0.75531216489E+03 -0.98518481975E+02 -0.51979795591E+03  0.92216716646E+03  0.10100000352E+00 0. -1.
</event>
<event>
 5   0  0.4655882E-06  0.2717553E+04  0.7818609E-02  0.8329332E-01
        2   -1    0    0  501    0  0.00000000000E+00  0.00000000000E+00  0.14530122956E+04  0.14530122956E+04  0.25500000920E-02 0. -1.
       -2   -1    0    0    0  501  0.00000000000E+00  0.00000000000E+00 -0.12706519967E+04  0.12706519967E+04  0.25500000920E-02 0.  1.
    10030    2    1    2    0    0  0.00000000000E+00  0.00000000000E+00  0.18236029896E+03  0.27236642923E+04  0.27175525567E+04 0.  0.
        1    1    3    3  502    0 -0.10429231157E+04 -0.80087430567E+03  0.43427253032E+03  0.13848035635E+04  0.50400001928E-02 0. -1.
       -1    1    3    3    0  502  0.10429231157E+04  0.80087430567E+03 -0.25191223136E+03  0.13388607288E+04  0.50400001928E-02 0.  1.
</event>
<event>
 5   0  0.1771016E-06  0.2700360E+04  0.7818609E-02  0.8334888E-01
       -1   -1    0    0    0  501  0.00000000000E+00  0.00000000000E+00  0.79794088003E+03  0.79794088005E+03  0.50400001928E-02 0.  1.
        1   -1    0    0  501    0  0.00000000000E+00  0.00000000000E+00 -0.22846127845E+04  0.22846127845E+04  0.50400001928E-02 0. -1.
    10030    2    1    2    0    0  0.00000000000E+00  0.00000000000E+00 -0.14866719044E+04  0.30825536645E+04  0.27003599285E+04 0.  0.
        2    1    3    3  502    0 -0.68021144329E+03 -0.11125466727E+04 -0.11429353192E+04  0.17339979384E+04  0.25500000920E-02 0.  1.
       -2    1    3    3    0  502  0.68021144329E+03  0.11125466727E+04 -0.34373658521E+03  0.13485557261E+04  0.25500000920E-02 0. -1.
</event>
<event>
 5   0  0.4655882E-06  0.2711043E+04  0.7818609E-02  0.8331431E-01
        2   -1    0    0  501    0  0.00000000000E+00  0.00000000000E+00  0.22560720602E+04  0.22560720602E+04  0.25500000920E-02 0. -1.
       -2   -1    0    0    0  501  0.00000000000E+00  0.00000000000E+00 -0.81444120596E+03  0.81444120597E+03  0.25500000920E-02 0.  1.
    10030    2    1    2    0    0  0.00000000000E+00  0.00000000000E+00  0.14416308542E+04  0.30705132661E+04  0.27110426403E+04 0.  0.
        1    1    3    3  502    0  0.47349983574E+03 -0.75072245811E+03  0.18811874412E+04  0.20800606945E+04  0.50400001928E-02 0. -1.
       -1    1    3    3    0  502 -0.47349983574E+03  0.75072245811E+03 -0.43955658702E+03  0.99045257169E+03  0.50400001928E-02 0.  1.
</event>
<event>
 5   0  0.1771016E-06  0.2701043E+04  0.7818609E-02  0.8334667E-01
       -1   -1    0    0    0  501  0.00000000000E+00  0.00000000000E+00  0.11490344497E+04  0.11490344497E+04  0.50400001928E-02 0.  1.
        1   -1    0    0  501    0  0.00000000000E+00  0.00000000000E+00 -0.15873393951E+04  0.15873393952E+04  0.50400001928E-02 0. -1.
    10030    2    1    2    0    0  0.00000000000E+00  0.00000000000E+00 -0.43830494544E+03  0.27363738449E+04  0.27010425013E+04 0.  0.
        2    1    3    3  502    0  0.28989225814E+03  0.10598819619E+04 -0.10146113305E+04  0.14956013662E+04  0.25500000920E-02 0. -1.
       -2    1    3    3    0  502 -0.28989225814E+03 -0.10598819619E+04  0.57630638503E+03  0.12407724787E+04  0.25500000920E-02 0.  1.
</event>
<event>
 5   0  0.4401659E-06  0.2697689E+04  0.7818609E-02  0.8335755E-01
       -2   -1    0    0    0  501  0.00000000000E+00  0.00000000000E+00  0.12141608524E+04  0.12141608524E+04  0.25500000920E-02 0.  1.
        2   -1    0    0  501    0  0.00000000000E+00  0.00000000000E+00 -0.14984677128E+04  0.14984677128E+04  0.25500000920E-02 0. -1.
    10030    2    1    2    0    0  0.00000000000E+00  0.00000000000E+00 -0.28430686049E+03  0.27126285652E+04  0.26976885183E+04 0.  0.
        5    1    3    3  502    0 -0.37244698191E+03 -0.11827909082E+04  0.39149053159E+03  0.13003837946E+04  0.46999998093E+01 0.  1.
       -5    1    3    3    0  502  0.37244698191E+03  0.11827909082E+04 -0.67579739208E+03  0.14122447706E+04  0.46999998093E+01 0. -1.
</event>
<event>
 5   0  0.1732312E-06  0.2695102E+04  0.7818609E-02  0.8336596E-01
       -1   -1    0    0    0  501  0.00000000000E+00  0.00000000000E+00  0.23980556584E+04  0.23980556584E+04  0.50400001928E-02 0. -1.
        1   -1    0    0  501    0  0.00000000000E+00  0.00000000000E+00 -0.75723578287E+03  0.75723578289E+03  0.50400001928E-02 0.  1.
    10030    2    1    2    0    0  0.00000000000E+00  0.00000000000E+00  0.16408198756E+04  0.31552914413E+04  0.26951018934E+04 0.  0.
        5    1    3    3  502    0  0.18516065438E+03  0.12933410689E+04  0.12066792694E+04  0.17785141375E+04  0.46999998093E+01 0. -1.
       -5    1    3    3    0  502 -0.18516065438E+03 -0.12933410689E+04  0.43414060622E+03  0.13767773038E+04  0.46999998093E+01 0.  1.
</event>
<event>
 5   0  0.1723605E-06  0.2698904E+04  0.7818609E-02  0.8335361E-01
        1   -1    0    0  501    0  0.00000000000E+00  0.00000000000E+00  0.15648979547E+04  0.15648979548E+04  0.50400001928E-02 0.  1.
       -1   -1    0    0    0  501  0.00000000000E+00  0.00000000000E+00 -0.11636675210E+04  0.11636675210E+04  0.50400001928E-02 0. -1.
    10030    2    1    2    0    0  0.00000000000E+00  0.00000000000E+00  0.40123043377E+03  0.27285654757E+04  0.26989041655E+04 0.  0.
        1    1    3    3  502    0  0.83253476830E+03  0.81729497929E+03  0.88625415944E+03  0.14651046579E+04  0.50400001928E-02 0.  1.
       -1    1    3    3    0  502 -0.83253476830E+03 -0.81729497929E+03 -0.48502372567E+03  0.12634608178E+04  0.50400001928E-02 0. -1.
</event>
<event>
 5   0  0.1753474E-06  0.2704928E+04  0.7818609E-02  0.8333408E-01
       -1   -1    0    0    0  501  0.00000000000E+00  0.00000000000E+00  0.67272855140E+03  0.67272855142E+03  0.50400001928E-02 0.  1.
        1   -1    0    0  501    0  0.00000000000E+00  0.00000000000E+00 -0.27190153739E+04  0.27190153739E+04  0.50400001928E-02 0. -1.
    10030    2    1    2    0    0  0.00000000000E+00  0.00000000000E+00 -0.20462868225E+04  0.33917439253E+04  0.27049282976E+04 0.  0.
        3    1    3    3  502    0 -0.65141746767E+03 -0.11699258992E+04 -0.12613470133E+04  0.18395835467E+04  0.10100000352E+00 0.  1.
       -3    1    3    3    0  502  0.65141746767E+03  0.11699258992E+04 -0.78493980916E+03  0.15521603787E+04  0.10100000352E+00 0. -1.
</event>
<event>
 5   0  0.1753474E-06  0.2695656E+04  0.7818609E-02  0.8336416E-01
        1   -1    0    0  501    0  0.00000000000E+00  0.00000000000E+00  0.19219956262E+04  0.19219956262E+04  0.50400001928E-02 0. -1.
       -1   -1    0    0    0  501  0.00000000000E+00  0.00000000000E+00 -0.94518466577E+03  0.94518466579E+03  0.50400001928E-02 0.  1.
    10030    2    1    2    0    0  0.00000000000E+00  0.00000000000E+00  0.97681096038E+03  0.28671802919E+04  0.26956563531E+04 0.  0.
        3    1    3    3  502    0  0.83253606300E+02 -0.11837633592E+04 -0.19133126733E+03  0.12020126944E+04  0.10100000352E+00 0.  1.
       -3    1    3    3    0  502 -0.83253606300E+02  0.11837633592E+04  0.11681422277E+04  0.16651675975E+04  0.10100000352E+00 0. -1.
</event>
<event>
 5   0  0.4655882E-06  0.2695874E+04  0.7818609E-02  0.8336345E-01
        2   -1    0    0  501    0  0.00000000000E+00  0.00000000000E+00  0.20069080708E+04  0.20069080708E+04  0.25500000920E-02 0. -1.
       -2   -1    0    0    0  501  0.00000000000E+00  0.00000000000E+00 -0.90534014792E+03  0.90534014792E+03  0.25500000920E-02 0.  1.
    10030    2    1    2    0    0  0.00000000000E+00  0.00000000000E+00  0.11015679228E+04  0.29122482187E+04  0.26958742179E+04 0.  0.
        1    1    3    3  502    0 -0.76235198072E+03 -0.40987283308E+03 -0.56547565701E+03  0.10338950626E+04  0.50400001928E-02 0.  1.
       -1    1    3    3    0  502  0.76235198072E+03  0.40987283308E+03  0.16670435799E+04  0.18783531561E+04  0.50400001928E-02 0. -1.
</event>
<event>
 5   0  0.1828511E-06  0.2735766E+04  0.7818609E-02  0.8323493E-01
        1   -1    0    0  501    0  0.00000000000E+00  0.00000000000E+00  0.19686055790E+04  0.19686055790E+04  0.50400001928E-02 0. -1.
       -1   -1    0    0    0  501  0.00000000000E+00  0.00000000000E+00 -0.95047174443E+03  0.95047174444E+03  0.50400001928E-02 0.  1.
    10030    2    1    2    0    0  0.00000000000E+00  0.00000000000E+00  0.10181338346E+04  0.29190773235E+04  0.27357660564E+04 0.  0.
        4    1    3    3  502    0 -0.24973645521E+03  0.11417444767E+04  0.12674320838E+04  0.17240459527E+04  0.12699999809E+01 0. -1.
       -4    1    3    3    0  502  0.24973645521E+03 -0.11417444767E+04 -0.24929824919E+03  0.11950313708E+04  0.12699999809E+01 0.  1.
</event>
<event>
 5   0  0.1723605E-06  0.2702203E+04  0.7818609E-02  0.8334291E-01
        1   -1    0    0  501    0  0.00000000000E+00  0.00000000000E+00  0.13139424877E+04  0.13139424877E+04  0.50400001928E-02 0. -1.
       -1   -1    0    0    0  501  0.00000000000E+00  0.00000000000E+00 -0.13893112035E+04  0.13893112035E+04  0.50400001928E-02 0.  1.
    10030    2    1    2    0    0  0.00000000000E+00  0.00000000000E+00 -0.75368715783E+02  0.27032536911E+04  0.27022028191E+04 0.  0.
        1    1    3    3  502    0  0.34484464968E+03  0.72494630205E+02  0.12671624632E+04  0.13152467494E+04  0.50400001928E-02 0. -1.
       -1    1    3    3    0  502 -0.34484464968E+03 -0.72494630205E+02 -0.13425311789E+04  0.13880069417E+04  0.50400001928E-02 0.  1.
</event>
<event>
 5   0  0.4448804E-06  0.2722046E+04  0.7818609E-02  0.8327887E-01
       -2   -1    0    0    0  501  0.00000000000E+00  0.00000000000E+00  0.18914350296E+04  0.18914350296E+04  0.25500000920E-02 0.  1.
        2   -1    0    0  501    0  0.00000000000E+00  0.00000000000E+00 -0.97935343776E+03  0.97935343776E+03  0.25500000920E-02 0. -1.
    10030    2    1    2    0    0  0.00000000000E+00  0.00000000000E+00  0.91208159187E+03  0.28707884674E+04  0.27220458472E+04 0.  0.
        2    1    3    3  502    0  0.22300029253E+03  0.10768926891E+04 -0.38962062874E+03  0.11667181445E+04  0.25500000920E-02 0. -1.
       -2    1    3    3    0  502 -0.22300029253E+03 -0.10768926891E+04  0.13017022206E+04  0.17040703229E+04  0.25500000920E-02 0.  1.
</event>
<event>
 5   0  0.1753474E-06  0.2704327E+04  0.7818609E-02  0.8333602E-01
        1   -1    0    0  501    0  0.00000000000E+00  0.00000000000E+00  0.19040814770E+04  0.19040814770E+04  0.50400001928E-02 0. -1.
       -1   -1    0    0    0  501  0.00000000000E+00  0.00000000000E+00 -0.96022487049E+03  0.96022487050E+03  0.50400001928E-02 0.  1.
    10030    2    1    2    0    0  0.00000000000E+00  0.00000000000E+00  0.94385660653E+03  0.28643063475E+04  0.27043271915E+04 0.  0.
        3    1    3    3  502    0 -0.12045622835E+04  0.48644782677E+03  0.74575669844E+02  0.13012160942E+04  0.10100000352E+00 0. -1.
       -3    1    3    3    0  502  0.12045622835E+04 -0.48644782677E+03  0.86928093668E+03  0.15630902533E+04  0.10100000352E+00 0.  1.
</event>
<event>
 5   0  0.4487186E-06  0.2695384E+04  0.7818609E-02  0.8336504E-01
       -2   -1    0    0    0  501  0.00000000000E+00  0.00000000000E+00  0.81782628473E+03  0.81782628473E+03  0.25500000920E-02 0. -1.
        2   -1    0    0  501    0  0.00000000000E+00  0.00000000000E+00 -0.22208551386E+04  0.22208551386E+04  0.25500000920E-02 0.  1.
    10030    2    1    2    0    0  0.00000000000E+00  0.00000000000E+00 -0.14030288538E+04  0.30386814233E+04  0.26953839852E+04 0.  0.
        3    1    3    3  502    0  0.26677805221E+03  0.90205936492E+02  0.78428502228E+03  0.83331305431E+03  0.10100000352E+00 0. -1.
       -3    1    3    3    0  502 -0.26677805221E+03 -0.90205936492E+02 -0.21873138761E+04  0.22053683690E+04  0.10100000352E+00 0.  1.
</event>
<event>
 5   0  0.1723605E-06  0.2727234E+04  0.7818609E-02  0.8326222E-01
        1   -1    0    0  501    0  0.00000000000E+00  0.00000000000E+00  0.12828529318E+04  0.12828529318E+04  0.50400001928E-02 0. -1.
       -1   -1    0    0    0  501  0.00000000000E+00  0.00000000000E+00 -0.14494661072E+04  0.14494661072E+04  0.50400001928E-02 0.  1.
    10030    2    1    2    0    0  0.00000000000E+00  0.00000000000E+00 -0.16661317544E+03  0.27323190390E+04  0.27272343831E+04 0.  0.
        1    1    3    3  502    0 -0.12841682272E+03  0.55047502075E+03  0.11599494964E+04  0.12903474195E+04  0.50400001928E-02 0. -1.
       -1    1    3    3    0  502  0.12841682272E+03 -0.55047502075E+03 -0.13265626719E+04  0.14419716194E+04  0.50400001928E-02 0.  1.
</event>
<event>
 5   0  0.4448804E-06  0.2718180E+04  0.7818609E-02  0.8329130E-01
        2   -1    0    0  501    0  0.00000000000E+00  0.00000000000E+00  0.21914806071E+04  0.21914806071E+04  0.25500000920E-02 0. -1.
       -2   -1    0    0    0  501  0.00000000000E+00  0.00000000000E+00 -0.84286626148E+03  0.84286626149E+03  0.25500000920E-02 0.  1.
    10030    2    1    2    0    0  0.00000000000E+00  0.00000000000E+00  0.13486143456E+04  0.30343468686E+04  0.27181795867E+04 0.  0.
        2    1    3    3  502    0  0.47292734814E+03  0.86581191556E+03 -0.36921498784E+03  0.10533803952E+04  0.25500000920E-02 0.  1.
       -2    1    3    3    0  502 -0.47292734814E+03 -0.86581191556E+03  0.17178293334E+04  0.19809664734E+04  0.25500000920E-02 0. -1.
</event>
<event>
 5   0  0.1771016E-06  0.2687705E+04  0.7818609E-02  0.8339005E-01
       -1   -1    0    0    0  501  0.00000000000E+00  0.00000000000E+00  0.16854310062E+04  0.16854310062E+04  0.50400001928E-02 0. -1.
        1   -1    0    0  501    0  0.00000000000E+00  0.00000000000E+00 -0.10715004594E+04  0.10715004595E+04  0.50400001928E-02 0.  1.
    10030    2    1    2    0    0  0.00000000000E+00  0.00000000000E+00  0.61393054673E+03  0.27569314656E+04  0.26877054135E+04 0.  0.
        2    1    3    3  502    0 -0.24864404593E+03 -0.80572848612E+03  0.13802997278E+04  0.16174824863E+04  0.25500000920E-02 0. -1.
       -2    1    3    3    0  502  0.24864404593E+03  0.80572848612E+03 -0.76636918103E+03  0.11394489794E+04  0.25500000920E-02 0.  1.
</event>
<event>
 5   0  0.4487186E-06  0.2709886E+04  0.7818609E-02  0.8331805E-01
       -2   -1    0    0    0  501  0.00000000000E+00  0.00000000000E+00  0.10935484218E+04  0.10935484218E+04  0.25500000920E-02 0. -1.
        2   -1    0    0  501    0  0.00000000000E+00  0.00000000000E+00 -0.16788191316E+04  0.16788191316E+04  0.25500000920E-02 0.  1.
    10030    2    1    2    0    0  0.00000000000E+00  0.00000000000E+00 -0.58527070983E+03  0.27723675534E+04  0.27098856152E+04 0.  0.
        3    1    3    3  502    0 -0.69316644088E+03 -0.18912355726E+03 -0.14678703493E+04  0.16342860237E+04  0.10100000352E+00 0.  1.
       -3    1    3    3    0  502  0.69316644088E+03  0.18912355726E+03  0.88259963943E+03  0.11380815298E+04  0.10100000352E+00 0. -1.
</event>
<event>
 5   0  0.4401659E-06  0.2724010E+04  0.7818609E-02  0.8327257E-01
        2   -1    0    0  501    0  0.00000000000E+00  0.00000000000E+00  0.20277885087E+04  0.20277885087E+04  0.25500000920E-02 0. -1.
       -2   -1    0    0    0  501  0.00000000000E+00  0.00000000000E+00 -0.91481776659E+03  0.91481776659E+03  0.25500000920E-02 0.  1.
    10030    2    1    2    0    0  0.00000000000E+00  0.00000000000E+00  0.11129707421E+04  0.29426062753E+04  0.27240095115E+04 0.  0.
        5    1    3    3  502    0 -0.10914825818E+04 -0.64182577318E+03  0.14463047054E+02  0.12662961025E+04  0.46999998093E+01 0.  1.
       -5    1    3    3    0  502  0.10914825818E+04  0.64182577318E+03  0.10985076951E+04  0.16763101728E+04  0.46999998093E+01 0. -1.
</event>
<event>
 5   0  0.1771016E-06  0.2700878E+04  0.7818609E-02  0.8334720E-01
       -1   -1    0    0    0  501  0.00000000000E+00  0.00000000000E+00  0.84726133464E+03  0.84726133466E+03  0.50400001928E-02 0. -1.
        1   -1    0    0  501    0  0.00000000000E+00  0.00000000000E+00 -0.21524474362E+04  0.21524474362E+04  0.50400001928E-02 0.  1.
    10030    2    1    2    0    0  0.00000000000E+00  0.00000000000E+00 -0.13051861016E+04  0.29997087709E+04  0.27008779962E+04 0.  0.
        2    1    3    3  502    0  0.49728238159E+02  0.32875700064E+03 -0.21062752319E+04  0.21323577128E+04  0.25500000920E-02 0.  1.
       -2    1    3    3    0  502 -0.49728238159E+02 -0.32875700064E+03  0.80108913031E+03  0.86735105802E+03  0.25500000920E-02 0. -1.
</event>
<event>
 5   0  0.4487186E-06  0.2699315E+04  0.7818609E-02  0.8335227E-01
       -2   -1    0    0    0  501  0.00000000000E+00  0.00000000000E+00  0.13668662678E+04  0.13668662678E+04  0.25500000920E-02 0.  1.
        2   -1    0    0  501    0  0.00000000000E+00  0.00000000000E+00 -0.13326650387E+04  0.13326650387E+04  0.25500000920E-02 0. -1.
    10030    2    1    2    0    0  0.00000000000E+00  0.00000000000E+00  0.34201229084E+02  0.26995313065E+04  0.26993146446E+04 0.  0.
        3    1    3    3  502    0  0.11165521597E+04 -0.55882105022E+03 -0.49539069644E+03  0.13432727362E+04  0.10100000352E+00 0. -1.
       -3    1    3    3    0  502 -0.11165521597E+04  0.55882105022E+03  0.52959192552E+03  0.13562585702E+04  0.10100000352E+00 0.  1.
</event>
<event>
 5   0  0.4655882E-06  0.2692028E+04  0.7818609E-02  0.8337596E-01
       -2   -1    0    0    0  501  0.00000000000E+00  0.00000000000E+00  0.12572284616E+04  0.12572284616E+04  0.25500000920E-02 0. -1.
        2   -1    0    0  501    0  0.00000000000E+00  0.00000000000E+00 -0.14410692403E+04  0.14410692403E+04  0.25500000920E-02 0.  1.
    10030    2    1    2    0    0  0.00000000000E+00  0.00000000000E+00 -0.18384077869E+03  0.26982977020E+04  0.26920276850E+04 0.  0.
        1    1    3    3  502    0  0.88563514452E+03 -0.10135899625E+04 -0.85657411108E+02  0.13487221409E+04  0.50400001928E-02 0. -1.
       -1    1    3    3    0  502 -0.88563514452E+03  0.10135899625E+04 -0.98183367579E+02  0.13495755611E+04  0.50400001928E-02 0.  1.
</event>
<event>
 5   0  0.1732312E-06  0.2696980E+04  0.7818609E-02  0.8335985E-01
       -1   -1    0    0    0  501  0.00000000000E+00  0.00000000000E+00  0.17550600900E+04  0.17550600900E+04  0.50400001928E-02 0. -1.
        1   -1    0    0  501    0  0.00000000000E+00  0.00000000000E+00 -0.10361044877E+04  0.10361044877E+04  0.50400001928E-02 0.  1.
    10030    2    1    2    0    0  0.00000000000E+00  0.00000000000E+00  0.71895560229E+03  0.27911645777E+04  0.26969802635E+04 0.  0.
        5    1    3    3  502    0  0.62324265158E+02  0.80578192712E+03  0.14766352470E+04  0.16833426777E+04  0.46999998093E+01 0. -1.
       -5    1    3    3    0  502 -0.62324265158E+02 -0.80578192712E+03 -0.75767964467E+03  0.11078219000E+04  0.46999998093E+01 0.  1.
</event>
<event>
 5   0  0.4487186E-06  0.2702719E+04  0.7818609E-02  0.8334123E-01
       -2   -1    0    0    0  501  0.00000000000E+00  0.00000000000E+00  0.72953048151E+03  0.72953048151E+03  0.25500000920E-02 0. -1.
        2   -1    0    0  501    0  0.00000000000E+00  0.00000000000E+00 -0.25032152787E+04  0.25032152787E+04  0.25500000920E-02 0.  1.
    10030    2    1    2    0    0  0.00000000000E+00  0.00000000000E+00 -0.17736847972E+04  0.32327457602E+04  0.27027185185E+04 0.  0.
        3    1    3    3  502    0  0.19785652900E+03  0.11809251765E+04 -0.16361455610E+04  0.20274870617E+04  0.10100000352E+00 0.  1.
       -3    1    3    3    0  502 -0.19785652900E+03 -0.11809251765E+04 -0.13753923622E+03  0.12052586985E+04  0.10100000352E+00 0. -1.
</event>
<event>
 5   0  0.1828511E-06  0.2706052E+04  0.7818609E-02  0.8333044E-01
       -1   -1    0    0    0  501  0.00000000000E+00  0.00000000000E+00  0.10077018249E+04  0.10077018250E+04  0.50400001928E-02 0. -1.
        1   -1    0    0  501    0  0.00000000000E+00  0.00000000000E+00 -0.18166872297E+04  0.18166872297E+04  0.50400001928E-02 0.  1.
    10030    2    1    2    0    0  0.00000000000E+00  0.00000000000E+00 -0.80898540473E+03  0.28243890546E+04  0.27060517635E+04 0.  0.
        4    1    3    3  502    0  0.95321138294E+03  0.95567940697E+03 -0.30690330802E+03  0.13842421475E+04  0.12699999809E+01 0. -1.
       -4    1    3    3    0  502 -0.95321138294E+03 -0.95567940697E+03 -0.50208209670E+03  0.14401469072E+04  0.12699999809E+01 0.  1.
</event>
<event>
 5   0  0.1723605E-06  0.2694065E+04  0.7818609E-02  0.8336933E-01
       -1   -1    0    0    0  501  0.00000000000E+00  0.00000000000E+00  0.89548082926E+03  0.89548082928E+03  0.50400001928E-02 0. -1.
        1   -1    0    0  501    0  0.00000000000E+00  0.00000000000E+00 -0.20262821995E+04  0.20262821995E+04  0.50400001928E-02 0.  1.
    10030    2    1    2    0    0  0.00000000000E+00  0.00000000000E+00 -0.11308013702E+04  0.29217630288E+04  0.26940652289E+04 0.  0.
        1    1    3    3  502    0 -0.13219756159E+04  0.50721213364E+02 -0.29038452111E+03  0.13544428155E+04  0.50400001928E-02 0. -1.
       -1    1    3    3    0  502  0.13219756159E+04 -0.50721213364E+02 -0.84041684911E+03  0.15673202132E+04  0.50400001928E-02 0.  1.
</event>
<event>
 5   0  0.1732312E-06  0.2696226E+04  0.7818609E-02  0.8336230E-01
        1   -1    0    0  501    0  0.00000000000E+00  0.00000000000E+00  0.23296687047E+04  0.23296687047E+04  0.50400001928E-02 0. -1.
       -1   -1    0    0    0  501  0.00000000000E+00  0.00000000000E+00 -0.78011477300E+03  0.78011477302E+03  0.50400001928E-02 0.  1.
    10030    2    1    2    0    0  0.00000000000E+00  0.00000000000E+00  0.15495539317E+04  0.31097834777E+04  0.26962262314E+04 0.  0.
        5    1    3    3  502    0 -0.40715193675E+03  0.10171616826E+04  0.16807496429E+04  0.20063230150E+04  0.46999998093E+01 0. -1.
       -5    1    3    3    0  502  0.40715193675E+03 -0.10171616826E+04 -0.13119571122E+03  0.11034604628E+04  0.46999998093E+01 0.  1.
</event>
<event>
 5   0  0.4439357E-06  0.2701061E+04  0.7818609E-02  0.8334661E-01
        2   -1    0    0  501    0  0.00000000000E+00  0.00000000000E+00  0.10647177057E+04  0.10647177057E+04  0.25500000920E-02 0. -1.
       -2   -1    0    0    0  501  0.00000000000E+00  0.00000000000E+00 -0.17130665135E+04  0.17130665135E+04  0.25500000920E-02 0.  1.
    10030    2    1    2    0    0  0.00000000000E+00  0.00000000000E+00 -0.64834880780E+03  0.27777842192E+04  0.27010607160E+04 0.  0.
        4    1    3    3  502    0  0.11000850074E+04  0.28314873147E+03 -0.10753820975E+04  0.15642277635E+04  0.12699999809E+01 0.  1.
       -4    1    3    3    0  502 -0.11000850074E+04 -0.28314873147E+03  0.42703328973E+03  0.12135564556E+04  0.12699999809E+01 0. -1.
</event>
<event>
 5   0  0.4439357E-06  0.2698535E+04  0.7818609E-02  0.8335481E-01
       -2   -1    0    0    0  501  0.00000000000E+00  0.00000000000E+00  0.19848464749E+04  0.19848464749E+04  0.25500000920E-02 0.  1.
        2   -1    0    0  501    0  0.00000000000E+00  0.00000000000E+00 -0.91721076227E+03  0.91721076227E+03  0.25500000920E-02 0. -1.
    10030    2    1    2    0    0  0.00000000000E+00  0.00000000000E+00  0.10676357127E+04  0.29020572372E+04  0.26985348234E+04 0.  0.
        4    1    3    3  502    0  0.24275782521E+03  0.11911547902E+04 -0.95775652066E+02  0.12194079237E+04  0.12699999809E+01 0. -1.
       -4    1    3    3    0  502 -0.24275782521E+03 -0.11911547902E+04  0.11634113647E+04  0.16826493135E+04  0.12699999809E+01 0.  1.
</event>
<event>
 5   0  0.1771016E-06  0.2708968E+04  0.7818609E-02  0.8332101E-01
       -1   -1    0    0    0  501  0.00000000000E+00  0.00000000000E+00  0.14456605728E+04  0.14456605728E+04  0.50400001928E-02 0.  1.
        1   -1    0    0  501    0  0.00000000000E+00  0.00000000000E+00 -0.12690576424E+04  0.12690576425E+04  0.50400001928E-02 0. -1.
    10030    2    1    2    0    0  0.00000000000E+00  0.00000000000E+00  0.17660293036E+03  0.27147182153E+04  0.27089677727E+04 0.  0.
        2    1    3    3  502    0  0.88528453124E+03  0.10212002414E+04  0.17820234267E+03  0.13632075078E+04  0.25500000920E-02 0.  1.
       -2    1    3    3    0  502 -0.88528453124E+03 -0.10212002414E+04 -0.15994123067E+01  0.13515107075E+04  0.25500000920E-02 0. -1.
</event>
<event>
 5   0  0.1732312E-06  0.2717362E+04  0.7818609E-02  0.8329393E-01
        1   -1    0    0  501    0  0.00000000000E+00  0.00000000000E+00  0.12350275885E+04  0.12350275885E+04  0.50400001928E-02 0.  1.
       -1   -1    0    0    0  501  0.00000000000E+00  0.00000000000E+00 -0.14947152227E+04  0.14947152227E+04  0.50400001928E-02 0. -1.
    10030    2    1    2    0    0  0.00000000000E+00  0.00000000000E+00 -0.25968763420E+03  0.27297428112E+04  0.27173623513E+04 0.  0.
        5    1    3    3  502    0 -0.11787896427E+04  0.62075200101E+03 -0.39773158688E+03  0.13903562758E+04  0.46999998093E+01 0.  1.
       -5    1    3    3    0  502  0.11787896427E+04 -0.62075200101E+03  0.13804395268E+03  0.13393865354E+04  0.46999998093E+01 0. -1.
</event>
<event>
 5   0  0.1732312E-06  0.2699189E+04  0.7818609E-02  0.8335268E-01
        1   -1    0    0  501    0  0.00000000000E+00  0.00000000000E+00  0.12663185480E+04  0.12663185480E+04  0.50400001928E-02 0.  1.
       -1   -1    0    0    0  501  0.00000000000E+00  0.00000000000E+00 -0.14383472028E+04  0.14383472028E+04  0.50400001928E-02 0. -1.
    10030    2    1    2    0    0  0.00000000000E+00  0.00000000000E+00 -0.17202865481E+03  0.27046657508E+04  0.26991893164E+04 0.  0.
        5    1    3    3  502    0  0.83070383708E+03  0.10486102470E+04 -0.26450866240E+03  0.13636859013E+04  0.46999998093E+01 0.  1.
       -5    1    3    3    0  502 -0.83070383708E+03 -0.10486102470E+04  0.92480007592E+02  0.13409798495E+04  0.46999998093E+01 0. -1.
</event>
<event>
 5   0  0.4448804E-06  0.2696379E+04  0.7818609E-02  0.8336181E-01
       -2   -1    0    0    0  501  0.00000000000E+00  0.00000000000E+00  0.19156075635E+04  0.19156075635E+04  0.25500000920E-02 0. -1.
        2   -1    0    0  501    0  0.00000000000E+00  0.00000000000E+00 -0.94884519204E+03  0.94884519205E+03  0.25500000920E-02 0.  1.
    10030    2    1    2    0    0  0.00000000000E+00  0.00000000000E+00  0.96676237150E+03  0.28644527556E+04  0.26963790731E+04 0.  0.
        2    1    3    3  502    0  0.34417353404E+03 -0.86048175439E+03 -0.55680012285E+03  0.10811617122E+04  0.25500000920E-02 0.  1.
       -2    1    3    3    0  502 -0.34417353404E+03  0.86048175439E+03  0.15235624943E+04  0.17832910434E+04  0.25500000920E-02 0. -1.
</event>
<event>
 5   0  0.4487186E-06  0.2697520E+04  0.7818609E-02  0.8335810E-01
        2   -1    0    0  501    0  0.00000000000E+00  0.00000000000E+00  0.13381966257E+04  0.13381966257E+04  0.25500000920E-02 0.  1.
       -2   -1    0    0    0  501  0.00000000000E+00  0.00000000000E+00 -0.13594065958E+04  0.13594065958E+04  0.25500000920E-02 0. -1.
    10030    2    1    2    0    0  0.00000000000E+00  0.00000000000E+00 -0.21209970073E+02  0.26976032215E+04  0.26975198382E+04 0.  0.
        3    1    3    3  502    0 -0.83986565109E+03 -0.58511060741E+03 -0.88893992472E+03  0.13557075403E+04  0.10100000352E+00 0. -1.
       -3    1    3    3    0  502  0.83986565109E+03  0.58511060741E+03  0.86772995465E+03  0.13418956812E+04  0.10100000352E+00 0.  1.
</event>
<event>
 5   0  0.4655882E-06  0.2708121E+04  0.7818609E-02  0.8332375E-01
       -2   -1    0    0    0  501  0.00000000000E+00  0.00000000000E+00  0.79443358832E+03  0.79443358832E+03  0.25500000920E-02 0. -1.
        2   -1    0    0  501    0  0.00000000000E+00  0.00000000000E+00 -0.23079074686E+04  0.23079074686E+04  0.25500000920E-02 0.  1.
    10030    2    1    2    0    0  0.00000000000E+00  0.00000000000E+00 -0.15134738803E+04  0.31023410569E+04  0.27081205378E+04 0.  0.
        1    1    3    3  502    0 -0.17209363498E+03  0.29215125156E+03 -0.22584870147E+04  0.22837977512E+04  0.50400001928E-02 0.  1.
       -1    1    3    3    0  502  0.17209363498E+03 -0.29215125156E+03  0.74501313435E+03  0.81854330574E+03  0.50400001928E-02 0. -1.
</event>
<event>
 5   0  0.4448804E-06  0.2676681E+04  0.7818609E-02  0.8342611E-01
       -2   -1    0    0    0  501  0.00000000000E+00  0.00000000000E+00  0.87710001522E+03  0.87710001523E+03  0.25500000920E-02 0.  1.
        2   -1    0    0  501    0  0.00000000000E+00  0.00000000000E+00 -0.20421334960E+04  0.20421334960E+04  0.25500000920E-02 0. -1.
    10030    2    1    2    0    0  0.00000000000E+00  0.00000000000E+00 -0.11650334808E+04  0.29192335113E+04  0.26766810198E+04 0.  0.
        2    1    3    3  502    0 -0.11741328929E+04  0.70082560054E+02 -0.12788529493E+04  0.17375167572E+04  0.25500000920E-02 0. -1.
       -2    1    3    3    0  502  0.11741328929E+04 -0.70082560054E+02  0.11381946850E+03  0.11817167541E+04  0.25500000920E-02 0.  1.
</event>
<event>
 5   0  0.4487186E-06  0.2703589E+04  0.7818609E-02  0.8333841E-01
       -2   -1    0    0    0  501  0.00000000000E+00  0.00000000000E+00  0.11364087758E+04  0.11364087759E+04  0.25500000920E-02 0.  1.
        2   -1    0    0  501    0  0.00000000000E+00  0.00000000000E+00 -0.16080026142E+04  0.16080026142E+04  0.25500000920E-02 0. -1.
    10030    2    1    2    0    0  0.00000000000E+00  0.00000000000E+00 -0.47159383838E+03  0.27444113901E+04  0.27035889350E+04 0.  0.
        3    1    3    3  502    0  0.71999684705E+03  0.81830622919E+03  0.57585594002E+03  0.12327329875E+04  0.10100000352E+00 0.  1.
       -3    1    3    3    0  502 -0.71999684705E+03 -0.81830622919E+03 -0.10474497784E+04  0.15116784026E+04  0.10100000352E+00 0. -1.
</event>
<event>
 5   0  0.1732312E-06  0.2693667E+04  0.7818609E-02  0.8337063E-01
        1   -1    0    0  501    0  0.00000000000E+00  0.00000000000E+00  0.10073707044E+04  0.10073707044E+04  0.50400001928E-02 0. -1.
       -1   -1    0    0    0  501  0.00000000000E+00  0.00000000000E+00 -0.18006876060E+04  0.18006876060E+04  0.50400001928E-02 0.  1.
    10030    2    1    2    0    0  0.00000000000E+00  0.00000000000E+00 -0.79331690159E+03  0.28080583105E+04  0.26936666031E+04 0.  0.
        5    1    3    3  502    0 -0.12857383733E+04 -0.36070083320E+03 -0.21397494609E+03  0.13524184350E+04  0.46999998093E+01 0. -1.
       -5    1    3    3    0  502  0.12857383733E+04  0.36070083320E+03 -0.57934195549E+03  0.14556398755E+04  0.46999998093E+01 0.  1.
</event>
<event>
 5   0  0.4401659E-06  0.2656426E+04  0.7818609E-02  0.8349283E-01
       -2   -1    0    0    0  501  0.00000000000E+00  0.00000000000E+00  0.96432251962E+03  0.96432251963E+03  0.25500000920E-02 0.  1.
        2   -1    0    0  501    0  0.00000000000E+00  0.00000000000E+00 -0.18294187114E+04  0.18294187114E+04  0.25500000920E-02 0. -1.
    10030    2    1    2    0    0  0.00000000000E+00  0.00000000000E+00 -0.86509619173E+03  0.27937412310E+04  0.26564259155E+04 0.  0.
        5    1    3    3  502    0  0.73905499715E+03  0.35279330850E+03 -0.15322889246E+04  0.17374109606E+04  0.46999998093E+01 0. -1.
       -5    1    3    3    0  502 -0.73905499715E+03 -0.35279330850E+03  0.66719273291E+03  0.10563302704E+04  0.46999998093E+01 0.  1.
</event>
<event>
 5   0  0.1732312E-06  0.2696396E+04  0.7818609E-02  0.8336175E-01
        1   -1    0    0  501    0  0.00000000000E+00  0.00000000000E+00  0.10958985715E+04  0.10958985716E+04  0.50400001928E-02 0.  1.
       -1   -1    0    0    0  501  0.00000000000E+00  0.00000000000E+00 -0.16585816312E+04  0.16585816312E+04  0.50400001928E-02 0. -1.
    10030    2    1    2    0    0  0.00000000000E+00  0.00000000000E+00 -0.56268305963E+03  0.27544802027E+04  0.26963955499E+04 0.  0.
        5    1    3    3  502    0 -0.78849928957E+03 -0.91402207448E+03  0.33196440001E+03  0.12519544461E+04  0.46999998093E+01 0.  1.
       -5    1    3    3    0  502  0.78849928957E+03  0.91402207448E+03 -0.89464745964E+03  0.15025257566E+04  0.46999998093E+01 0. -1.
</event>
<event>
 5   0  0.1753474E-06  0.2562372E+04  0.7818609E-02  0.8381096E-01
       -1   -1    0    0    0  501  0.00000000000E+00  0.00000000000E+00  0.88453838512E+03  0.88453838514E+03  0.50400001928E-02 0. -1.
        1   -1    0    0  501    0  0.00000000000E+00  0.00000000000E+00 -0.18557003404E+04  0.18557003404E+04  0.50400001928E-02 0.  1.
    10030    2    1    2    0    0  0.00000000000E+00  0.00000000000E+00 -0.97116195528E+03  0.27402387255E+04  0.25623724807E+04 0.  0.
        3    1    3    3  502    0 -0.68655006249E+03 -0.73204423009E+03  0.36606425388E+03  0.10682896570E+04  0.10100000352E+00 0. -1.
       -3    1    3    3    0  502  0.68655006249E+03  0.73204423009E+03 -0.13372262092E+04  0.16719490685E+04  0.10100000352E+00 0.  1.
</event>
<event>
 5   0  0.4487186E-06  0.2700716E+04  0.7818609E-02  0.8334773E-01
       -2   -1    0    0    0  501  0.00000000000E+00  0.00000000000E+00  0.10254334507E+04  0.10254334507E+04  0.25500000920E-02 0. -1.
        2   -1    0    0  501    0  0.00000000000E+00  0.00000000000E+00 -0.17782396486E+04  0.17782396486E+04  0.25500000920E-02 0.  1.
    10030    2    1    2    0    0  0.00000000000E+00  0.00000000000E+00 -0.75280619791E+03  0.28036730994E+04  0.27007157712E+04 0.  0.
        3    1    3    3  502    0 -0.30822216370E+03  0.12560374375E+04  0.26778054920E+02  0.12935795380E+04  0.10100000352E+00 0. -1.
       -3    1    3    3    0  502  0.30822216370E+03 -0.12560374375E+04 -0.77958425283E+03  0.15100935614E+04  0.10100000352E+00 0.  1.
</event>
<event>
 5   0  0.1723605E-06  0.2696894E+04  0.7818609E-02  0.8336013E-01
       -1   -1    0    0    0  501  0.00000000000E+00  0.00000000000E+00  0.92872900478E+03  0.92872900480E+03  0.50400001928E-02 0. -1.
        1   -1    0    0  501    0  0.00000000000E+00  0.00000000000E+00 -0.19578471209E+04  0.19578471209E+04  0.50400001928E-02 0.  1.
    10030    2    1    2    0    0  0.00000000000E+00  0.00000000000E+00 -0.10291181161E+04  0.28865761257E+04  0.26968940714E+04 0.  0.
        1    1    3    3  502    0  0.45409032941E+03  0.93564087160E+03 -0.14332317122E+04  0.17708119631E+04  0.50400001928E-02 0.  1.
       -1    1    3    3    0  502 -0.45409032941E+03 -0.93564087160E+03  0.40411359611E+03  0.11157641626E+04  0.50400001928E-02 0. -1.
</event>
<event>
 5   0  0.1732312E-06  0.2709929E+04  0.7818609E-02  0.8331791E-01
        1   -1    0    0  501    0  0.00000000000E+00  0.00000000000E+00  0.90076347940E+03  0.90076347941E+03  0.50400001928E-02 0. -1.
       -1   -1    0    0    0  501  0.00000000000E+00  0.00000000000E+00 -0.20381911671E+04  0.20381911671E+04  0.50400001928E-02 0.  1.
    10030    2    1    2    0    0  0.00000000000E+00  0.00000000000E+00 -0.11374276877E+04  0.29389546465E+04  0.27099285359E+04 0.  0.
        5    1    3    3  502    0  0.11907334478E+04  0.39418496287E+02 -0.12686295471E+04  0.17403571413E+04  0.46999998093E+01 0. -1.
       -5    1    3    3    0  502 -0.11907334478E+04 -0.39418496287E+02  0.13120185938E+03  0.11985975052E+04  0.46999998093E+01 0.  1.
</event>
<event>
 5   0  0.1828511E-06  0.2646758E+04  0.7818609E-02  0.8352490E-01
        1   -1    0    0  501    0  0.00000000000E+00  0.00000000000E+00  0.11890385747E+04  0.11890385748E+04  0.50400001928E-02 0.  1.
       -1   -1    0    0    0  501  0.00000000000E+00  0.00000000000E+00 -0.14728977045E+04  0.14728977045E+04  0.50400001928E-02 0. -1.
    10030    2    1    2    0    0  0.00000000000E+00  0.00000000000E+00 -0.28385912975E+03  0.26619362793E+04  0.26467581584E+04 0.  0.
        4    1    3    3  502    0  0.11918656653E+03  0.11950019273E+04 -0.70108140357E+03  0.13905940426E+04  0.12699999809E+01 0.  1.
       -4    1    3    3    0  502 -0.11918656653E+03 -0.11950019273E+04  0.41722227382E+03  0.12713422366E+04  0.12699999809E+01 0. -1.
</event>
<event>
 5   0  0.1732312E-06  0.2701202E+04  0.7818609E-02  0.8334615E-01
        1   -1    0    0  501    0  0.00000000000E+00  0.00000000000E+00  0.18990357965E+04  0.18990357965E+04  0.50400001928E-02 0. -1.
       -1   -1    0    0    0  501  0.00000000000E+00  0.00000000000E+00 -0.96055220924E+03  0.96055220926E+03  0.50400001928E-02 0.  1.
    10030    2    1    2    0    0  0.00000000000E+00  0.00000000000E+00  0.93848358730E+03  0.28595880058E+04  0.27012019768E+04 0.  0.
        5    1    3    3  502    0  0.41905730027E+03  0.12443602672E+04  0.13437240323E+03  0.13198937564E+04  0.46999998093E+01 0.  1.
       -5    1    3    3    0  502 -0.41905730027E+03 -0.12443602672E+04  0.80411118406E+03  0.15396942494E+04  0.46999998093E+01 0. -1.
</event>
<event>
 5   0  0.4439357E-06  0.2633328E+04  0.7818609E-02  0.8356968E-01
        2   -1    0    0  501    0  0.00000000000E+00  0.00000000000E+00  0.27628800565E+04  0.27628800565E+04  0.25500000920E-02 0. -1.
       -2   -1    0    0    0  501  0.00000000000E+00  0.00000000000E+00 -0.62746258699E+03  0.62746258700E+03  0.25500000920E-02 0.  1.
    10030    2    1    2    0    0  0.00000000000E+00  0.00000000000E+00  0.21354174695E+04  0.33903426435E+04  0.26333278321E+04 0.  0.
        4    1    3    3  502    0 -0.68379712940E+03  0.88669683362E+03  0.17591303271E+03  0.11334711275E+04  0.12699999809E+01 0.  1.
       -4    1    3    3    0  502  0.68379712940E+03 -0.88669683362E+03  0.19595044368E+04  0.22568715159E+04  0.12699999809E+01 0. -1.
</event>
<event>
 5   0  0.4655882E-06  0.2704976E+04  0.7818609E-02  0.8333392E-01
       -2   -1    0    0    0  501  0.00000000000E+00  0.00000000000E+00  0.16946273619E+04  0.16946273619E+04  0.25500000920E-02 0. -1.
        2   -1    0    0  501    0  0.00000000000E+00  0.00000000000E+00 -0.10794250999E+04  0.10794250999E+04  0.25500000920E-02 0.  1.
    10030    2    1    2    0    0  0.00000000000E+00  0.00000000000E+00  0.61520226207E+03  0.27740524618E+04  0.27049756445E+04 0.  0.
        1    1    3    3  502    0  0.50748595688E+02 -0.12654056600E+04 -0.17928208460E+03  0.12790500265E+04  0.50400001928E-02 0.  1.
       -1    1    3    3    0  502 -0.50748595688E+02  0.12654056600E+04  0.79448434667E+03  0.14950024353E+04  0.50400001928E-02 0. -1.
</event>
<event>
 5   0  0.1828511E-06  0.2634468E+04  0.7818609E-02  0.8356587E-01
       -1   -1    0    0    0  501  0.00000000000E+00  0.00000000000E+00  0.84866818359E+03  0.84866818361E+03  0.50400001928E-02 0.  1.
        1   -1    0    0  501    0  0.00000000000E+00  0.00000000000E+00 -0.20445035187E+04  0.20445035187E+04  0.50400001928E-02 0. -1.
    10030    2    1    2    0    0  0.00000000000E+00  0.00000000000E+00 -0.11958353351E+04  0.28931717023E+04  0.26344677547E+04 0.  0.
        4    1    3    3  502    0  0.76829971241E+03 -0.10189205681E+04 -0.23932577855E+03  0.12983689820E+04  0.12699999809E+01 0.  1.
       -4    1    3    3    0  502 -0.76829971241E+03  0.10189205681E+04 -0.95650955654E+03  0.15948027203E+04  0.12699999809E+01 0. -1.
</event>
<event>
 5   0  0.4448804E-06  0.2742370E+04  0.7818609E-02  0.8321387E-01
       -2   -1    0    0    0  501  0.00000000000E+00  0.00000000000E+00  0.21049269543E+04  0.21049269543E+04  0.25500000920E-02 0.  1.
        2   -1    0    0  501    0  0.00000000000E+00  0.00000000000E+00 -0.89321310435E+03  0.89321310435E+03  0.25500000920E-02 0. -1.
    10030    2    1    2    0    0  0.00000000000E+00  0.00000000000E+00  0.12117138500E+04  0.29981400587E+04  0.27423700256E+04 0.  0.
        2    1    3    3  502    0  0.32623950118E+03  0.11003949105E+04 -0.21434560843E+03  0.11675809227E+04  0.25500000920E-02 0. -1.
       -2    1    3    3    0  502 -0.32623950118E+03 -0.11003949105E+04  0.14260594584E+04  0.18305591360E+04  0.25500000920E-02 0.  1.
</event>
<event>
 5   0  0.1732312E-06  0.2701685E+04  0.7818609E-02  0.8334458E-01
       -1   -1    0    0    0  501  0.00000000000E+00  0.00000000000E+00  0.99988736099E+03  0.99988736101E+03  0.50400001928E-02 0. -1.
        1   -1    0    0  501    0  0.00000000000E+00  0.00000000000E+00 -0.18249813830E+04  0.18249813830E+04  0.50400001928E-02 0.  1.
    10030    2    1    2    0    0  0.00000000000E+00  0.00000000000E+00 -0.82509402202E+03  0.28248687440E+04  0.27016852659E+04 0.  0.
        5    1    3    3  502    0 -0.12676707266E+04  0.96268741502E+02  0.64887063089E+02  0.12729843529E+04  0.46999998093E+01 0. -1.
       -5    1    3    3    0  502  0.12676707266E+04 -0.96268741502E+02 -0.88998108511E+03  0.15518843912E+04  0.46999998093E+01 0.  1.
</event>
<event>
 5   0  0.4448804E-06  0.2735801E+04  0.7818609E-02  0.8323482E-01
        2   -1    0    0  501    0  0.00000000000E+00  0.00000000000E+00  0.16525974934E+04  0.16525974934E+04  0.25500000920E-02 0. -1.
       -2   -1    0    0    0  501  0.00000000000E+00  0.00000000000E+00 -0.11322487295E+04  0.11322487295E+04  0.25500000920E-02 0.  1.
    10030    2    1    2    0    0  0.00000000000E+00  0.00000000000E+00  0.52034876394E+03  0.27848462229E+04  0.27358007327E+04 0.  0.
        2    1    3    3  502    0 -0.28125860219E+03 -0.65580747025E+03  0.14481271789E+04  0.16143921970E+04  0.25500000920E-02 0. -1.
       -2    1    3    3    0  502  0.28125860219E+03  0.65580747025E+03 -0.92777841500E+03  0.11704540259E+04  0.25500000920E-02 0.  1.
</event>
<event>
 5   0  0.1828511E-06  0.2704581E+04  0.7818609E-02  0.8333520E-01
        1   -1    0    0  501    0  0.00000000000E+00  0.00000000000E+00  0.82839802808E+03  0.82839802809E+03  0.50400001928E-02 0. -1.
       -1   -1    0    0    0  501  0.00000000000E+00  0.00000000000E+00 -0.22075009876E+04  0.22075009876E+04  0.50400001928E-02 0.  1.
    10030    2    1    2    0    0  0.00000000000E+00  0.00000000000E+00 -0.13791029595E+04  0.30358990157E+04  0.27045809029E+04 0.  0.
        4    1    3    3  502    0 -0.39860890541E+03 -0.11365469191E+04 -0.13797398672E+04  0.18314780023E+04  0.12699999809E+01 0. -1.
       -4    1    3    3    0  502  0.39860890541E+03  0.11365469191E+04  0.63690769722E+00  0.12044210134E+04  0.12699999809E+01 0.  1.
</event>
<event>
 5   0  0.1828511E-06  0.2680019E+04  0.7818609E-02  0.8341517E-01
        1   -1    0    0  501    0  0.00000000000E+00  0.00000000000E+00  0.16268221509E+04  0.16268221509E+04  0.50400001928E-02 0.  1.
       -1   -1    0    0    0  501  0.00000000000E+00  0.00000000000E+00 -0.11037625103E+04  0.11037625103E+04  0.50400001928E-02 0. -1.
    10030    2    1    2    0    0  0.00000000000E+00  0.00000000000E+00  0.52305964056E+03  0.27305846612E+04  0.26800188813E+04 0.  0.
        4    1    3    3  502    0 -0.42786642103E+02  0.39714421299E+03  0.15647525988E+04  0.16149323611E+04  0.12699999809E+01 0.  1.
       -4    1    3    3    0  502  0.42786642103E+02 -0.39714421299E+03 -0.10416929582E+04  0.11156523001E+04  0.12699999809E+01 0. -1.
</event>
<event>
 5   0  0.1828511E-06  0.2696209E+04  0.7818609E-02  0.8336236E-01
        1   -1    0    0  501    0  0.00000000000E+00  0.00000000000E+00  0.22241499226E+04  0.22241499226E+04  0.50400001928E-02 0. -1.
       -1   -1    0    0    0  501  0.00000000000E+00  0.00000000000E+00 -0.81711476342E+03  0.81711476343E+03  0.50400001928E-02 0.  1.
    10030    2    1    2    0    0  0.00000000000E+00  0.00000000000E+00  0.14070351592E+04  0.30412646861E+04  0.26962089962E+04 0.  0.
        4    1    3    3  502    0 -0.11868621544E+04  0.56311351173E+03  0.10449905210E+04  0.16786141316E+04  0.12699999809E+01 0. -1.
       -4    1    3    3    0  502  0.11868621544E+04 -0.56311351173E+03  0.36204463817E+03  0.13626505545E+04  0.12699999809E+01 0.  1.
</event>
<event>
 5   0  0.4439357E-06  0.2708462E+04  0.7818609E-02  0.8332265E-01
        2   -1    0    0  501    0  0.00000000000E+00  0.00000000000E+00  0.15886676474E+04  0.15886676474E+04  0.25500000920E-02 0. -1.
       -2   -1    0    0    0  501  0.00000000000E+00  0.00000000000E+00 -0.11543897697E+04  0.11543897697E+04  0.25500000920E-02 0.  1.
    10030    2    1    2    0    0  0.00000000000E+00  0.00000000000E+00  0.43427787775E+03  0.27430574171E+04  0.27084620577E+04 0.  0.
        4    1    3    3  502    0  0.11431399943E+04 -0.62450954978E+03 -0.15794118215E+03  0.13121464302E+04  0.12699999809E+01 0.  1.
       -4    1    3    3    0  502 -0.11431399943E+04  0.62450954978E+03  0.59221905990E+03  0.14309109868E+04  0.12699999809E+01 0. -1.
</event>
<event>
 5   0  0.1482875E-06  0.2700027E+04  0.7818609E-02  0.8334996E-01
       -3   -1    0    0    0  501  0.00000000000E+00  0.00000000000E+00  0.20115774515E+04  0.20115774541E+04  0.10100000352E+00 0.  1.
        3   -1    0    0  501    0  0.00000000000E+00  0.00000000000E+00 -0.90602368803E+03  0.90602369366E+03  0.10100000352E+00 0. -1.
    10030    2    1    2    0    0  0.00000000000E+00  0.00000000000E+00  0.11055537635E+04  0.29176011477E+04  0.27000272838E+04 0.  0.
        5    1    3    3  502    0 -0.99928053723E+03  0.88787927223E+03  0.34882563646E+03  0.13815182260E+04  0.46999998093E+01 0. -1.
       -5    1    3    3    0  502  0.99928053723E+03 -0.88787927223E+03  0.75672812705E+03  0.15360829217E+04  0.46999998093E+01 0.  1.
</event>
<event>
 5   0  0.4401659E-06  0.2657920E+04  0.7818609E-02  0.8348789E-01
        2   -1    0    0  501    0  0.00000000000E+00  0.00000000000E+00  0.20696085846E+04  0.20696085846E+04  0.25500000920E-02 0.  1.
       -2   -1    0    0    0  501  0.00000000000E+00  0.00000000000E+00 -0.85336622086E+03  0.85336622086E+03  0.25500000920E-02 0. -1.
    10030    2    1    2    0    0  0.00000000000E+00  0.00000000000E+00  0.12162423637E+04  0.29229748054E+04  0.26579195296E+04 0.  0.
        5    1    3    3  502    0 -0.57056258527E+03 -0.57557071651E+03  0.17663797700E+04  0.19434358480E+04  0.46999998093E+01 0.  1.
       -5    1    3    3    0  502  0.57056258527E+03  0.57557071651E+03 -0.55013740626E+03  0.97953895746E+03  0.46999998093E+01 0. -1.
</event>
<event>
 5   0  0.4401659E-06  0.2695160E+04  0.7818609E-02  0.8336577E-01
       -2   -1    0    0    0  501  0.00000000000E+00  0.00000000000E+00  0.12871110052E+04  0.12871110052E+04  0.25500000920E-02 0.  1.
        2   -1    0    0  501    0  0.00000000000E+00  0.00000000000E+00 -0.14108899523E+04  0.14108899523E+04  0.25500000920E-02 0. -1.
    10030    2    1    2    0    0  0.00000000000E+00  0.00000000000E+00 -0.12377894710E+03  0.26980009575E+04  0.26951600952E+04 0.  0.
        5    1    3    3  502    0 -0.13429190388E+04 -0.71854810559E+02  0.23963598535E+02  0.13450617096E+04  0.46999998093E+01 0.  1.
       -5    1    3    3    0  502  0.13429190388E+04  0.71854810559E+02 -0.14774254563E+03  0.13529392479E+04  0.46999998093E+01 0. -1.
</event>
<event>
 5   0  0.4439357E-06  0.2704082E+04  0.7818609E-02  0.8333682E-01
        2   -1    0    0  501    0  0.00000000000E+00  0.00000000000E+00  0.10482969852E+04  0.10482969852E+04  0.25500000920E-02 0. -1.
       -2   -1    0    0    0  501  0.00000000000E+00  0.00000000000E+00 -0.17437952048E+04  0.17437952048E+04  0.25500000920E-02 0.  1.
    10030    2    1    2    0    0  0.00000000000E+00  0.00000000000E+00 -0.69549821955E+03  0.27920921900E+04  0.27040822887E+04 0.  0.
        4    1    3    3  502    0  0.49095012142E+03  0.71552712671E+03 -0.14183179480E+04  0.16627202125E+04  0.12699999809E+01 0.  1.
       -4    1    3    3    0  502 -0.49095012142E+03 -0.71552712671E+03  0.72281972841E+03  0.11293719775E+04  0.12699999809E+01 0. -1.
</event>
<event>
 5   0  0.1723605E-06  0.2745531E+04  0.7818609E-02  0.8320381E-01
        1   -1    0    0  501    0  0.00000000000E+00  0.00000000000E+00  0.20444534662E+04  0.20444534662E+04  0.50400001928E-02 0. -1.
       -1   -1    0    0    0  501  0.00000000000E+00  0.00000000000E+00 -0.92175469490E+03  0.92175469491E+03  0.50400001928E-02 0.  1.
    10030    2    1    2    0    0  0.00000000000E+00  0.00000000000E+00  0.11226987713E+04  0.29662081611E+04  0.27455306088E+04 0.  0.
        1    1    3    3  502    0 -0.12663697138E+04 -0.33002079377E+02 -0.10029314470E+02  0.12668393649E+04  0.50400001928E-02 0.  1.
       -1    1    3    3    0  502  0.12663697138E+04  0.33002079377E+02  0.11327280858E+04  0.16993687962E+04  0.50400001928E-02 0. -1.
</event>
<event>
 5   0  0.1771016E-06  0.2679079E+04  0.7818609E-02  0.8341825E-01
        1   -1    0    0  501    0  0.00000000000E+00  0.00000000000E+00  0.13400739013E+04  0.13400739013E+04  0.50400001928E-02 0.  1.
       -1   -1    0    0    0  501  0.00000000000E+00  0.00000000000E+00 -0.13390050653E+04  0.13390050653E+04  0.50400001928E-02 0. -1.
    10030    2    1    2    0    0  0.00000000000E+00  0.00000000000E+00  0.10688359634E+01  0.26790789666E+04  0.26790787534E+04 0.  0.
        2    1    3    3  502    0 -0.51326193416E+03 -0.12094751192E+04  0.26149011455E+03  0.13396435933E+04  0.25500000920E-02 0.  1.
       -2    1    3    3    0  502  0.51326193416E+03  0.12094751192E+04 -0.26042127859E+03  0.13394353733E+04  0.25500000920E-02 0. -1.
</event>
<event>
 5   0  0.4448804E-06  0.2694100E+04  0.7818609E-02  0.8336922E-01
        2   -1    0    0  501    0  0.00000000000E+00  0.00000000000E+00  0.21795470277E+04  0.21795470277E+04  0.25500000920E-02 0. -1.
       -2   -1    0    0    0  501  0.00000000000E+00  0.00000000000E+00 -0.83253275357E+03  0.83253275357E+03  0.25500000920E-02 0.  1.
    10030    2    1    2    0    0  0.00000000000E+00  0.00000000000E+00  0.13470142741E+04  0.30120797812E+04  0.26941004350E+04 0.  0.
        2    1    3    3  502    0 -0.31898181441E+03 -0.10506738306E+04  0.15459124998E+04  0.18961831012E+04  0.25500000920E-02 0. -1.
       -2    1    3    3    0  502  0.31898181441E+03  0.10506738306E+04 -0.19889822573E+03  0.11158966800E+04  0.25500000920E-02 0.  1.
</event>
<event>
 5   0  0.1771016E-06  0.2696562E+04  0.7818609E-02  0.8336121E-01
        1   -1    0    0  501    0  0.00000000000E+00  0.00000000000E+00  0.91505033318E+03  0.91505033320E+03  0.50400001928E-02 0. -1.
       -1   -1    0    0    0  501  0.00000000000E+00  0.00000000000E+00 -0.19866245308E+04  0.19866245308E+04  0.50400001928E-02 0.  1.
    10030    2    1    2    0    0  0.00000000000E+00  0.00000000000E+00 -0.10715741976E+04  0.29016748640E+04  0.26965618397E+04 0.  0.
        2    1    3    3  502    0 -0.11805233311E+03  0.15199855083E+03  0.90019346473E+03  0.92053690135E+03  0.25500000920E-02 0. -1.
       -2    1    3    3    0  502  0.11805233311E+03 -0.15199855083E+03 -0.19717676624E+04  0.19811379627E+04  0.25500000920E-02 0.  1.
</event>
<event>
 5   0  0.4487186E-06  0.2727147E+04  0.7818609E-02  0.8326250E-01
       -2   -1    0    0    0  501  0.00000000000E+00  0.00000000000E+00  0.13135557524E+04  0.13135557524E+04  0.25500000920E-02 0.  1.
        2   -1    0    0  501    0  0.00000000000E+00  0.00000000000E+00 -0.14154959662E+04  0.14154959662E+04  0.25500000920E-02 0. -1.
    10030    2    1    2    0    0  0.00000000000E+00  0.00000000000E+00 -0.10194021376E+03  0.27290517186E+04  0.27271471313E+04 0.  0.
        3    1    3    3  502    0  0.60690808289E+03  0.42147505150E+03 -0.11977871376E+04  0.14073637332E+04  0.10100000352E+00 0. -1.
       -3    1    3    3    0  502 -0.60690808289E+03 -0.42147505150E+03  0.10958469239E+04  0.13216879855E+04  0.10100000352E+00 0.  1.
</event>
<event>
 5   0  0.4401659E-06  0.2665528E+04  0.7818609E-02  0.8346277E-01
        2   -1    0    0  501    0  0.00000000000E+00  0.00000000000E+00  0.13888574538E+04  0.13888574538E+04  0.25500000920E-02 0. -1.
       -2   -1    0    0    0  501  0.00000000000E+00  0.00000000000E+00 -0.12789363443E+04  0.12789363443E+04  0.25500000920E-02 0.  1.
    10030    2    1    2    0    0  0.00000000000E+00  0.00000000000E+00  0.10992110952E+03  0.26677937981E+04  0.26655282964E+04 0.  0.
        5    1    3    3  502    0  0.82622849981E+03  0.90541145337E+03 -0.46875730182E+03  0.13123181519E+04  0.46999998093E+01 0.  1.
       -5    1    3    3    0  502 -0.82622849981E+03 -0.90541145337E+03  0.57867841134E+03  0.13554756462E+04  0.46999998093E+01 0. -1.
</event>
<event>
 5   0  0.1732312E-06  0.2708922E+04  0.7818609E-02  0.8332116E-01
       -1   -1    0    0    0  501  0.00000000000E+00  0.00000000000E+00  0.11070548079E+04  0.11070548079E+04  0.50400001928E-02 0. -1.
        1   -1    0    0  501    0  0.00000000000E+00  0.00000000000E+00 -0.16571572862E+04  0.16571572862E+04  0.50400001928E-02 0.  1.
    10030    2    1    2    0    0  0.00000000000E+00  0.00000000000E+00 -0.55010247825E+03  0.27642120941E+04  0.27089215132E+04 0.  0.
        5    1    3    3  502    0  0.60734513317E+03  0.11217376017E+04 -0.73973425371E+03  0.14745820472E+04  0.46999998093E+01 0.  1.
       -5    1    3    3    0  502 -0.60734513317E+03 -0.11217376017E+04  0.18963177547E+03  0.12896300470E+04  0.46999998093E+01 0. -1.
</event>
<event>
 5   0  0.1753474E-06  0.2689548E+04  0.7818609E-02  0.8338404E-01
        1   -1    0    0  501    0  0.00000000000E+00  0.00000000000E+00  0.12762581529E+04  0.12762581530E+04  0.50400001928E-02 0.  1.
       -1   -1    0    0    0  501  0.00000000000E+00  0.00000000000E+00 -0.14169678264E+04  0.14169678264E+04  0.50400001928E-02 0. -1.
    10030    2    1    2    0    0  0.00000000000E+00  0.00000000000E+00 -0.14070967340E+03  0.26932259793E+04  0.26895477247E+04 0.  0.
        3    1    3    3  502    0 -0.33887557114E+03  0.39265114492E+03  0.11720696680E+04  0.12817015609E+04  0.10100000352E+00 0.  1.
       -3    1    3    3    0  502  0.33887557114E+03 -0.39265114492E+03 -0.13127793414E+04  0.14115244184E+04  0.10100000352E+00 0. -1.
</event>
<event>
 5   0  0.4487186E-06  0.2814889E+04  0.7818609E-02  0.8298661E-01
       -2   -1    0    0    0  501  0.00000000000E+00  0.00000000000E+00  0.15224543040E+04  0.15224543041E+04  0.25500000920E-02 0. -1.
        2   -1    0    0  501    0  0.00000000000E+00  0.00000000000E+00 -0.13011229937E+04  0.13011229937E+04  0.25500000920E-02 0.  1.
    10030    2    1    2    0    0  0.00000000000E+00  0.00000000000E+00  0.22133131031E+03  0.28235772978E+04  0.28148891999E+04 0.  0.
        3    1    3    3  502    0  0.92029335043E+03 -0.10513627186E+04  0.28029370308E+03  0.14250852561E+04  0.10100000352E+00 0.  1.
       -3    1    3    3    0  502 -0.92029335043E+03  0.10513627186E+04 -0.58962392770E+02  0.13984920417E+04  0.10100000352E+00 0. -1.
</event>
<event>
 5   0  0.4655882E-06  0.2697564E+04  0.7818609E-02  0.8335796E-01
        2   -1    0    0  501    0  0.00000000000E+00  0.00000000000E+00  0.11229006756E+04  0.11229006756E+04  0.25500000920E-02 0. -1.
       -2   -1    0    0    0  501  0.00000000000E+00  0.00000000000E+00 -0.16201012635E+04  0.16201012635E+04  0.25500000920E-02 0.  1.
    10030    2    1    2    0    0  0.00000000000E+00  0.00000000000E+00 -0.49720058791E+03  0.27430019390E+04  0.26975639405E+04 0.  0.
        1    1    3    3  502    0  0.94188573473E+03 -0.96479757701E+03 -0.28425806457E+03  0.13779643498E+04  0.50400001928E-02 0.  1.
       -1    1    3    3    0  502 -0.94188573473E+03  0.96479757701E+03 -0.21294252333E+03  0.13650375893E+04  0.50400001928E-02 0. -1.
</event>
<event>
 5   0  0.4655882E-06  0.2732632E+04  0.7818609E-02  0.8324494E-01
        2   -1    0    0  501    0  0.00000000000E+00  0.00000000000E+00  0.13418932610E+04  0.13418932610E+04  0.25500000920E-02 0.  1.
       -2   -1    0    0    0  501  0.00000000000E+00  0.00000000000E+00 -0.13911836328E+04  0.13911836328E+04  0.25500000920E-02 0. -1.
    10030    2    1    2    0    0  0.00000000000E+00  0.00000000000E+00 -0.49290371818E+02  0.27330768938E+04  0.27326323878E+04 0.  0.
        1    1    3    3  502    0  0.71394211950E+03 -0.99393462864E+03  0.58307240321E+03  0.13555784092E+04  0.50400001928E-02 0.  1.
       -1    1    3    3    0  502 -0.71394211950E+03  0.99393462864E+03 -0.63236277502E+03  0.13774984847E+04  0.50400001928E-02 0. -1.
</event>
<event>
 5   0  0.4448804E-06  0.2699650E+04  0.7818609E-02  0.8335119E-01
       -2   -1    0    0    0  501  0.00000000000E+00  0.00000000000E+00  0.12812791931E+04  0.12812791931E+04  0.25500000920E-02 0. -1.
        2   -1    0    0  501    0  0.00000000000E+00  0.00000000000E+00 -0.14220376706E+04  0.14220376706E+04  0.25500000920E-02 0.  1.
    10030    2    1    2    0    0  0.00000000000E+00  0.00000000000E+00 -0.14075847745E+03  0.27033168637E+04  0.26996498137E+04 0.  0.
        2    1    3    3  502    0 -0.79657184181E+03  0.99224602681E+03 -0.52148911867E+03  0.13751471840E+04  0.25500000920E-02 0.  1.
       -2    1    3    3    0  502  0.79657184181E+03 -0.99224602681E+03  0.38073064122E+03  0.13281696797E+04  0.25500000920E-02 0. -1.
</event>
<event>
 5   0  0.1723605E-06  0.2706860E+04  0.7818609E-02  0.8332782E-01
        1   -1    0    0  501    0  0.00000000000E+00  0.00000000000E+00  0.14701406736E+04  0.14701406736E+04  0.50400001928E-02 0.  1.
       -1   -1    0    0    0  501  0.00000000000E+00  0.00000000000E+00 -0.12459849543E+04  0.12459849543E+04  0.50400001928E-02 0. -1.
    10030    2    1    2    0    0  0.00000000000E+00  0.00000000000E+00  0.22415571930E+03  0.27161256279E+04  0.27068602919E+04 0.  0.
        1    1    3    3  502    0  0.29863392741E+03  0.92634337509E+03 -0.83160865226E+03  0.12801824955E+04  0.50400001928E-02 0. -1.
       -1    1    3    3    0  502 -0.29863392741E+03 -0.92634337509E+03  0.10557643716E+04  0.14359431324E+04  0.50400001928E-02 0.  1.
</event>
<event>
 5   0  0.4655882E-06  0.2690695E+04  0.7818609E-02  0.8338030E-01
       -2   -1    0    0    0  501  0.00000000000E+00  0.00000000000E+00  0.14499934547E+04  0.14499934547E+04  0.25500000920E-02 0.  1.
        2   -1    0    0  501    0  0.00000000000E+00  0.00000000000E+00 -0.12482537002E+04  0.12482537002E+04  0.25500000920E-02 0. -1.
    10030    2    1    2    0    0  0.00000000000E+00  0.00000000000E+00  0.20173975454E+03  0.26982471548E+04  0.26906948508E+04 0.  0.
        1    1    3    3  502    0  0.74972472077E+03 -0.92756859830E+03  0.72510325707E+03  0.13957956136E+04  0.50400001928E-02 0.  1.
       -1    1    3    3    0  502 -0.74972472077E+03  0.92756859830E+03 -0.52336350253E+03  0.13024515412E+04  0.50400001928E-02 0. -1.
</event>
<event>
 5   0  0.4439357E-06  0.2789527E+04  0.7818609E-02  0.8306527E-01
       -2   -1    0    0    0  501  0.00000000000E+00  0.00000000000E+00  0.26901533917E+04  0.26901533917E+04  0.25500000920E-02 0.  1.
        2   -1    0    0  501    0  0.00000000000E+00  0.00000000000E+00 -0.72314298753E+03  0.72314298754E+03  0.25500000920E-02 0. -1.
    10030    2    1    2    0    0  0.00000000000E+00  0.00000000000E+00  0.19670104042E+04  0.34132963793E+04  0.27895272436E+04 0.  0.
        4    1    3    3  502    0 -0.11731530540E+04  0.60377431977E+03  0.43012389837E+03  0.13877462658E+04  0.12699999809E+01 0. -1.
       -4    1    3    3    0  502  0.11731530540E+04 -0.60377431977E+03  0.15368865058E+04  0.20255501135E+04  0.12699999809E+01 0.  1.
</event>
<event>
 5   0  0.4487186E-06  0.2699943E+04  0.7818609E-02  0.8335023E-01
        2   -1    0    0  501    0  0.00000000000E+00  0.00000000000E+00  0.12138986469E+04  0.12138986469E+04  0.25500000920E-02 0.  1.
       -2   -1    0    0    0  501  0.00000000000E+00  0.00000000000E+00 -0.15012976408E+04  0.15012976408E+04  0.25500000920E-02 0. -1.
    10030    2    1    2    0    0  0.00000000000E+00  0.00000000000E+00 -0.28739899388E+03  0.27151962877E+04  0.26999430918E+04 0.  0.
        3    1    3    3  502    0  0.10569927131E+04 -0.14851247746E+02  0.70066824576E+03  0.12682232280E+04  0.10100000352E+00 0.  1.
       -3    1    3    3    0  502 -0.10569927131E+04  0.14851247746E+02 -0.98806723964E+03  0.14469730597E+04  0.10100000352E+00 0. -1.
</event>
<event>
 5   0  0.1732312E-06  0.2705810E+04  0.7818609E-02  0.8333122E-01
        1   -1    0    0  501    0  0.00000000000E+00  0.00000000000E+00  0.13682140784E+04  0.13682140784E+04  0.50400001928E-02 0.  1.
       -1   -1    0    0    0  501  0.00000000000E+00  0.00000000000E+00 -0.13377671005E+04  0.13377671005E+04  0.50400001928E-02 0. -1.
    10030    2    1    2    0    0  0.00000000000E+00  0.00000000000E+00  0.30446977873E+02  0.27059811789E+04  0.27058098828E+04 0.  0.
        5    1    3    3  502    0 -0.92859204787E+03  0.17373059998E+03  0.98371867623E+03  0.13638878388E+04  0.46999998093E+01 0.  1.
       -5    1    3    3    0  502  0.92859204787E+03 -0.17373059998E+03 -0.95327169836E+03  0.13420933401E+04  0.46999998093E+01 0. -1.
</event>
<event>
 5   0  0.1771016E-06  0.2700988E+04  0.7818609E-02  0.8334685E-01
       -1   -1    0    0    0  501  0.00000000000E+00  0.00000000000E+00  0.10294921794E+04  0.10294921794E+04  0.50400001928E-02 0. -1.
        1   -1    0    0  501    0  0.00000000000E+00  0.00000000000E+00 -0.17715858716E+04  0.17715858716E+04  0.50400001928E-02 0.  1.
    10030    2    1    2    0    0  0.00000000000E+00  0.00000000000E+00 -0.74209369219E+03  0.28010780509E+04  0.27009878192E+04 0.  0.
        2    1    3    3  502    0 -0.74457374924E+03  0.35256617611E+03 -0.14808144259E+04  0.16945513685E+04  0.25500000920E-02 0.  1.
       -2    1    3    3    0  502  0.74457374924E+03 -0.35256617611E+03  0.73872073368E+03  0.11065266824E+04  0.25500000920E-02 0. -1.
</event>
<event>
 5   0  0.4655882E-06  0.2703846E+04  0.7818609E-02  0.8333758E-01
        2   -1    0    0  501    0  0.00000000000E+00  0.00000000000E+00  0.15470400447E+04  0.15470400447E+04  0.25500000920E-02 0.  1.
       -2   -1    0    0    0  501  0.00000000000E+00  0.00000000000E+00 -0.11814146517E+04  0.11814146517E+04  0.25500000920E-02 0. -1.
    10030    2    1    2    0    0  0.00000000000E+00  0.00000000000E+00  0.36562539301E+03  0.27284546964E+04  0.27038459835E+04 0.  0.
        1    1    3    3  502    0 -0.41616621974E+03  0.12839168621E+04  0.26136036057E+03  0.13747530940E+04  0.50400001928E-02 0.  1.
       -1    1    3    3    0  502  0.41616621974E+03 -0.12839168621E+04  0.10426503244E+03  0.13537016024E+04  0.50400001928E-02 0. -1.
</event>
<event>
 5   0  0.4439357E-06  0.2692872E+04  0.7818609E-02  0.8337322E-01
        2   -1    0    0  501    0  0.00000000000E+00  0.00000000000E+00  0.14946715014E+04  0.14946715014E+04  0.25500000920E-02 0. -1.
       -2   -1    0    0    0  501  0.00000000000E+00  0.00000000000E+00 -0.12129014826E+04  0.12129014826E+04  0.25500000920E-02 0.  1.
    10030    2    1    2    0    0  0.00000000000E+00  0.00000000000E+00  0.28177001876E+03  0.27075729840E+04  0.26928715380E+04 0.  0.
        4    1    3    3  502    0  0.77474945396E+03 -0.74735644557E+03  0.95407064016E+03  0.14384125877E+04  0.12699999809E+01 0. -1.
       -4    1    3    3    0  502 -0.77474945396E+03  0.74735644557E+03 -0.67230062140E+03  0.12691603963E+04  0.12699999809E+01 0.  1.
</event>
<event>
 5   0  0.4487186E-06  0.2703651E+04  0.7818609E-02  0.8333821E-01
        2   -1    0    0  501    0  0.00000000000E+00  0.00000000000E+00  0.17671882839E+04  0.17671882839E+04  0.25500000920E-02 0. -1.
       -2   -1    0    0    0  501  0.00000000000E+00  0.00000000000E+00 -0.10340901895E+04  0.10340901895E+04  0.25500000920E-02 0.  1.
    10030    2    1    2    0    0  0.00000000000E+00  0.00000000000E+00  0.73309809440E+03  0.28012784734E+04  0.27036509149E+04 0.  0.
        3    1    3    3  502    0  0.34207046968E+03 -0.56935700460E+03  0.15864563501E+04  0.17198905099E+04  0.10100000352E+00 0. -1.
       -3    1    3    3    0  502 -0.34207046968E+03  0.56935700460E+03 -0.85335825573E+03  0.10813879636E+04  0.10100000352E+00 0.  1.
</event>
<event>
 5   0  0.1753474E-06  0.2708908E+04  0.7818609E-02  0.8332120E-01
        1   -1    0    0  501    0  0.00000000000E+00  0.00000000000E+00  0.18046251180E+04  0.18046251181E+04  0.50400001928E-02 0. -1.
       -1   -1    0    0    0  501  0.00000000000E+00  0.00000000000E+00 -0.10165800689E+04  0.10165800689E+04  0.50400001928E-02 0.  1.
    10030    2    1    2    0    0  0.00000000000E+00  0.00000000000E+00  0.78804504917E+03  0.28212051869E+04  0.27089082132E+04 0.  0.
        3    1    3    3  502    0 -0.10274313785E+04  0.36457364899E+02 -0.52435012134E+03  0.11540742770E+04  0.10100000352E+00 0.  1.
       -3    1    3    3    0  502  0.10274313785E+04 -0.36457364899E+02  0.13123951705E+04  0.16671309099E+04  0.10100000352E+00 0. -1.
</event>
<event>
 5   0  0.4448804E-06  0.2699249E+04  0.7818609E-02  0.8335249E-01
        2   -1    0    0  501    0  0.00000000000E+00  0.00000000000E+00  0.22384165087E+04  0.22384165087E+04  0.25500000920E-02 0.  1.
       -2   -1    0    0    0  501  0.00000000000E+00  0.00000000000E+00 -0.81373897179E+03  0.81373897180E+03  0.25500000920E-02 0. -1.
    10030    2    1    2    0    0  0.00000000000E+00  0.00000000000E+00  0.14246775369E+04  0.30521554805E+04  0.26992493388E+04 0.  0.
        2    1    3    3  502    0 -0.80406923924E+03  0.68336222443E+03  0.16637598210E+04  0.19701796906E+04  0.25500000920E-02 0.  1.
       -2    1    3    3    0  502  0.80406923924E+03 -0.68336222443E+03 -0.23908228412E+03  0.10819757899E+04  0.25500000920E-02 0. -1.
</event>
<event>
 5   0  0.1723605E-06  0.2707552E+04  0.7818609E-02  0.8332559E-01
       -1   -1    0    0    0  501  0.00000000000E+00  0.00000000000E+00  0.17239883249E+04  0.17239883249E+04  0.50400001928E-02 0.  1.
        1   -1    0    0  501    0  0.00000000000E+00  0.00000000000E+00 -0.10630636461E+04  0.10630636461E+04  0.50400001928E-02 0. -1.
    10030    2    1    2    0    0  0.00000000000E+00  0.00000000000E+00  0.66092467883E+03  0.27870519710E+04  0.27075518939E+04 0.  0.
        1    1    3    3  502    0 -0.37258005668E+02 -0.73402667980E+03 -0.83981264063E+03  0.11160056438E+04  0.50400001928E-02 0. -1.
       -1    1    3    3    0  502  0.37258005668E+02  0.73402667980E+03  0.15007373195E+04  0.16710463272E+04  0.50400001928E-02 0.  1.
</event>
<event>
 5   0  0.1771016E-06  0.2716311E+04  0.7818609E-02  0.8329732E-01
       -1   -1    0    0    0  501  0.00000000000E+00  0.00000000000E+00  0.99369329122E+03  0.99369329123E+03  0.50400001928E-02 0.  1.
        1   -1    0    0  501    0  0.00000000000E+00  0.00000000000E+00 -0.18562933118E+04  0.18562933118E+04  0.50400001928E-02 0. -1.
    10030    2    1    2    0    0  0.00000000000E+00  0.00000000000E+00 -0.86260002055E+03  0.28499866030E+04  0.27163108883E+04 0.  0.
        2    1    3    3  502    0  0.52383796734E+02  0.38392833110E+03 -0.17970669425E+04  0.18383673793E+04  0.25500000920E-02 0. -1.
       -2    1    3    3    0  502 -0.52383796734E+02 -0.38392833110E+03  0.93446692192E+03  0.10116192237E+04  0.25500000920E-02 0.  1.
</event>
<event>
 5   0  0.4401659E-06  0.2714572E+04  0.7818609E-02  0.8330292E-01
       -2   -1    0    0    0  501  0.00000000000E+00  0.00000000000E+00  0.13832984713E+04  0.13832984713E+04  0.25500000920E-02 0. -1.
        2   -1    0    0  501    0  0.00000000000E+00  0.00000000000E+00 -0.13317629104E+04  0.13317629104E+04  0.25500000920E-02 0.  1.
    10030    2    1    2    0    0  0.00000000000E+00  0.00000000000E+00  0.51535560900E+02  0.27150613818E+04  0.27145722302E+04 0.  0.
        5    1    3    3  502    0  0.78384037965E+03 -0.98493366002E+03  0.53350426208E+03  0.13671682205E+04  0.46999998093E+01 0. -1.
       -5    1    3    3    0  502 -0.78384037965E+03  0.98493366002E+03 -0.48196870118E+03  0.13478931613E+04  0.46999998093E+01 0.  1.
</event>
<event>
 5   0  0.1723605E-06  0.2706551E+04  0.7818609E-02  0.8332882E-01
        1   -1    0    0  501    0  0.00000000000E+00  0.00000000000E+00  0.11770573927E+04  0.11770573927E+04  0.50400001928E-02 0.  1.
       -1   -1    0    0    0  501  0.00000000000E+00  0.00000000000E+00 -0.15558755349E+04  0.15558755349E+04  0.50400001928E-02 0. -1.
    10030    2    1    2    0    0  0.00000000000E+00  0.00000000000E+00 -0.37881814220E+03  0.27329329275E+04  0.27065511637E+04 0.  0.
        1    1    3    3  502    0  0.29537082145E+03  0.58859923318E+03  0.10043420239E+04  0.12009978686E+04  0.50400001928E-02 0.  1.
       -1    1    3    3    0  502 -0.29537082145E+03 -0.58859923318E+03 -0.13831601661E+04  0.15319350589E+04  0.50400001928E-02 0. -1.
</event>
<event>
 5   0  0.4439357E-06  0.2699506E+04  0.7818609E-02  0.8335165E-01
        2   -1    0    0  501    0  0.00000000000E+00  0.00000000000E+00  0.14899034612E+04  0.14899034612E+04  0.25500000920E-02 0.  1.
       -2   -1    0    0    0  501  0.00000000000E+00  0.00000000000E+00 -0.12227856660E+04  0.12227856660E+04  0.25500000920E-02 0. -1.
    10030    2    1    2    0    0  0.00000000000E+00  0.00000000000E+00  0.26711779520E+03  0.27126891271E+04  0.26995055814E+04 0.  0.
        4    1    3    3  502    0 -0.11209829645E+04 -0.10656272928E+03 -0.61430182059E+03  0.12827029125E+04  0.12699999809E+01 0. -1.
       -4    1    3    3    0  502  0.11209829645E+04  0.10656272928E+03  0.88141961578E+03  0.14299862146E+04  0.12699999809E+01 0.  1.
</event>
<event>
 5   0  0.4487186E-06  0.2702321E+04  0.7818609E-02  0.8334252E-01
       -2   -1    0    0    0  501  0.00000000000E+00  0.00000000000E+00  0.87391272702E+03  0.87391272703E+03  0.25500000920E-02 0.  1.
        2   -1    0    0  501    0  0.00000000000E+00  0.00000000000E+00 -0.20890350108E+04  0.20890350108E+04  0.25500000920E-02 0. -1.
    10030    2    1    2    0    0  0.00000000000E+00  0.00000000000E+00 -0.12151222838E+04  0.29629477378E+04  0.27023206939E+04 0.  0.
        3    1    3    3  502    0 -0.12466550267E+04  0.52039974935E+03 -0.57918843687E+03  0.14698380558E+04  0.10100000352E+00 0.  1.
       -3    1    3    3    0  502  0.12466550267E+04 -0.52039974935E+03 -0.63593384690E+03  0.14931096820E+04  0.10100000352E+00 0. -1.
</event>
<event>
 5   0  0.4401659E-06  0.2743154E+04  0.7818609E-02  0.8321137E-01
       -2   -1    0    0    0  501  0.00000000000E+00  0.00000000000E+00  0.87292229381E+03  0.87292229381E+03  0.25500000920E-02 0. -1.
        2   -1    0    0  501    0  0.00000000000E+00  0.00000000000E+00 -0.21550873120E+04  0.21550873120E+04  0.25500000920E-02 0.  1.
    10030    2    1    2    0    0  0.00000000000E+00  0.00000000000E+00 -0.12821650182E+04  0.30280096058E+04  0.27431542135E+04 0.  0.
        5    1    3    3  502    0  0.40953777116E+03  0.12855766786E+04 -0.36896112277E+03  0.13987791043E+04  0.46999998093E+01 0. -1.
       -5    1    3    3    0  502 -0.40953777116E+03 -0.12855766786E+04 -0.91320389546E+03  0.16292305015E+04  0.46999998093E+01 0.  1.
</event>
<event>
 5   0  0.1732312E-06  0.2702859E+04  0.7818609E-02  0.8334078E-01
       -1   -1    0    0    0  501  0.00000000000E+00  0.00000000000E+00  0.79470426988E+03  0.79470426990E+03  0.50400001928E-02 0. -1.
        1   -1    0    0  501    0  0.00000000000E+00  0.00000000000E+00 -0.22981648044E+04  0.22981648044E+04  0.50400001928E-02 0.  1.
    10030    2    1    2    0    0  0.00000000000E+00  0.00000000000E+00 -0.15034605346E+04  0.30928690743E+04  0.27028587703E+04 0.  0.
        5    1    3    3  502    0 -0.84255633088E+03 -0.11063132330E+03 -0.19541658634E+04  0.21309450421E+04  0.46999998093E+01 0.  1.
       -5    1    3    3    0  502  0.84255633088E+03  0.11063132330E+03  0.45070532889E+03  0.96192403229E+03  0.46999998093E+01 0. -1.
</event>
<event>
 5   0  0.4448804E-06  0.2674646E+04  0.7818609E-02  0.8343279E-01
       -2   -1    0    0    0  501  0.00000000000E+00  0.00000000000E+00  0.96305120795E+03  0.96305120796E+03  0.25500000920E-02 0. -1.
        2   -1    0    0  501    0  0.00000000000E+00  0.00000000000E+00 -0.18570487560E+04  0.18570487560E+04  0.25500000920E-02 0.  1.
    10030    2    1    2    0    0  0.00000000000E+00  0.00000000000E+00 -0.89399754807E+03  0.28200999640E+04  0.26746461805E+04 0.  0.
        2    1    3    3  502    0 -0.69831334490E+03  0.54976489144E+03  0.60661900508E+03  0.10760434846E+04  0.25500000920E-02 0. -1.
       -2    1    3    3    0  502  0.69831334490E+03 -0.54976489144E+03 -0.15006165531E+04  0.17440564793E+04  0.25500000920E-02 0.  1.
</event>
<event>
 5   0  0.4439357E-06  0.2696795E+04  0.7818609E-02  0.8336046E-01
        2   -1    0    0  501    0  0.00000000000E+00  0.00000000000E+00  0.21335171813E+04  0.21335171813E+04  0.25500000920E-02 0.  1.
       -2   -1    0    0    0  501  0.00000000000E+00  0.00000000000E+00 -0.85219643644E+03  0.85219643645E+03  0.25500000920E-02 0. -1.
    10030    2    1    2    0    0  0.00000000000E+00  0.00000000000E+00  0.12813207449E+04  0.29857136178E+04  0.26967949414E+04 0.  0.
        4    1    3    3  502    0  0.85329302958E+03 -0.83694550014E+02  0.17928568770E+04  0.19873226125E+04  0.12699999809E+01 0.  1.
       -4    1    3    3    0  502 -0.85329302958E+03  0.83694550014E+02 -0.51153613209E+03  0.99839100525E+03  0.12699999809E+01 0. -1.
</event>
<event>
 5   0  0.4439357E-06  0.2698589E+04  0.7818609E-02  0.8335463E-01
       -2   -1    0    0    0  501  0.00000000000E+00  0.00000000000E+00  0.10513144282E+04  0.10513144282E+04  0.25500000920E-02 0.  1.
        2   -1    0    0  501    0  0.00000000000E+00  0.00000000000E+00 -0.17317333908E+04  0.17317333908E+04  0.25500000920E-02 0. -1.
    10030    2    1    2    0    0  0.00000000000E+00  0.00000000000E+00 -0.68041896259E+03  0.27830478191E+04  0.26985894831E+04 0.  0.
        4    1    3    3  502    0 -0.63422623266E+03  0.34689530284E+03  0.83475238359E+03  0.11042610290E+04  0.12699999809E+01 0.  1.
       -4    1    3    3    0  502  0.63422623266E+03 -0.34689530284E+03 -0.15151713462E+04  0.16787867901E+04  0.12699999809E+01 0. -1.
</event>
<event>
 5   0  0.1828511E-06  0.2698156E+04  0.7818609E-02  0.8335604E-01
        1   -1    0    0  501    0  0.00000000000E+00  0.00000000000E+00  0.21424225217E+04  0.21424225218E+04  0.50400001928E-02 0. -1.
       -1   -1    0    0    0  501  0.00000000000E+00  0.00000000000E+00 -0.84951098802E+03  0.84951098804E+03  0.50400001928E-02 0.  1.
    10030    2    1    2    0    0  0.00000000000E+00  0.00000000000E+00  0.12929115337E+04  0.29919335098E+04  0.26981560172E+04 0.  0.
        4    1    3    3  502    0 -0.88771327989E+03 -0.81508323797E+03 -0.25872053937E+02  0.12054320919E+04  0.12699999809E+01 0. -1.
       -4    1    3    3    0  502  0.88771327989E+03  0.81508323797E+03  0.13187835877E+04  0.17865014179E+04  0.12699999809E+01 0.  1.
</event>
<event>
 5   0  0.1732312E-06  0.2700806E+04  0.7818609E-02  0.8334744E-01
        1   -1    0    0  501    0  0.00000000000E+00  0.00000000000E+00  0.11592385072E+04  0.11592385072E+04  0.50400001928E-02 0.  1.
       -1   -1    0    0    0  501  0.00000000000E+00  0.00000000000E+00 -0.15730912685E+04  0.15730912685E+04  0.50400001928E-02 0. -1.
    10030    2    1    2    0    0  0.00000000000E+00  0.00000000000E+00 -0.41385276130E+03  0.27323297758E+04  0.27008057863E+04 0.  0.
        5    1    3    3  502    0 -0.76164658695E+03  0.10854689325E+04 -0.46528444536E+03  0.14052971330E+04  0.46999998093E+01 0.  1.
       -5    1    3    3    0  502  0.76164658695E+03 -0.10854689325E+04  0.51431684059E+02  0.13270326428E+04  0.46999998093E+01 0. -1.
</event>
<event>
 5   0  0.1723605E-06  0.2713190E+04  0.7818609E-02  0.8330738E-01
        1   -1    0    0  501    0  0.00000000000E+00  0.00000000000E+00  0.94809913543E+03  0.94809913545E+03  0.50400001928E-02 0.  1.
       -1   -1    0    0    0  501  0.00000000000E+00  0.00000000000E+00 -0.19410939406E+04  0.19410939406E+04  0.50400001928E-02 0. -1.
    10030    2    1    2    0    0  0.00000000000E+00  0.00000000000E+00 -0.99299480513E+03  0.28891930760E+04  0.27131896262E+04 0.  0.
        1    1    3    3  502    0  0.53316851236E+03 -0.95209315266E+03  0.36176332956E+03  0.11496185196E+04  0.50400001928E-02 0.  1.
       -1    1    3    3    0  502 -0.53316851236E+03  0.95209315266E+03 -0.13547581347E+04  0.17395745564E+04  0.50400001928E-02 0. -1.
</event>
<event>
 5   0  0.1828511E-06  0.2707925E+04  0.7818609E-02  0.8332438E-01
       -1   -1    0    0    0  501  0.00000000000E+00  0.00000000000E+00  0.14617843199E+04  0.14617843199E+04  0.50400001928E-02 0. -1.
        1   -1    0    0  501    0  0.00000000000E+00  0.00000000000E+00 -0.12540934160E+04  0.12540934160E+04  0.50400001928E-02 0.  1.
    10030    2    1    2    0    0  0.00000000000E+00  0.00000000000E+00  0.20769090395E+03  0.27158777359E+04  0.27079247340E+04 0.  0.
        4    1    3    3  502    0  0.12376398449E+03 -0.12038311714E+04 -0.50513259079E+03  0.13113685830E+04  0.12699999809E+01 0.  1.
       -4    1    3    3    0  502 -0.12376398449E+03  0.12038311714E+04  0.71282349475E+03  0.14045091530E+04  0.12699999809E+01 0. -1.
</event>
<event>
 5   0  0.1723605E-06  0.2700754E+04  0.7818609E-02  0.8334760E-01
        1   -1    0    0  501    0  0.00000000000E+00  0.00000000000E+00  0.18938801137E+04  0.18938801137E+04  0.50400001928E-02 0. -1.
       -1   -1    0    0    0  501  0.00000000000E+00  0.00000000000E+00 -0.96284798002E+03  0.96284798003E+03  0.50400001928E-02 0.  1.
    10030    2    1    2    0    0  0.00000000000E+00  0.00000000000E+00  0.93103213370E+03  0.28567280938E+04  0.27007544442E+04 0.  0.
        1    1    3    3  502    0  0.10013548798E+04 -0.57587808922E+03  0.12053161359E+04  0.16694712206E+04  0.50400001928E-02 0. -1.
       -1    1    3    3    0  502 -0.10013548798E+04  0.57587808922E+03 -0.27428400222E+03  0.11872568731E+04  0.50400001928E-02 0.  1.
</event>
<event>
 5   0  0.4448804E-06  0.2677618E+04  0.7818609E-02  0.8342304E-01
        2   -1    0    0  501    0  0.00000000000E+00  0.00000000000E+00  0.10686855567E+04  0.10686855567E+04  0.25500000920E-02 0. -1.
       -2   -1    0    0    0  501  0.00000000000E+00  0.00000000000E+00 -0.16772098013E+04  0.16772098013E+04  0.25500000920E-02 0.  1.
    10030    2    1    2    0    0  0.00000000000E+00  0.00000000000E+00 -0.60852424462E+03  0.27458953581E+04  0.26776182628E+04 0.  0.
        2    1    3    3  502    0 -0.54608340569E+02 -0.99390986517E+03  0.61387240445E+03  0.11694777552E+04  0.25500000920E-02 0. -1.
       -2    1    3    3    0  502  0.54608340569E+02  0.99390986517E+03 -0.12223966491E+04  0.15764176029E+04  0.25500000920E-02 0.  1.
</event>
<event>
 5   0  0.1828511E-06  0.2721724E+04  0.7818609E-02  0.8327991E-01
        1   -1    0    0  501    0  0.00000000000E+00  0.00000000000E+00  0.14511735632E+04  0.14511735632E+04  0.50400001928E-02 0. -1.
       -1   -1    0    0    0  501  0.00000000000E+00  0.00000000000E+00 -0.12761709402E+04  0.12761709402E+04  0.50400001928E-02 0.  1.
    10030    2    1    2    0    0  0.00000000000E+00  0.00000000000E+00  0.17500262300E+03  0.27273445033E+04  0.27217241083E+04 0.  0.
        4    1    3    3  502    0 -0.12633975384E+04 -0.40603122966E+03 -0.21463286898E+03  0.13442855281E+04  0.12699999809E+01 0. -1.
       -4    1    3    3    0  502  0.12633975384E+04  0.40603122966E+03  0.38963549197E+03  0.13830589753E+04  0.12699999809E+01 0.  1.
</event>
<event>
 5   0  0.4439357E-06  0.2692710E+04  0.7818609E-02  0.8337374E-01
        2   -1    0    0  501    0  0.00000000000E+00  0.00000000000E+00  0.89804488925E+03  0.89804488926E+03  0.25500000920E-02 0. -1.
       -2   -1    0    0    0  501  0.00000000000E+00  0.00000000000E+00 -0.20184647951E+04  0.20184647951E+04  0.25500000920E-02 0.  1.
    10030    2    1    2    0    0  0.00000000000E+00  0.00000000000E+00 -0.11204199058E+04  0.29165096843E+04  0.26927101540E+04 0.  0.
        4    1    3    3  502    0  0.11848117224E+03  0.36656734762E+03 -0.19574934483E+04  0.19950417593E+04  0.12699999809E+01 0.  1.
       -4    1    3    3    0  502 -0.11848117224E+03 -0.36656734762E+03  0.83707354243E+03  0.92146792503E+03  0.12699999809E+01 0. -1.
</event>
<event>
 5   0  0.1723605E-06  0.2713336E+04  0.7818609E-02  0.8330691E-01
        1   -1    0    0  501    0  0.00000000000E+00  0.00000000000E+00  0.13443387292E+04  0.13443387292E+04  0.50400001928E-02 0. -1.
       -1   -1    0    0    0  501  0.00000000000E+00  0.00000000000E+00 -0.13691106668E+04  0.13691106669E+04  0.50400001928E-02 0.  1.
    10030    2    1    2    0    0  0.00000000000E+00  0.00000000000E+00 -0.24771937631E+02  0.27134493961E+04  0.27133363183E+04 0.  0.
        1    1    3    3  502    0 -0.14766994326E+03  0.95955911523E+03 -0.96004795223E+03  0.13653762040E+04  0.50400001928E-02 0.  1.
       -1    1    3    3    0  502  0.14766994326E+03 -0.95955911523E+03  0.93527601460E+03  0.13480731921E+04  0.50400001928E-02 0. -1.
</event>
<event>
 5   0  0.1732312E-06  0.2667863E+04  0.7818609E-02  0.8345508E-01
       -1   -1    0    0    0  501  0.00000000000E+00  0.00000000000E+00  0.13240513605E+04  0.13240513605E+04  0.50400001928E-02 0.  1.
        1   -1    0    0  501    0  0.00000000000E+00  0.00000000000E+00 -0.13438852386E+04  0.13438852386E+04  0.50400001928E-02 0. -1.
    10030    2    1    2    0    0  0.00000000000E+00  0.00000000000E+00 -0.19833878116E+02  0.26679365991E+04  0.26678628740E+04 0.  0.
        5    1    3    3  502    0  0.90141232460E+03 -0.11241949154E+03 -0.98675950790E+03  0.13412303074E+04  0.46999998093E+01 0. -1.
       -5    1    3    3    0  502 -0.90141232460E+03  0.11241949154E+03  0.96692562978E+03  0.13267062917E+04  0.46999998093E+01 0.  1.
</event>
<event>
 5   0  0.4448804E-06  0.2699785E+04  0.7818609E-02  0.8335075E-01
        2   -1    0    0  501    0  0.00000000000E+00  0.00000000000E+00  0.15097624856E+04  0.15097624856E+04  0.25500000920E-02 0. -1.
       -2   -1    0    0    0  501  0.00000000000E+00  0.00000000000E+00 -0.12069510740E+04  0.12069510740E+04  0.25500000920E-02 0.  1.
    10030    2    1    2    0    0  0.00000000000E+00  0.00000000000E+00  0.30281141160E+03  0.27167135596E+04  0.26997847718E+04 0.  0.
        2    1    3    3  502    0 -0.17663103852E+03 -0.13322972875E+04  0.27866954719E+03  0.13725419129E+04  0.25500000920E-02 0. -1.
       -2    1    3    3    0  502  0.17663103852E+03  0.13322972875E+04  0.24141864409E+02  0.13441716467E+04  0.25500000920E-02 0.  1.
</event>
<event>
 5   0  0.4487186E-06  0.2695113E+04  0.7818609E-02  0.8336592E-01
        2   -1    0    0  501    0  0.00000000000E+00  0.00000000000E+00  0.16413694449E+04  0.16413694449E+04  0.25500000920E-02 0. -1.
       -2   -1    0    0    0  501  0.00000000000E+00  0.00000000000E+00 -0.11063374035E+04  0.11063374035E+04  0.25500000920E-02 0.  1.
    10030    2    1    2    0    0  0.00000000000E+00  0.00000000000E+00  0.53503204141E+03  0.27477068484E+04  0.26951129178E+04 0.  0.
        3    1    3    3  502    0  0.26175726450E+03  0.12385748949E+04 -0.20336702015E+03  0.12821633246E+04  0.10100000352E+00 0.  1.
       -3    1    3    3    0  502 -0.26175726450E+03 -0.12385748949E+04  0.73839906157E+03  0.14655435238E+04  0.10100000352E+00 0. -1.
</event>
<event>
 5   0  0.4401659E-06  0.2689001E+04  0.7818609E-02  0.8338583E-01
        2   -1    0    0  501    0  0.00000000000E+00  0.00000000000E+00  0.11609872095E+04  0.11609872095E+04  0.25500000920E-02 0.  1.
       -2   -1    0    0    0  501  0.00000000000E+00  0.00000000000E+00 -0.15570207290E+04  0.15570207290E+04  0.25500000920E-02 0. -1.
    10030    2    1    2    0    0  0.00000000000E+00  0.00000000000E+00 -0.39603351946E+03  0.27180079385E+04  0.26890006704E+04 0.  0.
        5    1    3    3  502    0 -0.22033715779E+03 -0.73342706478E+03  0.91898119871E+03  0.11962492449E+04  0.46999998093E+01 0.  1.
       -5    1    3    3    0  502  0.22033715779E+03  0.73342706478E+03 -0.13150147182E+04  0.15217586936E+04  0.46999998093E+01 0. -1.
</event>
<event>
 5   0  0.1828511E-06  0.2708738E+04  0.7818609E-02  0.8332175E-01
        1   -1    0    0  501    0  0.00000000000E+00  0.00000000000E+00  0.15437300336E+04  0.15437300336E+04  0.50400001928E-02 0.  1.
       -1   -1    0    0    0  501  0.00000000000E+00  0.00000000000E+00 -0.11882358300E+04  0.11882358300E+04  0.50400001928E-02 0. -1.
    10030    2    1    2    0    0  0.00000000000E+00  0.00000000000E+00  0.35549420355E+03  0.27319658636E+04  0.27087379628E+04 0.  0.
        4    1    3    3  502    0 -0.10287042999E+03  0.38245157557E+03 -0.11285279856E+04  0.11960052509E+04  0.12699999809E+01 0. -1.
       -4    1    3    3    0  502  0.10287042999E+03 -0.38245157557E+03  0.14840221891E+04  0.15359606127E+04  0.12699999809E+01 0.  1.
</event>
<event>
 5   0  0.1723605E-06  0.2677467E+04  0.7818609E-02  0.8342353E-01
        1   -1    0    0  501    0  0.00000000000E+00  0.00000000000E+00  0.99951739014E+03  0.99951739015E+03  0.50400001928E-02 0. -1.
       -1   -1    0    0    0  501  0.00000000000E+00  0.00000000000E+00 -0.17930725909E+04  0.17930725909E+04  0.50400001928E-02 0.  1.
    10030    2    1    2    0    0  0.00000000000E+00  0.00000000000E+00 -0.79355520076E+03  0.27925899811E+04  0.26774668897E+04 0.  0.
        1    1    3    3  502    0 -0.10460216280E+04  0.78575227612E+03 -0.10059702133E+03  0.13121309563E+04  0.50400001928E-02 0.  1.
       -1    1    3    3    0  502  0.10460216280E+04 -0.78575227612E+03 -0.69295817944E+03  0.14804590248E+04  0.50400001928E-02 0. -1.
</event>
<event>
 5   0  0.1732312E-06  0.2692220E+04  0.7818609E-02  0.8337534E-01
        1   -1    0    0  501    0  0.00000000000E+00  0.00000000000E+00  0.16237139958E+04  0.16237139958E+04  0.50400001928E-02 0. -1.
       -1   -1    0    0    0  501  0.00000000000E+00  0.00000000000E+00 -0.11159675674E+04  0.11159675674E+04  0.50400001928E-02 0.  1.
    10030    2    1    2    0    0  0.00000000000E+00  0.00000000000E+00  0.50774642844E+03  0.27396815632E+04  0.26922200193E+04 0.  0.
        5    1    3    3  502    0 -0.11822754332E+03 -0.99077588442E+03 -0.66559031884E+03  0.11994361874E+04  0.46999998093E+01 0.  1.
       -5    1    3    3    0  502  0.11822754332E+03  0.99077588442E+03  0.11733367473E+04  0.15402453758E+04  0.46999998093E+01 0. -1.
</event>
<event>
 5   0  0.4487186E-06  0.2685773E+04  0.7818609E-02  0.8339636E-01
       -2   -1    0    0    0  501  0.00000000000E+00  0.00000000000E+00  0.85959253048E+03  0.85959253048E+03  0.25500000920E-02 0. -1.
        2   -1    0    0  501    0  0.00000000000E+00  0.00000000000E+00 -0.20979059130E+04  0.20979059130E+04  0.25500000920E-02 0.  1.
    10030    2    1    2    0    0  0.00000000000E+00  0.00000000000E+00 -0.12383133825E+04  0.29574984435E+04  0.26857730749E+04 0.  0.
        3    1    3    3  502    0  0.90986258205E+03  0.91062527900E+03 -0.10402825834E+04  0.16550758836E+04  0.10100000352E+00 0.  1.
       -3    1    3    3    0  502 -0.90986258205E+03 -0.91062527900E+03 -0.19803079917E+03  0.13024225599E+04  0.10100000352E+00 0. -1.
</event>
<event>
 5   0  0.4448804E-06  0.2702811E+04  0.7818609E-02  0.8334093E-01
        2   -1    0    0  501    0  0.00000000000E+00  0.00000000000E+00  0.81853122968E+03  0.81853122969E+03  0.25500000920E-02 0. -1.
       -2   -1    0    0    0  501  0.00000000000E+00  0.00000000000E+00 -0.22311881698E+04  0.22311881698E+04  0.25500000920E-02 0.  1.
    10030    2    1    2    0    0  0.00000000000E+00  0.00000000000E+00 -0.14126569401E+04  0.30497193994E+04  0.27028112744E+04 0.  0.
        2    1    3    3  502    0 -0.11253869595E+04 -0.18995499525E+03  0.11024095199E+03  0.11466175371E+04  0.25500000920E-02 0. -1.
       -2    1    3    3    0  502  0.11253869595E+04  0.18995499525E+03 -0.15228978921E+04  0.19031018624E+04  0.25500000920E-02 0.  1.
</event>
<event>
 5   0  0.1771016E-06  0.2698981E+04  0.7818609E-02  0.8335336E-01
        1   -1    0    0  501    0  0.00000000000E+00  0.00000000000E+00  0.13174769172E+04  0.13174769172E+04  0.50400001928E-02 0.  1.
       -1   -1    0    0    0  501  0.00000000000E+00  0.00000000000E+00 -0.13822816393E+04  0.13822816394E+04  0.50400001928E-02 0. -1.
    10030    2    1    2    0    0  0.00000000000E+00  0.00000000000E+00 -0.64804722151E+02  0.26997585566E+04  0.26989806616E+04 0.  0.
        2    1    3    3  502    0  0.31460175045E+03 -0.21016986681E+03  0.12633390890E+04  0.13187764360E+04  0.25500000920E-02 0.  1.
       -2    1    3    3    0  502 -0.31460175045E+03  0.21016986681E+03 -0.13281438111E+04  0.13809821206E+04  0.25500000920E-02 0. -1.
</event>
<event>
 5   0  0.1771016E-06  0.2694112E+04  0.7818609E-02  0.8336918E-01
        1   -1    0    0  501    0  0.00000000000E+00  0.00000000000E+00  0.20502788119E+04  0.20502788119E+04  0.50400001928E-02 0.  1.
       -1   -1    0    0    0  501  0.00000000000E+00  0.00000000000E+00 -0.88503086954E+03  0.88503086956E+03  0.50400001928E-02 0. -1.
    10030    2    1    2    0    0  0.00000000000E+00  0.00000000000E+00  0.11652479423E+04  0.29353096814E+04  0.26941121281E+04 0.  0.
        2    1    3    3  502    0  0.69843981687E+03 -0.33257402059E+03 -0.61889159232E+03  0.99068181573E+03  0.25500000920E-02 0. -1.
       -2    1    3    3    0  502 -0.69843981687E+03  0.33257402059E+03  0.17841395346E+04  0.19446278657E+04  0.25500000920E-02 0.  1.
</event>
<event>
 5   0  0.4655882E-06  0.2692654E+04  0.7818609E-02  0.8337392E-01
        2   -1    0    0  501    0  0.00000000000E+00  0.00000000000E+00  0.25201999652E+04  0.25201999652E+04  0.25500000920E-02 0.  1.
       -2   -1    0    0    0  501  0.00000000000E+00  0.00000000000E+00 -0.71922717643E+03  0.71922717644E+03  0.25500000920E-02 0. -1.
    10030    2    1    2    0    0  0.00000000000E+00  0.00000000000E+00  0.18009727887E+04  0.32394271416E+04  0.26926539362E+04 0.  0.
        1    1    3    3  502    0 -0.10103311525E+03  0.12036250694E+04  0.16159541160E+04  0.20174807814E+04  0.50400001928E-02 0.  1.
       -1    1    3    3    0  502  0.10103311525E+03 -0.12036250694E+04  0.18501867270E+03  0.12219463602E+04  0.50400001928E-02 0. -1.
</event>
<event>
 5   0  0.1753474E-06  0.2701957E+04  0.7818609E-02  0.8334370E-01
       -1   -1    0    0    0  501  0.00000000000E+00  0.00000000000E+00  0.12389998035E+04  0.12389998035E+04  0.50400001928E-02 0. -1.
        1   -1    0    0  501    0  0.00000000000E+00  0.00000000000E+00 -0.14730771926E+04  0.14730771926E+04  0.50400001928E-02 0.  1.
    10030    2    1    2    0    0  0.00000000000E+00  0.00000000000E+00 -0.23407738904E+03  0.27120769961E+04  0.27019565890E+04 0.  0.
        3    1    3    3  502    0  0.64668873088E+03 -0.11745982841E+03  0.10676954540E+04  0.12537849571E+04  0.10100000352E+00 0. -1.
       -3    1    3    3    0  502 -0.64668873088E+03  0.11745982841E+03 -0.13017728430E+04  0.14582920390E+04  0.10100000352E+00 0.  1.
</event>
<event>
 5   0  0.4655882E-06  0.2702302E+04  0.7818609E-02  0.8334258E-01
        2   -1    0    0  501    0  0.00000000000E+00  0.00000000000E+00  0.21443021961E+04  0.21443021961E+04  0.25500000920E-02 0.  1.
       -2   -1    0    0    0  501  0.00000000000E+00  0.00000000000E+00 -0.85137679320E+03  0.85137679321E+03  0.25500000920E-02 0. -1.
    10030    2    1    2    0    0  0.00000000000E+00  0.00000000000E+00  0.12929254029E+04  0.29956789893E+04  0.27023020759E+04 0.  0.
        1    1    3    3  502    0 -0.95895120954E+03  0.62525976663E+03 -0.14913829727E+03  0.11544606662E+04  0.50400001928E-02 0. -1.
       -1    1    3    3    0  502  0.95895120954E+03 -0.62525976663E+03  0.14420637002E+04  0.18412183231E+04  0.50400001928E-02 0.  1.
</event>
<event>
 5   0  0.1771016E-06  0.2696684E+04  0.7818609E-02  0.8336082E-01
       -1   -1    0    0    0  501  0.00000000000E+00  0.00000000000E+00  0.10332981503E+04  0.10332981503E+04  0.50400001928E-02 0.  1.
        1   -1    0    0  501    0  0.00000000000E+00  0.00000000000E+00 -0.17594399474E+04  0.17594399474E+04  0.50400001928E-02 0. -1.
    10030    2    1    2    0    0  0.00000000000E+00  0.00000000000E+00 -0.72614179712E+03  0.27927380977E+04  0.26966839216E+04 0.  0.
        2    1    3    3  502    0  0.35894028639E+03 -0.12874754089E+04 -0.54715201680E+03  0.14442321099E+04  0.25500000920E-02 0. -1.
       -2    1    3    3    0  502 -0.35894028639E+03  0.12874754089E+04 -0.17898978032E+03  0.13485059878E+04  0.25500000920E-02 0.  1.
</event>
<event>
 5   0  0.1828511E-06  0.2696532E+04  0.7818609E-02  0.8336131E-01
        1   -1    0    0  501    0  0.00000000000E+00  0.00000000000E+00  0.86190064678E+03  0.86190064679E+03  0.50400001928E-02 0.  1.
       -1   -1    0    0    0  501  0.00000000000E+00  0.00000000000E+00 -0.21090837654E+04  0.21090837654E+04  0.50400001928E-02 0. -1.
    10030    2    1    2    0    0  0.00000000000E+00  0.00000000000E+00 -0.12471831186E+04  0.29709844122E+04  0.26965315956E+04 0.  0.
        4    1    3    3  502    0 -0.11364935336E+04 -0.72390733448E+03 -0.57238939188E+03  0.14639981590E+04  0.12699999809E+01 0. -1.
       -4    1    3    3    0  502  0.11364935336E+04  0.72390733448E+03 -0.67479372675E+03  0.15069862532E+04  0.12699999809E+01 0.  1.
</event>
<event>
 5   0  0.4439357E-06  0.2696353E+04  0.7818609E-02  0.8336189E-01
       -2   -1    0    0    0  501  0.00000000000E+00  0.00000000000E+00  0.10022541699E+04  0.10022541699E+04  0.25500000920E-02 0.  1.
        2   -1    0    0  501    0  0.00000000000E+00  0.00000000000E+00 -0.18134925690E+04  0.18134925690E+04  0.25500000920E-02 0. -1.
    10030    2    1    2    0    0  0.00000000000E+00  0.00000000000E+00 -0.81123839908E+03  0.28157467389E+04  0.26963534556E+04 0.  0.
        4    1    3    3  502    0 -0.37021748924E+02 -0.12642821481E+04 -0.89297330136E+03  0.15482838531E+04  0.12699999809E+01 0. -1.
       -4    1    3    3    0  502  0.37021748924E+02  0.12642821481E+04  0.81734902278E+02  0.12674628858E+04  0.12699999809E+01 0.  1.
</event>
<event>
 5   0  0.4448804E-06  0.2698061E+04  0.7818609E-02  0.8335634E-01
        2   -1    0    0  501    0  0.00000000000E+00  0.00000000000E+00  0.20471420169E+04  0.20471420169E+04  0.25500000920E-02 0.  1.
       -2   -1    0    0    0  501  0.00000000000E+00  0.00000000000E+00 -0.88898716401E+03  0.88898716401E+03  0.25500000920E-02 0. -1.
    10030    2    1    2    0    0  0.00000000000E+00  0.00000000000E+00  0.11581548529E+04  0.29361291809E+04  0.26980607672E+04 0.  0.
        2    1    3    3  502    0 -0.96148440580E+03 -0.73366619348E+03 -0.71288312162E+02  0.12115281134E+04  0.25500000920E-02 0. -1.
       -2    1    3    3    0  502  0.96148440580E+03  0.73366619348E+03  0.12294431650E+04  0.17246010675E+04  0.25500000920E-02 0.  1.
</event>
<event>
 5   0  0.1732312E-06  0.2689785E+04  0.7818609E-02  0.8338327E-01
       -1   -1    0    0    0  501  0.00000000000E+00  0.00000000000E+00  0.11821023700E+04  0.11821023700E+04  0.50400001928E-02 0. -1.
        1   -1    0    0  501    0  0.00000000000E+00  0.00000000000E+00 -0.15301005808E+04  0.15301005808E+04  0.50400001928E-02 0.  1.
    10030    2    1    2    0    0  0.00000000000E+00  0.00000000000E+00 -0.34799821080E+03  0.27122029509E+04  0.26897847669E+04 0.  0.
        5    1    3    3  502    0  0.79313410227E+03 -0.77305447035E+03  0.59527394157E+03  0.12573973413E+04  0.46999998093E+01 0. -1.
       -5    1    3    3    0  502 -0.79313410227E+03  0.77305447035E+03 -0.94327215238E+03  0.14548056096E+04  0.46999998093E+01 0.  1.
</event>
<event>
 5   0  0.4401659E-06  0.2685125E+04  0.7818609E-02  0.8339848E-01
       -2   -1    0    0    0  501  0.00000000000E+00  0.00000000000E+00  0.67412029974E+03  0.67412029974E+03  0.25500000920E-02 0.  1.
        2   -1    0    0  501    0  0.00000000000E+00  0.00000000000E+00 -0.26738157538E+04  0.26738157538E+04  0.25500000920E-02 0. -1.
    10030    2    1    2    0    0  0.00000000000E+00  0.00000000000E+00 -0.19996954541E+04  0.33479360536E+04  0.26851245613E+04 0.  0.
        5    1    3    3  502    0  0.46264868432E+03  0.42888026614E+03  0.47779296455E+03  0.79138504835E+03  0.46999998093E+01 0.  1.
       -5    1    3    3    0  502 -0.46264868432E+03 -0.42888026614E+03 -0.24774884186E+04  0.25565510052E+04  0.46999998093E+01 0. -1.
</event>
<event>
 5   0  0.4448804E-06  0.2717151E+04  0.7818609E-02  0.8329462E-01
        2   -1    0    0  501    0  0.00000000000E+00  0.00000000000E+00  0.25103908617E+04  0.25103908617E+04  0.25500000920E-02 0.  1.
       -2   -1    0    0    0  501  0.00000000000E+00  0.00000000000E+00 -0.73523485539E+03  0.73523485539E+03  0.25500000920E-02 0. -1.
    10030    2    1    2    0    0  0.00000000000E+00  0.00000000000E+00  0.17751560063E+04  0.32456257171E+04  0.27171506121E+04 0.  0.
        2    1    3    3  502    0 -0.70628792322E+03 -0.83088442796E+03 -0.80269979887E+02  0.10934600280E+04  0.25500000920E-02 0. -1.
       -2    1    3    3    0  502  0.70628792322E+03  0.83088442796E+03  0.18554259862E+04  0.21521656891E+04  0.25500000920E-02 0.  1.
</event>
<event>
 5   0  0.1771016E-06  0.2706586E+04  0.7818609E-02  0.8332871E-01
       -1   -1    0    0    0  501  0.00000000000E+00  0.00000000000E+00  0.10112388225E+04  0.10112388225E+04  0.50400001928E-02 0.  1.
        1   -1    0    0  501    0  0.00000000000E+00  0.00000000000E+00 -0.18110473844E+04  0.18110473844E+04  0.50400001928E-02 0. -1.
    10030    2    1    2    0    0  0.00000000000E+00  0.00000000000E+00 -0.79980856192E+03  0.28222862069E+04  0.27065856162E+04 0.  0.
        2    1    3    3  502    0 -0.99006077255E+03  0.43571127027E+03  0.44808550669E+03  0.11708310150E+04  0.25500000920E-02 0.  1.
       -2    1    3    3    0  502  0.99006077255E+03 -0.43571127027E+03 -0.12478940686E+04  0.16514551919E+04  0.25500000920E-02 0. -1.
</event>
<event>
 5   0  0.1753474E-06  0.2709090E+04  0.7818609E-02  0.8332062E-01
        1   -1    0    0  501    0  0.00000000000E+00  0.00000000000E+00  0.18674304626E+04  0.18674304626E+04  0.50400001928E-02 0.  1.
       -1   -1    0    0    0  501  0.00000000000E+00  0.00000000000E+00 -0.98252198811E+03  0.98252198812E+03  0.50400001928E-02 0. -1.
    10030    2    1    2    0    0  0.00000000000E+00  0.00000000000E+00  0.88490847445E+03  0.28499524507E+04  0.27090895081E+04 0.  0.
        3    1    3    3  502    0 -0.84111398939E+03 -0.83313020583E+03 -0.24995826144E+03  0.12099825725E+04  0.10100000352E+00 0. -1.
       -3    1    3    3    0  502  0.84111398939E+03  0.83313020583E+03  0.11348667359E+04  0.16399698782E+04  0.10100000352E+00 0.  1.
</event>
<event>
 5   0  0.4655882E-06  0.2727528E+04  0.7818609E-02  0.8326128E-01
        2   -1    0    0  501    0  0.00000000000E+00  0.00000000000E+00  0.34591192614E+04  0.34591192614E+04  0.25500000920E-02 0.  1.
       -2   -1    0    0    0  501  0.00000000000E+00  0.00000000000E+00 -0.53766633226E+03  0.53766633227E+03  0.25500000920E-02 0. -1.
    10030    2    1    2    0    0  0.00000000000E+00  0.00000000000E+00  0.29214529292E+04  0.39967855937E+04  0.27275277936E+04 0.  0.
        1    1    3    3  502    0  0.33360662387E+03  0.12619999540E+04  0.88211744111E+03  0.15754581693E+04  0.50400001928E-02 0. -1.
       -1    1    3    3    0  502 -0.33360662387E+03 -0.12619999540E+04  0.20393354881E+04  0.24213274244E+04  0.50400001928E-02 0.  1.
</event>
<event>
 5   0  0.1753474E-06  0.2699009E+04  0.7818609E-02  0.8335327E-01
       -1   -1    0    0    0  501  0.00000000000E+00  0.00000000000E+00  0.82927417248E+03  0.82927417250E+03  0.50400001928E-02 0.  1.
        1   -1    0    0  501    0  0.00000000000E+00  0.00000000000E+00 -0.21960918676E+04  0.21960918676E+04  0.50400001928E-02 0. -1.
    10030    2    1    2    0    0  0.00000000000E+00  0.00000000000E+00 -0.13668176951E+04  0.30253660401E+04  0.26990089042E+04 0.  0.
        3    1    3    3  502    0  0.11214654913E+04  0.36846879124E+03 -0.14164821057E+04  0.18438751759E+04  0.10100000352E+00 0. -1.
       -3    1    3    3    0  502 -0.11214654913E+04 -0.36846879124E+03  0.49664410543E+02  0.11814908642E+04  0.10100000352E+00 0.  1.
</event>
<event>
 5   0  0.4448804E-06  0.2703455E+04  0.7818609E-02  0.8333885E-01
        2   -1    0    0  501    0  0.00000000000E+00  0.00000000000E+00  0.14905623342E+04  0.14905623342E+04  0.25500000920E-02 0.  1.
       -2   -1    0    0    0  501  0.00000000000E+00  0.00000000000E+00 -0.12258239406E+04  0.12258239406E+04  0.25500000920E-02 0. -1.
    10030    2    1    2    0    0  0.00000000000E+00  0.00000000000E+00  0.26473839359E+03  0.27163862747E+04  0.27034548223E+04 0.  0.
        2    1    3    3  502    0  0.78287587598E+03  0.26996807381E+03  0.12058378470E+04  0.14628131499E+04  0.25500000920E-02 0.  1.
       -2    1    3    3    0  502 -0.78287587598E+03 -0.26996807381E+03 -0.94109945345E+03  0.12535731249E+04  0.25500000920E-02 0. -1.
</event>
<event>
 5   0  0.4487186E-06  0.2707323E+04  0.7818609E-02  0.8332633E-01
        2   -1    0    0  501    0  0.00000000000E+00  0.00000000000E+00  0.20437774845E+04  0.20437774846E+04  0.25500000920E-02 0. -1.
       -2   -1    0    0    0  501  0.00000000000E+00  0.00000000000E+00 -0.89657497654E+03  0.89657497655E+03  0.25500000920E-02 0.  1.
    10030    2    1    2    0    0  0.00000000000E+00  0.00000000000E+00  0.11472025080E+04  0.29403524611E+04  0.27073232170E+04 0.  0.
        3    1    3    3  502    0 -0.57217776925E+03  0.21902107606E+03 -0.73737654316E+03  0.95868754450E+03  0.10100000352E+00 0.  1.
       -3    1    3    3    0  502  0.57217776925E+03 -0.21902107606E+03  0.18845790512E+04  0.19816649166E+04  0.10100000352E+00 0. -1.
</event>
<event>
 5   0  0.4655882E-06  0.2685559E+04  0.7818609E-02  0.8339706E-01
       -2   -1    0    0    0  501  0.00000000000E+00  0.00000000000E+00  0.23042776470E+04  0.23042776470E+04  0.25500000920E-02 0.  1.
        2   -1    0    0  501    0  0.00000000000E+00  0.00000000000E+00 -0.78248223318E+03  0.78248223318E+03  0.25500000920E-02 0. -1.
    10030    2    1    2    0    0  0.00000000000E+00  0.00000000000E+00  0.15217954139E+04  0.30867598802E+04  0.26855586526E+04 0.  0.
        1    1    3    3  502    0 -0.18104135393E+03  0.11967527982E+04  0.14291909679E+04  0.18728534525E+04  0.50400001928E-02 0.  1.
       -1    1    3    3    0  502  0.18104135393E+03 -0.11967527982E+04  0.92604446004E+02  0.12139064277E+04  0.50400001928E-02 0. -1.
</event>
<event>
 5   0  0.4401659E-06  0.2695717E+04  0.7818609E-02  0.8336396E-01
        2   -1    0    0  501    0  0.00000000000E+00  0.00000000000E+00  0.17620530523E+04  0.17620530523E+04  0.25500000920E-02 0. -1.
       -2   -1    0    0    0  501  0.00000000000E+00  0.00000000000E+00 -0.10310261680E+04  0.10310261680E+04  0.25500000920E-02 0.  1.
    10030    2    1    2    0    0  0.00000000000E+00  0.00000000000E+00  0.73102688429E+03  0.27930792203E+04  0.26957172006E+04 0.  0.
        5    1    3    3  502    0  0.44139733177E+02 -0.73805881668E+03 -0.80214137376E+03  0.10909317148E+04  0.46999998093E+01 0.  1.
       -5    1    3    3    0  502 -0.44139733177E+02  0.73805881668E+03  0.15331682581E+04  0.17021475055E+04  0.46999998093E+01 0. -1.
</event>
<event>
 5   0  0.1828511E-06  0.2675869E+04  0.7818609E-02  0.8342877E-01
       -1   -1    0    0    0  501  0.00000000000E+00  0.00000000000E+00  0.11252869315E+04  0.11252869315E+04  0.50400001928E-02 0.  1.
        1   -1    0    0  501    0  0.00000000000E+00  0.00000000000E+00 -0.15907662165E+04  0.15907662165E+04  0.50400001928E-02 0. -1.
    10030    2    1    2    0    0  0.00000000000E+00  0.00000000000E+00 -0.46547928500E+03  0.27160531480E+04  0.26758687819E+04 0.  0.
        4    1    3    3  502    0 -0.87363576533E+03  0.10037414945E+04 -0.37386130518E+03  0.13822121135E+04  0.12699999809E+01 0.  1.
       -4    1    3    3    0  502  0.87363576533E+03 -0.10037414945E+04 -0.91617979820E+02  0.13338410345E+04  0.12699999809E+01 0. -1.
</event>
<event>
 5   0  0.1732312E-06  0.2701863E+04  0.7818609E-02  0.8334401E-01
       -1   -1    0    0    0  501  0.00000000000E+00  0.00000000000E+00  0.12282971087E+04  0.12282971087E+04  0.50400001928E-02 0.  1.
        1   -1    0    0  501    0  0.00000000000E+00  0.00000000000E+00 -0.14858101440E+04  0.14858101440E+04  0.50400001928E-02 0. -1.
    10030    2    1    2    0    0  0.00000000000E+00  0.00000000000E+00 -0.25751303530E+03  0.27141072527E+04  0.27018632859E+04 0.  0.
        5    1    3    3  502    0  0.71199114139E+03 -0.86552198494E+03  0.62893910636E+03  0.12851638733E+04  0.46999998093E+01 0.  1.
       -5    1    3    3    0  502 -0.71199114139E+03  0.86552198494E+03 -0.88645214166E+03  0.14289433793E+04  0.46999998093E+01 0. -1.
</event>
<event>
 5   0  0.4439357E-06  0.2704759E+04  0.7818609E-02  0.8333463E-01
       -2   -1    0    0    0  501  0.00000000000E+00  0.00000000000E+00  0.97642819049E+03  0.97642819050E+03  0.25500000920E-02 0. -1.
        2   -1    0    0  501    0  0.00000000000E+00  0.00000000000E+00 -0.18730819142E+04  0.18730819142E+04  0.25500000920E-02 0.  1.
    10030    2    1    2    0    0  0.00000000000E+00  0.00000000000E+00 -0.89665372367E+03  0.28495101047E+04  0.27047587575E+04 0.  0.
        4    1    3    3  502    0 -0.51583199495E+03  0.10311509118E+04  0.29630458221E+03  0.11904422994E+04  0.12699999809E+01 0. -1.
       -4    1    3    3    0  502  0.51583199495E+03 -0.10311509118E+04 -0.11929583059E+04  0.16590678052E+04  0.12699999809E+01 0.  1.
</event>
<event>
 5   0  0.1828511E-06  0.2697946E+04  0.7818609E-02  0.8335672E-01
       -1   -1    0    0    0  501  0.00000000000E+00  0.00000000000E+00  0.12842760602E+04  0.12842760602E+04  0.50400001928E-02 0. -1.
        1   -1    0    0  501    0  0.00000000000E+00  0.00000000000E+00 -0.14169289115E+04  0.14169289115E+04  0.50400001928E-02 0.  1.
    10030    2    1    2    0    0  0.00000000000E+00  0.00000000000E+00 -0.13265285132E+03  0.27012049718E+04  0.26979457964E+04 0.  0.
        4    1    3    3  502    0  0.10496956452E+04  0.21365657144E+03 -0.88720478009E+03  0.13909148115E+04  0.12699999809E+01 0.  1.
       -4    1    3    3    0  502 -0.10496956452E+04 -0.21365657144E+03  0.75455192877E+03  0.13102901603E+04  0.12699999809E+01 0. -1.
</event>
<event>
 5   0  0.1753474E-06  0.2703639E+04  0.7818609E-02  0.8333825E-01
       -1   -1    0    0    0  501  0.00000000000E+00  0.00000000000E+00  0.16507053374E+04  0.16507053374E+04  0.50400001928E-02 0. -1.
        1   -1    0    0  501    0  0.00000000000E+00  0.00000000000E+00 -0.11070518561E+04  0.11070518561E+04  0.50400001928E-02 0.  1.
    10030    2    1    2    0    0  0.00000000000E+00  0.00000000000E+00  0.54365348131E+03  0.27577571935E+04  0.27036393307E+04 0.  0.
        3    1    3    3  502    0  0.69181357839E+03  0.77575388096E+02  0.14538110529E+04  0.16118903672E+04  0.10100000352E+00 0. -1.
       -3    1    3    3    0  502 -0.69181357839E+03 -0.77575388096E+02 -0.91015757163E+03  0.11458668262E+04  0.10100000352E+00 0.  1.
</event>
<event>
 5   0  0.4655882E-06  0.2705928E+04  0.7818609E-02  0.8333084E-01
        2   -1    0    0  501    0  0.00000000000E+00  0.00000000000E+00  0.13540570386E+04  0.13540570386E+04  0.25500000920E-02 0. -1.
       -2   -1    0    0    0  501  0.00000000000E+00  0.00000000000E+00 -0.13518715854E+04  0.13518715854E+04  0.25500000920E-02 0.  1.
    10030    2    1    2    0    0  0.00000000000E+00  0.00000000000E+00  0.21854532148E+01  0.27059286240E+04  0.27059277414E+04 0.  0.
        1    1    3    3  502    0  0.22249177634E+03 -0.22604000715E+03  0.13163553196E+04  0.13540265887E+04  0.50400001928E-02 0. -1.
       -1    1    3    3    0  502 -0.22249177634E+03  0.22604000715E+03 -0.13141698664E+04  0.13519020353E+04  0.50400001928E-02 0.  1.
</event>
<event>
 5   0  0.1732312E-06  0.2717194E+04  0.7818609E-02  0.8329448E-01
       -1   -1    0    0    0  501  0.00000000000E+00  0.00000000000E+00  0.10329379465E+04  0.10329379465E+04  0.50400001928E-02 0. -1.
        1   -1    0    0  501    0  0.00000000000E+00  0.00000000000E+00 -0.17869281220E+04  0.17869281220E+04  0.50400001928E-02 0.  1.
    10030    2    1    2    0    0  0.00000000000E+00  0.00000000000E+00 -0.75399017550E+03  0.28198660684E+04  0.27171940415E+04 0.  0.
        5    1    3    3  502    0  0.32353776904E+03  0.70725365477E+03 -0.15330344124E+04  0.17190407266E+04  0.46999998093E+01 0.  1.
       -5    1    3    3    0  502 -0.32353776904E+03 -0.70725365477E+03  0.77904423688E+03  0.11008253418E+04  0.46999998093E+01 0. -1.
</event>
<event>
 5   0  0.4439357E-06  0.2784140E+04  0.7818609E-02  0.8308209E-01
        2   -1    0    0  501    0  0.00000000000E+00  0.00000000000E+00  0.22627159821E+04  0.22627159821E+04  0.25500000920E-02 0.  1.
       -2   -1    0    0    0  501  0.00000000000E+00  0.00000000000E+00 -0.85643033231E+03  0.85643033231E+03  0.25500000920E-02 0. -1.
    10030    2    1    2    0    0  0.00000000000E+00  0.00000000000E+00  0.14062856498E+04  0.31191463144E+04  0.27841397957E+04 0.  0.
        4    1    3    3  502    0  0.90379518203E+03  0.37192390929E+03 -0.40744170943E+03  0.10588595208E+04  0.12699999809E+01 0. -1.
       -4    1    3    3    0  502 -0.90379518203E+03 -0.37192390929E+03  0.18137273592E+04  0.20602867936E+04  0.12699999809E+01 0.  1.
</event>
<event>
 5   0  0.4655882E-06  0.2690666E+04  0.7818609E-02  0.8338040E-01
        2   -1    0    0  501    0  0.00000000000E+00  0.00000000000E+00  0.20513005756E+04  0.20513005756E+04  0.25500000920E-02 0. -1.
       -2   -1    0    0    0  501  0.00000000000E+00  0.00000000000E+00 -0.88232865564E+03  0.88232865565E+03  0.25500000920E-02 0.  1.
    10030    2    1    2    0    0  0.00000000000E+00  0.00000000000E+00  0.11689719200E+04  0.29336292313E+04  0.26906662961E+04 0.  0.
        1    1    3    3  502    0 -0.63995479370E+03 -0.17116169893E+03  0.18611517742E+04  0.19755314201E+04  0.50400001928E-02 0. -1.
       -1    1    3    3    0  502  0.63995479370E+03  0.17116169893E+03 -0.69217985422E+03  0.95809781117E+03  0.50400001928E-02 0.  1.
</event>
<event>
 5   0  0.4487186E-06  0.2697418E+04  0.7818609E-02  0.8335843E-01
        2   -1    0    0  501    0  0.00000000000E+00  0.00000000000E+00  0.26814347223E+04  0.26814347223E+04  0.25500000920E-02 0. -1.
       -2   -1    0    0    0  501  0.00000000000E+00  0.00000000000E+00 -0.67837419703E+03  0.67837419703E+03  0.25500000920E-02 0.  1.
    10030    2    1    2    0    0  0.00000000000E+00  0.00000000000E+00  0.20030605252E+04  0.33598089193E+04  0.26974181186E+04 0.  0.
        3    1    3    3  502    0 -0.37013103966E+03 -0.12503622764E+04  0.57255424131E+03  0.14241563040E+04  0.10100000352E+00 0.  1.
       -3    1    3    3    0  502  0.37013103966E+03  0.12503622764E+04  0.14305062839E+04  0.19356526153E+04  0.10100000352E+00 0. -1.
</event>
<event>
 5   0  0.4448804E-06  0.2684271E+04  0.7818609E-02  0.8340127E-01
        2   -1    0    0  501    0  0.00000000000E+00  0.00000000000E+00  0.15737943496E+04  0.15737943496E+04  0.25500000920E-02 0.  1.
       -2   -1    0    0    0  501  0.00000000000E+00  0.00000000000E+00 -0.11445758955E+04  0.11445758955E+04  0.25500000920E-02 0. -1.
    10030    2    1    2    0    0  0.00000000000E+00  0.00000000000E+00  0.42921845413E+03  0.27183702451E+04  0.26842705355E+04 0.  0.
        2    1    3    3  502    0 -0.93412443285E+03  0.45454408185E+03 -0.64596731892E+03  0.12233039506E+04  0.25500000920E-02 0. -1.
       -2    1    3    3    0  502  0.93412443285E+03 -0.45454408185E+03  0.10751857731E+04  0.14950662945E+04  0.25500000920E-02 0.  1.
</event>
<event>
 5   0  0.4655882E-06  0.2695732E+04  0.7818609E-02  0.8336391E-01
        2   -1    0    0  501    0  0.00000000000E+00  0.00000000000E+00  0.23936215769E+04  0.23936215769E+04  0.25500000920E-02 0.  1.
       -2   -1    0    0    0  501  0.00000000000E+00  0.00000000000E+00 -0.75899306672E+03  0.75899306672E+03  0.25500000920E-02 0. -1.
    10030    2    1    2    0    0  0.00000000000E+00  0.00000000000E+00  0.16346285102E+04  0.31526146436E+04  0.26957315751E+04 0.  0.
        1    1    3    3  502    0 -0.10465214779E+04 -0.74771667211E+03  0.34594586260E+03  0.13319031366E+04  0.50400001928E-02 0. -1.
       -1    1    3    3    0  502  0.10465214779E+04  0.74771667211E+03  0.12886826476E+04  0.18207115070E+04  0.50400001928E-02 0.  1.
</event>
<event>
 5   0  0.4401659E-06  0.2704629E+04  0.7818609E-02  0.8333505E-01
       -2   -1    0    0    0  501  0.00000000000E+00  0.00000000000E+00  0.13284486515E+04  0.13284486515E+04  0.25500000920E-02 0.  1.
        2   -1    0    0  501    0  0.00000000000E+00  0.00000000000E+00 -0.13766089300E+04  0.13766089300E+04  0.25500000920E-02 0. -1.
    10030    2    1    2    0    0  0.00000000000E+00  0.00000000000E+00 -0.48160278543E+02  0.27050575816E+04  0.27046288298E+04 0.  0.
        5    1    3    3  502    0 -0.24682872815E+03 -0.77583087886E+03  0.10558568448E+04  0.13333018189E+04  0.46999998093E+01 0.  1.
       -5    1    3    3    0  502  0.24682872815E+03  0.77583087886E+03 -0.11040171234E+04  0.13717557626E+04  0.46999998093E+01 0. -1.
</event>
<event>
 5   0  0.4448804E-06  0.2716918E+04  0.7818609E-02  0.8329537E-01
       -2   -1    0    0    0  501  0.00000000000E+00  0.00000000000E+00  0.99773540433E+03  0.99773540434E+03  0.25500000920E-02 0.  1.
        2   -1    0    0  501    0  0.00000000000E+00  0.00000000000E+00 -0.18495990122E+04  0.18495990122E+04  0.25500000920E-02 0. -1.
    10030    2    1    2    0    0  0.00000000000E+00  0.00000000000E+00 -0.85186360787E+03  0.28473344165E+04  0.27169176788E+04 0.  0.
        2    1    3    3  502    0  0.11525037408E+04  0.34687311669E+03  0.23424655547E+03  0.12261554879E+04  0.25500000920E-02 0.  1.
       -2    1    3    3    0  502 -0.11525037408E+04 -0.34687311669E+03 -0.10861101633E+04  0.16211789286E+04  0.25500000920E-02 0. -1.
</event>
<event>
 5   0  0.1753474E-06  0.2698080E+04  0.7818609E-02  0.8335628E-01
        1   -1    0    0  501    0  0.00000000000E+00  0.00000000000E+00  0.17772471038E+04  0.17772471038E+04  0.50400001928E-02 0. -1.
       -1   -1    0    0    0  501  0.00000000000E+00  0.00000000000E+00 -0.10240047377E+04  0.10240047377E+04  0.50400001928E-02 0.  1.
    10030    2    1    2    0    0  0.00000000000E+00  0.00000000000E+00  0.75324236605E+03  0.28012518415E+04  0.26980803950E+04 0.  0.
        3    1    3    3  502    0 -0.10176372830E+03 -0.20208623230E+03  0.17574065207E+04  0.17719120719E+04  0.10100000352E+00 0. -1.
       -3    1    3    3    0  502  0.10176372830E+03  0.20208623230E+03 -0.10041641546E+04  0.10293397696E+04  0.10100000352E+00 0.  1.
</event>
<event>
 5   0  0.1723605E-06  0.2701170E+04  0.7818609E-02  0.8334625E-01
       -1   -1    0    0    0  501  0.00000000000E+00  0.00000000000E+00  0.12346050246E+04  0.12346050246E+04  0.50400001928E-02 0.  1.
        1   -1    0    0  501    0  0.00000000000E+00  0.00000000000E+00 -0.14774601382E+04  0.14774601382E+04  0.50400001928E-02 0. -1.
    10030    2    1    2    0    0  0.00000000000E+00  0.00000000000E+00 -0.24285511358E+03  0.27120651629E+04  0.27011699024E+04 0.  0.
        1    1    3    3  502    0  0.49037797524E+03 -0.92082692386E+03 -0.98260914833E+03  0.14331481154E+04  0.50400001928E-02 0. -1.
       -1    1    3    3    0  502 -0.49037797524E+03  0.92082692386E+03  0.73975403475E+03  0.12789170475E+04  0.50400001928E-02 0.  1.
</event>
<event>
 5   0  0.4439357E-06  0.2691599E+04  0.7818609E-02  0.8337736E-01
       -2   -1    0    0    0  501  0.00000000000E+00  0.00000000000E+00  0.12213224092E+04  0.12213224092E+04  0.25500000920E-02 0. -1.
        2   -1    0    0  501    0  0.00000000000E+00  0.00000000000E+00 -0.14829635623E+04  0.14829635623E+04  0.25500000920E-02 0.  1.
    10030    2    1    2    0    0  0.00000000000E+00  0.00000000000E+00 -0.26164115311E+03  0.27042859714E+04  0.26915992500E+04 0.  0.
        4    1    3    3  502    0  0.60036953338E+03 -0.12042995251E+04 -0.11087518002E+03  0.13502132577E+04  0.12699999809E+01 0. -1.
       -4    1    3    3    0  502 -0.60036953338E+03  0.12042995251E+04 -0.15076597310E+03  0.13540727138E+04  0.12699999809E+01 0.  1.
</event>
<event>
 5   0  0.4401659E-06  0.2696829E+04  0.7818609E-02  0.8336035E-01
        2   -1    0    0  501    0  0.00000000000E+00  0.00000000000E+00  0.23220044653E+04  0.23220044653E+04  0.25500000920E-02 0. -1.
       -2   -1    0    0    0  501  0.00000000000E+00  0.00000000000E+00 -0.78303947326E+03  0.78303947326E+03  0.25500000920E-02 0.  1.
    10030    2    1    2    0    0  0.00000000000E+00  0.00000000000E+00  0.15389649921E+04  0.31050439386E+04  0.26968286215E+04 0.  0.
        5    1    3    3  502    0 -0.84778248098E+03  0.19605775576E+03  0.19554622308E+04  0.21403337134E+04  0.46999998093E+01 0. -1.
       -5    1    3    3    0  502  0.84778248098E+03 -0.19605775576E+03 -0.41649723876E+03  0.96471022516E+03  0.46999998093E+01 0.  1.
</event>
<event>
 5   0  0.4401659E-06  0.2696061E+04  0.7818609E-02  0.8336284E-01
        2   -1    0    0  501    0  0.00000000000E+00  0.00000000000E+00  0.19134382493E+04  0.19134382493E+04  0.25500000920E-02 0. -1.
       -2   -1    0    0    0  501  0.00000000000E+00  0.00000000000E+00 -0.94969689083E+03  0.94969689084E+03  0.25500000920E-02 0.  1.
    10030    2    1    2    0    0  0.00000000000E+00  0.00000000000E+00  0.96374135848E+03  0.28631351402E+04  0.26960610944E+04 0.  0.
        5    1    3    3  502    0 -0.74754131385E+03 -0.10913063258E+02 -0.70934841142E+03  0.10305990344E+04  0.46999998093E+01 0.  1.
       -5    1    3    3    0  502  0.74754131385E+03  0.10913063258E+02  0.16730897699E+04  0.18325361058E+04  0.46999998093E+01 0. -1.
</event>
<event>
 5   0  0.1828511E-06  0.2693794E+04  0.7818609E-02  0.8337021E-01
       -1   -1    0    0    0  501  0.00000000000E+00  0.00000000000E+00  0.13657186786E+04  0.13657186786E+04  0.50400001928E-02 0. -1.
        1   -1    0    0  501    0  0.00000000000E+00  0.00000000000E+00 -0.13283349980E+04  0.13283349981E+04  0.50400001928E-02 0.  1.
    10030    2    1    2    0    0  0.00000000000E+00  0.00000000000E+00  0.37383680515E+02  0.26940536766E+04  0.26937942893E+04 0.  0.
        4    1    3    3  502    0  0.34505753510E+03  0.11418275463E+04 -0.60690452897E+03  0.13383458328E+04  0.12699999809E+01 0.  1.
       -4    1    3    3    0  502 -0.34505753510E+03 -0.11418275463E+04  0.64428820949E+03  0.13557078438E+04  0.12699999809E+01 0. -1.
</event>
<event>
 5   0  0.1482875E-06  0.2701340E+04  0.7818609E-02  0.8334570E-01
        3   -1    0    0  501    0  0.00000000000E+00  0.00000000000E+00  0.24698160705E+04  0.24698160726E+04  0.10100000352E+00 0. -1.
       -3   -1    0    0    0  501  0.00000000000E+00  0.00000000000E+00 -0.73864177658E+03  0.73864178349E+03  0.10100000352E+00 0.  1.
    10030    2    1    2    0    0  0.00000000000E+00  0.00000000000E+00  0.17311742940E+04  0.32084578561E+04  0.27013399228E+04 0.  0.
        4    1    3    3  502    0 -0.10272252611E+04  0.28193311574E+03  0.18519236010E+04  0.21364223964E+04  0.12699999809E+01 0. -1.
       -4    1    3    3    0  502  0.10272252611E+04 -0.28193311574E+03 -0.12074930705E+03  0.10720354597E+04  0.12699999809E+01 0.  1.
</event>
<event>
 5   0  0.4655882E-06  0.2700736E+04  0.7818609E-02  0.8334766E-01
       -2   -1    0    0    0  501  0.00000000000E+00  0.00000000000E+00  0.80258129155E+03  0.80258129156E+03  0.25500000920E-02 0.  1.
        2   -1    0    0  501    0  0.00000000000E+00  0.00000000000E+00 -0.22720355708E+04  0.22720355708E+04  0.25500000920E-02 0. -1.
    10030    2    1    2    0    0  0.00000000000E+00  0.00000000000E+00 -0.14694542793E+04  0.30746168624E+04  0.27007356353E+04 0.  0.
        1    1    3    3  502    0  0.11714910407E+04 -0.66693733344E+03 -0.64439106509E+03  0.14941340335E+04  0.50400001928E-02 0.  1.
       -1    1    3    3    0  502 -0.11714910407E+04  0.66693733344E+03 -0.82506321419E+03  0.15804828289E+04  0.50400001928E-02 0. -1.
</event>
<event>
 5   0  0.4439357E-06  0.2701350E+04  0.7818609E-02  0.8334567E-01
        2   -1    0    0  501    0  0.00000000000E+00  0.00000000000E+00  0.14042081412E+04  0.14042081412E+04  0.25500000920E-02 0. -1.
       -2   -1    0    0    0  501  0.00000000000E+00  0.00000000000E+00 -0.12991824252E+04  0.12991824252E+04  0.25500000920E-02 0.  1.
    10030    2    1    2    0    0  0.00000000000E+00  0.00000000000E+00  0.10502571592E+03  0.27033905664E+04  0.27013496911E+04 0.  0.
        4    1    3    3  502    0  0.16495206087E+03 -0.12225226199E+04 -0.49794832524E+03  0.13303100714E+04  0.12699999809E+01 0.  1.
       -4    1    3    3    0  502 -0.16495206087E+03  0.12225226199E+04  0.60297404116E+03  0.13730804950E+04  0.12699999809E+01 0. -1.
</event>
<event>
 5   0  0.4448804E-06  0.2680416E+04  0.7818609E-02  0.8341387E-01
       -2   -1    0    0    0  501  0.00000000000E+00  0.00000000000E+00  0.10701118136E+04  0.10701118136E+04  0.25500000920E-02 0. -1.
        2   -1    0    0  501    0  0.00000000000E+00  0.00000000000E+00 -0.16784769648E+04  0.16784769648E+04  0.25500000920E-02 0.  1.
    10030    2    1    2    0    0  0.00000000000E+00  0.00000000000E+00 -0.60836515113E+03  0.27485887784E+04  0.26804164071E+04 0.  0.
        2    1    3    3  502    0 -0.16293684412E+03 -0.10545514625E+04 -0.11356889074E+04  0.15583377351E+04  0.25500000920E-02 0.  1.
       -2    1    3    3    0  502  0.16293684412E+03  0.10545514625E+04  0.52732375628E+03  0.11902510433E+04  0.25500000920E-02 0. -1.
</event>
<event>
 5   0  0.4448804E-06  0.2718470E+04  0.7818609E-02  0.8329037E-01
        2   -1    0    0  501    0  0.00000000000E+00  0.00000000000E+00  0.13318300147E+04  0.13318300147E+04  0.25500000920E-02 0.  1.
       -2   -1    0    0    0  501  0.00000000000E+00  0.00000000000E+00 -0.13872041591E+04  0.13872041591E+04  0.25500000920E-02 0. -1.
    10030    2    1    2    0    0  0.00000000000E+00  0.00000000000E+00 -0.55374144362E+02  0.27190341738E+04  0.27184702578E+04 0.  0.
        2    1    3    3  502    0  0.13061697330E+04  0.37443867747E+03  0.74832867092E+01  0.13588008294E+04  0.25500000920E-02 0.  1.
       -2    1    3    3    0  502 -0.13061697330E+04 -0.37443867747E+03 -0.62857431071E+02  0.13602333444E+04  0.25500000920E-02 0. -1.
</event>
<event>
 5   0  0.1771016E-06  0.2700944E+04  0.7818609E-02  0.8334699E-01
        1   -1    0    0  501    0  0.00000000000E+00  0.00000000000E+00  0.17061954735E+04  0.17061954735E+04  0.50400001928E-02 0.  1.
       -1   -1    0    0    0  501  0.00000000000E+00  0.00000000000E+00 -0.10689128830E+04  0.10689128830E+04  0.50400001928E-02 0. -1.
    10030    2    1    2    0    0  0.00000000000E+00  0.00000000000E+00  0.63728259049E+03  0.27751083566E+04  0.27009437777E+04 0.  0.
        2    1    3    3  502    0  0.13483093608E+04  0.14150140577E+02  0.24150682677E+03  0.13698408325E+04  0.25500000920E-02 0. -1.
       -2    1    3    3    0  502 -0.13483093608E+04 -0.14150140577E+02  0.39577576372E+03  0.14052675241E+04  0.25500000920E-02 0.  1.
</event>
<event>
 5   0  0.1753474E-06  0.2711398E+04  0.7818609E-02  0.8331316E-01
       -1   -1    0    0    0  501  0.00000000000E+00  0.00000000000E+00  0.80941417331E+03  0.80941417333E+03  0.50400001928E-02 0.  1.
        1   -1    0    0  501    0  0.00000000000E+00  0.00000000000E+00 -0.22706797794E+04  0.22706797794E+04  0.50400001928E-02 0. -1.
    10030    2    1    2    0    0  0.00000000000E+00  0.00000000000E+00 -0.14612656061E+04  0.30800939527E+04  0.27113984558E+04 0.  0.
        3    1    3    3  502    0  0.34576951682E+03  0.12897924909E+04 -0.99655681964E+03  0.16662072901E+04  0.10100000352E+00 0. -1.
       -3    1    3    3    0  502 -0.34576951682E+03 -0.12897924909E+04 -0.46470878644E+03  0.14138866627E+04  0.10100000352E+00 0.  1.
</event>
<event>
 5   0  0.4401659E-06  0.2534277E+04  0.7818609E-02  0.8390875E-01
        2   -1    0    0  501    0  0.00000000000E+00  0.00000000000E+00  0.13346086921E+04  0.13346086921E+04  0.25500000920E-02 0.  1.
       -2   -1    0    0    0  501  0.00000000000E+00  0.00000000000E+00 -0.12030796741E+04  0.12030796741E+04  0.25500000920E-02 0. -1.
    10030    2    1    2    0    0  0.00000000000E+00  0.00000000000E+00  0.13152901799E+03  0.25376883661E+04  0.25342774831E+04 0.  0.
        5    1    3    3  502    0  0.64978530453E+03  0.57614014761E+02  0.11535406141E+04  0.13252238886E+04  0.46999998093E+01 0.  1.
       -5    1    3    3    0  502 -0.64978530453E+03 -0.57614014761E+02 -0.10220115961E+04  0.12124644775E+04  0.46999998093E+01 0. -1.
</event>
<event>
 5   0  0.4655882E-06  0.2706492E+04  0.7818609E-02  0.8332902E-01
       -2   -1    0    0    0  501  0.00000000000E+00  0.00000000000E+00  0.94338908974E+03  0.94338908974E+03  0.25500000920E-02 0.  1.
        2   -1    0    0  501    0  0.00000000000E+00  0.00000000000E+00 -0.19411658188E+04  0.19411658188E+04  0.25500000920E-02 0. -1.
    10030    2    1    2    0    0  0.00000000000E+00  0.00000000000E+00 -0.99777672906E+03  0.28845549085E+04  0.27064919396E+04 0.  0.
        1    1    3    3  502    0 -0.64302212833E+02 -0.15413675839E+03  0.93236297537E+03  0.94720305781E+03  0.50400001928E-02 0.  1.
       -1    1    3    3    0  502  0.64302212833E+02  0.15413675839E+03 -0.19301397044E+04  0.19373518507E+04  0.50400001928E-02 0. -1.
</event>
<event>
 5   0  0.1828511E-06  0.2702923E+04  0.7818609E-02  0.8334057E-01
       -1   -1    0    0    0  501  0.00000000000E+00  0.00000000000E+00  0.59322698353E+03  0.59322698355E+03  0.50400001928E-02 0.  1.
        1   -1    0    0  501    0  0.00000000000E+00  0.00000000000E+00 -0.30788358036E+04  0.30788358036E+04  0.50400001928E-02 0. -1.
    10030    2    1    2    0    0  0.00000000000E+00  0.00000000000E+00 -0.24856088201E+04  0.36720627871E+04  0.27029232150E+04 0.  0.
        4    1    3    3  502    0  0.62956367115E+03 -0.52856738278E+03  0.21453226375E+03  0.84956435852E+03  0.12699999809E+01 0.  1.
       -4    1    3    3    0  502 -0.62956367115E+03  0.52856738278E+03 -0.27001410838E+04  0.28224984286E+04  0.12699999809E+01 0. -1.
</event>
<event>
 5   0  0.1753474E-06  0.2703056E+04  0.7818609E-02  0.8334014E-01
       -1   -1    0    0    0  501  0.00000000000E+00  0.00000000000E+00  0.86533811310E+03  0.86533811311E+03  0.50400001928E-02 0. -1.
        1   -1    0    0  501    0  0.00000000000E+00  0.00000000000E+00 -0.21108830554E+04  0.21108830554E+04  0.50400001928E-02 0.  1.
    10030    2    1    2    0    0  0.00000000000E+00  0.00000000000E+00 -0.12455449423E+04  0.29762211685E+04  0.27030557228E+04 0.  0.
        3    1    3    3  502    0 -0.24745717193E+03  0.12094649608E+03  0.83410846871E+03  0.87840768134E+03  0.10100000352E+00 0. -1.
       -3    1    3    3    0  502  0.24745717193E+03 -0.12094649608E+03 -0.20796534110E+04  0.20978134872E+04  0.10100000352E+00 0.  1.
</event>
<event>
 5   0  0.4401659E-06  0.2697417E+04  0.7818609E-02  0.8335843E-01
       -2   -1    0    0    0  501  0.00000000000E+00  0.00000000000E+00  0.17494249803E+04  0.17494249803E+04  0.25500000920E-02 0.  1.
        2   -1    0    0  501    0  0.00000000000E+00  0.00000000000E+00 -0.10397787460E+04  0.10397787460E+04  0.25500000920E-02 0. -1.
    10030    2    1    2    0    0  0.00000000000E+00  0.00000000000E+00  0.70964623429E+03  0.27892037263E+04  0.26974172182E+04 0.  0.
        5    1    3    3  502    0  0.10349797609E+04  0.48568882263E+03 -0.38500613506E+03  0.12063699897E+04  0.46999998093E+01 0. -1.
       -5    1    3    3    0  502 -0.10349797609E+04 -0.48568882263E+03  0.10946523694E+04  0.15828337366E+04  0.46999998093E+01 0.  1.
</event>
<event>
 5   0  0.1482875E-06  0.2653536E+04  0.7818609E-02  0.8350240E-01
       -4   -1    0    0    0  501  0.00000000000E+00  0.00000000000E+00  0.12797274019E+04  0.12797280320E+04  0.12699999809E+01 0. -1.
        4   -1    0    0  501    0  0.00000000000E+00  0.00000000000E+00 -0.13755361888E+04  0.13755367751E+04  0.12699999809E+01 0.  1.
    10030    2    1    2    0    0  0.00000000000E+00  0.00000000000E+00 -0.95808786901E+02  0.26552648071E+04  0.26535357303E+04 0.  0.
        5    1    3    3  502    0  0.61125713356E+03 -0.57224165775E+03 -0.10777470508E+04  0.13647917767E+04  0.46999998093E+01 0.  1.
       -5    1    3    3    0  502 -0.61125713356E+03  0.57224165775E+03  0.98193826388E+03  0.12904730304E+04  0.46999998093E+01 0. -1.
</event>
<event>
 5   0  0.4448804E-06  0.2703791E+04  0.7818609E-02  0.8333776E-01
       -2   -1    0    0    0  501  0.00000000000E+00  0.00000000000E+00  0.10259816898E+04  0.10259816898E+04  0.25500000920E-02 0.  1.
        2   -1    0    0  501    0  0.00000000000E+00  0.00000000000E+00 -0.17813388984E+04  0.17813388984E+04  0.25500000920E-02 0. -1.
    10030    2    1    2    0    0  0.00000000000E+00  0.00000000000E+00 -0.75535720857E+03  0.28073205882E+04  0.27037907412E+04 0.  0.
        2    1    3    3  502    0  0.27180406896E+03  0.19051497264E+03  0.98301609449E+03  0.10375423118E+04  0.25500000920E-02 0.  1.
       -2    1    3    3    0  502 -0.27180406896E+03 -0.19051497264E+03 -0.17383733031E+04  0.17697782764E+04  0.25500000920E-02 0. -1.
</event>
<event>
 5   0  0.4439357E-06  0.2693379E+04  0.7818609E-02  0.8337156E-01
        2   -1    0    0  501    0  0.00000000000E+00  0.00000000000E+00  0.11252897371E+04  0.11252897371E+04  0.25500000920E-02 0.  1.
       -2   -1    0    0    0  501  0.00000000000E+00  0.00000000000E+00 -0.16116493159E+04  0.16116493159E+04  0.25500000920E-02 0. -1.
    10030    2    1    2    0    0  0.00000000000E+00  0.00000000000E+00 -0.48635957884E+03  0.27369390530E+04  0.26933788705E+04 0.  0.
        4    1    3    3  502    0 -0.74883141376E+03  0.10748726158E+04 -0.56043285295E+03  0.14248460345E+04  0.12699999809E+01 0. -1.
       -4    1    3    3    0  502  0.74883141376E+03 -0.10748726158E+04  0.74073274116E+02  0.13120930185E+04  0.12699999809E+01 0.  1.
</event>
<event>
 5   0  0.1723605E-06  0.2728450E+04  0.7818609E-02  0.8325833E-01
       -1   -1    0    0    0  501  0.00000000000E+00  0.00000000000E+00  0.11961785560E+04  0.11961785560E+04  0.50400001928E-02 0.  1.
        1   -1    0    0  501    0  0.00000000000E+00  0.00000000000E+00 -0.15558793339E+04  0.15558793339E+04  0.50400001928E-02 0. -1.
    10030    2    1    2    0    0  0.00000000000E+00  0.00000000000E+00 -0.35970077794E+03  0.27520578899E+04  0.27284497393E+04 0.  0.
        1    1    3    3  502    0 -0.60072148696E+03  0.28694319355E+03 -0.13809124499E+04  0.15330107291E+04  0.50400001928E-02 0. -1.
       -1    1    3    3    0  502  0.60072148696E+03 -0.28694319355E+03  0.10212116720E+04  0.12190471608E+04  0.50400001928E-02 0.  1.
</event>
<event>
 5   0  0.1723605E-06  0.2705210E+04  0.7818609E-02  0.8333317E-01
        1   -1    0    0  501    0  0.00000000000E+00  0.00000000000E+00  0.15934568316E+04  0.15934568316E+04  0.50400001928E-02 0. -1.
       -1   -1    0    0    0  501  0.00000000000E+00  0.00000000000E+00 -0.11481578437E+04  0.11481578437E+04  0.50400001928E-02 0.  1.
    10030    2    1    2    0    0  0.00000000000E+00  0.00000000000E+00  0.44529898789E+03  0.27416146753E+04  0.27052097588E+04 0.  0.
        1    1    3    3  502    0 -0.53176593412E+03 -0.79855841890E+02  0.14804753949E+04  0.15751061422E+04  0.50400001928E-02 0. -1.
       -1    1    3    3    0  502  0.53176593412E+03  0.79855841890E+02 -0.10351764070E+04  0.11665085331E+04  0.50400001928E-02 0.  1.
</event>
<event>
 5   0  0.1732312E-06  0.2707674E+04  0.7818609E-02  0.8332519E-01
        1   -1    0    0  501    0  0.00000000000E+00  0.00000000000E+00  0.15738157497E+04  0.15738157497E+04  0.50400001928E-02 0.  1.
       -1   -1    0    0    0  501  0.00000000000E+00  0.00000000000E+00 -0.11646057184E+04  0.11646057184E+04  0.50400001928E-02 0. -1.
    10030    2    1    2    0    0  0.00000000000E+00  0.00000000000E+00  0.40921003135E+03  0.27384214681E+04  0.27076741472E+04 0.  0.
        5    1    3    3  502    0  0.70223063397E+03 -0.36159815853E+03  0.13166233538E+04  0.15353827658E+04  0.46999998093E+01 0.  1.
       -5    1    3    3    0  502 -0.70223063397E+03  0.36159815853E+03 -0.90741332249E+03  0.12030387024E+04  0.46999998093E+01 0. -1.
</event>
<event>
 5   0  0.4655882E-06  0.2701579E+04  0.7818609E-02  0.8334493E-01
       -2   -1    0    0    0  501  0.00000000000E+00  0.00000000000E+00  0.12957760908E+04  0.12957760908E+04  0.25500000920E-02 0.  1.
        2   -1    0    0  501    0  0.00000000000E+00  0.00000000000E+00 -0.14081386254E+04  0.14081386254E+04  0.25500000920E-02 0. -1.
    10030    2    1    2    0    0  0.00000000000E+00  0.00000000000E+00 -0.11236253466E+03  0.27039147162E+04  0.27015790667E+04 0.  0.
        1    1    3    3  502    0 -0.13391107796E+04  0.15870911198E+03  0.22792597660E+02  0.13486755595E+04  0.50400001928E-02 0. -1.
       -1    1    3    3    0  502  0.13391107796E+04 -0.15870911198E+03 -0.13515513232E+03  0.13552391568E+04  0.50400001928E-02 0.  1.
</event>
<event>
 5   0  0.4439357E-06  0.2696815E+04  0.7818609E-02  0.8336039E-01
       -2   -1    0    0    0  501  0.00000000000E+00  0.00000000000E+00  0.15315875842E+04  0.15315875842E+04  0.25500000920E-02 0. -1.
        2   -1    0    0  501    0  0.00000000000E+00  0.00000000000E+00 -0.11871362903E+04  0.11871362903E+04  0.25500000920E-02 0.  1.
    10030    2    1    2    0    0  0.00000000000E+00  0.00000000000E+00  0.34445129382E+03  0.27187238745E+04  0.26968153092E+04 0.  0.
        4    1    3    3  502    0 -0.34439222204E+03  0.11931671310E+04  0.70180049744E+03  0.14264569240E+04  0.12699999809E+01 0. -1.
       -4    1    3    3    0  502  0.34439222204E+03 -0.11931671310E+04 -0.35734920363E+03  0.12922669505E+04  0.12699999809E+01 0.  1.
</event>
<event>
 5   0  0.1828511E-06  0.2698601E+04  0.7818609E-02  0.8335459E-01
       -1   -1    0    0    0  501  0.00000000000E+00  0.00000000000E+00  0.16549011771E+04  0.16549011771E+04  0.50400001928E-02 0. -1.
        1   -1    0    0  501    0  0.00000000000E+00  0.00000000000E+00 -0.11001334755E+04  0.11001334756E+04  0.50400001928E-02 0.  1.
    10030    2    1    2    0    0  0.00000000000E+00  0.00000000000E+00  0.55476770153E+03  0.27550346526E+04  0.26986012552E+04 0.  0.
        4    1    3    3  502    0  0.10970485660E+04 -0.40397404762E+03  0.96519376447E+03  0.15160182067E+04  0.12699999809E+01 0. -1.
       -4    1    3    3    0  502 -0.10970485660E+04  0.40397404762E+03 -0.41042606294E+03  0.12390164459E+04  0.12699999809E+01 0.  1.
</event>
<event>
 5   0  0.1482875E-06  0.2693946E+04  0.7818609E-02  0.8336972E-01
       -3   -1    0    0    0  501  0.00000000000E+00  0.00000000000E+00  0.21570528613E+04  0.21570528636E+04  0.10100000352E+00 0. -1.
        3   -1    0    0  501    0  0.00000000000E+00  0.00000000000E+00 -0.84111801945E+03  0.84111802551E+03  0.10100000352E+00 0.  1.
    10030    2    1    2    0    0  0.00000000000E+00  0.00000000000E+00  0.13159348418E+04  0.29981708891E+04  0.26939458370E+04 0.  0.
        2    1    3    3  502    0  0.63120247947E+03 -0.11234717624E+04  0.10943302876E+04  0.16906105848E+04  0.25500000920E-02 0.  1.
       -2    1    3    3    0  502 -0.63120247947E+03  0.11234717624E+04  0.22160455418E+03  0.13075603043E+04  0.25500000920E-02 0. -1.
</event>
<event>
 5   0  0.4655882E-06  0.2707860E+04  0.7818609E-02  0.8332459E-01
       -2   -1    0    0    0  501  0.00000000000E+00  0.00000000000E+00  0.99892260002E+03  0.99892260002E+03  0.25500000920E-02 0. -1.
        2   -1    0    0  501    0  0.00000000000E+00  0.00000000000E+00 -0.18351035016E+04  0.18351035016E+04  0.25500000920E-02 0.  1.
    10030    2    1    2    0    0  0.00000000000E+00  0.00000000000E+00 -0.83618090158E+03  0.28340261016E+04  0.27078599381E+04 0.  0.
        1    1    3    3  502    0  0.25910880898E+03  0.42719722624E+03  0.89890877361E+03  0.10284317324E+04  0.50400001928E-02 0. -1.
       -1    1    3    3    0  502 -0.25910880898E+03 -0.42719722624E+03 -0.17350896752E+04  0.18055943692E+04  0.50400001928E-02 0.  1.
</event>
<event>
 5   0  0.1753474E-06  0.2710600E+04  0.7818609E-02  0.8331574E-01
        1   -1    0    0  501    0  0.00000000000E+00  0.00000000000E+00  0.17184317950E+04  0.17184317951E+04  0.50400001928E-02 0. -1.
       -1   -1    0    0    0  501  0.00000000000E+00  0.00000000000E+00 -0.10689036361E+04  0.10689036361E+04  0.50400001928E-02 0.  1.
    10030    2    1    2    0    0  0.00000000000E+00  0.00000000000E+00  0.64952815893E+03  0.27873354312E+04  0.27105999293E+04 0.  0.
        3    1    3    3  502    0  0.74241716842E+03 -0.40749767200E+03  0.14128303088E+04  0.16472179869E+04  0.10100000352E+00 0. -1.
       -3    1    3    3    0  502 -0.74241716842E+03  0.40749767200E+03 -0.76330214985E+03  0.11401174443E+04  0.10100000352E+00 0.  1.
</event>
<event>
 5   0  0.4448804E-06  0.2657358E+04  0.7818609E-02  0.8348975E-01
       -2   -1    0    0    0  501  0.00000000000E+00  0.00000000000E+00  0.12080442242E+04  0.12080442242E+04  0.25500000920E-02 0. -1.
        2   -1    0    0  501    0  0.00000000000E+00  0.00000000000E+00 -0.14613606210E+04  0.14613606210E+04  0.25500000920E-02 0.  1.
    10030    2    1    2    0    0  0.00000000000E+00  0.00000000000E+00 -0.25331639675E+03  0.26694048452E+04  0.26573582805E+04 0.  0.
        2    1    3    3  502    0  0.85057697019E+03  0.97683944971E+03 -0.42412858480E+03  0.13629312342E+04  0.25500000920E-02 0.  1.
       -2    1    3    3    0  502 -0.85057697019E+03 -0.97683944971E+03  0.17081218805E+03  0.13064736110E+04  0.25500000920E-02 0. -1.
</event>
<event>
 5   0  0.4448804E-06  0.2655609E+04  0.7818609E-02  0.8349554E-01
       -2   -1    0    0    0  501  0.00000000000E+00  0.00000000000E+00  0.12333755799E+04  0.12333755799E+04  0.25500000920E-02 0.  1.
        2   -1    0    0  501    0  0.00000000000E+00  0.00000000000E+00 -0.14294632607E+04  0.14294632607E+04  0.25500000920E-02 0. -1.
    10030    2    1    2    0    0  0.00000000000E+00  0.00000000000E+00 -0.19608768082E+03  0.26628388405E+04  0.26556092168E+04 0.  0.
        2    1    3    3  502    0 -0.30196249045E+03  0.40940055554E+02 -0.13939273078E+04  0.14268464434E+04  0.25500000920E-02 0. -1.
       -2    1    3    3    0  502  0.30196249045E+03 -0.40940055554E+02  0.11978396270E+04  0.12359923971E+04  0.25500000920E-02 0.  1.
</event>
<event>
 5   0  0.4439357E-06  0.2683986E+04  0.7818609E-02  0.8340220E-01
        2   -1    0    0  501    0  0.00000000000E+00  0.00000000000E+00  0.15617122816E+04  0.15617122816E+04  0.25500000920E-02 0. -1.
       -2   -1    0    0    0  501  0.00000000000E+00  0.00000000000E+00 -0.11531861925E+04  0.11531861925E+04  0.25500000920E-02 0.  1.
    10030    2    1    2    0    0  0.00000000000E+00  0.00000000000E+00  0.40852608906E+03  0.27148984741E+04  0.26839858716E+04 0.  0.
        4    1    3    3  502    0 -0.10807877753E+04 -0.44434660502E+03 -0.46318311250E+03  0.12570148485E+04  0.12699999809E+01 0. -1.
       -4    1    3    3    0  502  0.10807877753E+04  0.44434660502E+03  0.87170920157E+03  0.14578836256E+04  0.12699999809E+01 0.  1.
</event>
<event>
 5   0  0.4401659E-06  0.2724882E+04  0.7818609E-02  0.8326977E-01
       -2   -1    0    0    0  501  0.00000000000E+00  0.00000000000E+00  0.10004718100E+04  0.10004718100E+04  0.25500000920E-02 0. -1.
        2   -1    0    0  501    0  0.00000000000E+00  0.00000000000E+00 -0.18553699867E+04  0.18553699867E+04  0.25500000920E-02 0.  1.
    10030    2    1    2    0    0  0.00000000000E+00  0.00000000000E+00 -0.85489817670E+03  0.28558417967E+04  0.27248819195E+04 0.  0.
        5    1    3    3  502    0 -0.87940481134E+03  0.85967327732E+03 -0.10420027385E+04  0.16118879499E+04  0.46999998093E+01 0.  1.
       -5    1    3    3    0  502  0.87940481134E+03 -0.85967327732E+03  0.18710456180E+03  0.12439538468E+04  0.46999998093E+01 0. -1.
</event>
<event>
 5   0  0.4655882E-06  0.2688799E+04  0.7818609E-02  0.8338649E-01
        2   -1    0    0  501    0  0.00000000000E+00  0.00000000000E+00  0.22616253865E+04  0.22616253865E+04  0.25500000920E-02 0. -1.
       -2   -1    0    0    0  501  0.00000000000E+00  0.00000000000E+00 -0.79916395509E+03  0.79916395509E+03  0.25500000920E-02 0.  1.
    10030    2    1    2    0    0  0.00000000000E+00  0.00000000000E+00  0.14624614314E+04  0.30607893416E+04  0.26887986082E+04 0.  0.
        1    1    3    3  502    0 -0.23916306532E+03  0.12051255709E+04  0.10993560723E+03  0.12335365626E+04  0.50400001928E-02 0.  1.
       -1    1    3    3    0  502  0.23916306532E+03 -0.12051255709E+04  0.13525258242E+04  0.18272527791E+04  0.50400001928E-02 0. -1.
</event>
<event>
 5   0  0.4401659E-06  0.2697860E+04  0.7818609E-02  0.8335700E-01
        2   -1    0    0  501    0  0.00000000000E+00  0.00000000000E+00  0.15481983410E+04  0.15481983410E+04  0.25500000920E-02 0. -1.
       -2   -1    0    0    0  501  0.00000000000E+00  0.00000000000E+00 -0.11753091919E+04  0.11753091919E+04  0.25500000920E-02 0.  1.
    10030    2    1    2    0    0  0.00000000000E+00  0.00000000000E+00  0.37288914909E+03  0.27235075330E+04  0.26978597007E+04 0.  0.
        5    1    3    3  502    0  0.83407086611E+03  0.10583548265E+04  0.12421028423E+03  0.13532329560E+04  0.46999998093E+01 0.  1.
       -5    1    3    3    0  502 -0.83407086611E+03 -0.10583548265E+04  0.24867886486E+03  0.13702745770E+04  0.46999998093E+01 0. -1.
</event>
<event>
 5   0  0.1828511E-06  0.2693445E+04  0.7818609E-02  0.8337135E-01
       -1   -1    0    0    0  501  0.00000000000E+00  0.00000000000E+00  0.13619036916E+04  0.13619036916E+04  0.50400001928E-02 0.  1.
        1   -1    0    0  501    0  0.00000000000E+00  0.00000000000E+00 -0.13317103614E+04  0.13317103614E+04  0.50400001928E-02 0. -1.
    10030    2    1    2    0    0  0.00000000000E+00  0.00000000000E+00  0.30193330230E+02  0.26936140530E+04  0.26934448258E+04 0.  0.
        4    1    3    3  502    0 -0.37567841459E+03  0.92421797913E+03  0.91977856272E+03  0.13569478109E+04  0.12699999809E+01 0.  1.
       -4    1    3    3    0  502  0.37567841459E+03 -0.92421797913E+03 -0.88958523249E+03  0.13366662422E+04  0.12699999809E+01 0. -1.
</event>
<event>
 5   0  0.1732312E-06  0.2689262E+04  0.7818609E-02  0.8338498E-01
       -1   -1    0    0    0  501  0.00000000000E+00  0.00000000000E+00  0.76322171984E+03  0.76322171985E+03  0.50400001928E-02 0. -1.
        1   -1    0    0  501    0  0.00000000000E+00  0.00000000000E+00 -0.23689476691E+04  0.23689476691E+04  0.50400001928E-02 0.  1.
    10030    2    1    2    0    0  0.00000000000E+00  0.00000000000E+00 -0.16057259492E+04  0.31321693889E+04  0.26892618424E+04 0.  0.
        5    1    3    3  502    0  0.33893835433E+03 -0.77492043059E+03  0.41457986777E+03  0.94195511493E+03  0.46999998093E+01 0. -1.
       -5    1    3    3    0  502 -0.33893835433E+03  0.77492043059E+03 -0.20203058170E+04  0.21902142740E+04  0.46999998093E+01 0.  1.
</event>
<event>
 5   0  0.4439357E-06  0.2696304E+04  0.7818609E-02  0.8336205E-01
       -2   -1    0    0    0  501  0.00000000000E+00  0.00000000000E+00  0.61249664393E+03  0.61249664394E+03  0.25500000920E-02 0. -1.
        2   -1    0    0  501    0  0.00000000000E+00  0.00000000000E+00 -0.29673853931E+04  0.29673853931E+04  0.25500000920E-02 0.  1.
    10030    2    1    2    0    0  0.00000000000E+00  0.00000000000E+00 -0.23548887492E+04  0.35798820370E+04  0.26963038364E+04 0.  0.
        4    1    3    3  502    0 -0.10468519524E+04  0.62505916131E+03 -0.19412053563E+04  0.22923520265E+04  0.12699999809E+01 0.  1.
       -4    1    3    3    0  502  0.10468519524E+04 -0.62505916131E+03 -0.41368339290E+03  0.12875300105E+04  0.12699999809E+01 0. -1.
</event>
<event>
 5   0  0.4448804E-06  0.2700417E+04  0.7818609E-02  0.8334870E-01
       -2   -1    0    0    0  501  0.00000000000E+00  0.00000000000E+00  0.83247893608E+03  0.83247893608E+03  0.25500000920E-02 0.  1.
        2   -1    0    0  501    0  0.00000000000E+00  0.00000000000E+00 -0.21899215310E+04  0.21899215310E+04  0.25500000920E-02 0. -1.
    10030    2    1    2    0    0  0.00000000000E+00  0.00000000000E+00 -0.13574425950E+04  0.30224004671E+04  0.27004174094E+04 0.  0.
        2    1    3    3  502    0 -0.59623061827E+02  0.54960663401E+03  0.70000177049E+03  0.89197804925E+03  0.25500000920E-02 0.  1.
       -2    1    3    3    0  502  0.59623061827E+02 -0.54960663401E+03 -0.20574443655E+04  0.21304224179E+04  0.25500000920E-02 0. -1.
</event>
<event>
 5   0  0.1732312E-06  0.2706723E+04  0.7818609E-02  0.8332827E-01
       -1   -1    0    0    0  501  0.00000000000E+00  0.00000000000E+00  0.15347137433E+04  0.15347137433E+04  0.50400001928E-02 0. -1.
        1   -1    0    0  501    0  0.00000000000E+00  0.00000000000E+00 -0.11934391291E+04  0.11934391291E+04  0.50400001928E-02 0.  1.
    10030    2    1    2    0    0  0.00000000000E+00  0.00000000000E+00  0.34127461421E+03  0.27281528724E+04  0.27067230617E+04 0.  0.
        5    1    3    3  502    0  0.14961797481E+03  0.10023300235E+04  0.10746858925E+04  0.14771671780E+04  0.46999998093E+01 0. -1.
       -5    1    3    3    0  502 -0.14961797481E+03 -0.10023300235E+04 -0.73341127828E+03  0.12509856943E+04  0.46999998093E+01 0.  1.
</event>
<event>
 5   0  0.1828511E-06  0.2705005E+04  0.7818609E-02  0.8333383E-01
       -1   -1    0    0    0  501  0.00000000000E+00  0.00000000000E+00  0.16576889080E+04  0.16576889080E+04  0.50400001928E-02 0.  1.
        1   -1    0    0  501    0  0.00000000000E+00  0.00000000000E+00 -0.11035016165E+04  0.11035016165E+04  0.50400001928E-02 0. -1.
    10030    2    1    2    0    0  0.00000000000E+00  0.00000000000E+00  0.55418729142E+03  0.27611905245E+04  0.27050045395E+04 0.  0.
        4    1    3    3  502    0  0.57828623020E+03  0.14178974676E+03 -0.96251993075E+03  0.11317974758E+04  0.12699999809E+01 0. -1.
       -4    1    3    3    0  502 -0.57828623020E+03 -0.14178974676E+03  0.15167072222E+04  0.16293930487E+04  0.12699999809E+01 0.  1.
</event>
<event>
 5   0  0.4401659E-06  0.2727403E+04  0.7818609E-02  0.8326168E-01
        2   -1    0    0  501    0  0.00000000000E+00  0.00000000000E+00  0.10473832225E+04  0.10473832225E+04  0.25500000920E-02 0. -1.
       -2   -1    0    0    0  501  0.00000000000E+00  0.00000000000E+00 -0.17755501667E+04  0.17755501667E+04  0.25500000920E-02 0.  1.
    10030    2    1    2    0    0  0.00000000000E+00  0.00000000000E+00 -0.72816694424E+03  0.28229333893E+04  0.27274027611E+04 0.  0.
        5    1    3    3  502    0 -0.67929056675E+03  0.35252956593E+03 -0.15323097370E+04  0.17128070496E+04  0.46999998093E+01 0.  1.
       -5    1    3    3    0  502  0.67929056675E+03 -0.35252956593E+03  0.80414279275E+03  0.11101263397E+04  0.46999998093E+01 0. -1.
</event>
<event>
 5   0  0.1771016E-06  0.2694389E+04  0.7818609E-02  0.8336828E-01
       -1   -1    0    0    0  501  0.00000000000E+00  0.00000000000E+00  0.10484564749E+04  0.10484564749E+04  0.50400001928E-02 0. -1.
        1   -1    0    0  501    0  0.00000000000E+00  0.00000000000E+00 -0.17310529232E+04  0.17310529232E+04  0.50400001928E-02 0.  1.
    10030    2    1    2    0    0  0.00000000000E+00  0.00000000000E+00 -0.68259644823E+03  0.27795093981E+04  0.26943894639E+04 0.  0.
        2    1    3    3  502    0 -0.54121855612E+03 -0.36433236063E+03  0.87461438598E+03  0.10911488985E+04  0.25500000920E-02 0. -1.
       -2    1    3    3    0  502  0.54121855612E+03  0.36433236063E+03 -0.15572108342E+04  0.16883604996E+04  0.25500000920E-02 0.  1.
</event>
<event>
 5   0  0.1753474E-06  0.2697717E+04  0.7818609E-02  0.8335746E-01
       -1   -1    0    0    0  501  0.00000000000E+00  0.00000000000E+00  0.10329600664E+04  0.10329600664E+04  0.50400001928E-02 0. -1.
        1   -1    0    0  501    0  0.00000000000E+00  0.00000000000E+00 -0.17613650014E+04  0.17613650014E+04  0.50400001928E-02 0.  1.
    10030    2    1    2    0    0  0.00000000000E+00  0.00000000000E+00 -0.72840493505E+03  0.27943250678E+04  0.26977173379E+04 0.  0.
        3    1    3    3  502    0  0.97943369646E+03  0.24920189533E+03 -0.12895172065E+04  0.16383670488E+04  0.10100000352E+00 0.  1.
       -3    1    3    3    0  502 -0.97943369646E+03 -0.24920189533E+03  0.56111227148E+03  0.11559580191E+04  0.10100000352E+00 0. -1.
</event>
<event>
 5   0  0.1723605E-06  0.2697085E+04  0.7818609E-02  0.8335951E-01
       -1   -1    0    0    0  501  0.00000000000E+00  0.00000000000E+00  0.18982834942E+04  0.18982834942E+04  0.50400001928E-02 0. -1.
        1   -1    0    0  501    0  0.00000000000E+00  0.00000000000E+00 -0.95800581901E+03  0.95800581903E+03  0.50400001928E-02 0.  1.
    10030    2    1    2    0    0  0.00000000000E+00  0.00000000000E+00  0.94027767517E+03  0.28562893132E+04  0.26970848215E+04 0.  0.
        1    1    3    3  502    0  0.51451092468E+03  0.92926526530E+03  0.13500322224E+04  0.17178016260E+04  0.50400001928E-02 0. -1.
       -1    1    3    3    0  502 -0.51451092468E+03 -0.92926526530E+03 -0.40975454720E+03  0.11384876872E+04  0.50400001928E-02 0.  1.
</event>
<event>
 5   0  0.4655882E-06  0.2698319E+04  0.7818609E-02  0.8335551E-01
        2   -1    0    0  501    0  0.00000000000E+00  0.00000000000E+00  0.12142706812E+04  0.12142706812E+04  0.25500000920E-02 0.  1.
       -2   -1    0    0    0  501  0.00000000000E+00  0.00000000000E+00 -0.14990325644E+04  0.14990325644E+04  0.25500000920E-02 0. -1.
    10030    2    1    2    0    0  0.00000000000E+00  0.00000000000E+00 -0.28476188318E+03  0.27133032456E+04  0.26983189531E+04 0.  0.
        1    1    3    3  502    0 -0.10141396430E+03  0.61137769241E+03  0.10626745357E+04  0.12301807362E+04  0.50400001928E-02 0.  1.
       -1    1    3    3    0  502  0.10141396430E+03 -0.61137769241E+03 -0.13474364189E+04  0.14831225094E+04  0.50400001928E-02 0. -1.
</event>
<event>
 5   0  0.4487186E-06  0.2701327E+04  0.7818609E-02  0.8334575E-01
        2   -1    0    0  501    0  0.00000000000E+00  0.00000000000E+00  0.11977342013E+04  0.11977342013E+04  0.25500000920E-02 0. -1.
       -2   -1    0    0    0  501  0.00000000000E+00  0.00000000000E+00 -0.15231190519E+04  0.15231190519E+04  0.25500000920E-02 0.  1.
    10030    2    1    2    0    0  0.00000000000E+00  0.00000000000E+00 -0.32538485066E+03  0.27208532532E+04  0.27013269192E+04 0.  0.
        3    1    3    3  502    0 -0.30929686944E+02  0.10381674747E+04 -0.10323823593E+04  0.14644322098E+04  0.10100000352E+00 0.  1.
       -3    1    3    3    0  502  0.30929686944E+02 -0.10381674747E+04  0.70699750860E+03  0.12564210435E+04  0.10100000352E+00 0. -1.
</event>
<event>
 5   0  0.4401659E-06  0.2708511E+04  0.7818609E-02  0.8332249E-01
        2   -1    0    0  501    0  0.00000000000E+00  0.00000000000E+00  0.11274745964E+04  0.11274745964E+04  0.25500000920E-02 0. -1.
       -2   -1    0    0    0  501  0.00000000000E+00  0.00000000000E+00 -0.16266511783E+04  0.16266511783E+04  0.25500000920E-02 0.  1.
    10030    2    1    2    0    0  0.00000000000E+00  0.00000000000E+00 -0.49917658192E+03  0.27541257747E+04  0.27085109420E+04 0.  0.
        5    1    3    3  502    0 -0.31035095080E+03 -0.34795791874E+03  0.10432778779E+04  0.11427349852E+04  0.46999998093E+01 0. -1.
       -5    1    3    3    0  502  0.31035095080E+03  0.34795791874E+03 -0.15424544598E+04  0.16113907895E+04  0.46999998093E+01 0.  1.
</event>
<event>
 5   0  0.4439357E-06  0.2679184E+04  0.7818609E-02  0.8341791E-01
        2   -1    0    0  501    0  0.00000000000E+00  0.00000000000E+00  0.16726870384E+04  0.16726870384E+04  0.25500000920E-02 0.  1.
       -2   -1    0    0    0  501  0.00000000000E+00  0.00000000000E+00 -0.10728285031E+04  0.10728285031E+04  0.25500000920E-02 0. -1.
    10030    2    1    2    0    0  0.00000000000E+00  0.00000000000E+00  0.59985853525E+03  0.27455155415E+04  0.26791837052E+04 0.  0.
        4    1    3    3  502    0  0.86643565694E+03 -0.91705821234E+03  0.76140988820E+03  0.14735851327E+04  0.12699999809E+01 0. -1.
       -4    1    3    3    0  502 -0.86643565694E+03  0.91705821234E+03 -0.16155135295E+03  0.12719304089E+04  0.12699999809E+01 0.  1.
</event>
<event>
 5   0  0.4655882E-06  0.2668342E+04  0.7818609E-02  0.8345351E-01
        2   -1    0    0  501    0  0.00000000000E+00  0.00000000000E+00  0.16070862224E+04  0.16070862224E+04  0.25500000920E-02 0. -1.
       -2   -1    0    0    0  501  0.00000000000E+00  0.00000000000E+00 -0.11076019278E+04  0.11076019278E+04  0.25500000920E-02 0.  1.
    10030    2    1    2    0    0  0.00000000000E+00  0.00000000000E+00  0.49948429458E+03  0.27146881503E+04  0.26683416559E+04 0.  0.
        1    1    3    3  502    0 -0.43783962540E+03  0.10635921434E+04  0.93756187303E+03  0.14838982617E+04  0.50400001928E-02 0. -1.
       -1    1    3    3    0  502  0.43783962540E+03 -0.10635921434E+04 -0.43807757844E+03  0.12307898886E+04  0.50400001928E-02 0.  1.
</event>
<event>
 5   0  0.1771016E-06  0.2691874E+04  0.7818609E-02  0.8337646E-01
        1   -1    0    0  501    0  0.00000000000E+00  0.00000000000E+00  0.14703064009E+04  0.14703064009E+04  0.50400001928E-02 0. -1.
       -1   -1    0    0    0  501  0.00000000000E+00  0.00000000000E+00 -0.12320876861E+04  0.12320876861E+04  0.50400001928E-02 0.  1.
    10030    2    1    2    0    0  0.00000000000E+00  0.00000000000E+00  0.23821871483E+03  0.27023940870E+04  0.26918740025E+04 0.  0.
        2    1    3    3  502    0 -0.12168697277E+04 -0.57056865213E+03  0.46536521473E+02  0.13447996761E+04  0.25500000920E-02 0.  1.
       -2    1    3    3    0  502  0.12168697277E+04  0.57056865213E+03  0.19168219336E+03  0.13575944108E+04  0.25500000920E-02 0. -1.
</event>
<event>
 5   0  0.1753474E-06  0.2696460E+04  0.7818609E-02  0.8336154E-01
        1   -1    0    0  501    0  0.00000000000E+00  0.00000000000E+00  0.14110295546E+04  0.14110295546E+04  0.50400001928E-02 0.  1.
       -1   -1    0    0    0  501  0.00000000000E+00  0.00000000000E+00 -0.12882255537E+04  0.12882255537E+04  0.50400001928E-02 0. -1.
    10030    2    1    2    0    0  0.00000000000E+00  0.00000000000E+00  0.12280400093E+03  0.26992551083E+04  0.26964601456E+04 0.  0.
        3    1    3    3  502    0 -0.99925532767E+03  0.63755960384E+03 -0.58170523808E+03  0.13203690592E+04  0.10100000352E+00 0. -1.
       -3    1    3    3    0  502  0.99925532767E+03 -0.63755960384E+03  0.70450923901E+03  0.13788860491E+04  0.10100000352E+00 0.  1.
</event>
<event>
 5   0  0.4401659E-06  0.2713681E+04  0.7818609E-02  0.8330580E-01
       -2   -1    0    0    0  501  0.00000000000E+00  0.00000000000E+00  0.83087562429E+03  0.83087562429E+03  0.25500000920E-02 0. -1.
        2   -1    0    0  501    0  0.00000000000E+00  0.00000000000E+00 -0.22157534079E+04  0.22157534079E+04  0.25500000920E-02 0.  1.
    10030    2    1    2    0    0  0.00000000000E+00  0.00000000000E+00 -0.13848777836E+04  0.30466290322E+04  0.27136805236E+04 0.  0.
        5    1    3    3  502    0 -0.43100117092E+03  0.57299934561E+03  0.60080510350E+03  0.93545663811E+03  0.46999998093E+01 0. -1.
       -5    1    3    3    0  502  0.43100117092E+03 -0.57299934561E+03 -0.19856828871E+04  0.21111723941E+04  0.46999998093E+01 0.  1.
</event>
<event>
 5   0  0.4487186E-06  0.2710292E+04  0.7818609E-02  0.8331673E-01
       -2   -1    0    0    0  501  0.00000000000E+00  0.00000000000E+00  0.10508704357E+04  0.10508704357E+04  0.25500000920E-02 0.  1.
        2   -1    0    0  501    0  0.00000000000E+00  0.00000000000E+00 -0.17475236718E+04  0.17475236718E+04  0.25500000920E-02 0. -1.
    10030    2    1    2    0    0  0.00000000000E+00  0.00000000000E+00 -0.69665323616E+03  0.27983941075E+04  0.27102922074E+04 0.  0.
        3    1    3    3  502    0  0.49768079650E+03  0.91045014404E+03  0.55168223601E+03  0.11751420934E+04  0.10100000352E+00 0.  1.
       -3    1    3    3    0  502 -0.49768079650E+03 -0.91045014404E+03 -0.12483354722E+04  0.16232520141E+04  0.10100000352E+00 0. -1.
</event>
<event>
 5   0  0.1828511E-06  0.2711953E+04  0.7818609E-02  0.8331137E-01
       -1   -1    0    0    0  501  0.00000000000E+00  0.00000000000E+00  0.11378040949E+04  0.11378040949E+04  0.50400001928E-02 0.  1.
        1   -1    0    0  501    0  0.00000000000E+00  0.00000000000E+00 -0.16159830525E+04  0.16159830526E+04  0.50400001928E-02 0. -1.
    10030    2    1    2    0    0  0.00000000000E+00  0.00000000000E+00 -0.47817895764E+03  0.27537871475E+04  0.27119529011E+04 0.  0.
        4    1    3    3  502    0  0.72782315391E+02  0.11541218344E+02  0.11357686788E+04  0.11381575330E+04  0.12699999809E+01 0.  1.
       -4    1    3    3    0  502 -0.72782315391E+02 -0.11541218344E+02 -0.16139476365E+04  0.16156296145E+04  0.12699999809E+01 0. -1.
</event>
<event>
 5   0  0.1723605E-06  0.2654460E+04  0.7818609E-02  0.8349934E-01
       -1   -1    0    0    0  501  0.00000000000E+00  0.00000000000E+00  0.11471021943E+04  0.11471021943E+04  0.50400001928E-02 0.  1.
        1   -1    0    0  501    0  0.00000000000E+00  0.00000000000E+00 -0.15356425366E+04  0.15356425367E+04  0.50400001928E-02 0. -1.
    10030    2    1    2    0    0  0.00000000000E+00  0.00000000000E+00 -0.38854034233E+03  0.26827447310E+04  0.26544595861E+04 0.  0.
        1    1    3    3  502    0 -0.19274364460E+03 -0.11726405751E+03  0.11275801607E+04  0.11499295590E+04  0.50400001928E-02 0.  1.
       -1    1    3    3    0  502  0.19274364460E+03  0.11726405751E+03 -0.15161205031E+04  0.15328151720E+04  0.50400001928E-02 0. -1.
</event>
<event>
 5   0  0.4401659E-06  0.2631752E+04  0.7818609E-02  0.8357495E-01
        2   -1    0    0  501    0  0.00000000000E+00  0.00000000000E+00  0.13100632754E+04  0.13100632754E+04  0.25500000920E-02 0. -1.
       -2   -1    0    0    0  501  0.00000000000E+00  0.00000000000E+00 -0.13217148258E+04  0.13217148258E+04  0.25500000920E-02 0.  1.
    10030    2    1    2    0    0  0.00000000000E+00  0.00000000000E+00 -0.11651550382E+02  0.26317781012E+04  0.26317523089E+04 0.  0.
        5    1    3    3  502    0  0.56372493137E+03 -0.73435926667E+03  0.92929762461E+03  0.13117490217E+04  0.46999998093E+01 0. -1.
       -5    1    3    3    0  502 -0.56372493137E+03  0.73435926667E+03 -0.94094917499E+03  0.13200290795E+04  0.46999998093E+01 0.  1.
</event>
<event>
 5   0  0.1723605E-06  0.2704615E+04  0.7818609E-02  0.8333509E-01
       -1   -1    0    0    0  501  0.00000000000E+00  0.00000000000E+00  0.17178811847E+04  0.17178811847E+04  0.50400001928E-02 0.  1.
        1   -1    0    0  501    0  0.00000000000E+00  0.00000000000E+00 -0.10645295616E+04  0.10645295616E+04  0.50400001928E-02 0. -1.
    10030    2    1    2    0    0  0.00000000000E+00  0.00000000000E+00  0.65335162312E+03  0.27824107463E+04  0.27046148002E+04 0.  0.
        1    1    3    3  502    0 -0.59684509343E+03  0.54267153922E+03 -0.78990957507E+03  0.11290144383E+04  0.50400001928E-02 0. -1.
       -1    1    3    3    0  502  0.59684509343E+03 -0.54267153922E+03  0.14432611982E+04  0.16533963080E+04  0.50400001928E-02 0.  1.
</event>
<event>
 5   0  0.1723605E-06  0.2690026E+04  0.7818609E-02  0.8338248E-01
        1   -1    0    0  501    0  0.00000000000E+00  0.00000000000E+00  0.15925957082E+04  0.15925957082E+04  0.50400001928E-02 0.  1.
       -1   -1    0    0    0  501  0.00000000000E+00  0.00000000000E+00 -0.11359195240E+04  0.11359195240E+04  0.50400001928E-02 0. -1.
    10030    2    1    2    0    0  0.00000000000E+00  0.00000000000E+00  0.45667618425E+03  0.27285152322E+04  0.26900264377E+04 0.  0.
        1    1    3    3  502    0  0.21609824585E+03 -0.13121125970E+04  0.43302393038E+03  0.13985162292E+04  0.50400001928E-02 0. -1.
       -1    1    3    3    0  502 -0.21609824585E+03  0.13121125970E+04  0.23652253879E+02  0.13299990031E+04  0.50400001928E-02 0.  1.
</event>
<event>
 5   0  0.4439357E-06  0.2701335E+04  0.7818609E-02  0.8334572E-01
       -2   -1    0    0    0  501  0.00000000000E+00  0.00000000000E+00  0.10454604141E+04  0.10454604141E+04  0.25500000920E-02 0. -1.
        2   -1    0    0  501    0  0.00000000000E+00  0.00000000000E+00 -0.17449750008E+04  0.17449750008E+04  0.25500000920E-02 0.  1.
    10030    2    1    2    0    0  0.00000000000E+00  0.00000000000E+00 -0.69951458672E+03  0.27904354149E+04  0.27013346975E+04 0.  0.
        4    1    3    3  502    0 -0.32441151207E+03  0.20264374034E+03  0.98834309610E+03  0.10597787520E+04  0.12699999809E+01 0. -1.
       -4    1    3    3    0  502  0.32441151207E+03 -0.20264374034E+03 -0.16878576828E+04  0.17306566630E+04  0.12699999809E+01 0.  1.
</event>
<event>
 5   0  0.1753474E-06  0.2685772E+04  0.7818609E-02  0.8339636E-01
       -1   -1    0    0    0  501  0.00000000000E+00  0.00000000000E+00  0.12436529709E+04  0.12436529709E+04  0.50400001928E-02 0.  1.
        1   -1    0    0  501    0  0.00000000000E+00  0.00000000000E+00 -0.14500367745E+04  0.14500367745E+04  0.50400001928E-02 0. -1.
    10030    2    1    2    0    0  0.00000000000E+00  0.00000000000E+00 -0.20638380360E+03  0.26936897454E+04  0.26857718015E+04 0.  0.
        3    1    3    3  502    0  0.10508324746E+04 -0.83596253130E+03 -0.87010868396E+02  0.13456051222E+04  0.10100000352E+00 0.  1.
       -3    1    3    3    0  502 -0.10508324746E+04  0.83596253130E+03 -0.11937293521E+03  0.13480846232E+04  0.10100000352E+00 0. -1.
</event>
<event>
 5   0  0.1753474E-06  0.2655603E+04  0.7818609E-02  0.8349556E-01
       -1   -1    0    0    0  501  0.00000000000E+00  0.00000000000E+00  0.65886550944E+03  0.65886550946E+03  0.50400001928E-02 0.  1.
        1   -1    0    0  501    0  0.00000000000E+00  0.00000000000E+00 -0.26758980310E+04  0.26758980310E+04  0.50400001928E-02 0. -1.
    10030    2    1    2    0    0  0.00000000000E+00  0.00000000000E+00 -0.20170325216E+04  0.33347635405E+04  0.26556030724E+04 0.  0.
        3    1    3    3  502    0 -0.92083570234E+02  0.94224411269E+03 -0.21776109795E+04  0.23745089893E+04  0.10100000352E+00 0. -1.
       -3    1    3    3    0  502  0.92083570234E+02 -0.94224411269E+03  0.16057845792E+03  0.96025455123E+03  0.10100000352E+00 0.  1.
</event>
<event>
 5   0  0.1723605E-06  0.2701531E+04  0.7818609E-02  0.8334509E-01
        1   -1    0    0  501    0  0.00000000000E+00  0.00000000000E+00  0.11273180319E+04  0.11273180319E+04  0.50400001928E-02 0. -1.
       -1   -1    0    0    0  501  0.00000000000E+00  0.00000000000E+00 -0.16185023311E+04  0.16185023311E+04  0.50400001928E-02 0.  1.
    10030    2    1    2    0    0  0.00000000000E+00  0.00000000000E+00 -0.49118429912E+03  0.27458203630E+04  0.27015305755E+04 0.  0.
        1    1    3    3  502    0 -0.10453645625E+04 -0.85251610613E+03 -0.17375037642E+03  0.13600588124E+04  0.50400001928E-02 0. -1.
       -1    1    3    3    0  502  0.10453645625E+04  0.85251610613E+03 -0.31743392271E+03  0.13857615506E+04  0.50400001928E-02 0.  1.
</event>
<event>
 5   0  0.1732312E-06  0.2684123E+04  0.7818609E-02  0.8340175E-01
       -1   -1    0    0    0  501  0.00000000000E+00  0.00000000000E+00  0.73878818832E+03  0.73878818833E+03  0.50400001928E-02 0. -1.
        1   -1    0    0  501    0  0.00000000000E+00  0.00000000000E+00 -0.24379502412E+04  0.24379502413E+04  0.50400001928E-02 0.  1.
    10030    2    1    2    0    0  0.00000000000E+00  0.00000000000E+00 -0.16991620529E+04  0.31767384296E+04  0.26841228303E+04 0.  0.
        5    1    3    3  502    0 -0.48491928461E+03  0.75392806160E+03 -0.20316612599E+04  0.22206358999E+04  0.46999998093E+01 0.  1.
       -5    1    3    3    0  502  0.48491928461E+03 -0.75392806160E+03  0.33249920702E+03  0.95610252971E+03  0.46999998093E+01 0. -1.
</event>
<event>
 5   0  0.1732312E-06  0.2689317E+04  0.7818609E-02  0.8338479E-01
       -1   -1    0    0    0  501  0.00000000000E+00  0.00000000000E+00  0.13020269256E+04  0.13020269256E+04  0.50400001928E-02 0.  1.
        1   -1    0    0  501    0  0.00000000000E+00  0.00000000000E+00 -0.13886862338E+04  0.13886862338E+04  0.50400001928E-02 0. -1.
    10030    2    1    2    0    0  0.00000000000E+00  0.00000000000E+00 -0.86659308135E+02  0.26907131594E+04  0.26893172870E+04 0.  0.
        5    1    3    3  502    0  0.11216908237E+04  0.28318227664E+03 -0.72903366455E+03  0.13674409237E+04  0.46999998093E+01 0. -1.
       -5    1    3    3    0  502 -0.11216908237E+04 -0.28318227664E+03  0.64237435642E+03  0.13232722356E+04  0.46999998093E+01 0.  1.
</event>
<event>
 5   0  0.1771016E-06  0.2687413E+04  0.7818609E-02  0.8339101E-01
       -1   -1    0    0    0  501  0.00000000000E+00  0.00000000000E+00  0.12581620689E+04  0.12581620689E+04  0.50400001928E-02 0. -1.
        1   -1    0    0  501    0  0.00000000000E+00  0.00000000000E+00 -0.14350672329E+04  0.14350672329E+04  0.50400001928E-02 0.  1.
    10030    2    1    2    0    0  0.00000000000E+00  0.00000000000E+00 -0.17690516397E+03  0.26932293018E+04  0.26874130004E+04 0.  0.
        2    1    3    3  502    0 -0.13309685789E+04  0.10149646834E+03 -0.24295585407E+03  0.13567632211E+04  0.25500000920E-02 0.  1.
       -2    1    3    3    0  502  0.13309685789E+04 -0.10149646834E+03  0.66050690101E+02  0.13364660807E+04  0.25500000920E-02 0. -1.
</event>
<event>
 5   0  0.1771016E-06  0.2732632E+04  0.7818609E-02  0.8324494E-01
       -1   -1    0    0    0  501  0.00000000000E+00  0.00000000000E+00  0.80581098582E+03  0.80581098584E+03  0.50400001928E-02 0.  1.
        1   -1    0    0  501    0  0.00000000000E+00  0.00000000000E+00 -0.23166958337E+04  0.23166958337E+04  0.50400001928E-02 0. -1.
    10030    2    1    2    0    0  0.00000000000E+00  0.00000000000E+00 -0.15108848479E+04  0.31225068195E+04  0.27326316646E+04 0.  0.
        2    1    3    3  502    0  0.47467794975E+02  0.61341573320E+03  0.63856673981E+03  0.88673532381E+03  0.25500000920E-02 0.  1.
       -2    1    3    3    0  502 -0.47467794975E+02 -0.61341573320E+03 -0.21494515877E+04  0.22357714957E+04  0.25500000920E-02 0. -1.
</event>
<event>
 5   0  0.1771016E-06  0.2709228E+04  0.7818609E-02  0.8332017E-01
        1   -1    0    0  501    0  0.00000000000E+00  0.00000000000E+00  0.26754408565E+04  0.26754408565E+04  0.50400001928E-02 0.  1.
       -1   -1    0    0    0  501  0.00000000000E+00  0.00000000000E+00 -0.68586033047E+03  0.68586033049E+03  0.50400001928E-02 0. -1.
    10030    2    1    2    0    0  0.00000000000E+00  0.00000000000E+00  0.19895805260E+04  0.33613011870E+04  0.27092277498E+04 0.  0.
        2    1    3    3  502    0 -0.61978921293E+03  0.11908866855E+04  0.12189015282E+04  0.18133038084E+04  0.25500000920E-02 0.  1.
       -2    1    3    3    0  502  0.61978921293E+03 -0.11908866855E+04  0.77067899779E+03  0.15479973785E+04  0.25500000920E-02 0. -1.
</event>
<event>
 5   0  0.4401659E-06  0.2716902E+04  0.7818609E-02  0.8329542E-01
       -2   -1    0    0    0  501  0.00000000000E+00  0.00000000000E+00  0.16022459265E+04  0.16022459265E+04  0.25500000920E-02 0.  1.
        2   -1    0    0  501    0  0.00000000000E+00  0.00000000000E+00 -0.11517512975E+04  0.11517512975E+04  0.25500000920E-02 0. -1.
    10030    2    1    2    0    0  0.00000000000E+00  0.00000000000E+00  0.45049462898E+03  0.27539972240E+04  0.27169017831E+04 0.  0.
        5    1    3    3  502    0  0.49627837937E+03  0.47078231741E+03 -0.96442038535E+03  0.11823945999E+04  0.46999998093E+01 0. -1.
       -5    1    3    3    0  502 -0.49627837937E+03 -0.47078231741E+03  0.14149150143E+04  0.15716026241E+04  0.46999998093E+01 0.  1.
</event>
<event>
 5   0  0.1723605E-06  0.2715414E+04  0.7818609E-02  0.8330021E-01
       -1   -1    0    0    0  501  0.00000000000E+00  0.00000000000E+00  0.16284283720E+04  0.16284283720E+04  0.50400001928E-02 0. -1.
        1   -1    0    0  501    0  0.00000000000E+00  0.00000000000E+00 -0.11319925741E+04  0.11319925741E+04  0.50400001928E-02 0.  1.
    10030    2    1    2    0    0  0.00000000000E+00  0.00000000000E+00  0.49643579791E+03  0.27604209461E+04  0.27154143879E+04 0.  0.
        1    1    3    3  502    0 -0.61496963350E+03  0.63924917499E+03  0.12931366287E+04  0.15681292990E+04  0.50400001928E-02 0. -1.
       -1    1    3    3    0  502  0.61496963350E+03 -0.63924917499E+03 -0.79670083081E+03  0.11922916471E+04  0.50400001928E-02 0.  1.
</event>
<event>
 5   0  0.4401659E-06  0.2705464E+04  0.7818609E-02  0.8333234E-01
        2   -1    0    0  501    0  0.00000000000E+00  0.00000000000E+00  0.13575796647E+04  0.13575796647E+04  0.25500000920E-02 0. -1.
       -2   -1    0    0    0  501  0.00000000000E+00  0.00000000000E+00 -0.13479011980E+04  0.13479011980E+04  0.25500000920E-02 0.  1.
    10030    2    1    2    0    0  0.00000000000E+00  0.00000000000E+00  0.96784667080E+01  0.27054808628E+04  0.27054635511E+04 0.  0.
        5    1    3    3  502    0  0.79162356772E+03  0.33543313026E+02 -0.10915564632E+04  0.13488182343E+04  0.46999998093E+01 0.  1.
       -5    1    3    3    0  502 -0.79162356772E+03 -0.33543313026E+02  0.11012349299E+04  0.13566626285E+04  0.46999998093E+01 0. -1.
</event>
<event>
 5   0  0.1828511E-06  0.2711114E+04  0.7818609E-02  0.8331408E-01
       -1   -1    0    0    0  501  0.00000000000E+00  0.00000000000E+00  0.10376306560E+04  0.10376306560E+04  0.50400001928E-02 0.  1.
        1   -1    0    0  501    0  0.00000000000E+00  0.00000000000E+00 -0.17708952003E+04  0.17708952003E+04  0.50400001928E-02 0. -1.
    10030    2    1    2    0    0  0.00000000000E+00  0.00000000000E+00 -0.73326454436E+03  0.28085258563E+04  0.27111142716E+04 0.  0.
        4    1    3    3  502    0 -0.11832136583E+04  0.43345363480E+03 -0.88424197429E+03  0.15394031625E+04  0.12699999809E+01 0. -1.
       -4    1    3    3    0  502  0.11832136583E+04 -0.43345363480E+03  0.15097742993E+03  0.12691226938E+04  0.12699999809E+01 0.  1.
</event>
<event>
 5   0  0.4439357E-06  0.2697533E+04  0.7818609E-02  0.8335806E-01
        2   -1    0    0  501    0  0.00000000000E+00  0.00000000000E+00  0.16645248060E+04  0.16645248060E+04  0.25500000920E-02 0.  1.
       -2   -1    0    0    0  501  0.00000000000E+00  0.00000000000E+00 -0.10929073305E+04  0.10929073305E+04  0.25500000920E-02 0. -1.
    10030    2    1    2    0    0  0.00000000000E+00  0.00000000000E+00  0.57161747553E+03  0.27574321366E+04  0.26975332156E+04 0.  0.
        4    1    3    3  502    0  0.64124102145E+03  0.29803647381E+03 -0.88823905094E+03  0.11353351980E+04  0.12699999809E+01 0. -1.
       -4    1    3    3    0  502 -0.64124102145E+03 -0.29803647381E+03  0.14598565265E+04  0.16220969386E+04  0.12699999809E+01 0.  1.
</event>
<event>
 5   0  0.4655882E-06  0.2697305E+04  0.7818609E-02  0.8335880E-01
        2   -1    0    0  501    0  0.00000000000E+00  0.00000000000E+00  0.14573725878E+04  0.14573725878E+04  0.25500000920E-02 0. -1.
       -2   -1    0    0    0  501  0.00000000000E+00  0.00000000000E+00 -0.12480424847E+04  0.12480424847E+04  0.25500000920E-02 0.  1.
    10030    2    1    2    0    0  0.00000000000E+00  0.00000000000E+00  0.20933010304E+03  0.27054150725E+04  0.26973045105E+04 0.  0.
        1    1    3    3  502    0 -0.51439816773E+03 -0.11071254177E+04 -0.47023445082E+03  0.13082249823E+04  0.50400001928E-02 0.  1.
       -1    1    3    3    0  502  0.51439816773E+03  0.11071254177E+04  0.67956455386E+03  0.13971900903E+04  0.50400001928E-02 0. -1.
</event>
<event>
 5   0  0.1753474E-06  0.2700364E+04  0.7818609E-02  0.8334887E-01
        1   -1    0    0  501    0  0.00000000000E+00  0.00000000000E+00  0.14982656000E+04  0.14982656000E+04  0.50400001928E-02 0. -1.
       -1   -1    0    0    0  501  0.00000000000E+00  0.00000000000E+00 -0.12167348237E+04  0.12167348237E+04  0.50400001928E-02 0.  1.
    10030    2    1    2    0    0  0.00000000000E+00  0.00000000000E+00  0.28153077632E+03  0.27150004237E+04  0.27003643685E+04 0.  0.
        3    1    3    3  502    0 -0.11795889845E+04  0.56856247410E+03 -0.19010559051E+03  0.13231906911E+04  0.10100000352E+00 0.  1.
       -3    1    3    3    0  502  0.11795889845E+04 -0.56856247410E+03  0.47163636683E+03  0.13918097327E+04  0.10100000352E+00 0. -1.
</event>
<event>
 5   0  0.4487186E-06  0.2701780E+04  0.7818609E-02  0.8334428E-01
       -2   -1    0    0    0  501  0.00000000000E+00  0.00000000000E+00  0.89695745959E+03  0.89695745959E+03  0.25500000920E-02 0. -1.
        2   -1    0    0  501    0  0.00000000000E+00  0.00000000000E+00 -0.20345491182E+04  0.20345491182E+04  0.25500000920E-02 0.  1.
    10030    2    1    2    0    0  0.00000000000E+00  0.00000000000E+00 -0.11375916586E+04  0.29315065777E+04  0.27017801601E+04 0.  0.
        3    1    3    3  502    0  0.11085152551E+04 -0.77169182609E+03 -0.54244834815E+03  0.14555289643E+04  0.10100000352E+00 0. -1.
       -3    1    3    3    0  502 -0.11085152551E+04  0.77169182609E+03 -0.59514331042E+03  0.14759776135E+04  0.10100000352E+00 0.  1.
</event>
<event>
 5   0  0.1723605E-06  0.2639297E+04  0.7818609E-02  0.8354974E-01
       -1   -1    0    0    0  501  0.00000000000E+00  0.00000000000E+00  0.14536478601E+04  0.14536478601E+04  0.50400001928E-02 0.  1.
        1   -1    0    0  501    0  0.00000000000E+00  0.00000000000E+00 -0.11980017712E+04  0.11980017712E+04  0.50400001928E-02 0. -1.
    10030    2    1    2    0    0  0.00000000000E+00  0.00000000000E+00  0.25564608895E+03  0.26516496313E+04  0.26392974149E+04 0.  0.
        1    1    3    3  502    0 -0.55027205563E+03  0.52637821885E+03  0.12106423404E+04  0.14302196477E+04  0.50400001928E-02 0.  1.
       -1    1    3    3    0  502  0.55027205563E+03 -0.52637821885E+03 -0.95499625140E+03  0.12214299835E+04  0.50400001928E-02 0. -1.
</event>
<event>
 5   0  0.4448804E-06  0.2675894E+04  0.7818609E-02  0.8342869E-01
       -2   -1    0    0    0  501  0.00000000000E+00  0.00000000000E+00  0.75099333084E+03  0.75099333084E+03  0.25500000920E-02 0. -1.
        2   -1    0    0  501    0  0.00000000000E+00  0.00000000000E+00 -0.23836464383E+04  0.23836464383E+04  0.25500000920E-02 0.  1.
    10030    2    1    2    0    0  0.00000000000E+00  0.00000000000E+00 -0.16326531075E+04  0.31346397691E+04  0.26758943015E+04 0.  0.
        2    1    3    3  502    0  0.12581843262E+03 -0.94863515766E+03  0.27905324842E+03  0.99679970696E+03  0.25500000920E-02 0.  1.
       -2    1    3    3    0  502 -0.12581843262E+03  0.94863515766E+03 -0.19117063559E+04  0.21378400622E+04  0.25500000920E-02 0. -1.
</event>
<event>
 5   0  0.1828511E-06  0.2714709E+04  0.7818609E-02  0.8330248E-01
       -1   -1    0    0    0  501  0.00000000000E+00  0.00000000000E+00  0.11962435248E+04  0.11962435248E+04  0.50400001928E-02 0. -1.
        1   -1    0    0  501    0  0.00000000000E+00  0.00000000000E+00 -0.15401636138E+04  0.15401636138E+04  0.50400001928E-02 0.  1.
    10030    2    1    2    0    0  0.00000000000E+00  0.00000000000E+00 -0.34392008893E+03  0.27364071386E+04  0.27147086401E+04 0.  0.
        4    1    3    3  502    0 -0.80029757140E+03 -0.69166004463E+03  0.68544998118E+03  0.12604416328E+04  0.12699999809E+01 0. -1.
       -4    1    3    3    0  502  0.80029757140E+03  0.69166004463E+03 -0.10293700701E+04  0.14759655058E+04  0.12699999809E+01 0.  1.
</event>
<event>
 5   0  0.1723605E-06  0.2676352E+04  0.7818609E-02  0.8342719E-01
        1   -1    0    0  501    0  0.00000000000E+00  0.00000000000E+00  0.18142837984E+04  0.18142837984E+04  0.50400001928E-02 0. -1.
       -1   -1    0    0    0  501  0.00000000000E+00  0.00000000000E+00 -0.98700952806E+03  0.98700952807E+03  0.50400001928E-02 0.  1.
    10030    2    1    2    0    0  0.00000000000E+00  0.00000000000E+00  0.82727427036E+03  0.28012933265E+04  0.26763522905E+04 0.  0.
        1    1    3    3  502    0 -0.97953512211E+03 -0.78688618739E+03 -0.68333510255E+02  0.12583117245E+04  0.50400001928E-02 0. -1.
       -1    1    3    3    0  502  0.97953512211E+03  0.78688618739E+03  0.89560778061E+03  0.15429816020E+04  0.50400001928E-02 0.  1.
</event>
<event>
 5   0  0.1771016E-06  0.2686845E+04  0.7818609E-02  0.8339286E-01
        1   -1    0    0  501    0  0.00000000000E+00  0.00000000000E+00  0.14022532038E+04  0.14022532038E+04  0.50400001928E-02 0.  1.
       -1   -1    0    0    0  501  0.00000000000E+00  0.00000000000E+00 -0.12870596643E+04  0.12870596643E+04  0.50400001928E-02 0. -1.
    10030    2    1    2    0    0  0.00000000000E+00  0.00000000000E+00  0.11519353945E+03  0.26893128681E+04  0.26868446459E+04 0.  0.
        2    1    3    3  502    0 -0.11368324558E+04  0.64411602796E+03 -0.25495607679E+03  0.13312686022E+04  0.25500000920E-02 0. -1.
       -2    1    3    3    0  502  0.11368324558E+04 -0.64411602796E+03  0.37014961624E+03  0.13580442660E+04  0.25500000920E-02 0.  1.
</event>
<event>
 5   0  0.4448804E-06  0.2794930E+04  0.7818609E-02  0.8304844E-01
        2   -1    0    0  501    0  0.00000000000E+00  0.00000000000E+00  0.11213006319E+04  0.11213006319E+04  0.25500000920E-02 0.  1.
       -2   -1    0    0    0  501  0.00000000000E+00  0.00000000000E+00 -0.17416456195E+04  0.17416456195E+04  0.25500000920E-02 0. -1.
    10030    2    1    2    0    0  0.00000000000E+00  0.00000000000E+00 -0.62034498762E+03  0.28629462515E+04  0.27949299339E+04 0.  0.
        2    1    3    3  502    0  0.22172788431E+03  0.67054356768E+03 -0.15453855014E+04  0.16991198542E+04  0.25500000920E-02 0. -1.
       -2    1    3    3    0  502 -0.22172788431E+03 -0.67054356768E+03  0.92504051381E+03  0.11638263973E+04  0.25500000920E-02 0.  1.
</event>
<event>
 5   0  0.4655882E-06  0.2719027E+04  0.7818609E-02  0.8328858E-01
        2   -1    0    0  501    0  0.00000000000E+00  0.00000000000E+00  0.21113514225E+04  0.21113514225E+04  0.25500000920E-02 0. -1.
       -2   -1    0    0    0  501  0.00000000000E+00  0.00000000000E+00 -0.87540024312E+03  0.87540024312E+03  0.25500000920E-02 0.  1.
    10030    2    1    2    0    0  0.00000000000E+00  0.00000000000E+00  0.12359511794E+04  0.29867516656E+04  0.27190274354E+04 0.  0.
        1    1    3    3  502    0 -0.11697314772E+04 -0.65958274864E+03  0.85088196263E+03  0.15897550898E+04  0.50400001928E-02 0.  1.
       -1    1    3    3    0  502  0.11697314772E+04  0.65958274864E+03  0.38506921674E+03  0.13969965758E+04  0.50400001928E-02 0. -1.
</event>
<event>
 5   0  0.1771016E-06  0.2705408E+04  0.7818609E-02  0.8333253E-01
        1   -1    0    0  501    0  0.00000000000E+00  0.00000000000E+00  0.14802161372E+04  0.14802161372E+04  0.50400001928E-02 0.  1.
       -1   -1    0    0    0  501  0.00000000000E+00  0.00000000000E+00 -0.12361760201E+04  0.12361760201E+04  0.50400001928E-02 0. -1.
    10030    2    1    2    0    0  0.00000000000E+00  0.00000000000E+00  0.24404011712E+03  0.27163921574E+04  0.27054076909E+04 0.  0.
        2    1    3    3  502    0 -0.26350758612E+03 -0.57104926227E+03  0.13244944567E+04  0.14662261332E+04  0.25500000920E-02 0.  1.
       -2    1    3    3    0  502  0.26350758612E+03  0.57104926227E+03 -0.10804543396E+04  0.12501660241E+04  0.25500000920E-02 0. -1.
</event>
<event>
 5   0  0.4655882E-06  0.2705164E+04  0.7818609E-02  0.8333331E-01
       -2   -1    0    0    0  501  0.00000000000E+00  0.00000000000E+00  0.92722801537E+03  0.92722801537E+03  0.25500000920E-02 0. -1.
        2   -1    0    0  501    0  0.00000000000E+00  0.00000000000E+00 -0.19730621315E+04  0.19730621315E+04  0.25500000920E-02 0.  1.
    10030    2    1    2    0    0  0.00000000000E+00  0.00000000000E+00 -0.10458341161E+04  0.29002901468E+04  0.27051643088E+04 0.  0.
        1    1    3    3  502    0  0.18818675008E+03  0.72870999188E+03 -0.17278347429E+04  0.18846340239E+04  0.50400001928E-02 0.  1.
       -1    1    3    3    0  502 -0.18818675008E+03 -0.72870999188E+03  0.68200062679E+03  0.10156561230E+04  0.50400001928E-02 0. -1.
</event>
<event>
 5   0  0.1723605E-06  0.2704799E+04  0.7818609E-02  0.8333450E-01
       -1   -1    0    0    0  501  0.00000000000E+00  0.00000000000E+00  0.11888541324E+04  0.11888541324E+04  0.50400001928E-02 0.  1.
        1   -1    0    0  501    0  0.00000000000E+00  0.00000000000E+00 -0.15384430147E+04  0.15384430147E+04  0.50400001928E-02 0. -1.
    10030    2    1    2    0    0  0.00000000000E+00  0.00000000000E+00 -0.34958888227E+03  0.27272971471E+04  0.27047989467E+04 0.  0.
        1    1    3    3  502    0  0.53737570110E+03 -0.11601193375E+04 -0.61929547375E+03  0.14206253571E+04  0.50400001928E-02 0. -1.
       -1    1    3    3    0  502 -0.53737570110E+03  0.11601193375E+04  0.26970659148E+03  0.13066717900E+04  0.50400001928E-02 0.  1.
</event>
<event>
 5   0  0.4401659E-06  0.2658642E+04  0.7818609E-02  0.8348550E-01
       -2   -1    0    0    0  501  0.00000000000E+00  0.00000000000E+00  0.21528642989E+04  0.21528642989E+04  0.25500000920E-02 0. -1.
        2   -1    0    0  501    0  0.00000000000E+00  0.00000000000E+00 -0.82081105436E+03  0.82081105436E+03  0.25500000920E-02 0.  1.
    10030    2    1    2    0    0  0.00000000000E+00  0.00000000000E+00  0.13320532445E+04  0.29736753532E+04  0.26586423716E+04 0.  0.
        5    1    3    3  502    0 -0.12480903092E+03  0.71728281781E+03  0.19100215794E+04  0.20440832808E+04  0.46999998093E+01 0. -1.
       -5    1    3    3    0  502  0.12480903092E+03 -0.71728281781E+03 -0.57796833493E+03  0.92959207242E+03  0.46999998093E+01 0.  1.
</event>
<event>
 5   0  0.4439357E-06  0.2699103E+04  0.7818609E-02  0.8335296E-01
       -2   -1    0    0    0  501  0.00000000000E+00  0.00000000000E+00  0.14329862264E+04  0.14329862264E+04  0.25500000920E-02 0. -1.
        2   -1    0    0  501    0  0.00000000000E+00  0.00000000000E+00 -0.12709747720E+04  0.12709747720E+04  0.25500000920E-02 0.  1.
    10030    2    1    2    0    0  0.00000000000E+00  0.00000000000E+00  0.16201145443E+03  0.27039609984E+04  0.26991030676E+04 0.  0.
        4    1    3    3  502    0 -0.13260060125E+04  0.24897101343E+03  0.11283110818E+03  0.13538873596E+04  0.12699999809E+01 0.  1.
       -4    1    3    3    0  502  0.13260060125E+04 -0.24897101343E+03  0.49180346254E+02  0.13500736387E+04  0.12699999809E+01 0. -1.
</event>
<event>
 5   0  0.4439357E-06  0.2761215E+04  0.7818609E-02  0.8315412E-01
       -2   -1    0    0    0  501  0.00000000000E+00  0.00000000000E+00  0.10390675998E+04  0.10390675998E+04  0.25500000920E-02 0. -1.
        2   -1    0    0  501    0  0.00000000000E+00  0.00000000000E+00 -0.18344109670E+04  0.18344109670E+04  0.25500000920E-02 0.  1.
    10030    2    1    2    0    0  0.00000000000E+00  0.00000000000E+00 -0.79534336715E+03  0.28734785668E+04  0.27612149504E+04 0.  0.
        4    1    3    3  502    0  0.75087675346E+03  0.83611227001E+03 -0.12322605375E+04  0.16677431673E+04  0.12699999809E+01 0.  1.
       -4    1    3    3    0  502 -0.75087675346E+03 -0.83611227001E+03  0.43691717034E+03  0.12057353995E+04  0.12699999809E+01 0. -1.
</event>
<event>
 5   0  0.1771016E-06  0.2691405E+04  0.7818609E-02  0.8337799E-01
       -1   -1    0    0    0  501  0.00000000000E+00  0.00000000000E+00  0.11988734453E+04  0.11988734453E+04  0.50400001928E-02 0.  1.
        1   -1    0    0  501    0  0.00000000000E+00  0.00000000000E+00 -0.15105139903E+04  0.15105139903E+04  0.50400001928E-02 0. -1.
    10030    2    1    2    0    0  0.00000000000E+00  0.00000000000E+00 -0.31164054502E+03  0.27093874356E+04  0.26914049207E+04 0.  0.
        2    1    3    3  502    0  0.12763252879E+04  0.10030959190E+03 -0.57313418846E+03  0.14026942121E+04  0.25500000920E-02 0. -1.
       -2    1    3    3    0  502 -0.12763252879E+04 -0.10030959190E+03  0.26149364344E+03  0.13066932235E+04  0.25500000920E-02 0.  1.
</event>
<event>
 5   0  0.1753474E-06  0.2704489E+04  0.7818609E-02  0.8333550E-01
       -1   -1    0    0    0  501  0.00000000000E+00  0.00000000000E+00  0.12261899395E+04  0.12261899395E+04  0.50400001928E-02 0.  1.
        1   -1    0    0  501    0  0.00000000000E+00  0.00000000000E+00 -0.14912578965E+04  0.14912578965E+04  0.50400001928E-02 0. -1.
    10030    2    1    2    0    0  0.00000000000E+00  0.00000000000E+00 -0.26506795699E+03  0.27174478361E+04  0.27044891791E+04 0.  0.
        3    1    3    3  502    0 -0.12474743060E+04 -0.15314357067E+03 -0.63384372173E+03  0.14076231637E+04  0.10100000352E+00 0. -1.
       -3    1    3    3    0  502  0.12474743060E+04  0.15314357067E+03  0.36877576474E+03  0.13098246723E+04  0.10100000352E+00 0.  1.
</event>
<event>
 5   0  0.1732312E-06  0.2714141E+04  0.7818609E-02  0.8330431E-01
       -1   -1    0    0    0  501  0.00000000000E+00  0.00000000000E+00  0.17174514177E+04  0.17174514177E+04  0.50400001928E-02 0.  1.
        1   -1    0    0  501    0  0.00000000000E+00  0.00000000000E+00 -0.10723103238E+04  0.10723103238E+04  0.50400001928E-02 0. -1.
    10030    2    1    2    0    0  0.00000000000E+00  0.00000000000E+00  0.64514109392E+03  0.27897617415E+04  0.27141414008E+04 0.  0.
        5    1    3    3  502    0  0.10434995832E+04  0.20320067784E+03 -0.54439699411E+03  0.11943919259E+04  0.46999998093E+01 0. -1.
       -5    1    3    3    0  502 -0.10434995832E+04 -0.20320067784E+03  0.11895380880E+04  0.15953698156E+04  0.46999998093E+01 0.  1.
</event>
<event>
 5   0  0.4439357E-06  0.2691551E+04  0.7818609E-02  0.8337752E-01
       -2   -1    0    0    0  501  0.00000000000E+00  0.00000000000E+00  0.66005557717E+03  0.66005557717E+03  0.25500000920E-02 0. -1.
        2   -1    0    0  501    0  0.00000000000E+00  0.00000000000E+00 -0.27438768081E+04  0.27438768081E+04  0.25500000920E-02 0.  1.
    10030    2    1    2    0    0  0.00000000000E+00  0.00000000000E+00 -0.20838212309E+04  0.34039323853E+04  0.26915506239E+04 0.  0.
        4    1    3    3  502    0  0.69503101514E+03  0.86250977548E+03 -0.75350660867E+02  0.11102569792E+04  0.12699999809E+01 0. -1.
       -4    1    3    3    0  502 -0.69503101514E+03 -0.86250977548E+03 -0.20084705700E+04  0.22936754061E+04  0.12699999809E+01 0.  1.
</event>
<event>
 5   0  0.4401659E-06  0.2697062E+04  0.7818609E-02  0.8335959E-01
        2   -1    0    0  501    0  0.00000000000E+00  0.00000000000E+00  0.22383707115E+04  0.22383707115E+04  0.25500000920E-02 0.  1.
       -2   -1    0    0    0  501  0.00000000000E+00  0.00000000000E+00 -0.81243734768E+03  0.81243734769E+03  0.25500000920E-02 0. -1.
    10030    2    1    2    0    0  0.00000000000E+00  0.00000000000E+00  0.14259333638E+04  0.30508080592E+04  0.26970620786E+04 0.  0.
        5    1    3    3  502    0 -0.11014225722E+04  0.52194441947E+03  0.60260832447E+02  0.12203323799E+04  0.46999998093E+01 0. -1.
       -5    1    3    3    0  502  0.11014225722E+04 -0.52194441947E+03  0.13656725314E+04  0.18304756793E+04  0.46999998093E+01 0.  1.
</event>
<event>
 5   0  0.4655882E-06  0.2699151E+04  0.7818609E-02  0.8335281E-01
       -2   -1    0    0    0  501  0.00000000000E+00  0.00000000000E+00  0.11392016293E+04  0.11392016293E+04  0.25500000920E-02 0.  1.
        2   -1    0    0  501    0  0.00000000000E+00  0.00000000000E+00 -0.15987980886E+04  0.15987980886E+04  0.25500000920E-02 0. -1.
    10030    2    1    2    0    0  0.00000000000E+00  0.00000000000E+00 -0.45959645930E+03  0.27379997178E+04  0.26991505237E+04 0.  0.
        1    1    3    3  502    0 -0.89698845618E+03 -0.29982028523E+02  0.79261048932E+03  0.11973798897E+04  0.50400001928E-02 0.  1.
       -1    1    3    3    0  502  0.89698845618E+03  0.29982028523E+02 -0.12522069486E+04  0.15406198281E+04  0.50400001928E-02 0. -1.
</event>
<event>
 5   0  0.4655882E-06  0.2710646E+04  0.7818609E-02  0.8331559E-01
        2   -1    0    0  501    0  0.00000000000E+00  0.00000000000E+00  0.16209596064E+04  0.16209596064E+04  0.25500000920E-02 0. -1.
       -2   -1    0    0    0  501  0.00000000000E+00  0.00000000000E+00 -0.11332182866E+04  0.11332182866E+04  0.25500000920E-02 0.  1.
    10030    2    1    2    0    0  0.00000000000E+00  0.00000000000E+00  0.48774131980E+03  0.27541778931E+04  0.27106464675E+04 0.  0.
        1    1    3    3  502    0  0.38849518242E+03 -0.26277778399E+03 -0.10481320628E+04  0.11482863283E+04  0.50400001928E-02 0.  1.
       -1    1    3    3    0  502 -0.38849518242E+03  0.26277778399E+03  0.15358733826E+04  0.16058915648E+04  0.50400001928E-02 0. -1.
</event>
<event>
 5   0  0.1482875E-06  0.2704375E+04  0.7818609E-02  0.8333587E-01
        3   -1    0    0  501    0  0.00000000000E+00  0.00000000000E+00  0.11946781003E+04  0.11946781045E+04  0.10100000352E+00 0. -1.
       -3   -1    0    0    0  501  0.00000000000E+00  0.00000000000E+00 -0.15304634961E+04  0.15304634994E+04  0.10100000352E+00 0.  1.
    10030    2    1    2    0    0  0.00000000000E+00  0.00000000000E+00 -0.33578539582E+03  0.27251416040E+04  0.27043751459E+04 0.  0.
        3    1    3    3  502    0 -0.11277092420E+04 -0.74158119572E+03 -0.85162217526E+02  0.13523769511E+04  0.10100000352E+00 0. -1.
       -3    1    3    3    0  502  0.11277092420E+04  0.74158119572E+03 -0.25062317829E+03  0.13727646528E+04  0.10100000352E+00 0.  1.
</event>
<event>
 5   0  0.1482875E-06  0.2706040E+04  0.7818609E-02  0.8333048E-01
        3   -1    0    0  501    0  0.00000000000E+00  0.00000000000E+00  0.24792820335E+04  0.24792820355E+04  0.10100000352E+00 0. -1.
       -3   -1    0    0    0  501  0.00000000000E+00  0.00000000000E+00 -0.73838416268E+03  0.73838416959E+03  0.10100000352E+00 0.  1.
    10030    2    1    2    0    0  0.00000000000E+00  0.00000000000E+00  0.17408978708E+04  0.32176662051E+04  0.27060396174E+04 0.  0.
        5    1    3    3  502    0 -0.54440611143E+03  0.31374233622E+03  0.22952626435E+04  0.23797195129E+04  0.46999998093E+01 0. -1.
       -5    1    3    3    0  502  0.54440611143E+03 -0.31374233622E+03 -0.55436477271E+03  0.83794669217E+03  0.46999998093E+01 0.  1.
</event>
<event>
 5   0  0.4439357E-06  0.2706836E+04  0.7818609E-02  0.8332790E-01
        2   -1    0    0  501    0  0.00000000000E+00  0.00000000000E+00  0.16934829316E+04  0.16934829316E+04  0.25500000920E-02 0.  1.
       -2   -1    0    0    0  501  0.00000000000E+00  0.00000000000E+00 -0.10816411645E+04  0.10816411645E+04  0.25500000920E-02 0. -1.
    10030    2    1    2    0    0  0.00000000000E+00  0.00000000000E+00  0.61184176711E+03  0.27751240962E+04  0.27068364193E+04 0.  0.
        4    1    3    3  502    0 -0.45767908387E+03 -0.11116905703E+04 -0.33138269474E+03  0.12470533955E+04  0.12699999809E+01 0. -1.
       -4    1    3    3    0  502  0.45767908387E+03  0.11116905703E+04  0.94322446185E+03  0.15280707007E+04  0.12699999809E+01 0.  1.
</event>
<event>
 5   0  0.1828511E-06  0.2699823E+04  0.7818609E-02  0.8335062E-01
        1   -1    0    0  501    0  0.00000000000E+00  0.00000000000E+00  0.26940907183E+04  0.26940907183E+04  0.50400001928E-02 0.  1.
       -1   -1    0    0    0  501  0.00000000000E+00  0.00000000000E+00 -0.67639205827E+03  0.67639205829E+03  0.50400001928E-02 0. -1.
    10030    2    1    2    0    0  0.00000000000E+00  0.00000000000E+00  0.20176986600E+04  0.33704827766E+04  0.26998233765E+04 0.  0.
        4    1    3    3  502    0  0.13459319840E+04 -0.91742890573E+02  0.94884397810E+03  0.16493199117E+04  0.12699999809E+01 0. -1.
       -4    1    3    3    0  502 -0.13459319840E+04  0.91742890573E+02  0.10688546819E+04  0.17211628649E+04  0.12699999809E+01 0.  1.
</event>
<event>
 5   0  0.4439357E-06  0.2715259E+04  0.7818609E-02  0.8330071E-01
        2   -1    0    0  501    0  0.00000000000E+00  0.00000000000E+00  0.22402267682E+04  0.22402267682E+04  0.25500000920E-02 0. -1.
       -2   -1    0    0    0  501  0.00000000000E+00  0.00000000000E+00 -0.82275507227E+03  0.82275507228E+03  0.25500000920E-02 0.  1.
    10030    2    1    2    0    0  0.00000000000E+00  0.00000000000E+00  0.14174716959E+04  0.30629818404E+04  0.27152590569E+04 0.  0.
        4    1    3    3  502    0 -0.80939049549E+03  0.72776754494E+03 -0.20659335837E+03  0.11078993647E+04  0.12699999809E+01 0.  1.
       -4    1    3    3    0  502  0.80939049549E+03 -0.72776754494E+03  0.16240650543E+04  0.19550824758E+04  0.12699999809E+01 0. -1.
</event>
<event>
 5   0  0.1753474E-06  0.2695409E+04  0.7818609E-02  0.8336496E-01
       -1   -1    0    0    0  501  0.00000000000E+00  0.00000000000E+00  0.11419169370E+04  0.11419169370E+04  0.50400001928E-02 0.  1.
        1   -1    0    0  501    0  0.00000000000E+00  0.00000000000E+00 -0.15905780129E+04  0.15905780129E+04  0.50400001928E-02 0. -1.
    10030    2    1    2    0    0  0.00000000000E+00  0.00000000000E+00 -0.44866107591E+03  0.27324949500E+04  0.26954094106E+04 0.  0.
        3    1    3    3  502    0 -0.43495097269E+03 -0.90711031257E+03 -0.11334842492E+04  0.15155256584E+04  0.10100000352E+00 0. -1.
       -3    1    3    3    0  502  0.43495097269E+03  0.90711031257E+03  0.68482317328E+03  0.12169692916E+04  0.10100000352E+00 0.  1.
</event>
<event>
 5   0  0.1828511E-06  0.2700104E+04  0.7818609E-02  0.8334971E-01
        1   -1    0    0  501    0  0.00000000000E+00  0.00000000000E+00  0.11885041639E+04  0.11885041639E+04  0.50400001928E-02 0. -1.
       -1   -1    0    0    0  501  0.00000000000E+00  0.00000000000E+00 -0.15335588151E+04  0.15335588151E+04  0.50400001928E-02 0.  1.
    10030    2    1    2    0    0  0.00000000000E+00  0.00000000000E+00 -0.34505465118E+03  0.27220629790E+04  0.27001044700E+04 0.  0.
        4    1    3    3  502    0  0.82118664366E+03 -0.80699252733E+03 -0.88328215050E+03  0.14511283242E+04  0.12699999809E+01 0. -1.
       -4    1    3    3    0  502 -0.82118664366E+03  0.80699252733E+03  0.53822749931E+03  0.12709346548E+04  0.12699999809E+01 0.  1.
</event>
<event>
 5   0  0.1771016E-06  0.2699160E+04  0.7818609E-02  0.8335278E-01
        1   -1    0    0  501    0  0.00000000000E+00  0.00000000000E+00  0.23172442302E+04  0.23172442302E+04  0.50400001928E-02 0.  1.
       -1   -1    0    0    0  501  0.00000000000E+00  0.00000000000E+00 -0.78600527131E+03  0.78600527133E+03  0.50400001928E-02 0. -1.
    10030    2    1    2    0    0  0.00000000000E+00  0.00000000000E+00  0.15312389589E+04  0.31032495016E+04  0.26991600026E+04 0.  0.
        2    1    3    3  502    0 -0.12732368777E+04 -0.37616032156E+03  0.10442608466E+04  0.16891149902E+04  0.25500000920E-02 0.  1.
       -2    1    3    3    0  502  0.12732368777E+04  0.37616032156E+03  0.48697811233E+03  0.14141345114E+04  0.25500000920E-02 0. -1.
</event>
<event>
 5   0  0.4655882E-06  0.2699752E+04  0.7818609E-02  0.8335085E-01
        2   -1    0    0  501    0  0.00000000000E+00  0.00000000000E+00  0.20272102980E+04  0.20272102980E+04  0.25500000920E-02 0. -1.
       -2   -1    0    0    0  501  0.00000000000E+00  0.00000000000E+00 -0.89885346891E+03  0.89885346892E+03  0.25500000920E-02 0.  1.
    10030    2    1    2    0    0  0.00000000000E+00  0.00000000000E+00  0.11283568291E+04  0.29260637670E+04  0.26997518468E+04 0.  0.
        1    1    3    3  502    0  0.10407425286E+04 -0.71716720389E+03  0.50427070922E+02  0.12649176648E+04  0.50400001928E-02 0.  1.
       -1    1    3    3    0  502 -0.10407425286E+04  0.71716720389E+03  0.10779297582E+04  0.16611461022E+04  0.50400001928E-02 0. -1.
</event>
<event>
 5   0  0.1753474E-06  0.2691608E+04  0.7818609E-02  0.8337733E-01
        1   -1    0    0  501    0  0.00000000000E+00  0.00000000000E+00  0.15333833456E+04  0.15333833456E+04  0.50400001928E-02 0. -1.
       -1   -1    0    0    0  501  0.00000000000E+00  0.00000000000E+00 -0.11811710280E+04  0.11811710280E+04  0.50400001928E-02 0.  1.
    10030    2    1    2    0    0  0.00000000000E+00  0.00000000000E+00  0.35221231764E+03  0.27145543736E+04  0.26916076851E+04 0.  0.
        3    1    3    3  502    0 -0.37919026221E+03 -0.39875713862E+03 -0.10625318257E+04  0.11965644159E+04  0.10100000352E+00 0.  1.
       -3    1    3    3    0  502  0.37919026221E+03  0.39875713862E+03  0.14147441433E+04  0.15179899577E+04  0.10100000352E+00 0. -1.
</event>
<event>
 5   0  0.4487186E-06  0.2712053E+04  0.7818609E-02  0.8331105E-01
        2   -1    0    0  501    0  0.00000000000E+00  0.00000000000E+00  0.15820347984E+04  0.15820347984E+04  0.25500000920E-02 0.  1.
       -2   -1    0    0    0  501  0.00000000000E+00  0.00000000000E+00 -0.11623059779E+04  0.11623059779E+04  0.25500000920E-02 0. -1.
    10030    2    1    2    0    0  0.00000000000E+00  0.00000000000E+00  0.41972882041E+03  0.27443407763E+04  0.27120534681E+04 0.  0.
        3    1    3    3  502    0  0.10432631534E+02  0.11253621832E+04  0.97534879953E+03  0.14892461765E+04  0.10100000352E+00 0.  1.
       -3    1    3    3    0  502 -0.10432631534E+02 -0.11253621832E+04 -0.55561997912E+03  0.12550945998E+04  0.10100000352E+00 0. -1.
</event>
<event>
 5   0  0.4448804E-06  0.2693502E+04  0.7818609E-02  0.8337117E-01
        2   -1    0    0  501    0  0.00000000000E+00  0.00000000000E+00  0.23617443528E+04  0.23617443528E+04  0.25500000920E-02 0. -1.
       -2   -1    0    0    0  501  0.00000000000E+00  0.00000000000E+00 -0.76796535547E+03  0.76796535547E+03  0.25500000920E-02 0.  1.
    10030    2    1    2    0    0  0.00000000000E+00  0.00000000000E+00  0.15937789973E+04  0.31297097083E+04  0.26935016922E+04 0.  0.
        2    1    3    3  502    0  0.11070388834E+04  0.74798837365E+03  0.99379138318E+03  0.16651255237E+04  0.25500000920E-02 0.  1.
       -2    1    3    3    0  502 -0.11070388834E+04 -0.74798837365E+03  0.59998761413E+03  0.14645841845E+04  0.25500000920E-02 0. -1.
</event>
<event>
 5   0  0.4439357E-06  0.2682749E+04  0.7818609E-02  0.8340624E-01
        2   -1    0    0  501    0  0.00000000000E+00  0.00000000000E+00  0.18085551979E+04  0.18085551979E+04  0.25500000920E-02 0. -1.
       -2   -1    0    0    0  501  0.00000000000E+00  0.00000000000E+00 -0.99487485846E+03  0.99487485846E+03  0.25500000920E-02 0.  1.
    10030    2    1    2    0    0  0.00000000000E+00  0.00000000000E+00  0.81368033939E+03  0.28034300563E+04  0.26827494080E+04 0.  0.
        4    1    3    3  502    0 -0.36475770014E+03  0.85526617488E+03  0.14171597397E+04  0.16949547931E+04  0.12699999809E+01 0. -1.
       -4    1    3    3    0  502  0.36475770014E+03 -0.85526617488E+03 -0.60347940034E+03  0.11084752633E+04  0.12699999809E+01 0.  1.
</event>
<event>
 5   0  0.1828511E-06  0.2703135E+04  0.7818609E-02  0.8333988E-01
        1   -1    0    0  501    0  0.00000000000E+00  0.00000000000E+00  0.15234281663E+04  0.15234281663E+04  0.50400001928E-02 0. -1.
       -1   -1    0    0    0  501  0.00000000000E+00  0.00000000000E+00 -0.11990948886E+04  0.11990948886E+04  0.50400001928E-02 0.  1.
    10030    2    1    2    0    0  0.00000000000E+00  0.00000000000E+00  0.32433327770E+03  0.27225230549E+04  0.27031351630E+04 0.  0.
        4    1    3    3  502    0 -0.90092980096E+03  0.75569236079E+03 -0.50893662942E+03  0.12813132154E+04  0.12699999809E+01 0.  1.
       -4    1    3    3    0  502  0.90092980096E+03 -0.75569236079E+03  0.83326990712E+03  0.14412098395E+04  0.12699999809E+01 0. -1.
</event>
<event>
 5   0  0.1723605E-06  0.2707351E+04  0.7818609E-02  0.8332624E-01
       -1   -1    0    0    0  501  0.00000000000E+00  0.00000000000E+00  0.10121587747E+04  0.10121587748E+04  0.50400001928E-02 0.  1.
        1   -1    0    0  501    0  0.00000000000E+00  0.00000000000E+00 -0.18104243681E+04  0.18104243681E+04  0.50400001928E-02 0. -1.
    10030    2    1    2    0    0  0.00000000000E+00  0.00000000000E+00 -0.79826559333E+03  0.28225831428E+04  0.27073506682E+04 0.  0.
        1    1    3    3  502    0 -0.38569637458E+03 -0.76191115464E+03 -0.14941546497E+04  0.17209789128E+04  0.50400001928E-02 0. -1.
       -1    1    3    3    0  502  0.38569637458E+03  0.76191115464E+03  0.69588905636E+03  0.11016042301E+04  0.50400001928E-02 0.  1.
</event>
<event>
 5   0  0.4439357E-06  0.2682877E+04  0.7818609E-02  0.8340582E-01
       -2   -1    0    0    0  501  0.00000000000E+00  0.00000000000E+00  0.81342027474E+03  0.81342027475E+03  0.25500000920E-02 0. -1.
        2   -1    0    0  501    0  0.00000000000E+00  0.00000000000E+00 -0.22122116316E+04  0.22122116316E+04  0.25500000920E-02 0.  1.
    10030    2    1    2    0    0  0.00000000000E+00  0.00000000000E+00 -0.13987913568E+04  0.30256319063E+04  0.26828774054E+04 0.  0.
        4    1    3    3  502    0  0.50633243065E+03  0.45827459086E+03  0.60269557941E+03  0.91084120751E+03  0.12699999809E+01 0. -1.
       -4    1    3    3    0  502 -0.50633243065E+03 -0.45827459086E+03 -0.20014869362E+04  0.21147906988E+04  0.12699999809E+01 0.  1.
</event>
<event>
 5   0  0.4401659E-06  0.2696410E+04  0.7818609E-02  0.8336171E-01
       -2   -1    0    0    0  501  0.00000000000E+00  0.00000000000E+00  0.93118174844E+03  0.93118174844E+03  0.25500000920E-02 0. -1.
        2   -1    0    0  501    0  0.00000000000E+00  0.00000000000E+00 -0.19519887540E+04  0.19519887540E+04  0.25500000920E-02 0.  1.
    10030    2    1    2    0    0  0.00000000000E+00  0.00000000000E+00 -0.10208070055E+04  0.28831705024E+04  0.26964096876E+04 0.  0.
        5    1    3    3  502    0  0.31938879235E+03 -0.33654274520E+03  0.84311761365E+03  0.96236148118E+03  0.46999998093E+01 0. -1.
       -5    1    3    3    0  502 -0.31938879235E+03  0.33654274520E+03 -0.18639246192E+04  0.19208090212E+04  0.46999998093E+01 0.  1.
</event>
<event>
 5   0  0.1771016E-06  0.2705050E+04  0.7818609E-02  0.8333368E-01
        1   -1    0    0  501    0  0.00000000000E+00  0.00000000000E+00  0.93909614250E+03  0.93909614252E+03  0.50400001928E-02 0.  1.
       -1   -1    0    0    0  501  0.00000000000E+00  0.00000000000E+00 -0.19479618832E+04  0.19479618832E+04  0.50400001928E-02 0. -1.
    10030    2    1    2    0    0  0.00000000000E+00  0.00000000000E+00 -0.10088657407E+04  0.28870580258E+04  0.27050497151E+04 0.  0.
        2    1    3    3  502    0 -0.10215095322E+04 -0.82921640691E+03 -0.83895794348E+03  0.15604268662E+04  0.25500000920E-02 0. -1.
       -2    1    3    3    0  502  0.10215095322E+04  0.82921640691E+03 -0.16990779726E+03  0.13266311595E+04  0.25500000920E-02 0.  1.
</event>
<event>
 5   0  0.1753474E-06  0.2700510E+04  0.7818609E-02  0.8334840E-01
        1   -1    0    0  501    0  0.00000000000E+00  0.00000000000E+00  0.17883657627E+04  0.17883657627E+04  0.50400001928E-02 0. -1.
       -1   -1    0    0    0  501  0.00000000000E+00  0.00000000000E+00 -0.10194715208E+04  0.10194715209E+04  0.50400001928E-02 0.  1.
    10030    2    1    2    0    0  0.00000000000E+00  0.00000000000E+00  0.76889424186E+03  0.28078372836E+04  0.27005095548E+04 0.  0.
        3    1    3    3  502    0 -0.10902631872E+03  0.12211189673E+04  0.97277079068E+03  0.15650243742E+04  0.10100000352E+00 0. -1.
       -3    1    3    3    0  502  0.10902631872E+03 -0.12211189673E+04 -0.20387654882E+03  0.12428129094E+04  0.10100000352E+00 0.  1.
</event>
<event>
 5   0  0.4448804E-06  0.2708712E+04  0.7818609E-02  0.8332184E-01
       -2   -1    0    0    0  501  0.00000000000E+00  0.00000000000E+00  0.15578985912E+04  0.15578985912E+04  0.25500000920E-02 0. -1.
        2   -1    0    0  501    0  0.00000000000E+00  0.00000000000E+00 -0.11774067804E+04  0.11774067804E+04  0.25500000920E-02 0.  1.
    10030    2    1    2    0    0  0.00000000000E+00  0.00000000000E+00  0.38049181078E+03  0.27353053715E+04  0.27087121400E+04 0.  0.
        2    1    3    3  502    0 -0.90201123327E+03 -0.96358634904E+03 -0.11630893829E+03  0.13250096928E+04  0.25500000920E-02 0.  1.
       -2    1    3    3    0  502  0.90201123327E+03  0.96358634904E+03  0.49680074907E+03  0.14102956787E+04  0.25500000920E-02 0. -1.
</event>
<event>
 5   0  0.4439357E-06  0.2703257E+04  0.7818609E-02  0.8333949E-01
        2   -1    0    0  501    0  0.00000000000E+00  0.00000000000E+00  0.16260686430E+04  0.16260686430E+04  0.25500000920E-02 0. -1.
       -2   -1    0    0    0  501  0.00000000000E+00  0.00000000000E+00 -0.11235074566E+04  0.11235074566E+04  0.25500000920E-02 0.  1.
    10030    2    1    2    0    0  0.00000000000E+00  0.00000000000E+00  0.50256118640E+03  0.27495760996E+04  0.27032574760E+04 0.  0.
        4    1    3    3  502    0 -0.10953390681E+04 -0.20941933351E+03 -0.52552944104E+03  0.12328045010E+04  0.12699999809E+01 0.  1.
       -4    1    3    3    0  502  0.10953390681E+04  0.20941933351E+03  0.10280906274E+04  0.15167715986E+04  0.12699999809E+01 0. -1.
</event>
<event>
 5   0  0.1723605E-06  0.2701511E+04  0.7818609E-02  0.8334515E-01
       -1   -1    0    0    0  501  0.00000000000E+00  0.00000000000E+00  0.17911475308E+04  0.17911475308E+04  0.50400001928E-02 0.  1.
        1   -1    0    0  501    0  0.00000000000E+00  0.00000000000E+00 -0.10186433751E+04  0.10186433751E+04  0.50400001928E-02 0. -1.
    10030    2    1    2    0    0  0.00000000000E+00  0.00000000000E+00  0.77250415569E+03  0.28097909059E+04  0.27015111076E+04 0.  0.
        1    1    3    3  502    0  0.41327516812E+03 -0.54110257730E+03 -0.82710514955E+03  0.10713035481E+04  0.50400001928E-02 0. -1.
       -1    1    3    3    0  502 -0.41327516812E+03  0.54110257730E+03  0.15996093052E+04  0.17384873578E+04  0.50400001928E-02 0.  1.
</event>
<event>
 5   0  0.1723605E-06  0.2687906E+04  0.7818609E-02  0.8338940E-01
        1   -1    0    0  501    0  0.00000000000E+00  0.00000000000E+00  0.15411520423E+04  0.15411520423E+04  0.50400001928E-02 0. -1.
       -1   -1    0    0    0  501  0.00000000000E+00  0.00000000000E+00 -0.11719867143E+04  0.11719867144E+04  0.50400001928E-02 0.  1.
    10030    2    1    2    0    0  0.00000000000E+00  0.00000000000E+00  0.36916532797E+03  0.27131387567E+04  0.26879060388E+04 0.  0.
        1    1    3    3  502    0 -0.11471480218E+04  0.31916367026E+03  0.81364708233E+03  0.14421635160E+04  0.50400001928E-02 0. -1.
       -1    1    3    3    0  502  0.11471480218E+04 -0.31916367026E+03 -0.44448175436E+03  0.12709752406E+04  0.50400001928E-02 0.  1.
</event>
<event>
 5   0  0.4487186E-06  0.2689481E+04  0.7818609E-02  0.8338426E-01
        2   -1    0    0  501    0  0.00000000000E+00  0.00000000000E+00  0.14032567295E+04  0.14032567295E+04  0.25500000920E-02 0.  1.
       -2   -1    0    0    0  501  0.00000000000E+00  0.00000000000E+00 -0.12886648651E+04  0.12886648651E+04  0.25500000920E-02 0. -1.
    10030    2    1    2    0    0  0.00000000000E+00  0.00000000000E+00  0.11459186436E+03  0.26919215946E+04  0.26894814697E+04 0.  0.
        3    1    3    3  502    0  0.12752565293E+04 -0.33098809353E+03  0.32678973093E+03  0.13574328241E+04  0.10100000352E+00 0. -1.
       -3    1    3    3    0  502 -0.12752565293E+04  0.33098809353E+03 -0.21219786658E+03  0.13344887704E+04  0.10100000352E+00 0.  1.
</event>
<event>
 5   0  0.1723605E-06  0.2728036E+04  0.7818609E-02  0.8325965E-01
       -1   -1    0    0    0  501  0.00000000000E+00  0.00000000000E+00  0.14377474844E+04  0.14377474844E+04  0.50400001928E-02 0.  1.
        1   -1    0    0  501    0  0.00000000000E+00  0.00000000000E+00 -0.12940694237E+04  0.12940694237E+04  0.50400001928E-02 0. -1.
    10030    2    1    2    0    0  0.00000000000E+00  0.00000000000E+00  0.14367806068E+03  0.27318169081E+04  0.27280359665E+04 0.  0.
        1    1    3    3  502    0 -0.11879879782E+03  0.13217303246E+04 -0.24397221290E+03  0.13492985756E+04  0.50400001928E-02 0. -1.
       -1    1    3    3    0  502  0.11879879782E+03 -0.13217303246E+04  0.38765027358E+03  0.13825183326E+04  0.50400001928E-02 0.  1.
</event>
<event>
 5   0  0.1753474E-06  0.2710653E+04  0.7818609E-02  0.8331557E-01
        1   -1    0    0  501    0  0.00000000000E+00  0.00000000000E+00  0.18434296740E+04  0.18434296740E+04  0.50400001928E-02 0.  1.
       -1   -1    0    0    0  501  0.00000000000E+00  0.00000000000E+00 -0.99646315874E+03  0.99646315876E+03  0.50400001928E-02 0. -1.
    10030    2    1    2    0    0  0.00000000000E+00  0.00000000000E+00  0.84696651528E+03  0.28398928328E+04  0.27106528778E+04 0.  0.
        3    1    3    3  502    0 -0.12479943402E+04  0.36927205062E+03  0.81974683734E+03  0.15381276306E+04  0.10100000352E+00 0.  1.
       -3    1    3    3    0  502  0.12479943402E+04 -0.36927205062E+03  0.27219677943E+02  0.13017652022E+04  0.10100000352E+00 0. -1.
</event>
<event>
 5   0  0.1723605E-06  0.2699312E+04  0.7818609E-02  0.8335228E-01
       -1   -1    0    0    0  501  0.00000000000E+00  0.00000000000E+00  0.10991381515E+04  0.10991381515E+04  0.50400001928E-02 0. -1.
        1   -1    0    0  501    0  0.00000000000E+00  0.00000000000E+00 -0.16572723496E+04  0.16572723496E+04  0.50400001928E-02 0.  1.
    10030    2    1    2    0    0  0.00000000000E+00  0.00000000000E+00 -0.55813419804E+03  0.27564105011E+04  0.26993119619E+04 0.  0.
        1    1    3    3  502    0  0.10012434862E+04 -0.88737067816E+03 -0.97382119281E+02  0.13414166081E+04  0.50400001928E-02 0.  1.
       -1    1    3    3    0  502 -0.10012434862E+04  0.88737067816E+03 -0.46075207876E+03  0.14149938930E+04  0.50400001928E-02 0. -1.
</event>
<event>
 5   0  0.1753474E-06  0.2698050E+04  0.7818609E-02  0.8335638E-01
       -1   -1    0    0    0  501  0.00000000000E+00  0.00000000000E+00  0.11670453876E+04  0.11670453876E+04  0.50400001928E-02 0. -1.
        1   -1    0    0  501    0  0.00000000000E+00  0.00000000000E+00 -0.15593811647E+04  0.15593811648E+04  0.50400001928E-02 0.  1.
    10030    2    1    2    0    0  0.00000000000E+00  0.00000000000E+00 -0.39233577718E+03  0.27264265523E+04  0.26980501076E+04 0.  0.
        3    1    3    3  502    0 -0.96942787358E+02 -0.89375772649E+03 -0.12125634432E+04  0.15094737135E+04  0.10100000352E+00 0.  1.
       -3    1    3    3    0  502  0.96942787358E+02  0.89375772649E+03  0.82022766603E+03  0.12169528389E+04  0.10100000352E+00 0. -1.
</event>
<event>
 5   0  0.1482875E-06  0.2699067E+04  0.7818609E-02  0.8335308E-01
        4   -1    0    0  501    0  0.00000000000E+00  0.00000000000E+00  0.11267161265E+04  0.11267168423E+04  0.12699999809E+01 0. -1.
       -4   -1    0    0    0  501  0.00000000000E+00  0.00000000000E+00 -0.16164132317E+04  0.16164137306E+04  0.12699999809E+01 0.  1.
    10030    2    1    2    0    0  0.00000000000E+00  0.00000000000E+00 -0.48969710515E+03  0.27431305728E+04  0.26990668915E+04 0.  0.
        1    1    3    3  502    0 -0.83068786995E+03  0.65926843321E+03 -0.10930775836E+04  0.15229891031E+04  0.50400001928E-02 0.  1.
       -1    1    3    3    0  502  0.83068786995E+03 -0.65926843321E+03  0.60338047849E+03  0.12201414697E+04  0.50400001928E-02 0. -1.
</event>
<event>
 5   0  0.1828511E-06  0.2672458E+04  0.7818609E-02  0.8343997E-01
        1   -1    0    0  501    0  0.00000000000E+00  0.00000000000E+00  0.81114085829E+03  0.81114085830E+03  0.50400001928E-02 0. -1.
       -1   -1    0    0    0  501  0.00000000000E+00  0.00000000000E+00 -0.22012305196E+04  0.22012305196E+04  0.50400001928E-02 0.  1.
    10030    2    1    2    0    0  0.00000000000E+00  0.00000000000E+00 -0.13900896613E+04  0.30123713779E+04  0.26724580543E+04 0.  0.
        4    1    3    3  502    0  0.82901343946E+02  0.11674743757E+04  0.31654731205E+02  0.11708427245E+04  0.12699999809E+01 0. -1.
       -4    1    3    3    0  502 -0.82901343946E+02 -0.11674743757E+04 -0.14217443925E+04  0.18415286533E+04  0.12699999809E+01 0.  1.
</event>
<event>
 5   0  0.1723605E-06  0.2703681E+04  0.7818609E-02  0.8333812E-01
        1   -1    0    0  501    0  0.00000000000E+00  0.00000000000E+00  0.14599183212E+04  0.14599183212E+04  0.50400001928E-02 0. -1.
       -1   -1    0    0    0  501  0.00000000000E+00  0.00000000000E+00 -0.12517637771E+04  0.12517637771E+04  0.50400001928E-02 0.  1.
    10030    2    1    2    0    0  0.00000000000E+00  0.00000000000E+00  0.20815454415E+03  0.27116820983E+04  0.27036810995E+04 0.  0.
        1    1    3    3  502    0  0.40097395078E+03 -0.50867774867E+03 -0.10860004849E+04  0.12644881235E+04  0.50400001928E-02 0.  1.
       -1    1    3    3    0  502 -0.40097395078E+03  0.50867774867E+03  0.12941550291E+04  0.14471939748E+04  0.50400001928E-02 0. -1.
</event>
<event>
 5   0  0.1753474E-06  0.2702367E+04  0.7818609E-02  0.8334237E-01
       -1   -1    0    0    0  501  0.00000000000E+00  0.00000000000E+00  0.14800391382E+04  0.14800391382E+04  0.50400001928E-02 0.  1.
        1   -1    0    0  501    0  0.00000000000E+00  0.00000000000E+00 -0.12335465054E+04  0.12335465054E+04  0.50400001928E-02 0. -1.
    10030    2    1    2    0    0  0.00000000000E+00  0.00000000000E+00  0.24649263285E+03  0.27135856436E+04  0.27023671896E+04 0.  0.
        3    1    3    3  502    0  0.44622710669E+03  0.12753418646E+04  0.11417585743E+03  0.13559688930E+04  0.10100000352E+00 0. -1.
       -3    1    3    3    0  502 -0.44622710669E+03 -0.12753418646E+04  0.13231677543E+03  0.13576167506E+04  0.10100000352E+00 0.  1.
</event>
<event>
 5   0  0.4401659E-06  0.2642019E+04  0.7818609E-02  0.8354067E-01
       -2   -1    0    0    0  501  0.00000000000E+00  0.00000000000E+00  0.69180190977E+03  0.69180190978E+03  0.25500000920E-02 0. -1.
        2   -1    0    0  501    0  0.00000000000E+00  0.00000000000E+00 -0.25224934893E+04  0.25224934893E+04  0.25500000920E-02 0.  1.
    10030    2    1    2    0    0  0.00000000000E+00  0.00000000000E+00 -0.18306915795E+04  0.32142953991E+04  0.26420187837E+04 0.  0.
        5    1    3    3  502    0 -0.10899739868E+04 -0.74586890259E+03 -0.88362032234E+03  0.15890785619E+04  0.46999998093E+01 0.  1.
       -5    1    3    3    0  502  0.10899739868E+04  0.74586890259E+03 -0.94707125719E+03  0.16252168372E+04  0.46999998093E+01 0. -1.
</event>
<event>
 5   0  0.4439357E-06  0.2594633E+04  0.7818609E-02  0.8370027E-01
       -2   -1    0    0    0  501  0.00000000000E+00  0.00000000000E+00  0.84256438327E+03  0.84256438327E+03  0.25500000920E-02 0. -1.
        2   -1    0    0  501    0  0.00000000000E+00  0.00000000000E+00 -0.19975092559E+04  0.19975092559E+04  0.25500000920E-02 0.  1.
    10030    2    1    2    0    0  0.00000000000E+00  0.00000000000E+00 -0.11549448726E+04  0.28400736391E+04  0.25946330409E+04 0.  0.
        4    1    3    3  502    0  0.62675599137E+03 -0.10364082867E+04 -0.10862690253E+04  0.16269441348E+04  0.12699999809E+01 0.  1.
       -4    1    3    3    0  502 -0.62675599137E+03  0.10364082867E+04 -0.68675847285E+02  0.12131295044E+04  0.12699999809E+01 0. -1.
</event>
<event>
 5   0  0.1732312E-06  0.2699549E+04  0.7818609E-02  0.8335151E-01
        1   -1    0    0  501    0  0.00000000000E+00  0.00000000000E+00  0.18241984045E+04  0.18241984045E+04  0.50400001928E-02 0.  1.
       -1   -1    0    0    0  501  0.00000000000E+00  0.00000000000E+00 -0.99873540538E+03  0.99873540539E+03  0.50400001928E-02 0. -1.
    10030    2    1    2    0    0  0.00000000000E+00  0.00000000000E+00  0.82546299914E+03  0.28229338099E+04  0.26995492461E+04 0.  0.
        5    1    3    3  502    0 -0.91003420647E+03  0.10630506176E+03 -0.62373444458E+03  0.11083906218E+04  0.46999998093E+01 0. -1.
       -5    1    3    3    0  502  0.91003420647E+03 -0.10630506176E+03  0.14491974437E+04  0.17145431881E+04  0.46999998093E+01 0.  1.
</event>
<event>
 5   0  0.4439357E-06  0.2692087E+04  0.7818609E-02  0.8337577E-01
       -2   -1    0    0    0  501  0.00000000000E+00  0.00000000000E+00  0.17584716879E+04  0.17584716879E+04  0.25500000920E-02 0.  1.
        2   -1    0    0  501    0  0.00000000000E+00  0.00000000000E+00 -0.10303454611E+04  0.10303454611E+04  0.25500000920E-02 0. -1.
    10030    2    1    2    0    0  0.00000000000E+00  0.00000000000E+00  0.72812622679E+03  0.27888171491E+04  0.26920871622E+04 0.  0.
        4    1    3    3  502    0  0.39061318608E+02 -0.16312470084E+01 -0.10297565604E+04  0.10304992160E+04  0.12699999809E+01 0. -1.
       -4    1    3    3    0  502 -0.39061318608E+02  0.16312470084E+01  0.17578827872E+04  0.17583179331E+04  0.12699999809E+01 0.  1.
</event>
<event>
 5   0  0.1732312E-06  0.2697645E+04  0.7818609E-02  0.8335769E-01
        1   -1    0    0  501    0  0.00000000000E+00  0.00000000000E+00  0.19375566316E+04  0.19375566317E+04  0.50400001928E-02 0.  1.
       -1   -1    0    0    0  501  0.00000000000E+00  0.00000000000E+00 -0.93897757557E+03  0.93897757558E+03  0.50400001928E-02 0. -1.
    10030    2    1    2    0    0  0.00000000000E+00  0.00000000000E+00  0.99857905608E+03  0.28765342072E+04  0.26976450682E+04 0.  0.
        5    1    3    3  502    0 -0.11854014517E+04  0.42734525098E+03 -0.13760637178E+02  0.12601634856E+04  0.46999998093E+01 0. -1.
       -5    1    3    3    0  502  0.11854014517E+04 -0.42734525098E+03  0.10123396933E+04  0.16163707216E+04  0.46999998093E+01 0.  1.
</event>
<event>
 5   0  0.4448804E-06  0.2682952E+04  0.7818609E-02  0.8340558E-01
        2   -1    0    0  501    0  0.00000000000E+00  0.00000000000E+00  0.22374382772E+04  0.22374382772E+04  0.25500000920E-02 0.  1.
       -2   -1    0    0    0  501  0.00000000000E+00  0.00000000000E+00 -0.80429378842E+03  0.80429378842E+03  0.25500000920E-02 0. -1.
    10030    2    1    2    0    0  0.00000000000E+00  0.00000000000E+00  0.14331444888E+04  0.30417320657E+04  0.26829518880E+04 0.  0.
        2    1    3    3  502    0  0.10858693575E+04  0.76810289714E+03  0.91445008387E+03  0.16140982863E+04  0.25500000920E-02 0.  1.
       -2    1    3    3    0  502 -0.10858693575E+04 -0.76810289714E+03  0.51869440495E+03  0.14276337793E+04  0.25500000920E-02 0. -1.
</event>
<event>
 5   0  0.4655882E-06  0.2696890E+04  0.7818609E-02  0.8336015E-01
       -2   -1    0    0    0  501  0.00000000000E+00  0.00000000000E+00  0.92010249146E+03  0.92010249146E+03  0.25500000920E-02 0.  1.
        2   -1    0    0  501    0  0.00000000000E+00  0.00000000000E+00 -0.19761973434E+04  0.19761973434E+04  0.25500000920E-02 0. -1.
    10030    2    1    2    0    0  0.00000000000E+00  0.00000000000E+00 -0.10560948519E+04  0.28962998348E+04  0.26968901344E+04 0.  0.
        1    1    3    3  502    0 -0.16143062596E+03 -0.15756552605E+03 -0.19557897133E+04  0.19687559891E+04  0.50400001928E-02 0. -1.
       -1    1    3    3    0  502  0.16143062596E+03  0.15756552605E+03  0.89969486141E+03  0.92754384569E+03  0.50400001928E-02 0.  1.
</event>
<event>
 5   0  0.1828511E-06  0.2720227E+04  0.7818609E-02  0.8328472E-01
        1   -1    0    0  501    0  0.00000000000E+00  0.00000000000E+00  0.12320180781E+04  0.12320180781E+04  0.50400001928E-02 0. -1.
       -1   -1    0    0    0  501  0.00000000000E+00  0.00000000000E+00 -0.15015277824E+04  0.15015277824E+04  0.50400001928E-02 0.  1.
    10030    2    1    2    0    0  0.00000000000E+00  0.00000000000E+00 -0.26950970436E+03  0.27335458605E+04  0.27202274704E+04 0.  0.
        4    1    3    3  502    0  0.12923666769E+04  0.79719445577E+02  0.28362592168E+03  0.13255233283E+04  0.12699999809E+01 0. -1.
       -4    1    3    3    0  502 -0.12923666769E+04 -0.79719445577E+02 -0.55313562604E+03  0.14080225322E+04  0.12699999809E+01 0.  1.
</event>
<event>
 5   0  0.4655882E-06  0.2700728E+04  0.7818609E-02  0.8334769E-01
        2   -1    0    0  501    0  0.00000000000E+00  0.00000000000E+00  0.14151758189E+04  0.14151758189E+04  0.25500000920E-02 0. -1.
       -2   -1    0    0    0  501  0.00000000000E+00  0.00000000000E+00 -0.12885204026E+04  0.12885204026E+04  0.25500000920E-02 0.  1.
    10030    2    1    2    0    0  0.00000000000E+00  0.00000000000E+00  0.12665541631E+03  0.27036962214E+04  0.27007279877E+04 0.  0.
        1    1    3    3  502    0 -0.51983868594E+03  0.30661989935E+03  0.12726432994E+04  0.14084988426E+04  0.50400001928E-02 0. -1.
       -1    1    3    3    0  502  0.51983868594E+03 -0.30661989935E+03 -0.11459878831E+04  0.12951973789E+04  0.50400001928E-02 0.  1.
</event>
<event>
 5   0  0.1771016E-06  0.2697476E+04  0.7818609E-02  0.8335824E-01
        1   -1    0    0  501    0  0.00000000000E+00  0.00000000000E+00  0.17652107864E+04  0.17652107864E+04  0.50400001928E-02 0.  1.
       -1   -1    0    0    0  501  0.00000000000E+00  0.00000000000E+00 -0.10305253402E+04  0.10305253402E+04  0.50400001928E-02 0. -1.
    10030    2    1    2    0    0  0.00000000000E+00  0.00000000000E+00  0.73468544621E+03  0.27957361265E+04  0.26974761879E+04 0.  0.
        2    1    3    3  502    0  0.30905904475E+03  0.10911354208E+04  0.11240054569E+04  0.15967098255E+04  0.25500000920E-02 0.  1.
       -2    1    3    3    0  502 -0.30905904475E+03 -0.10911354208E+04 -0.38932001073E+03  0.11990263010E+04  0.25500000920E-02 0. -1.
</event>
<event>
 5   0  0.4439357E-06  0.2699989E+04  0.7818609E-02  0.8335008E-01
       -2   -1    0    0    0  501  0.00000000000E+00  0.00000000000E+00  0.18296191355E+04  0.18296191355E+04  0.25500000920E-02 0. -1.
        2   -1    0    0  501    0  0.00000000000E+00  0.00000000000E+00 -0.99610095796E+03  0.99610095796E+03  0.25500000920E-02 0.  1.
    10030    2    1    2    0    0  0.00000000000E+00  0.00000000000E+00  0.83351817751E+03  0.28257200934E+04  0.26999891656E+04 0.  0.
        4    1    3    3  502    0  0.10682123268E+04 -0.52748541245E+02  0.12789067499E+04  0.16671724781E+04  0.12699999809E+01 0. -1.
       -4    1    3    3    0  502 -0.10682123268E+04  0.52748541245E+02 -0.44538857241E+03  0.11585476154E+04  0.12699999809E+01 0.  1.
</event>
<event>
 5   0  0.4487186E-06  0.2697906E+04  0.7818609E-02  0.8335685E-01
        2   -1    0    0  501    0  0.00000000000E+00  0.00000000000E+00  0.85068774157E+03  0.85068774157E+03  0.25500000920E-02 0.  1.
       -2   -1    0    0    0  501  0.00000000000E+00  0.00000000000E+00 -0.21390631643E+04  0.21390631643E+04  0.25500000920E-02 0. -1.
    10030    2    1    2    0    0  0.00000000000E+00  0.00000000000E+00 -0.12883754227E+04  0.29897509058E+04  0.26979064567E+04 0.  0.
        3    1    3    3  502    0 -0.89293222084E+03 -0.86859682797E+03 -0.70621640478E+02  0.12477082299E+04  0.10100000352E+00 0.  1.
       -3    1    3    3    0  502  0.89293222084E+03  0.86859682797E+03 -0.12177537822E+04  0.17420426760E+04  0.10100000352E+00 0. -1.
</event>
<event>
 5   0  0.1771016E-06  0.2708684E+04  0.7818609E-02  0.8332193E-01
       -1   -1    0    0    0  501  0.00000000000E+00  0.00000000000E+00  0.13625244795E+04  0.13625244795E+04  0.50400001928E-02 0.  1.
        1   -1    0    0  501    0  0.00000000000E+00  0.00000000000E+00 -0.13462085856E+04  0.13462085856E+04  0.50400001928E-02 0. -1.
    10030    2    1    2    0    0  0.00000000000E+00  0.00000000000E+00  0.16315893881E+02  0.27087330650E+04  0.27086839257E+04 0.  0.
        2    1    3    3  502    0 -0.21647796246E+03 -0.15001275783E+03  0.13366682600E+04  0.13623687361E+04  0.25500000920E-02 0.  1.
       -2    1    3    3    0  502  0.21647796246E+03  0.15001275783E+03 -0.13203523661E+04  0.13463643290E+04  0.25500000920E-02 0. -1.
</event>
<event>
 5   0  0.1828511E-06  0.2734596E+04  0.7818609E-02  0.8323866E-01
        1   -1    0    0  501    0  0.00000000000E+00  0.00000000000E+00  0.18877842037E+04  0.18877842037E+04  0.50400001928E-02 0. -1.
       -1   -1    0    0    0  501  0.00000000000E+00  0.00000000000E+00 -0.99031634924E+03  0.99031634925E+03  0.50400001928E-02 0.  1.
    10030    2    1    2    0    0  0.00000000000E+00  0.00000000000E+00  0.89746785446E+03  0.28781005530E+04  0.27345958098E+04 0.  0.
        4    1    3    3  502    0 -0.11673868190E+04 -0.66231619796E+03  0.17418610584E+03  0.13534390062E+04  0.12699999809E+01 0.  1.
       -4    1    3    3    0  502  0.11673868190E+04  0.66231619796E+03  0.72328174862E+03  0.15246615467E+04  0.12699999809E+01 0. -1.
</event>
<event>
 5   0  0.1732312E-06  0.2699335E+04  0.7818609E-02  0.8335221E-01
        1   -1    0    0  501    0  0.00000000000E+00  0.00000000000E+00  0.18269838167E+04  0.18269838167E+04  0.50400001928E-02 0. -1.
       -1   -1    0    0    0  501  0.00000000000E+00  0.00000000000E+00 -0.99705448661E+03  0.99705448662E+03  0.50400001928E-02 0.  1.
    10030    2    1    2    0    0  0.00000000000E+00  0.00000000000E+00  0.82992933010E+03  0.28240383033E+04  0.26993350377E+04 0.  0.
        5    1    3    3  502    0 -0.60303545715E+03  0.16700256751E+03 -0.83612283931E+03  0.10443491335E+04  0.46999998093E+01 0.  1.
       -5    1    3    3    0  502  0.60303545715E+03 -0.16700256751E+03  0.16660521694E+04  0.17796891699E+04  0.46999998093E+01 0. -1.
</event>
<event>
 5   0  0.1753474E-06  0.2701408E+04  0.7818609E-02  0.8334548E-01
        1   -1    0    0  501    0  0.00000000000E+00  0.00000000000E+00  0.20569098658E+04  0.20569098658E+04  0.50400001928E-02 0. -1.
       -1   -1    0    0    0  501  0.00000000000E+00  0.00000000000E+00 -0.88696205078E+03  0.88696205079E+03  0.50400001928E-02 0.  1.
    10030    2    1    2    0    0  0.00000000000E+00  0.00000000000E+00  0.11699478150E+04  0.29438719166E+04  0.27014077758E+04 0.  0.
        3    1    3    3  502    0 -0.84779366057E+03  0.10507964191E+04  0.62680938232E+03  0.14885621308E+04  0.10100000352E+00 0. -1.
       -3    1    3    3    0  502  0.84779366057E+03 -0.10507964191E+04  0.54313843266E+03  0.14553097858E+04  0.10100000352E+00 0.  1.
</event>
<event>
 5   0  0.4487186E-06  0.2699548E+04  0.7818609E-02  0.8335152E-01
        2   -1    0    0  501    0  0.00000000000E+00  0.00000000000E+00  0.12509480645E+04  0.12509480645E+04  0.25500000920E-02 0. -1.
       -2   -1    0    0    0  501  0.00000000000E+00  0.00000000000E+00 -0.14564076286E+04  0.14564076286E+04  0.25500000920E-02 0.  1.
    10030    2    1    2    0    0  0.00000000000E+00  0.00000000000E+00 -0.20545956412E+03  0.27073556931E+04  0.26995483356E+04 0.  0.
        3    1    3    3  502    0  0.10421996744E+04 -0.84578437605E+03  0.40367569975E+02  0.13428182762E+04  0.10100000352E+00 0.  1.
       -3    1    3    3    0  502 -0.10421996744E+04  0.84578437605E+03 -0.24582713409E+03  0.13645374169E+04  0.10100000352E+00 0. -1.
</event>
<event>
 5   0  0.4401659E-06  0.2713679E+04  0.7818609E-02  0.8330580E-01
        2   -1    0    0  501    0  0.00000000000E+00  0.00000000000E+00  0.10385678196E+04  0.10385678196E+04  0.25500000920E-02 0. -1.
       -2   -1    0    0    0  501  0.00000000000E+00  0.00000000000E+00 -0.17726459915E+04  0.17726459915E+04  0.25500000920E-02 0.  1.
    10030    2    1    2    0    0  0.00000000000E+00  0.00000000000E+00 -0.73407817189E+03  0.28112138110E+04  0.27136787446E+04 0.  0.
        5    1    3    3  502    0  0.10062510739E+04  0.58666223889E+03 -0.10879514101E+04  0.15938551273E+04  0.46999998093E+01 0.  1.
       -5    1    3    3    0  502 -0.10062510739E+04 -0.58666223889E+03  0.35387323817E+03  0.12173586837E+04  0.46999998093E+01 0. -1.
</event>
<event>
 5   0  0.4448804E-06  0.2693223E+04  0.7818609E-02  0.8337207E-01
        2   -1    0    0  501    0  0.00000000000E+00  0.00000000000E+00  0.93269170258E+03  0.93269170258E+03  0.25500000920E-02 0. -1.
       -2   -1    0    0    0  501  0.00000000000E+00  0.00000000000E+00 -0.19442245070E+04  0.19442245070E+04  0.25500000920E-02 0.  1.
    10030    2    1    2    0    0  0.00000000000E+00  0.00000000000E+00 -0.10115328044E+04  0.28769162096E+04  0.26932226537E+04 0.  0.
        2    1    3    3  502    0 -0.77392484978E+03  0.10966146355E+04 -0.62199355015E+03  0.14793239362E+04  0.25500000920E-02 0.  1.
       -2    1    3    3    0  502  0.77392484978E+03 -0.10966146355E+04 -0.38953925429E+03  0.13975922734E+04  0.25500000920E-02 0. -1.
</event>
<event>
 5   0  0.1753474E-06  0.2513423E+04  0.7818609E-02  0.8398219E-01
       -1   -1    0    0    0  501  0.00000000000E+00  0.00000000000E+00  0.11548213080E+04  0.11548213080E+04  0.50400001928E-02 0. -1.
        1   -1    0    0  501    0  0.00000000000E+00  0.00000000000E+00 -0.13675911560E+04  0.13675911560E+04  0.50400001928E-02 0.  1.
    10030    2    1    2    0    0  0.00000000000E+00  0.00000000000E+00 -0.21276984798E+03  0.25224124640E+04  0.25134226923E+04 0.  0.
        3    1    3    3  502    0 -0.11166778936E+04  0.53933157301E+03  0.97998427189E+02  0.12439661433E+04  0.10100000352E+00 0. -1.
       -3    1    3    3    0  502  0.11166778936E+04 -0.53933157301E+03 -0.31076827517E+03  0.12784463207E+04  0.10100000352E+00 0.  1.
</event>
<event>
 5   0  0.4448804E-06  0.2713170E+04  0.7818609E-02  0.8330745E-01
        2   -1    0    0  501    0  0.00000000000E+00  0.00000000000E+00  0.14281795608E+04  0.14281795608E+04  0.25500000920E-02 0.  1.
       -2   -1    0    0    0  501  0.00000000000E+00  0.00000000000E+00 -0.12885790163E+04  0.12885790163E+04  0.25500000920E-02 0. -1.
    10030    2    1    2    0    0  0.00000000000E+00  0.00000000000E+00  0.13960054446E+03  0.27167585771E+04  0.27131695218E+04 0.  0.
        2    1    3    3  502    0 -0.37735262942E+03  0.65781207541E+03  0.11961039633E+04  0.14162543643E+04  0.25500000920E-02 0.  1.
       -2    1    3    3    0  502  0.37735262942E+03 -0.65781207541E+03 -0.10565034188E+04  0.13005042128E+04  0.25500000920E-02 0. -1.
</event>
<event>
 5   0  0.1723605E-06  0.2709252E+04  0.7818609E-02  0.8332009E-01
       -1   -1    0    0    0  501  0.00000000000E+00  0.00000000000E+00  0.10004399791E+04  0.10004399791E+04  0.50400001928E-02 0. -1.
        1   -1    0    0  501    0  0.00000000000E+00  0.00000000000E+00 -0.18342052162E+04  0.18342052162E+04  0.50400001928E-02 0.  1.
    10030    2    1    2    0    0  0.00000000000E+00  0.00000000000E+00 -0.83376523711E+03  0.28346451953E+04  0.27092524639E+04 0.  0.
        1    1    3    3  502    0 -0.11762019567E+04  0.56461374463E+03 -0.35638366817E+02  0.13051857403E+04  0.50400001928E-02 0. -1.
       -1    1    3    3    0  502  0.11762019567E+04 -0.56461374463E+03 -0.79812687029E+03  0.15294594550E+04  0.50400001928E-02 0.  1.
</event>
<event>
 5   0  0.1482875E-06  0.2698984E+04  0.7818609E-02  0.8335335E-01
       -3   -1    0    0    0  501  0.00000000000E+00  0.00000000000E+00  0.14495344467E+04  0.14495344502E+04  0.10100000352E+00 0.  1.
        3   -1    0    0  501    0  0.00000000000E+00  0.00000000000E+00 -0.12563539428E+04  0.12563539469E+04  0.10100000352E+00 0. -1.
    10030    2    1    2    0    0  0.00000000000E+00  0.00000000000E+00  0.19318050383E+03  0.27058883971E+04  0.26989837551E+04 0.  0.
        2    1    3    3  502    0 -0.87949201209E+03 -0.86821464236E+03 -0.44685315523E+03  0.13141463415E+04  0.25500000920E-02 0. -1.
       -2    1    3    3    0  502  0.87949201209E+03  0.86821464236E+03  0.64003365906E+03  0.13917420556E+04  0.25500000920E-02 0.  1.
</event>
<event>
 5   0  0.4439357E-06  0.2693661E+04  0.7818609E-02  0.8337065E-01
       -2   -1    0    0    0  501  0.00000000000E+00  0.00000000000E+00  0.10673723860E+04  0.10673723861E+04  0.25500000920E-02 0.  1.
        2   -1    0    0  501    0  0.00000000000E+00  0.00000000000E+00 -0.16994557573E+04  0.16994557573E+04  0.25500000920E-02 0. -1.
    10030    2    1    2    0    0  0.00000000000E+00  0.00000000000E+00 -0.63208337120E+03  0.27668281433E+04  0.26936608150E+04 0.  0.
        4    1    3    3  502    0  0.13277544943E+03 -0.13003869865E+04 -0.64937919316E+03  0.14595652038E+04  0.12699999809E+01 0. -1.
       -4    1    3    3    0  502 -0.13277544943E+03  0.13003869865E+04  0.17295821962E+02  0.13072629395E+04  0.12699999809E+01 0.  1.
</event>
<event>
 5   0  0.1753474E-06  0.2690123E+04  0.7818609E-02  0.8338217E-01
       -1   -1    0    0    0  501  0.00000000000E+00  0.00000000000E+00  0.18422988255E+04  0.18422988255E+04  0.50400001928E-02 0. -1.
        1   -1    0    0  501    0  0.00000000000E+00  0.00000000000E+00 -0.98202855152E+03  0.98202855153E+03  0.50400001928E-02 0.  1.
    10030    2    1    2    0    0  0.00000000000E+00  0.00000000000E+00  0.86027027400E+03  0.28243273771E+04  0.26901227088E+04 0.  0.
        3    1    3    3  502    0  0.75403051428E+03  0.10557864248E+04  0.80272414725E+03  0.15256516831E+04  0.10100000352E+00 0. -1.
       -3    1    3    3    0  502 -0.75403051428E+03 -0.10557864248E+04  0.57546126750E+02  0.12986756940E+04  0.10100000352E+00 0.  1.
</event>
<event>
 5   0  0.1723605E-06  0.2694521E+04  0.7818609E-02  0.8336785E-01
        1   -1    0    0  501    0  0.00000000000E+00  0.00000000000E+00  0.18164890436E+04  0.18164890436E+04  0.50400001928E-02 0.  1.
       -1   -1    0    0    0  501  0.00000000000E+00  0.00000000000E+00 -0.99924138951E+03  0.99924138952E+03  0.50400001928E-02 0. -1.
    10030    2    1    2    0    0  0.00000000000E+00  0.00000000000E+00  0.81724765410E+03  0.28157304331E+04  0.26945211344E+04 0.  0.
        1    1    3    3  502    0  0.76986412250E+02  0.27021597784E+03 -0.96828532246E+03  0.10082261889E+04  0.50400001928E-02 0. -1.
       -1    1    3    3    0  502 -0.76986412250E+02 -0.27021597784E+03  0.17855329766E+04  0.18075042442E+04  0.50400001928E-02 0.  1.
</event>
<event>
 5   0  0.1771016E-06  0.2703735E+04  0.7818609E-02  0.8333794E-01
       -1   -1    0    0    0  501  0.00000000000E+00  0.00000000000E+00  0.15570845040E+04  0.15570845040E+04  0.50400001928E-02 0.  1.
        1   -1    0    0  501    0  0.00000000000E+00  0.00000000000E+00 -0.11736971405E+04  0.11736971405E+04  0.50400001928E-02 0. -1.
    10030    2    1    2    0    0  0.00000000000E+00  0.00000000000E+00  0.38338736352E+03  0.27307816445E+04  0.27037349203E+04 0.  0.
        2    1    3    3  502    0 -0.69909990469E+03 -0.11478881785E+04  0.44781802092E+02  0.13447651679E+04  0.25500000920E-02 0.  1.
       -2    1    3    3    0  502  0.69909990469E+03  0.11478881785E+04  0.33860556142E+03  0.13860164766E+04  0.25500000920E-02 0. -1.
</event>
<event>
 5   0  0.1828511E-06  0.2693457E+04  0.7818609E-02  0.8337131E-01
        1   -1    0    0  501    0  0.00000000000E+00  0.00000000000E+00  0.25304606266E+04  0.25304606266E+04  0.50400001928E-02 0. -1.
       -1   -1    0    0    0  501  0.00000000000E+00  0.00000000000E+00 -0.71673829338E+03  0.71673829340E+03  0.50400001928E-02 0.  1.
    10030    2    1    2    0    0  0.00000000000E+00  0.00000000000E+00  0.18137223333E+04  0.32471989200E+04  0.26934572809E+04 0.  0.
        4    1    3    3  502    0 -0.17322607648E+03 -0.49317461223E+02  0.25158745173E+04  0.25223135581E+04  0.12699999809E+01 0. -1.
       -4    1    3    3    0  502  0.17322607648E+03  0.49317461223E+02 -0.70215218403E+03  0.72488536197E+03  0.12699999809E+01 0.  1.
</event>
<event>
 5   0  0.1482875E-06  0.2738760E+04  0.7818609E-02  0.8322537E-01
        3   -1    0    0  501    0  0.00000000000E+00  0.00000000000E+00  0.17711930735E+04  0.17711930764E+04  0.10100000352E+00 0. -1.
       -3   -1    0    0    0  501  0.00000000000E+00  0.00000000000E+00 -0.10587219582E+04  0.10587219630E+04  0.10100000352E+00 0.  1.
    10030    2    1    2    0    0  0.00000000000E+00  0.00000000000E+00  0.71247111535E+03  0.28299150394E+04  0.27387595805E+04 0.  0.
        3    1    3    3  502    0 -0.24021145480E+03  0.10195638130E+04  0.12676297152E+04  0.16444138825E+04  0.10100000352E+00 0. -1.
       -3    1    3    3    0  502  0.24021145480E+03 -0.10195638130E+04 -0.55515859985E+03  0.11855011569E+04  0.10100000352E+00 0.  1.
</event>
<event>
 5   0  0.4655882E-06  0.2700953E+04  0.7818609E-02  0.8334696E-01
        2   -1    0    0  501    0  0.00000000000E+00  0.00000000000E+00  0.14574709735E+04  0.14574709735E+04  0.25500000920E-02 0.  1.
       -2   -1    0    0    0  501  0.00000000000E+00  0.00000000000E+00 -0.12513368323E+04  0.12513368323E+04  0.25500000920E-02 0. -1.
    10030    2    1    2    0    0  0.00000000000E+00  0.00000000000E+00  0.20613414123E+03  0.27088078058E+04  0.27009532474E+04 0.  0.
        1    1    3    3  502    0 -0.54013067998E+03  0.73860758794E+03  0.10991849258E+04  0.14302062165E+04  0.50400001928E-02 0.  1.
       -1    1    3    3    0  502  0.54013067998E+03 -0.73860758794E+03 -0.89305078460E+03  0.12786015894E+04  0.50400001928E-02 0. -1.
</event>
<event>
 5   0  0.1771016E-06  0.2643302E+04  0.7818609E-02  0.8353639E-01
        1   -1    0    0  501    0  0.00000000000E+00  0.00000000000E+00  0.11137695850E+04  0.11137695850E+04  0.50400001928E-02 0.  1.
       -1   -1    0    0    0  501  0.00000000000E+00  0.00000000000E+00 -0.15683331412E+04  0.15683331412E+04  0.50400001928E-02 0. -1.
    10030    2    1    2    0    0  0.00000000000E+00  0.00000000000E+00 -0.45456355626E+03  0.26821027262E+04  0.26433022921E+04 0.  0.
        2    1    3    3  502    0 -0.69855642220E+02 -0.83425376507E+03  0.81042390599E+03  0.11651806996E+04  0.25500000920E-02 0.  1.
       -2    1    3    3    0  502  0.69855642220E+02  0.83425376507E+03 -0.12649874622E+04  0.15169220266E+04  0.25500000920E-02 0. -1.
</event>
<event>
 5   0  0.4487186E-06  0.2662541E+04  0.7818609E-02  0.8347263E-01
       -2   -1    0    0    0  501  0.00000000000E+00  0.00000000000E+00  0.12570652009E+04  0.12570652009E+04  0.25500000920E-02 0.  1.
        2   -1    0    0  501    0  0.00000000000E+00  0.00000000000E+00 -0.14098557933E+04  0.14098557933E+04  0.25500000920E-02 0. -1.
    10030    2    1    2    0    0  0.00000000000E+00  0.00000000000E+00 -0.15279059235E+03  0.26669209942E+04  0.26625406333E+04 0.  0.
        3    1    3    3  502    0  0.12677583768E+04 -0.36779848341E+03  0.96496958782E+02  0.13235553255E+04  0.10100000352E+00 0. -1.
       -3    1    3    3    0  502 -0.12677583768E+04  0.36779848341E+03 -0.24928755113E+03  0.13433656687E+04  0.10100000352E+00 0.  1.
</event>
<event>
 5   0  0.1723605E-06  0.2695749E+04  0.7818609E-02  0.8336386E-01
       -1   -1    0    0    0  501  0.00000000000E+00  0.00000000000E+00  0.15088082075E+04  0.15088082075E+04  0.50400001928E-02 0.  1.
        1   -1    0    0  501    0  0.00000000000E+00  0.00000000000E+00 -0.12041062004E+04  0.12041062004E+04  0.50400001928E-02 0. -1.
    10030    2    1    2    0    0  0.00000000000E+00  0.00000000000E+00  0.30470200716E+03  0.27129144079E+04  0.26957487404E+04 0.  0.
        1    1    3    3  502    0  0.16744401076E+03 -0.32931435149E+03 -0.11521592424E+04  0.12099406426E+04  0.50400001928E-02 0. -1.
       -1    1    3    3    0  502 -0.16744401076E+03  0.32931435149E+03  0.14568612495E+04  0.15029737653E+04  0.50400001928E-02 0.  1.
</event>
<event>
 5   0  0.4655882E-06  0.2703723E+04  0.7818609E-02  0.8333798E-01
        2   -1    0    0  501    0  0.00000000000E+00  0.00000000000E+00  0.13296208347E+04  0.13296208347E+04  0.25500000920E-02 0. -1.
       -2   -1    0    0    0  501  0.00000000000E+00  0.00000000000E+00 -0.13744742508E+04  0.13744742508E+04  0.25500000920E-02 0.  1.
    10030    2    1    2    0    0  0.00000000000E+00  0.00000000000E+00 -0.44853416100E+02  0.27040950856E+04  0.27037230633E+04 0.  0.
        1    1    3    3  502    0  0.90870082019E+02 -0.11805013958E+04 -0.67496470531E+03  0.13628713331E+04  0.50400001928E-02 0.  1.
       -1    1    3    3    0  502 -0.90870082019E+02  0.11805013958E+04  0.63011128921E+03  0.13412237524E+04  0.50400001928E-02 0. -1.
</event>
<event>
 5   0  0.1753474E-06  0.2598936E+04  0.7818609E-02  0.8368563E-01
        1   -1    0    0  501    0  0.00000000000E+00  0.00000000000E+00  0.21223926830E+04  0.21223926830E+04  0.50400001928E-02 0. -1.
       -1   -1    0    0    0  501  0.00000000000E+00  0.00000000000E+00 -0.79561967285E+03  0.79561967287E+03  0.50400001928E-02 0.  1.
    10030    2    1    2    0    0  0.00000000000E+00  0.00000000000E+00  0.13267730102E+04  0.29180123559E+04  0.25989362225E+04 0.  0.
        3    1    3    3  502    0 -0.39902414314E+03  0.11248618976E+04  0.86405431042E+02  0.11966622181E+04  0.10100000352E+00 0.  1.
       -3    1    3    3    0  502  0.39902414314E+03 -0.11248618976E+04  0.12403675791E+04  0.17213501378E+04  0.10100000352E+00 0. -1.
</event>
<event>
 5   0  0.4439357E-06  0.2703016E+04  0.7818609E-02  0.8334027E-01
       -2   -1    0    0    0  501  0.00000000000E+00  0.00000000000E+00  0.12498151023E+04  0.12498151023E+04  0.25500000920E-02 0. -1.
        2   -1    0    0  501    0  0.00000000000E+00  0.00000000000E+00 -0.14614752816E+04  0.14614752816E+04  0.25500000920E-02 0.  1.
    10030    2    1    2    0    0  0.00000000000E+00  0.00000000000E+00 -0.21166017931E+03  0.27112903839E+04  0.27030160033E+04 0.  0.
        4    1    3    3  502    0  0.65798084181E+03 -0.15056409349E+03  0.10686358632E+04  0.12639590798E+04  0.12699999809E+01 0. -1.
       -4    1    3    3    0  502 -0.65798084181E+03  0.15056409349E+03 -0.12802960425E+04  0.14473313041E+04  0.12699999809E+01 0.  1.
</event>
<event>
 5   0  0.4439357E-06  0.2728119E+04  0.7818609E-02  0.8325939E-01
        2   -1    0    0  501    0  0.00000000000E+00  0.00000000000E+00  0.24552534499E+04  0.24552534499E+04  0.25500000920E-02 0.  1.
       -2   -1    0    0    0  501  0.00000000000E+00  0.00000000000E+00 -0.75782718809E+03  0.75782718810E+03  0.25500000920E-02 0. -1.
    10030    2    1    2    0    0  0.00000000000E+00  0.00000000000E+00  0.16974262618E+04  0.32130806380E+04  0.27281186323E+04 0.  0.
        4    1    3    3  502    0  0.10781996518E+04  0.72695529102E+03  0.36356899719E+03  0.13502453529E+04  0.12699999809E+01 0.  1.
       -4    1    3    3    0  502 -0.10781996518E+04 -0.72695529102E+03  0.13338572646E+04  0.18628352851E+04  0.12699999809E+01 0. -1.
</event>
<event>
 5   0  0.4401659E-06  0.2727071E+04  0.7818609E-02  0.8326275E-01
        2   -1    0    0  501    0  0.00000000000E+00  0.00000000000E+00  0.14932466580E+04  0.14932466580E+04  0.25500000920E-02 0. -1.
       -2   -1    0    0    0  501  0.00000000000E+00  0.00000000000E+00 -0.12450915538E+04  0.12450915538E+04  0.25500000920E-02 0.  1.
    10030    2    1    2    0    0  0.00000000000E+00  0.00000000000E+00  0.24815510422E+03  0.27383382118E+04  0.27270708107E+04 0.  0.
        5    1    3    3  502    0  0.66462197210E+03  0.11182972800E+04 -0.28613886464E+03  0.13319942612E+04  0.46999998093E+01 0.  1.
       -5    1    3    3    0  502 -0.66462197210E+03 -0.11182972800E+04  0.53429396886E+03  0.14063439506E+04  0.46999998093E+01 0. -1.
</event>
<event>
 5   0  0.4448804E-06  0.2687658E+04  0.7818609E-02  0.8339021E-01
        2   -1    0    0  501    0  0.00000000000E+00  0.00000000000E+00  0.18847609500E+04  0.18847609500E+04  0.25500000920E-02 0.  1.
       -2   -1    0    0    0  501  0.00000000000E+00  0.00000000000E+00 -0.95814625449E+03  0.95814625450E+03  0.25500000920E-02 0. -1.
    10030    2    1    2    0    0  0.00000000000E+00  0.00000000000E+00  0.92661469547E+03  0.28429072045E+04  0.26876581961E+04 0.  0.
        2    1    3    3  502    0 -0.54509806227E+03  0.22987805783E+03 -0.81299786774E+03  0.10054557931E+04  0.25500000920E-02 0. -1.
       -2    1    3    3    0  502  0.54509806227E+03 -0.22987805783E+03  0.17396125632E+04  0.18374514113E+04  0.25500000920E-02 0.  1.
</event>
<event>
 5   0  0.4487186E-06  0.2701628E+04  0.7818609E-02  0.8334477E-01
       -2   -1    0    0    0  501  0.00000000000E+00  0.00000000000E+00  0.13095683011E+04  0.13095683011E+04  0.25500000920E-02 0. -1.
        2   -1    0    0  501    0  0.00000000000E+00  0.00000000000E+00 -0.13933585575E+04  0.13933585575E+04  0.25500000920E-02 0.  1.
    10030    2    1    2    0    0  0.00000000000E+00  0.00000000000E+00 -0.83790256460E+02  0.27029268586E+04  0.27016278049E+04 0.  0.
        3    1    3    3  502    0 -0.27508186569E+03  0.17539209250E+03  0.12695615401E+04  0.13108085036E+04  0.10100000352E+00 0. -1.
       -3    1    3    3    0  502  0.27508186569E+03 -0.17539209250E+03 -0.13533517965E+04  0.13921183550E+04  0.10100000352E+00 0.  1.
</event>
<event>
 5   0  0.4487186E-06  0.2715081E+04  0.7818609E-02  0.8330128E-01
       -2   -1    0    0    0  501  0.00000000000E+00  0.00000000000E+00  0.10299033844E+04  0.10299033844E+04  0.25500000920E-02 0.  1.
        2   -1    0    0  501    0  0.00000000000E+00  0.00000000000E+00 -0.17894068724E+04  0.17894068724E+04  0.25500000920E-02 0. -1.
    10030    2    1    2    0    0  0.00000000000E+00  0.00000000000E+00 -0.75950348799E+03  0.28193102568E+04  0.27150809888E+04 0.  0.
        3    1    3    3  502    0 -0.13500838919E+04 -0.81453164534E+02 -0.50064738759E+03  0.14422236131E+04  0.10100000352E+00 0. -1.
       -3    1    3    3    0  502  0.13500838919E+04  0.81453164534E+02 -0.25885610040E+03  0.13770866437E+04  0.10100000352E+00 0.  1.
</event>
<event>
 5   0  0.4448804E-06  0.2700368E+04  0.7818609E-02  0.8334886E-01
       -2   -1    0    0    0  501  0.00000000000E+00  0.00000000000E+00  0.72680641402E+03  0.72680641402E+03  0.25500000920E-02 0.  1.
        2   -1    0    0  501    0  0.00000000000E+00  0.00000000000E+00 -0.25082281824E+04  0.25082281824E+04  0.25500000920E-02 0. -1.
    10030    2    1    2    0    0  0.00000000000E+00  0.00000000000E+00 -0.17814217684E+04  0.32350345964E+04  0.27003676274E+04 0.  0.
        2    1    3    3  502    0  0.28362259995E+03 -0.13197239707E+04 -0.85510811493E+03  0.15979120834E+04  0.25500000920E-02 0.  1.
       -2    1    3    3    0  502 -0.28362259995E+03  0.13197239707E+04 -0.92631365344E+03  0.16371225130E+04  0.25500000920E-02 0. -1.
</event>
<event>
 5   0  0.1771016E-06  0.2690152E+04  0.7818609E-02  0.8338207E-01
        1   -1    0    0  501    0  0.00000000000E+00  0.00000000000E+00  0.15735137667E+04  0.15735137667E+04  0.50400001928E-02 0.  1.
       -1   -1    0    0    0  501  0.00000000000E+00  0.00000000000E+00 -0.11498018211E+04  0.11498018211E+04  0.50400001928E-02 0. -1.
    10030    2    1    2    0    0  0.00000000000E+00  0.00000000000E+00  0.42371194554E+03  0.27233155878E+04  0.26901516645E+04 0.  0.
        2    1    3    3  502    0 -0.95723938209E+03  0.94306657157E+03  0.27214858952E+03  0.13710385289E+04  0.25500000920E-02 0.  1.
       -2    1    3    3    0  502  0.95723938209E+03 -0.94306657157E+03  0.15156335602E+03  0.13522770589E+04  0.25500000920E-02 0. -1.
</event>
<event>
 5   0  0.4487186E-06  0.2666769E+04  0.7818609E-02  0.8345868E-01
        2   -1    0    0  501    0  0.00000000000E+00  0.00000000000E+00  0.22231974896E+04  0.22231974896E+04  0.25500000920E-02 0. -1.
       -2   -1    0    0    0  501  0.00000000000E+00  0.00000000000E+00 -0.79971039957E+03  0.79971039957E+03  0.25500000920E-02 0.  1.
    10030    2    1    2    0    0  0.00000000000E+00  0.00000000000E+00  0.14234870900E+04  0.30229078892E+04  0.26667689459E+04 0.  0.
        3    1    3    3  502    0  0.91934450165E+02  0.13181609458E+04  0.50924141179E+03  0.14160957058E+04  0.10100000352E+00 0.  1.
       -3    1    3    3    0  502 -0.91934450165E+02 -0.13181609458E+04  0.91424567826E+03  0.16068121834E+04  0.10100000352E+00 0. -1.
</event>
<event>
 5   0  0.1723605E-06  0.2695283E+04  0.7818609E-02  0.8336537E-01
       -1   -1    0    0    0  501  0.00000000000E+00  0.00000000000E+00  0.12804838010E+04  0.12804838010E+04  0.50400001928E-02 0.  1.
        1   -1    0    0  501    0  0.00000000000E+00  0.00000000000E+00 -0.14183219012E+04  0.14183219012E+04  0.50400001928E-02 0. -1.
    10030    2    1    2    0    0  0.00000000000E+00  0.00000000000E+00 -0.13783810019E+03  0.26988057022E+04  0.26952834501E+04 0.  0.
        1    1    3    3  502    0 -0.30720442860E+03  0.11178235644E+04  0.61917192797E+03  0.13142594715E+04  0.50400001928E-02 0.  1.
       -1    1    3    3    0  502  0.30720442860E+03 -0.11178235644E+04 -0.75701002816E+03  0.13845462307E+04  0.50400001928E-02 0. -1.
</event>
<event>
 5   0  0.4655882E-06  0.2698742E+04  0.7818609E-02  0.8335413E-01
        2   -1    0    0  501    0  0.00000000000E+00  0.00000000000E+00  0.19995495057E+04  0.19995495057E+04  0.25500000920E-02 0. -1.
       -2   -1    0    0    0  501  0.00000000000E+00  0.00000000000E+00 -0.91060605096E+03  0.91060605097E+03  0.25500000920E-02 0.  1.
    10030    2    1    2    0    0  0.00000000000E+00  0.00000000000E+00  0.10889434547E+04  0.29101555566E+04  0.26987418395E+04 0.  0.
        1    1    3    3  502    0 -0.75243446276E+03  0.54798290749E+03  0.15979140117E+04  0.18492625764E+04  0.50400001928E-02 0. -1.
       -1    1    3    3    0  502  0.75243446276E+03 -0.54798290749E+03 -0.50897055699E+03  0.10608929803E+04  0.50400001928E-02 0.  1.
</event>
<event>
 5   0  0.4448804E-06  0.2700656E+04  0.7818609E-02  0.8334792E-01
       -2   -1    0    0    0  501  0.00000000000E+00  0.00000000000E+00  0.91947880608E+03  0.91947880609E+03  0.25500000920E-02 0. -1.
        2   -1    0    0  501    0  0.00000000000E+00  0.00000000000E+00 -0.19830639033E+04  0.19830639033E+04  0.25500000920E-02 0.  1.
    10030    2    1    2    0    0  0.00000000000E+00  0.00000000000E+00 -0.10635850972E+04  0.29025427094E+04  0.27006556465E+04 0.  0.
        2    1    3    3  502    0 -0.38952406704E+03 -0.11620592118E+04 -0.11409753251E+04  0.16744955368E+04  0.25500000920E-02 0.  1.
       -2    1    3    3    0  502  0.38952406704E+03  0.11620592118E+04  0.77390227863E+02  0.12280471725E+04  0.25500000920E-02 0. -1.
</event>
<event>
 5   0  0.1771016E-06  0.2688865E+04  0.7818609E-02  0.8338627E-01
       -1   -1    0    0    0  501  0.00000000000E+00  0.00000000000E+00  0.15936578696E+04  0.15936578696E+04  0.50400001928E-02 0. -1.
        1   -1    0    0  501    0  0.00000000000E+00  0.00000000000E+00 -0.11341825410E+04  0.11341825410E+04  0.50400001928E-02 0.  1.
    10030    2    1    2    0    0  0.00000000000E+00  0.00000000000E+00  0.45947532863E+03  0.27278404106E+04  0.26888651376E+04 0.  0.
        2    1    3    3  502    0  0.73865703732E+03 -0.78554327436E+02 -0.90709173066E+03  0.11724335414E+04  0.25500000920E-02 0.  1.
       -2    1    3    3    0  502 -0.73865703732E+03  0.78554327436E+02  0.13665670593E+04  0.15554068692E+04  0.25500000920E-02 0. -1.
</event>
<event>
 5   0  0.4401659E-06  0.2709509E+04  0.7818609E-02  0.8331926E-01
       -2   -1    0    0    0  501  0.00000000000E+00  0.00000000000E+00  0.19551502601E+04  0.19551502601E+04  0.25500000920E-02 0.  1.
        2   -1    0    0  501    0  0.00000000000E+00  0.00000000000E+00 -0.93873105902E+03  0.93873105902E+03  0.25500000920E-02 0. -1.
    10030    2    1    2    0    0  0.00000000000E+00  0.00000000000E+00  0.10164192011E+04  0.28938813192E+04  0.27095093831E+04 0.  0.
        5    1    3    3  502    0  0.64406027384E+03  0.41286006308E+03  0.17023555705E+04  0.18663610708E+04  0.46999998093E+01 0.  1.
       -5    1    3    3    0  502 -0.64406027384E+03 -0.41286006308E+03 -0.68593636939E+03  0.10275202484E+04  0.46999998093E+01 0. -1.
</event>
<event>
 5   0  0.1753474E-06  0.2702299E+04  0.7818609E-02  0.8334259E-01
        1   -1    0    0  501    0  0.00000000000E+00  0.00000000000E+00  0.13787873593E+04  0.13787873593E+04  0.50400001928E-02 0.  1.
       -1   -1    0    0    0  501  0.00000000000E+00  0.00000000000E+00 -0.13240658809E+04  0.13240658809E+04  0.50400001928E-02 0. -1.
    10030    2    1    2    0    0  0.00000000000E+00  0.00000000000E+00  0.54721478421E+02  0.27028532403E+04  0.27022992429E+04 0.  0.
        3    1    3    3  502    0  0.56487608106E+03 -0.83119520653E+03  0.93067092475E+03  0.13697148750E+04  0.10100000352E+00 0. -1.
       -3    1    3    3    0  502 -0.56487608106E+03  0.83119520653E+03 -0.87594944633E+03  0.13331383653E+04  0.10100000352E+00 0.  1.
</event>
<event>
 5   0  0.1732312E-06  0.2674625E+04  0.7818609E-02  0.8343285E-01
       -1   -1    0    0    0  501  0.00000000000E+00  0.00000000000E+00  0.10120117492E+04  0.10120117492E+04  0.50400001928E-02 0.  1.
        1   -1    0    0  501    0  0.00000000000E+00  0.00000000000E+00 -0.17671780149E+04  0.17671780149E+04  0.50400001928E-02 0. -1.
    10030    2    1    2    0    0  0.00000000000E+00  0.00000000000E+00 -0.75516626569E+03  0.27791897640E+04  0.26746251430E+04 0.  0.
        5    1    3    3  502    0  0.37923269469E+03 -0.10438349088E+04  0.39650716616E+03  0.11792577226E+04  0.46999998093E+01 0.  1.
       -5    1    3    3    0  502 -0.37923269469E+03  0.10438349088E+04 -0.11516734318E+04  0.15999320414E+04  0.46999998093E+01 0. -1.
</event>
<event>
 5   0  0.1828511E-06  0.2700408E+04  0.7818609E-02  0.8334873E-01
       -1   -1    0    0    0  501  0.00000000000E+00  0.00000000000E+00  0.10484175898E+04  0.10484175898E+04  0.50400001928E-02 0. -1.
        1   -1    0    0  501    0  0.00000000000E+00  0.00000000000E+00 -0.17388591724E+04  0.17388591724E+04  0.50400001928E-02 0.  1.
    10030    2    1    2    0    0  0.00000000000E+00  0.00000000000E+00 -0.69044158264E+03  0.27872767622E+04  0.27004077785E+04 0.  0.
        4    1    3    3  502    0  0.10921834540E+04 -0.98706020153E+02 -0.11582405724E+04  0.15950330442E+04  0.12699999809E+01 0.  1.
       -4    1    3    3    0  502 -0.10921834540E+04  0.98706020153E+02  0.46779898973E+03  0.11922437181E+04  0.12699999809E+01 0. -1.
</event>
<event>
 5   0  0.4439357E-06  0.2701613E+04  0.7818609E-02  0.8334482E-01
       -2   -1    0    0    0  501  0.00000000000E+00  0.00000000000E+00  0.98441912127E+03  0.98441912127E+03  0.25500000920E-02 0. -1.
        2   -1    0    0  501    0  0.00000000000E+00  0.00000000000E+00 -0.18535588270E+04  0.18535588270E+04  0.25500000920E-02 0.  1.
    10030    2    1    2    0    0  0.00000000000E+00  0.00000000000E+00 -0.86913970578E+03  0.28379779483E+04  0.27016134081E+04 0.  0.
        4    1    3    3  502    0  0.94622101162E+03  0.58182131167E+03  0.37288071195E+03  0.11717046897E+04  0.12699999809E+01 0. -1.
       -4    1    3    3    0  502 -0.94622101162E+03 -0.58182131167E+03 -0.12420204177E+04  0.16662732586E+04  0.12699999809E+01 0.  1.
</event>
<event>
 5   0  0.4448804E-06  0.2701728E+04  0.7818609E-02  0.8334445E-01
       -2   -1    0    0    0  501  0.00000000000E+00  0.00000000000E+00  0.14427817094E+04  0.14427817094E+04  0.25500000920E-02 0.  1.
        2   -1    0    0  501    0  0.00000000000E+00  0.00000000000E+00 -0.12648018795E+04  0.12648018795E+04  0.25500000920E-02 0. -1.
    10030    2    1    2    0    0  0.00000000000E+00  0.00000000000E+00  0.17797982992E+03  0.27075835889E+04  0.27017276086E+04 0.  0.
        2    1    3    3  502    0 -0.61221494888E+03  0.61259161829E+03  0.11279420286E+04  0.14220860924E+04  0.25500000920E-02 0.  1.
       -2    1    3    3    0  502  0.61221494888E+03 -0.61259161829E+03 -0.94996219869E+03  0.12854974964E+04  0.25500000920E-02 0. -1.
</event>
<event>
 5   0  0.4439357E-06  0.2704742E+04  0.7818609E-02  0.8333468E-01
        2   -1    0    0  501    0  0.00000000000E+00  0.00000000000E+00  0.17419515716E+04  0.17419515716E+04  0.25500000920E-02 0.  1.
       -2   -1    0    0    0  501  0.00000000000E+00  0.00000000000E+00 -0.10499187468E+04  0.10499187468E+04  0.25500000920E-02 0. -1.
    10030    2    1    2    0    0  0.00000000000E+00  0.00000000000E+00  0.69203282480E+03  0.27918703184E+04  0.27047422140E+04 0.  0.
        4    1    3    3  502    0 -0.68868343326E+03 -0.38266010740E+03  0.14806023761E+04  0.16771698299E+04  0.12699999809E+01 0.  1.
       -4    1    3    3    0  502  0.68868343326E+03  0.38266010740E+03 -0.78856955135E+03  0.11147004886E+04  0.12699999809E+01 0. -1.
</event>
<event>
 5   0  0.4655882E-06  0.2653483E+04  0.7818609E-02  0.8350258E-01
       -2   -1    0    0    0  501  0.00000000000E+00  0.00000000000E+00  0.98032176659E+03  0.98032176659E+03  0.25500000920E-02 0. -1.
        2   -1    0    0  501    0  0.00000000000E+00  0.00000000000E+00 -0.17955767734E+04  0.17955767734E+04  0.25500000920E-02 0.  1.
    10030    2    1    2    0    0  0.00000000000E+00  0.00000000000E+00 -0.81525500680E+03  0.27758985400E+04  0.26534829900E+04 0.  0.
        1    1    3    3  502    0 -0.11846444315E+04 -0.59034623758E+03 -0.50323226908E+03  0.14160274806E+04  0.50400001928E-02 0.  1.
       -1    1    3    3    0  502  0.11846444315E+04  0.59034623758E+03 -0.31202273772E+03  0.13598710594E+04  0.50400001928E-02 0. -1.
</event>
<event>
 5   0  0.4487186E-06  0.2673163E+04  0.7818609E-02  0.8343765E-01
        2   -1    0    0  501    0  0.00000000000E+00  0.00000000000E+00  0.13097799381E+04  0.13097799381E+04  0.25500000920E-02 0. -1.
       -2   -1    0    0    0  501  0.00000000000E+00  0.00000000000E+00 -0.13639316078E+04  0.13639316078E+04  0.25500000920E-02 0.  1.
    10030    2    1    2    0    0  0.00000000000E+00  0.00000000000E+00 -0.54151669753E+02  0.26737115459E+04  0.26731631128E+04 0.  0.
        3    1    3    3  502    0  0.12891429417E+04  0.17216037680E+03 -0.33523241825E+03  0.13430969823E+04  0.10100000352E+00 0.  1.
       -3    1    3    3    0  502 -0.12891429417E+04 -0.17216037680E+03  0.28108074850E+03  0.13306145636E+04  0.10100000352E+00 0. -1.
</event>
<event>
 5   0  0.1723605E-06  0.2699621E+04  0.7818609E-02  0.8335128E-01
        1   -1    0    0  501    0  0.00000000000E+00  0.00000000000E+00  0.96839632093E+03  0.96839632095E+03  0.50400001928E-02 0.  1.
       -1   -1    0    0    0  501  0.00000000000E+00  0.00000000000E+00 -0.18814496313E+04  0.18814496313E+04  0.50400001928E-02 0. -1.
    10030    2    1    2    0    0  0.00000000000E+00  0.00000000000E+00 -0.91305331033E+03  0.28498459522E+04  0.26996213816E+04 0.  0.
        1    1    3    3  502    0  0.57721568897E+03  0.33569934480E+02  0.83105231013E+03  0.10123995428E+04  0.50400001928E-02 0.  1.
       -1    1    3    3    0  502 -0.57721568897E+03 -0.33569934480E+02 -0.17441056205E+04  0.18374464094E+04  0.50400001928E-02 0. -1.
</event>
<event>
 5   0  0.4448804E-06  0.2689894E+04  0.7818609E-02  0.8338291E-01
        2   -1    0    0  501    0  0.00000000000E+00  0.00000000000E+00  0.14385874238E+04  0.14385874238E+04  0.25500000920E-02 0.  1.
       -2   -1    0    0    0  501  0.00000000000E+00  0.00000000000E+00 -0.12574020050E+04  0.12574020050E+04  0.25500000920E-02 0. -1.
    10030    2    1    2    0    0  0.00000000000E+00  0.00000000000E+00  0.18118541885E+03  0.26959894288E+04  0.26898942069E+04 0.  0.
        2    1    3    3  502    0 -0.20021176532E+03 -0.32064311649E+03 -0.12030628311E+04  0.12610538984E+04  0.25500000920E-02 0. -1.
       -2    1    3    3    0  502  0.20021176532E+03  0.32064311649E+03  0.13842482499E+04  0.14349355304E+04  0.25500000920E-02 0.  1.
</event>
<event>
 5   0  0.1828511E-06  0.2793833E+04  0.7818609E-02  0.8305185E-01
        1   -1    0    0  501    0  0.00000000000E+00  0.00000000000E+00  0.16758367218E+04  0.16758367219E+04  0.50400001928E-02 0.  1.
       -1   -1    0    0    0  501  0.00000000000E+00  0.00000000000E+00 -0.11644190355E+04  0.11644190355E+04  0.50400001928E-02 0. -1.
    10030    2    1    2    0    0  0.00000000000E+00  0.00000000000E+00  0.51141768633E+03  0.28402557574E+04  0.27938333374E+04 0.  0.
        4    1    3    3  502    0 -0.11229872336E+04 -0.77828801910E+03 -0.39883520173E+02  0.13669033892E+04  0.12699999809E+01 0.  1.
       -4    1    3    3    0  502  0.11229872336E+04  0.77828801910E+03  0.55130120651E+03  0.14733523681E+04  0.12699999809E+01 0. -1.
</event>
<event>
 5   0  0.4439357E-06  0.2721669E+04  0.7818609E-02  0.8328008E-01
       -2   -1    0    0    0  501  0.00000000000E+00  0.00000000000E+00  0.70809161384E+03  0.70809161385E+03  0.25500000920E-02 0.  1.
        2   -1    0    0  501    0  0.00000000000E+00  0.00000000000E+00 -0.26152976272E+04  0.26152976272E+04  0.25500000920E-02 0. -1.
    10030    2    1    2    0    0  0.00000000000E+00  0.00000000000E+00 -0.19072060133E+04  0.33233892410E+04  0.27216688392E+04 0.  0.
        4    1    3    3  502    0 -0.13352248159E+04  0.20799474727E+03 -0.75753772421E+03  0.15491778918E+04  0.12699999809E+01 0.  1.
       -4    1    3    3    0  502  0.13352248159E+04 -0.20799474727E+03 -0.11496682891E+04  0.17742113492E+04  0.12699999809E+01 0. -1.
</event>
<event>
 5   0  0.4439357E-06  0.2700589E+04  0.7818609E-02  0.8334814E-01
       -2   -1    0    0    0  501  0.00000000000E+00  0.00000000000E+00  0.12442607222E+04  0.12442607222E+04  0.25500000920E-02 0.  1.
        2   -1    0    0  501    0  0.00000000000E+00  0.00000000000E+00 -0.14653641082E+04  0.14653641082E+04  0.25500000920E-02 0. -1.
    10030    2    1    2    0    0  0.00000000000E+00  0.00000000000E+00 -0.22110338606E+03  0.27096248304E+04  0.27005888273E+04 0.  0.
        4    1    3    3  502    0  0.13298964030E+04  0.12848641553E+03  0.85448254828E+02  0.13388189641E+04  0.12699999809E+01 0.  1.
       -4    1    3    3    0  502 -0.13298964030E+04 -0.12848641553E+03 -0.30655164088E+03  0.13708058663E+04  0.12699999809E+01 0. -1.
</event>
<event>
 5   0  0.1723605E-06  0.2571987E+04  0.7818609E-02  0.8377779E-01
        1   -1    0    0  501    0  0.00000000000E+00  0.00000000000E+00  0.24789554369E+04  0.24789554369E+04  0.50400001928E-02 0.  1.
       -1   -1    0    0    0  501  0.00000000000E+00  0.00000000000E+00 -0.66712731544E+03  0.66712731546E+03  0.50400001928E-02 0. -1.
    10030    2    1    2    0    0  0.00000000000E+00  0.00000000000E+00  0.18118281215E+04  0.31460827524E+04  0.25719866919E+04 0.  0.
        1    1    3    3  502    0 -0.11512407527E+04  0.26582907538E+02  0.16061604630E+04  0.19763130710E+04  0.50400001928E-02 0.  1.
       -1    1    3    3    0  502  0.11512407527E+04 -0.26582907538E+02  0.20566765848E+03  0.11697696814E+04  0.50400001928E-02 0. -1.
</event>
<event>
 5   0  0.1732312E-06  0.2685519E+04  0.7818609E-02  0.8339719E-01
        1   -1    0    0  501    0  0.00000000000E+00  0.00000000000E+00  0.12140921730E+04  0.12140921730E+04  0.50400001928E-02 0.  1.
       -1   -1    0    0    0  501  0.00000000000E+00  0.00000000000E+00 -0.14850625242E+04  0.14850625242E+04  0.50400001928E-02 0. -1.
    10030    2    1    2    0    0  0.00000000000E+00  0.00000000000E+00 -0.27097035125E+03  0.26991546973E+04  0.26855187857E+04 0.  0.
        5    1    3    3  502    0  0.13217918635E+04 -0.19164644659E+03 -0.27445729984E+03  0.13635288740E+04  0.46999998093E+01 0.  1.
       -5    1    3    3    0  502 -0.13217918635E+04  0.19164644659E+03  0.34869485986E+01  0.13356258232E+04  0.46999998093E+01 0. -1.
</event>
<event>
 5   0  0.4487186E-06  0.2812334E+04  0.7818609E-02  0.8299449E-01
        2   -1    0    0  501    0  0.00000000000E+00  0.00000000000E+00  0.20666772877E+04  0.20666772877E+04  0.25500000920E-02 0.  1.
       -2   -1    0    0    0  501  0.00000000000E+00  0.00000000000E+00 -0.95675588983E+03  0.95675588983E+03  0.25500000920E-02 0. -1.
    10030    2    1    2    0    0  0.00000000000E+00  0.00000000000E+00  0.11099213978E+04  0.30234331775E+04  0.28123340252E+04 0.  0.
        3    1    3    3  502    0  0.94300523184E+03  0.35990776276E+02 -0.56576308393E+03  0.11002918161E+04  0.10100000352E+00 0. -1.
       -3    1    3    3    0  502 -0.94300523184E+03 -0.35990776276E+02  0.16756844818E+04  0.19231413614E+04  0.10100000352E+00 0.  1.
</event>
<event>
 5   0  0.1732312E-06  0.2603478E+04  0.7818609E-02  0.8367021E-01
       -1   -1    0    0    0  501  0.00000000000E+00  0.00000000000E+00  0.13599660150E+04  0.13599660150E+04  0.50400001928E-02 0. -1.
        1   -1    0    0  501    0  0.00000000000E+00  0.00000000000E+00 -0.12460046245E+04  0.12460046245E+04  0.50400001928E-02 0.  1.
    10030    2    1    2    0    0  0.00000000000E+00  0.00000000000E+00  0.11396139043E+03  0.26059706395E+04  0.26034776311E+04 0.  0.
        5    1    3    3  502    0 -0.99938407438E+02 -0.12653155525E+04  0.34620499220E+03  0.13156333529E+04  0.46999998093E+01 0. -1.
       -5    1    3    3    0  502  0.99938407438E+02  0.12653155525E+04 -0.23224360177E+03  0.12903372866E+04  0.46999998093E+01 0.  1.
</event>
<event>
 5   0  0.1828511E-06  0.2687017E+04  0.7818609E-02  0.8339230E-01
        1   -1    0    0  501    0  0.00000000000E+00  0.00000000000E+00  0.11289493082E+04  0.11289493082E+04  0.50400001928E-02 0. -1.
       -1   -1    0    0    0  501  0.00000000000E+00  0.00000000000E+00 -0.15988448970E+04  0.15988448970E+04  0.50400001928E-02 0.  1.
    10030    2    1    2    0    0  0.00000000000E+00  0.00000000000E+00 -0.46989558876E+03  0.27277942052E+04  0.26870168146E+04 0.  0.
        4    1    3    3  502    0 -0.59759695172E+03  0.42934699370E+03  0.90618930383E+03  0.11673224169E+04  0.12699999809E+01 0. -1.
       -4    1    3    3    0  502  0.59759695172E+03 -0.42934699370E+03 -0.13760848926E+04  0.15604717883E+04  0.12699999809E+01 0.  1.
</event>
<event>
 5   0  0.4439357E-06  0.2709486E+04  0.7818609E-02  0.8331934E-01
        2   -1    0    0  501    0  0.00000000000E+00  0.00000000000E+00  0.14904335623E+04  0.14904335623E+04  0.25500000920E-02 0. -1.
       -2   -1    0    0    0  501  0.00000000000E+00  0.00000000000E+00 -0.12314057483E+04  0.12314057483E+04  0.25500000920E-02 0.  1.
    10030    2    1    2    0    0  0.00000000000E+00  0.00000000000E+00  0.25902781395E+03  0.27218393106E+04  0.27094858967E+04 0.  0.
        4    1    3    3  502    0  0.33612525552E+03 -0.26687641835E+03  0.14203330107E+04  0.14837623409E+04  0.12699999809E+01 0. -1.
       -4    1    3    3    0  502 -0.33612525552E+03  0.26687641835E+03 -0.11613051968E+04  0.12380769697E+04  0.12699999809E+01 0.  1.
</event>
<event>
 5   0  0.4655882E-06  0.2704151E+04  0.7818609E-02  0.8333659E-01
       -2   -1    0    0    0  501  0.00000000000E+00  0.00000000000E+00  0.12062352612E+04  0.12062352612E+04  0.25500000920E-02 0. -1.
        2   -1    0    0  501    0  0.00000000000E+00  0.00000000000E+00 -0.15155482639E+04  0.15155482639E+04  0.25500000920E-02 0.  1.
    10030    2    1    2    0    0  0.00000000000E+00  0.00000000000E+00 -0.30931300275E+03  0.27217835251E+04  0.27041507029E+04 0.  0.
        1    1    3    3  502    0  0.40687200507E+03 -0.68047739114E+03 -0.12570210808E+04  0.14861683303E+04  0.50400001928E-02 0.  1.
       -1    1    3    3    0  502 -0.40687200507E+03  0.68047739114E+03  0.94770807807E+03  0.12356151948E+04  0.50400001928E-02 0. -1.
</event>
<event>
 5   0  0.1771016E-06  0.2692006E+04  0.7818609E-02  0.8337604E-01
       -1   -1    0    0    0  501  0.00000000000E+00  0.00000000000E+00  0.10429292665E+04  0.10429292665E+04  0.50400001928E-02 0. -1.
        1   -1    0    0  501    0  0.00000000000E+00  0.00000000000E+00 -0.17371490034E+04  0.17371490034E+04  0.50400001928E-02 0.  1.
    10030    2    1    2    0    0  0.00000000000E+00  0.00000000000E+00 -0.69421973684E+03  0.27800782699E+04  0.26920055988E+04 0.  0.
        2    1    3    3  502    0 -0.39429810375E+03  0.82315508141E+02 -0.16734476983E+04  0.17212420040E+04  0.25500000920E-02 0.  1.
       -2    1    3    3    0  502  0.39429810375E+03 -0.82315508141E+02  0.97922796144E+03  0.10588362659E+04  0.25500000920E-02 0. -1.
</event>
<event>
 5   0  0.4448804E-06  0.2689536E+04  0.7818609E-02  0.8338408E-01
       -2   -1    0    0    0  501  0.00000000000E+00  0.00000000000E+00  0.14502060705E+04  0.14502060705E+04  0.25500000920E-02 0.  1.
        2   -1    0    0  501    0  0.00000000000E+00  0.00000000000E+00 -0.12469961009E+04  0.12469961009E+04  0.25500000920E-02 0. -1.
    10030    2    1    2    0    0  0.00000000000E+00  0.00000000000E+00  0.20320996959E+03  0.26972021713E+04  0.26895362540E+04 0.  0.
        2    1    3    3  502    0  0.86990758092E+03  0.66777602110E+03  0.88211459922E+03  0.14074054781E+04  0.25500000920E-02 0.  1.
       -2    1    3    3    0  502 -0.86990758092E+03 -0.66777602110E+03 -0.67890462963E+03  0.12897966932E+04  0.25500000920E-02 0. -1.
</event>
<event>
 5   0  0.4655882E-06  0.2701195E+04  0.7818609E-02  0.8334617E-01
        2   -1    0    0  501    0  0.00000000000E+00  0.00000000000E+00  0.19741475875E+04  0.19741475875E+04  0.25500000920E-02 0. -1.
       -2   -1    0    0    0  501  0.00000000000E+00  0.00000000000E+00 -0.92400063599E+03  0.92400063600E+03  0.25500000920E-02 0.  1.
    10030    2    1    2    0    0  0.00000000000E+00  0.00000000000E+00  0.10501469515E+04  0.28981482235E+04  0.27011950144E+04 0.  0.
        1    1    3    3  502    0  0.28800652763E+03 -0.49027636492E+03  0.18394667680E+04  0.19253458558E+04  0.50400001928E-02 0. -1.
       -1    1    3    3    0  502 -0.28800652763E+03  0.49027636492E+03 -0.78931981645E+03  0.97280236771E+03  0.50400001928E-02 0.  1.
</event>
<event>
 5   0  0.4487186E-06  0.2702138E+04  0.7818609E-02  0.8334311E-01
        2   -1    0    0  501    0  0.00000000000E+00  0.00000000000E+00  0.18895682405E+04  0.18895682405E+04  0.25500000920E-02 0. -1.
       -2   -1    0    0    0  501  0.00000000000E+00  0.00000000000E+00 -0.96603436843E+03  0.96603436843E+03  0.25500000920E-02 0.  1.
    10030    2    1    2    0    0  0.00000000000E+00  0.00000000000E+00  0.92353387211E+03  0.28556026090E+04  0.27021383102E+04 0.  0.
        3    1    3    3  502    0 -0.40097324904E+03 -0.27033668320E+03 -0.87143862475E+03  0.99662769159E+03  0.10100000352E+00 0.  1.
       -3    1    3    3    0  502  0.40097324904E+03  0.27033668320E+03  0.17949724969E+04  0.18589749174E+04  0.10100000352E+00 0. -1.
</event>
<event>
 5   0  0.4448804E-06  0.2693857E+04  0.7818609E-02  0.8337001E-01
       -2   -1    0    0    0  501  0.00000000000E+00  0.00000000000E+00  0.12262919292E+04  0.12262919292E+04  0.25500000920E-02 0. -1.
        2   -1    0    0  501    0  0.00000000000E+00  0.00000000000E+00 -0.14794323479E+04  0.14794323479E+04  0.25500000920E-02 0.  1.
    10030    2    1    2    0    0  0.00000000000E+00  0.00000000000E+00 -0.25314041866E+03  0.27057242771E+04  0.26938566762E+04 0.  0.
        2    1    3    3  502    0  0.12327059195E+04 -0.52938524581E+03 -0.60276408429E+01  0.13415844941E+04  0.25500000920E-02 0. -1.
       -2    1    3    3    0  502 -0.12327059195E+04  0.52938524581E+03 -0.24711277782E+03  0.13641397830E+04  0.25500000920E-02 0.  1.
</event>
<event>
 5   0  0.1732312E-06  0.2708030E+04  0.7818609E-02  0.8332404E-01
        1   -1    0    0  501    0  0.00000000000E+00  0.00000000000E+00  0.12392889349E+04  0.12392889349E+04  0.50400001928E-02 0.  1.
       -1   -1    0    0    0  501  0.00000000000E+00  0.00000000000E+00 -0.14793612958E+04  0.14793612958E+04  0.50400001928E-02 0. -1.
    10030    2    1    2    0    0  0.00000000000E+00  0.00000000000E+00 -0.24007236088E+03  0.27186502307E+04  0.27080296044E+04 0.  0.
        5    1    3    3  502    0 -0.40608268346E+03 -0.75033300451E+03  0.93548218493E+03  0.12661168081E+04  0.46999998093E+01 0.  1.
       -5    1    3    3    0  502  0.40608268346E+03  0.75033300451E+03 -0.11755545458E+04  0.14525334225E+04  0.46999998093E+01 0. -1.
</event>
<event>
 5   0  0.4439357E-06  0.2653337E+04  0.7818609E-02  0.8350306E-01
        2   -1    0    0  501    0  0.00000000000E+00  0.00000000000E+00  0.95847616964E+03  0.95847616965E+03  0.25500000920E-02 0. -1.
       -2   -1    0    0    0  501  0.00000000000E+00  0.00000000000E+00 -0.18362998440E+04  0.18362998440E+04  0.25500000920E-02 0.  1.
    10030    2    1    2    0    0  0.00000000000E+00  0.00000000000E+00 -0.87782367437E+03  0.27947760137E+04  0.26533372502E+04 0.  0.
        4    1    3    3  502    0 -0.11757244582E+04  0.62978280521E+02 -0.10828547085E+04  0.15996468979E+04  0.12699999809E+01 0.  1.
       -4    1    3    3    0  502  0.11757244582E+04 -0.62978280521E+02  0.20503103413E+03  0.11951291157E+04  0.12699999809E+01 0. -1.
</event>
<event>
 5   0  0.1753474E-06  0.2700390E+04  0.7818609E-02  0.8334878E-01
       -1   -1    0    0    0  501  0.00000000000E+00  0.00000000000E+00  0.93277618681E+03  0.93277618682E+03  0.50400001928E-02 0.  1.
        1   -1    0    0  501    0  0.00000000000E+00  0.00000000000E+00 -0.19544100959E+04  0.19544100959E+04  0.50400001928E-02 0. -1.
    10030    2    1    2    0    0  0.00000000000E+00  0.00000000000E+00 -0.10216339091E+04  0.28871862828E+04  0.27003904879E+04 0.  0.
        3    1    3    3  502    0 -0.83577789393E+03  0.82157190589E+03 -0.12276594799E+04  0.16972486245E+04  0.10100000352E+00 0. -1.
       -3    1    3    3    0  502  0.83577789393E+03 -0.82157190589E+03  0.20602557079E+03  0.11899376583E+04  0.10100000352E+00 0.  1.
</event>
<event>
 5   0  0.1753474E-06  0.2698189E+04  0.7818609E-02  0.8335593E-01
        1   -1    0    0  501    0  0.00000000000E+00  0.00000000000E+00  0.16378297244E+04  0.16378297244E+04  0.50400001928E-02 0. -1.
       -1   -1    0    0    0  501  0.00000000000E+00  0.00000000000E+00 -0.11112605502E+04  0.11112605502E+04  0.50400001928E-02 0.  1.
    10030    2    1    2    0    0  0.00000000000E+00  0.00000000000E+00  0.52656917418E+03  0.27490902746E+04  0.26981886967E+04 0.  0.
        3    1    3    3  502    0  0.51328894890E+03 -0.65643112968E+03 -0.81771551584E+03  0.11674870655E+04  0.10100000352E+00 0.  1.
       -3    1    3    3    0  502 -0.51328894890E+03  0.65643112968E+03  0.13442846900E+04  0.15816032091E+04  0.10100000352E+00 0. -1.
</event>
<event>
 5   0  0.4487186E-06  0.2697209E+04  0.7818609E-02  0.8335911E-01
       -2   -1    0    0    0  501  0.00000000000E+00  0.00000000000E+00  0.16451156528E+04  0.16451156528E+04  0.25500000920E-02 0.  1.
        2   -1    0    0  501    0  0.00000000000E+00  0.00000000000E+00 -0.11055357696E+04  0.11055357696E+04  0.25500000920E-02 0. -1.
    10030    2    1    2    0    0  0.00000000000E+00  0.00000000000E+00  0.53957988317E+03  0.27506514224E+04  0.26972090756E+04 0.  0.
        3    1    3    3  502    0 -0.96272061912E+03 -0.77505312827E+03  0.82010770805E+03  0.14832784651E+04  0.10100000352E+00 0.  1.
       -3    1    3    3    0  502  0.96272061912E+03  0.77505312827E+03 -0.28052782488E+03  0.12673729573E+04  0.10100000352E+00 0. -1.
</event>
<event>
 5   0  0.1753474E-06  0.2692870E+04  0.7818609E-02  0.8337322E-01
        1   -1    0    0  501    0  0.00000000000E+00  0.00000000000E+00  0.16612694476E+04  0.16612694476E+04  0.50400001928E-02 0.  1.
       -1   -1    0    0    0  501  0.00000000000E+00  0.00000000000E+00 -0.10912660012E+04  0.10912660012E+04  0.50400001928E-02 0. -1.
    10030    2    1    2    0    0  0.00000000000E+00  0.00000000000E+00  0.57000344637E+03  0.27525354488E+04  0.26928697459E+04 0.  0.
        3    1    3    3  502    0  0.11481410481E+04  0.18764372315E+03 -0.40784337019E+03  0.12327912467E+04  0.10100000352E+00 0. -1.
       -3    1    3    3    0  502 -0.11481410481E+04 -0.18764372315E+03  0.97784681657E+03  0.15197442021E+04  0.10100000352E+00 0.  1.
</event>
<event>
 5   0  0.1828511E-06  0.2686187E+04  0.7818609E-02  0.8339501E-01
       -1   -1    0    0    0  501  0.00000000000E+00  0.00000000000E+00  0.11476003134E+04  0.11476003134E+04  0.50400001928E-02 0.  1.
        1   -1    0    0  501    0  0.00000000000E+00  0.00000000000E+00 -0.15718885799E+04  0.15718885799E+04  0.50400001928E-02 0. -1.
    10030    2    1    2    0    0  0.00000000000E+00  0.00000000000E+00 -0.42428826652E+03  0.27194888932E+04  0.26861867596E+04 0.  0.
        4    1    3    3  502    0 -0.56701901649E+01  0.55414804701E+02 -0.15707179960E+04  0.15717059481E+04  0.12699999809E+01 0. -1.
       -4    1    3    3    0  502  0.56701901649E+01 -0.55414804701E+02  0.11464297294E+04  0.11477829451E+04  0.12699999809E+01 0.  1.
</event>
<event>
 5   0  0.1732312E-06  0.2699418E+04  0.7818609E-02  0.8335194E-01
       -1   -1    0    0    0  501  0.00000000000E+00  0.00000000000E+00  0.60613258144E+03  0.60613258146E+03  0.50400001928E-02 0. -1.
        1   -1    0    0  501    0  0.00000000000E+00  0.00000000000E+00 -0.30054726052E+04  0.30054726052E+04  0.50400001928E-02 0.  1.
    10030    2    1    2    0    0  0.00000000000E+00  0.00000000000E+00 -0.23993400237E+04  0.36116051866E+04  0.26994183586E+04 0.  0.
        5    1    3    3  502    0 -0.80023299546E+03  0.38000694714E+03  0.16272039354E+03  0.90070979975E+03  0.46999998093E+01 0. -1.
       -5    1    3    3    0  502  0.80023299546E+03 -0.38000694714E+03 -0.25620604173E+04  0.27108953869E+04  0.46999998093E+01 0.  1.
</event>
<event>
 5   0  0.1828511E-06  0.2695546E+04  0.7818609E-02  0.8336451E-01
       -1   -1    0    0    0  501  0.00000000000E+00  0.00000000000E+00  0.84667795661E+03  0.84667795663E+03  0.50400001928E-02 0.  1.
        1   -1    0    0  501    0  0.00000000000E+00  0.00000000000E+00 -0.21454351476E+04  0.21454351476E+04  0.50400001928E-02 0. -1.
    10030    2    1    2    0    0  0.00000000000E+00  0.00000000000E+00 -0.12987571909E+04  0.29921131042E+04  0.26955464357E+04 0.  0.
        4    1    3    3  502    0 -0.34083875927E+03  0.92148654059E+03 -0.16734790031E+04  0.19405777725E+04  0.12699999809E+01 0. -1.
       -4    1    3    3    0  502  0.34083875927E+03 -0.92148654059E+03  0.37472181221E+03  0.10515353317E+04  0.12699999809E+01 0.  1.
</event>
<event>
 5   0  0.4487186E-06  0.2690585E+04  0.7818609E-02  0.8338066E-01
       -2   -1    0    0    0  501  0.00000000000E+00  0.00000000000E+00  0.11301718368E+04  0.11301718368E+04  0.25500000920E-02 0.  1.
        2   -1    0    0  501    0  0.00000000000E+00  0.00000000000E+00 -0.16013596366E+04  0.16013596366E+04  0.25500000920E-02 0. -1.
    10030    2    1    2    0    0  0.00000000000E+00  0.00000000000E+00 -0.47118779980E+03  0.27315314735E+04  0.26905847409E+04 0.  0.
        3    1    3    3  502    0  0.32046459911E+02 -0.57803009585E+03  0.99724501903E+03  0.11531016458E+04  0.10100000352E+00 0.  1.
       -3    1    3    3    0  502 -0.32046459911E+02  0.57803009585E+03 -0.14684328188E+04  0.15784298277E+04  0.10100000352E+00 0. -1.
</event>
<event>
 5   0  0.1723605E-06  0.2706528E+04  0.7818609E-02  0.8332890E-01
       -1   -1    0    0    0  501  0.00000000000E+00  0.00000000000E+00  0.52016344542E+03  0.52016344544E+03  0.50400001928E-02 0. -1.
        1   -1    0    0  501    0  0.00000000000E+00  0.00000000000E+00 -0.35206694858E+04  0.35206694858E+04  0.50400001928E-02 0.  1.
    10030    2    1    2    0    0  0.00000000000E+00  0.00000000000E+00 -0.30005060404E+04  0.40408329313E+04  0.27065280859E+04 0.  0.
        1    1    3    3  502    0 -0.62846489247E+03  0.14663718789E+03 -0.32761346477E+04  0.33390910164E+04  0.50400001928E-02 0.  1.
       -1    1    3    3    0  502  0.62846489247E+03 -0.14663718789E+03  0.27562860727E+03  0.70174191489E+03  0.50400001928E-02 0. -1.
</event>
<event>
 5   0  0.4487186E-06  0.2695056E+04  0.7818609E-02  0.8336611E-01
       -2   -1    0    0    0  501  0.00000000000E+00  0.00000000000E+00  0.83443868410E+03  0.83443868410E+03  0.25500000920E-02 0. -1.
        2   -1    0    0  501    0  0.00000000000E+00  0.00000000000E+00 -0.21761123094E+04  0.21761123094E+04  0.25500000920E-02 0.  1.
    10030    2    1    2    0    0  0.00000000000E+00  0.00000000000E+00 -0.13416736253E+04  0.30105509935E+04  0.26950564312E+04 0.  0.
        3    1    3    3  502    0  0.71342928622E+03  0.88664490148E+03 -0.14769143427E+04  0.18645097248E+04  0.10100000352E+00 0.  1.
       -3    1    3    3    0  502 -0.71342928622E+03 -0.88664490148E+03  0.13524071745E+03  0.11460412687E+04  0.10100000352E+00 0. -1.
</event>
<event>
 5   0  0.4439357E-06  0.2697638E+04  0.7818609E-02  0.8335772E-01
       -2   -1    0    0    0  501  0.00000000000E+00  0.00000000000E+00  0.87864436784E+03  0.87864436784E+03  0.25500000920E-02 0. -1.
        2   -1    0    0  501    0  0.00000000000E+00  0.00000000000E+00 -0.20705898844E+04  0.20705898844E+04  0.25500000920E-02 0.  1.
    10030    2    1    2    0    0  0.00000000000E+00  0.00000000000E+00 -0.11919455166E+04  0.29492342523E+04  0.26976375887E+04 0.  0.
        4    1    3    3  502    0 -0.98100890650E+03 -0.24829114693E+03 -0.15709324636E+04  0.18686512211E+04  0.12699999809E+01 0. -1.
       -4    1    3    3    0  502  0.98100890650E+03  0.24829114693E+03  0.37898694697E+03  0.10805830311E+04  0.12699999809E+01 0.  1.
</event>
<event>
 5   0  0.1723605E-06  0.2703254E+04  0.7818609E-02  0.8333950E-01
       -1   -1    0    0    0  501  0.00000000000E+00  0.00000000000E+00  0.93018496289E+03  0.93018496290E+03  0.50400001928E-02 0. -1.
        1   -1    0    0  501    0  0.00000000000E+00  0.00000000000E+00 -0.19640135452E+04  0.19640135452E+04  0.50400001928E-02 0.  1.
    10030    2    1    2    0    0  0.00000000000E+00  0.00000000000E+00 -0.10338285823E+04  0.28941985081E+04  0.27032542365E+04 0.  0.
        1    1    3    3  502    0 -0.32014041887E+03  0.97679878505E+03 -0.14565574291E+04  0.17827465604E+04  0.50400001928E-02 0.  1.
       -1    1    3    3    0  502  0.32014041887E+03 -0.97679878505E+03  0.42272884676E+03  0.11114519478E+04  0.50400001928E-02 0. -1.
</event>
<event>
 5   0  0.1723605E-06  0.2677305E+04  0.7818609E-02  0.8342407E-01
       -1   -1    0    0    0  501  0.00000000000E+00  0.00000000000E+00  0.86407098002E+03  0.86407098004E+03  0.50400001928E-02 0. -1.
        1   -1    0    0  501    0  0.00000000000E+00  0.00000000000E+00 -0.20738920824E+04  0.20738920824E+04  0.50400001928E-02 0.  1.
    10030    2    1    2    0    0  0.00000000000E+00  0.00000000000E+00 -0.12098211024E+04  0.29379630624E+04  0.26773045879E+04 0.  0.
        1    1    3    3  502    0 -0.52198468345E+02 -0.12585517902E+04 -0.11021395285E+04  0.16737349936E+04  0.50400001928E-02 0.  1.
       -1    1    3    3    0  502  0.52198468345E+02  0.12585517902E+04 -0.10768157389E+03  0.12642280688E+04  0.50400001928E-02 0. -1.
</event>
<event>
 5   0  0.4448804E-06  0.2706480E+04  0.7818609E-02  0.8332906E-01
       -2   -1    0    0    0  501  0.00000000000E+00  0.00000000000E+00  0.70123502486E+03  0.70123502487E+03  0.25500000920E-02 0. -1.
        2   -1    0    0  501    0  0.00000000000E+00  0.00000000000E+00 -0.26114759374E+04  0.26114759374E+04  0.25500000920E-02 0.  1.
    10030    2    1    2    0    0  0.00000000000E+00  0.00000000000E+00 -0.19102409125E+04  0.33127109623E+04  0.27064799234E+04 0.  0.
        2    1    3    3  502    0  0.99763597316E+03 -0.91168781360E+03 -0.10399757966E+04  0.17052864457E+04  0.25500000920E-02 0. -1.
       -2    1    3    3    0  502 -0.99763597316E+03  0.91168781360E+03 -0.87026511597E+03  0.16074245166E+04  0.25500000920E-02 0.  1.
</event>
<event>
 5   0  0.4487186E-06  0.2694994E+04  0.7818609E-02  0.8336631E-01
        2   -1    0    0  501    0  0.00000000000E+00  0.00000000000E+00  0.23689726224E+04  0.23689726224E+04  0.25500000920E-02 0.  1.
       -2   -1    0    0    0  501  0.00000000000E+00  0.00000000000E+00 -0.76647047055E+03  0.76647047055E+03  0.25500000920E-02 0. -1.
    10030    2    1    2    0    0  0.00000000000E+00  0.00000000000E+00  0.16025021519E+04  0.31354430930E+04  0.26949935515E+04 0.  0.
        3    1    3    3  502    0  0.96606321288E+03 -0.42867501461E+03  0.17737492322E+04  0.20647582784E+04  0.10100000352E+00 0.  1.
       -3    1    3    3    0  502 -0.96606321288E+03  0.42867501461E+03 -0.17124708030E+03  0.10706848146E+04  0.10100000352E+00 0. -1.
</event>
<event>
 5   0  0.1828511E-06  0.2697291E+04  0.7818609E-02  0.8335884E-01
        1   -1    0    0  501    0  0.00000000000E+00  0.00000000000E+00  0.14578106462E+04  0.14578106462E+04  0.50400001928E-02 0. -1.
       -1   -1    0    0    0  501  0.00000000000E+00  0.00000000000E+00 -0.12476554030E+04  0.12476554031E+04  0.50400001928E-02 0.  1.
    10030    2    1    2    0    0  0.00000000000E+00  0.00000000000E+00  0.21015524316E+03  0.27054660493E+04  0.26972914780E+04 0.  0.
        4    1    3    3  502    0 -0.39495355522E+03  0.92928577289E+03 -0.79165835420E+03  0.12830763505E+04  0.12699999809E+01 0.  1.
       -4    1    3    3    0  502  0.39495355522E+03 -0.92928577289E+03  0.10018135974E+04  0.14223896988E+04  0.12699999809E+01 0. -1.
</event>
<event>
 5   0  0.1771016E-06  0.2675235E+04  0.7818609E-02  0.8343085E-01
       -1   -1    0    0    0  501  0.00000000000E+00  0.00000000000E+00  0.96171659183E+03  0.96171659185E+03  0.50400001928E-02 0.  1.
        1   -1    0    0  501    0  0.00000000000E+00  0.00000000000E+00 -0.18604454351E+04  0.18604454351E+04  0.50400001928E-02 0. -1.
    10030    2    1    2    0    0  0.00000000000E+00  0.00000000000E+00 -0.89872884325E+03  0.28221620269E+04  0.26752354985E+04 0.  0.
        2    1    3    3  502    0  0.83616329612E+03  0.37279214482E+03 -0.14781575137E+04  0.17387043096E+04  0.25500000920E-02 0. -1.
       -2    1    3    3    0  502 -0.83616329612E+03 -0.37279214482E+03  0.57942867046E+03  0.10834577173E+04  0.25500000920E-02 0.  1.
</event>
<event>
 5   0  0.1723605E-06  0.2690623E+04  0.7818609E-02  0.8338054E-01
        1   -1    0    0  501    0  0.00000000000E+00  0.00000000000E+00  0.20426916710E+04  0.20426916710E+04  0.50400001928E-02 0. -1.
       -1   -1    0    0    0  501  0.00000000000E+00  0.00000000000E+00 -0.88601869891E+03  0.88601869892E+03  0.50400001928E-02 0.  1.
    10030    2    1    2    0    0  0.00000000000E+00  0.00000000000E+00  0.11566729721E+04  0.29287103699E+04  0.26906229886E+04 0.  0.
        1    1    3    3  502    0 -0.54046994698E+03  0.12122684892E+04  0.81721024991E+03  0.15586966498E+04  0.50400001928E-02 0.  1.
       -1    1    3    3    0  502  0.54046994698E+03 -0.12122684892E+04  0.33946272221E+03  0.13700137201E+04  0.50400001928E-02 0. -1.
</event>
<event>
 5   0  0.4448804E-06  0.2694943E+04  0.7818609E-02  0.8336648E-01
       -2   -1    0    0    0  501  0.00000000000E+00  0.00000000000E+00  0.86453595919E+03  0.86453595920E+03  0.25500000920E-02 0.  1.
        2   -1    0    0  501    0  0.00000000000E+00  0.00000000000E+00 -0.21001777701E+04  0.21001777701E+04  0.25500000920E-02 0. -1.
    10030    2    1    2    0    0  0.00000000000E+00  0.00000000000E+00 -0.12356418109E+04  0.29647137293E+04  0.26949428216E+04 0.  0.
        2    1    3    3  502    0  0.32095575794E+03 -0.71012481259E+03  0.59148633943E+03  0.97833835546E+03  0.25500000920E-02 0.  1.
       -2    1    3    3    0  502 -0.32095575794E+03  0.71012481259E+03 -0.18271281503E+04  0.19863753738E+04  0.25500000920E-02 0. -1.
</event>
<event>
 5   0  0.1732312E-06  0.2661484E+04  0.7818609E-02  0.8347611E-01
       -1   -1    0    0    0  501  0.00000000000E+00  0.00000000000E+00  0.10864027837E+04  0.10864027837E+04  0.50400001928E-02 0.  1.
        1   -1    0    0  501    0  0.00000000000E+00  0.00000000000E+00 -0.16300341922E+04  0.16300341922E+04  0.50400001928E-02 0. -1.
    10030    2    1    2    0    0  0.00000000000E+00  0.00000000000E+00 -0.54363140856E+03  0.27164369759E+04  0.26614835592E+04 0.  0.
        5    1    3    3  502    0  0.68605817895E+03  0.71299302575E+03  0.63639826629E+03  0.11764606764E+04  0.46999998093E+01 0.  1.
       -5    1    3    3    0  502 -0.68605817895E+03 -0.71299302575E+03 -0.11800296749E+04  0.15399762996E+04  0.46999998093E+01 0. -1.
</event>
<event>
 5   0  0.1753474E-06  0.2694637E+04  0.7818609E-02  0.8336747E-01
       -1   -1    0    0    0  501  0.00000000000E+00  0.00000000000E+00  0.84177687611E+03  0.84177687613E+03  0.50400001928E-02 0. -1.
        1   -1    0    0  501    0  0.00000000000E+00  0.00000000000E+00 -0.21564711645E+04  0.21564711645E+04  0.50400001928E-02 0.  1.
    10030    2    1    2    0    0  0.00000000000E+00  0.00000000000E+00 -0.13146942884E+04  0.29982480406E+04  0.26946373116E+04 0.  0.
        3    1    3    3  502    0 -0.10543283434E+04 -0.22470579656E+03  0.24190032391E+03  0.11048152459E+04  0.10100000352E+00 0. -1.
       -3    1    3    3    0  502  0.10543283434E+04  0.22470579656E+03 -0.15565946123E+04  0.18934327947E+04  0.10100000352E+00 0.  1.
</event>
<event>
 5   0  0.4487186E-06  0.2623566E+04  0.7818609E-02  0.8360240E-01
        2   -1    0    0  501    0  0.00000000000E+00  0.00000000000E+00  0.21456712706E+04  0.21456712706E+04  0.25500000920E-02 0. -1.
       -2   -1    0    0    0  501  0.00000000000E+00  0.00000000000E+00 -0.80197516000E+03  0.80197516001E+03  0.25500000920E-02 0.  1.
    10030    2    1    2    0    0  0.00000000000E+00  0.00000000000E+00  0.13436961106E+04  0.29476464306E+04  0.26235663213E+04 0.  0.
        3    1    3    3  502    0  0.54380504157E+03 -0.33439335223E+03 -0.61567230410E+03  0.88690204278E+03  0.10100000352E+00 0.  1.
       -3    1    3    3    0  502 -0.54380504157E+03  0.33439335223E+03  0.19593684147E+04  0.20607443878E+04  0.10100000352E+00 0. -1.
</event>
<event>
 5   0  0.4487186E-06  0.2710636E+04  0.7818609E-02  0.8331562E-01
       -2   -1    0    0    0  501  0.00000000000E+00  0.00000000000E+00  0.10271593789E+04  0.10271593789E+04  0.25500000920E-02 0. -1.
        2   -1    0    0  501    0  0.00000000000E+00  0.00000000000E+00 -0.17883177424E+04  0.17883177424E+04  0.25500000920E-02 0.  1.
    10030    2    1    2    0    0  0.00000000000E+00  0.00000000000E+00 -0.76115836348E+03  0.28154771213E+04  0.27106363397E+04 0.  0.
        3    1    3    3  502    0 -0.86274692366E+03  0.86824365767E+03  0.22391690178E+03  0.12443143061E+04  0.10100000352E+00 0. -1.
       -3    1    3    3    0  502  0.86274692366E+03 -0.86824365767E+03 -0.98507526526E+03  0.15711628152E+04  0.10100000352E+00 0.  1.
</event>
<event>
 5   0  0.1723605E-06  0.2728718E+04  0.7818609E-02  0.8325747E-01
       -1   -1    0    0    0  501  0.00000000000E+00  0.00000000000E+00  0.10458010195E+04  0.10458010195E+04  0.50400001928E-02 0. -1.
        1   -1    0    0  501    0  0.00000000000E+00  0.00000000000E+00 -0.17799523949E+04  0.17799523949E+04  0.50400001928E-02 0.  1.
    10030    2    1    2    0    0  0.00000000000E+00  0.00000000000E+00 -0.73415137541E+03  0.28257534145E+04  0.27287184020E+04 0.  0.
        1    1    3    3  502    0  0.30371178845E+03  0.10230583968E+04 -0.12473550534E+04  0.16415797157E+04  0.50400001928E-02 0.  1.
       -1    1    3    3    0  502 -0.30371178845E+03 -0.10230583968E+04  0.51320367797E+03  0.11841736988E+04  0.50400001928E-02 0. -1.
</event>
<event>
 5   0  0.4655882E-06  0.2566206E+04  0.7818609E-02  0.8379772E-01
        2   -1    0    0  501    0  0.00000000000E+00  0.00000000000E+00  0.60897199253E+03  0.60897199253E+03  0.25500000920E-02 0.  1.
       -2   -1    0    0    0  501  0.00000000000E+00  0.00000000000E+00 -0.27034969194E+04  0.27034969194E+04  0.25500000920E-02 0. -1.
    10030    2    1    2    0    0  0.00000000000E+00  0.00000000000E+00 -0.20945249269E+04  0.33124689120E+04  0.25662064654E+04 0.  0.
        1    1    3    3  502    0 -0.12301640376E+04 -0.32007800912E+03 -0.82146249782E+03  0.15134576725E+04  0.50400001928E-02 0. -1.
       -1    1    3    3    0  502  0.12301640376E+04  0.32007800912E+03 -0.12730624291E+04  0.17990112394E+04  0.50400001928E-02 0.  1.
</event>
<event>
 5   0  0.1828511E-06  0.2697474E+04  0.7818609E-02  0.8335825E-01
       -1   -1    0    0    0  501  0.00000000000E+00  0.00000000000E+00  0.12220164993E+04  0.12220164993E+04  0.50400001928E-02 0.  1.
        1   -1    0    0  501    0  0.00000000000E+00  0.00000000000E+00 -0.14885977028E+04  0.14885977028E+04  0.50400001928E-02 0. -1.
    10030    2    1    2    0    0  0.00000000000E+00  0.00000000000E+00 -0.26658120352E+03  0.27106142021E+04  0.26974735985E+04 0.  0.
        4    1    3    3  502    0  0.28269010122E+03  0.75966511677E+03  0.94996107964E+03  0.12487723767E+04  0.12699999809E+01 0.  1.
       -4    1    3    3    0  502 -0.28269010122E+03 -0.75966511677E+03 -0.12165422832E+04  0.14618418254E+04  0.12699999809E+01 0. -1.
</event>
<event>
 5   0  0.1723605E-06  0.2711677E+04  0.7818609E-02  0.8331226E-01
       -1   -1    0    0    0  501  0.00000000000E+00  0.00000000000E+00  0.12259079279E+04  0.12259079279E+04  0.50400001928E-02 0. -1.
        1   -1    0    0  501    0  0.00000000000E+00  0.00000000000E+00 -0.14995402950E+04  0.14995402950E+04  0.50400001928E-02 0.  1.
    10030    2    1    2    0    0  0.00000000000E+00  0.00000000000E+00 -0.27363236711E+03  0.27254482230E+04  0.27116772197E+04 0.  0.
        1    1    3    3  502    0  0.40832731363E+03  0.12771427250E+04 -0.33901837842E+03  0.13830250164E+04  0.50400001928E-02 0.  1.
       -1    1    3    3    0  502 -0.40832731363E+03 -0.12771427250E+04  0.65386011316E+02  0.13424232066E+04  0.50400001928E-02 0. -1.
</event>
<event>
 5   0  0.1771016E-06  0.2695790E+04  0.7818609E-02  0.8336372E-01
       -1   -1    0    0    0  501  0.00000000000E+00  0.00000000000E+00  0.12206624480E+04  0.12206624480E+04  0.50400001928E-02 0. -1.
        1   -1    0    0  501    0  0.00000000000E+00  0.00000000000E+00 -0.14883890874E+04  0.14883890874E+04  0.50400001928E-02 0.  1.
    10030    2    1    2    0    0  0.00000000000E+00  0.00000000000E+00 -0.26772663940E+03  0.27090515355E+04  0.26957898042E+04 0.  0.
        2    1    3    3  502    0 -0.44971951328E+03  0.10037863102E+04  0.64906247644E+03  0.12771517903E+04  0.25500000920E-02 0. -1.
       -2    1    3    3    0  502  0.44971951328E+03 -0.10037863102E+04 -0.91678911584E+03  0.14318997451E+04  0.25500000920E-02 0.  1.
</event>
<event>
 5   0  0.4487186E-06  0.2699687E+04  0.7818609E-02  0.8335106E-01
       -2   -1    0    0    0  501  0.00000000000E+00  0.00000000000E+00  0.21627189848E+04  0.21627189848E+04  0.25500000920E-02 0.  1.
        2   -1    0    0  501    0  0.00000000000E+00  0.00000000000E+00 -0.84249406197E+03  0.84249406197E+03  0.25500000920E-02 0. -1.
    10030    2    1    2    0    0  0.00000000000E+00  0.00000000000E+00  0.13202249228E+04  0.30052130468E+04  0.26996873170E+04 0.  0.
        3    1    3    3  502    0 -0.11483895079E+04  0.61937564194E+03  0.27505633354E+03  0.13334469035E+04  0.10100000352E+00 0. -1.
       -3    1    3    3    0  502  0.11483895079E+04 -0.61937564194E+03  0.10451685893E+04  0.16717661433E+04  0.10100000352E+00 0.  1.
</event>
<event>
 5   0  0.1828511E-06  0.2699394E+04  0.7818609E-02  0.8335202E-01
       -1   -1    0    0    0  501  0.00000000000E+00  0.00000000000E+00  0.10441126616E+04  0.10441126616E+04  0.50400001928E-02 0.  1.
        1   -1    0    0  501    0  0.00000000000E+00  0.00000000000E+00 -0.17447173673E+04  0.17447173673E+04  0.50400001928E-02 0. -1.
    10030    2    1    2    0    0  0.00000000000E+00  0.00000000000E+00 -0.70060470572E+03  0.27888300288E+04  0.26993936312E+04 0.  0.
        4    1    3    3  502    0 -0.11977418677E+04 -0.60999838473E+03 -0.47681893600E+03  0.14261982757E+04  0.12699999809E+01 0. -1.
       -4    1    3    3    0  502  0.11977418677E+04  0.60999838473E+03 -0.22378576972E+03  0.13626317531E+04  0.12699999809E+01 0.  1.
</event>
<event>
 5   0  0.1771016E-06  0.2704838E+04  0.7818609E-02  0.8333437E-01
        1   -1    0    0  501    0  0.00000000000E+00  0.00000000000E+00  0.16321960574E+04  0.16321960574E+04  0.50400001928E-02 0. -1.
       -1   -1    0    0    0  501  0.00000000000E+00  0.00000000000E+00 -0.11205986218E+04  0.11205986218E+04  0.50400001928E-02 0.  1.
    10030    2    1    2    0    0  0.00000000000E+00  0.00000000000E+00  0.51159743558E+03  0.27527946792E+04  0.27048376309E+04 0.  0.
        2    1    3    3  502    0 -0.92015127183E+03 -0.97525911263E+03  0.75951229861E+02  0.13429733017E+04  0.25500000920E-02 0. -1.
       -2    1    3    3    0  502  0.92015127183E+03  0.97525911263E+03  0.43564620572E+03  0.14098213775E+04  0.25500000920E-02 0.  1.
</event>
<event>
 5   0  0.4448804E-06  0.2711784E+04  0.7818609E-02  0.8331191E-01
       -2   -1    0    0    0  501  0.00000000000E+00  0.00000000000E+00  0.12793618203E+04  0.12793618203E+04  0.25500000920E-02 0.  1.
        2   -1    0    0  501    0  0.00000000000E+00  0.00000000000E+00 -0.14370004953E+04  0.14370004953E+04  0.25500000920E-02 0. -1.
    10030    2    1    2    0    0  0.00000000000E+00  0.00000000000E+00 -0.15763867497E+03  0.27163623156E+04  0.27117843346E+04 0.  0.
        2    1    3    3  502    0  0.94046978411E+03  0.19379294264E+03  0.88008690065E+03  0.13025329447E+04  0.25500000920E-02 0.  1.
       -2    1    3    3    0  502 -0.94046978411E+03 -0.19379294264E+03 -0.10377255756E+04  0.14138293708E+04  0.25500000920E-02 0. -1.
</event>
<event>
 5   0  0.1753474E-06  0.2694043E+04  0.7818609E-02  0.8336940E-01
        1   -1    0    0  501    0  0.00000000000E+00  0.00000000000E+00  0.21874427144E+04  0.21874427144E+04  0.50400001928E-02 0.  1.
       -1   -1    0    0    0  501  0.00000000000E+00  0.00000000000E+00 -0.82949257433E+03  0.82949257435E+03  0.50400001928E-02 0. -1.
    10030    2    1    2    0    0  0.00000000000E+00  0.00000000000E+00  0.13579501401E+04  0.30169352888E+04  0.26940434209E+04 0.  0.
        3    1    3    3  502    0  0.62882072609E+03  0.92087541047E+02 -0.65104750127E+03  0.90981233224E+03  0.10100000352E+00 0. -1.
       -3    1    3    3    0  502 -0.62882072609E+03 -0.92087541047E+02  0.20089976413E+04  0.21071229565E+04  0.10100000352E+00 0.  1.
</event>
<event>
 5   0  0.4401659E-06  0.2680840E+04  0.7818609E-02  0.8341249E-01
       -2   -1    0    0    0  501  0.00000000000E+00  0.00000000000E+00  0.91604442116E+03  0.91604442117E+03  0.25500000920E-02 0.  1.
        2   -1    0    0  501    0  0.00000000000E+00  0.00000000000E+00 -0.19613954390E+04  0.19613954390E+04  0.25500000920E-02 0. -1.
    10030    2    1    2    0    0  0.00000000000E+00  0.00000000000E+00 -0.10453510178E+04  0.28774398601E+04  0.26808396816E+04 0.  0.
        5    1    3    3  502    0  0.79573342440E+03  0.44896829412E+03 -0.15753865775E+04  0.18211614894E+04  0.46999998093E+01 0. -1.
       -5    1    3    3    0  502 -0.79573342440E+03 -0.44896829412E+03  0.53003555975E+03  0.10562783707E+04  0.46999998093E+01 0.  1.
</event>
<event>
 5   0  0.1753474E-06  0.2698021E+04  0.7818609E-02  0.8335647E-01
        1   -1    0    0  501    0  0.00000000000E+00  0.00000000000E+00  0.13448008317E+04  0.13448008317E+04  0.50400001928E-02 0.  1.
       -1   -1    0    0    0  501  0.00000000000E+00  0.00000000000E+00 -0.13532334439E+04  0.13532334439E+04  0.50400001928E-02 0. -1.
    10030    2    1    2    0    0  0.00000000000E+00  0.00000000000E+00 -0.84326122512E+01  0.26980342756E+04  0.26980210976E+04 0.  0.
        3    1    3    3  502    0  0.67179127105E+03 -0.28994085728E+03  0.11291295305E+04  0.13454749048E+04  0.10100000352E+00 0.  1.
       -3    1    3    3    0  502 -0.67179127105E+03  0.28994085728E+03 -0.11375621428E+04  0.13525593708E+04  0.10100000352E+00 0. -1.
</event>
<event>
 5   0  0.4448804E-06  0.2698014E+04  0.7818609E-02  0.8335650E-01
        2   -1    0    0  501    0  0.00000000000E+00  0.00000000000E+00  0.16316559866E+04  0.16316559867E+04  0.25500000920E-02 0. -1.
       -2   -1    0    0    0  501  0.00000000000E+00  0.00000000000E+00 -0.11153211439E+04  0.11153211439E+04  0.25500000920E-02 0.  1.
    10030    2    1    2    0    0  0.00000000000E+00  0.00000000000E+00  0.51633484280E+03  0.27469771305E+04  0.26980143969E+04 0.  0.
        2    1    3    3  502    0  0.12401111773E+04  0.25622370608E+03  0.73168174340E+03  0.14624925618E+04  0.25500000920E-02 0. -1.
       -2    1    3    3    0  502 -0.12401111773E+04 -0.25622370608E+03 -0.21534690061E+03  0.12844845687E+04  0.25500000920E-02 0.  1.
</event>
<event>
 5   0  0.4448804E-06  0.2680758E+04  0.7818609E-02  0.8341276E-01
        2   -1    0    0  501    0  0.00000000000E+00  0.00000000000E+00  0.11010871442E+04  0.11010871442E+04  0.25500000920E-02 0. -1.
       -2   -1    0    0    0  501  0.00000000000E+00  0.00000000000E+00 -0.16316741131E+04  0.16316741131E+04  0.25500000920E-02 0.  1.
    10030    2    1    2    0    0  0.00000000000E+00  0.00000000000E+00 -0.53058696894E+03  0.27327612573E+04  0.26807576462E+04 0.  0.
        2    1    3    3  502    0  0.73890357610E+03 -0.76239505303E+03 -0.10993278940E+04  0.15283149316E+04  0.25500000920E-02 0.  1.
       -2    1    3    3    0  502 -0.73890357610E+03  0.76239505303E+03  0.56874092505E+03  0.12044463257E+04  0.25500000920E-02 0. -1.
</event>
<event>
 5   0  0.1723605E-06  0.2701087E+04  0.7818609E-02  0.8334652E-01
        1   -1    0    0  501    0  0.00000000000E+00  0.00000000000E+00  0.11019334145E+04  0.11019334145E+04  0.50400001928E-02 0. -1.
       -1   -1    0    0    0  501  0.00000000000E+00  0.00000000000E+00 -0.16552433075E+04  0.16552433075E+04  0.50400001928E-02 0.  1.
    10030    2    1    2    0    0  0.00000000000E+00  0.00000000000E+00 -0.55330989295E+03  0.27571767220E+04  0.27010871217E+04 0.  0.
        1    1    3    3  502    0 -0.10813720732E+04  0.66353382252E+03 -0.74922113510E+03  0.14734228869E+04  0.50400001928E-02 0.  1.
       -1    1    3    3    0  502  0.10813720732E+04 -0.66353382252E+03  0.19591124215E+03  0.12837538351E+04  0.50400001928E-02 0. -1.
</event>
<event>
 5   0  0.4487186E-06  0.2720524E+04  0.7818609E-02  0.8328376E-01
        2   -1    0    0  501    0  0.00000000000E+00  0.00000000000E+00  0.13101049749E+04  0.13101049749E+04  0.25500000920E-02 0. -1.
       -2   -1    0    0    0  501  0.00000000000E+00  0.00000000000E+00 -0.14123390421E+04  0.14123390421E+04  0.25500000920E-02 0.  1.
    10030    2    1    2    0    0  0.00000000000E+00  0.00000000000E+00 -0.10223406713E+03  0.27224440170E+04  0.27205237770E+04 0.  0.
        3    1    3    3  502    0 -0.37970124016E+03 -0.95568199391E+03  0.83991095267E+03  0.13277618476E+04  0.10100000352E+00 0. -1.
       -3    1    3    3    0  502  0.37970124016E+03  0.95568199391E+03 -0.94214501980E+03  0.13946821695E+04  0.10100000352E+00 0.  1.
</event>
<event>
 5   0  0.4448804E-06  0.2639062E+04  0.7818609E-02  0.8355053E-01
        2   -1    0    0  501    0  0.00000000000E+00  0.00000000000E+00  0.11653437261E+04  0.11653437261E+04  0.25500000920E-02 0. -1.
       -2   -1    0    0    0  501  0.00000000000E+00  0.00000000000E+00 -0.14941184276E+04  0.14941184276E+04  0.25500000920E-02 0.  1.
    10030    2    1    2    0    0  0.00000000000E+00  0.00000000000E+00 -0.32877470150E+03  0.26594621537E+04  0.26390616027E+04 0.  0.
        2    1    3    3  502    0 -0.12781802290E+04 -0.11249459058E+03  0.14582633114E+03  0.12913810629E+04  0.25500000920E-02 0. -1.
       -2    1    3    3    0  502  0.12781802290E+04  0.11249459058E+03 -0.47460103265E+03  0.13680810908E+04  0.25500000920E-02 0.  1.
</event>
<event>
 5   0  0.1753474E-06  0.2691526E+04  0.7818609E-02  0.8337760E-01
        1   -1    0    0  501    0  0.00000000000E+00  0.00000000000E+00  0.24795098521E+04  0.24795098521E+04  0.50400001928E-02 0.  1.
       -1   -1    0    0    0  501  0.00000000000E+00  0.00000000000E+00 -0.73041761614E+03  0.73041761615E+03  0.50400001928E-02 0. -1.
    10030    2    1    2    0    0  0.00000000000E+00  0.00000000000E+00  0.17490922359E+04  0.32099274682E+04  0.26915257200E+04 0.  0.
        3    1    3    3  502    0  0.13243635080E+04  0.20985080815E+03  0.73803787116E+03  0.15305802731E+04  0.10100000352E+00 0. -1.
       -3    1    3    3    0  502 -0.13243635080E+04 -0.20985080815E+03  0.10110543648E+04  0.16793471951E+04  0.10100000352E+00 0.  1.
</event>
<event>
 5   0  0.1732312E-06  0.2711718E+04  0.7818609E-02  0.8331213E-01
       -1   -1    0    0    0  501  0.00000000000E+00  0.00000000000E+00  0.14724067528E+04  0.14724067528E+04  0.50400001928E-02 0.  1.
        1   -1    0    0  501    0  0.00000000000E+00  0.00000000000E+00 -0.12485368221E+04  0.12485368221E+04  0.50400001928E-02 0. -1.
    10030    2    1    2    0    0  0.00000000000E+00  0.00000000000E+00  0.22386993068E+03  0.27209435748E+04  0.27117183098E+04 0.  0.
        5    1    3    3  502    0 -0.71837621660E+03 -0.26873271145E+03  0.12337950762E+04  0.14527746002E+04  0.46999998093E+01 0.  1.
       -5    1    3    3    0  502  0.71837621660E+03  0.26873271145E+03 -0.10099251455E+04  0.12681689747E+04  0.46999998093E+01 0. -1.
</event>
<event>
 5   0  0.1828511E-06  0.2696978E+04  0.7818609E-02  0.8335986E-01
       -1   -1    0    0    0  501  0.00000000000E+00  0.00000000000E+00  0.19544083716E+04  0.19544083716E+04  0.50400001928E-02 0.  1.
        1   -1    0    0  501    0  0.00000000000E+00  0.00000000000E+00 -0.93042102518E+03  0.93042102519E+03  0.50400001928E-02 0. -1.
    10030    2    1    2    0    0  0.00000000000E+00  0.00000000000E+00  0.10239873464E+04  0.28848293968E+04  0.26969780427E+04 0.  0.
        4    1    3    3  502    0 -0.13406428676E+04 -0.10352176683E+03  0.62097742638E+03  0.14810991295E+04  0.12699999809E+01 0. -1.
       -4    1    3    3    0  502  0.13406428676E+04  0.10352176683E+03  0.40300992001E+03  0.14037302672E+04  0.12699999809E+01 0.  1.
</event>
<event>
 5   0  0.4487186E-06  0.2688983E+04  0.7818609E-02  0.8338589E-01
       -2   -1    0    0    0  501  0.00000000000E+00  0.00000000000E+00  0.12023093552E+04  0.12023093552E+04  0.25500000920E-02 0.  1.
        2   -1    0    0  501    0  0.00000000000E+00  0.00000000000E+00 -0.15034873191E+04  0.15034873191E+04  0.25500000920E-02 0. -1.
    10030    2    1    2    0    0  0.00000000000E+00  0.00000000000E+00 -0.30117796390E+03  0.27057966743E+04  0.26889826100E+04 0.  0.
        3    1    3    3  502    0 -0.81921548629E+03  0.90448450440E+03 -0.71843190737E+03  0.14161040383E+04  0.10100000352E+00 0. -1.
       -3    1    3    3    0  502  0.81921548629E+03 -0.90448450440E+03  0.41725394347E+03  0.12896926359E+04  0.10100000352E+00 0.  1.
</event>
<event>
 5   0  0.4448804E-06  0.2706454E+04  0.7818609E-02  0.8332914E-01
       -2   -1    0    0    0  501  0.00000000000E+00  0.00000000000E+00  0.10621719728E+04  0.10621719728E+04  0.25500000920E-02 0. -1.
        2   -1    0    0  501    0  0.00000000000E+00  0.00000000000E+00 -0.17240369815E+04  0.17240369815E+04  0.25500000920E-02 0.  1.
    10030    2    1    2    0    0  0.00000000000E+00  0.00000000000E+00 -0.66186500871E+03  0.27862089542E+04  0.27064543312E+04 0.  0.
        2    1    3    3  502    0 -0.10760106848E+04 -0.41335982700E+03 -0.10607365354E+04  0.15664697054E+04  0.25500000920E-02 0.  1.
       -2    1    3    3    0  502  0.10760106848E+04  0.41335982700E+03  0.39887152672E+03  0.12197392488E+04  0.25500000920E-02 0. -1.
</event>
<event>
 5   0  0.4439357E-06  0.2692387E+04  0.7818609E-02  0.8337479E-01
        2   -1    0    0  501    0  0.00000000000E+00  0.00000000000E+00  0.21095516509E+04  0.21095516509E+04  0.25500000920E-02 0. -1.
       -2   -1    0    0    0  501  0.00000000000E+00  0.00000000000E+00 -0.85906275662E+03  0.85906275663E+03  0.25500000920E-02 0.  1.
    10030    2    1    2    0    0  0.00000000000E+00  0.00000000000E+00  0.12504888943E+04  0.29686144076E+04  0.26923872355E+04 0.  0.
        4    1    3    3  502    0  0.10950663931E+04  0.51300479026E+03 -0.26958646460E+02  0.12095754221E+04  0.12699999809E+01 0.  1.
       -4    1    3    3    0  502 -0.10950663931E+04 -0.51300479026E+03  0.12774475408E+04  0.17590389855E+04  0.12699999809E+01 0. -1.
</event>
<event>
 5   0  0.1771016E-06  0.2699856E+04  0.7818609E-02  0.8335052E-01
        1   -1    0    0  501    0  0.00000000000E+00  0.00000000000E+00  0.15393737553E+04  0.15393737553E+04  0.50400001928E-02 0.  1.
       -1   -1    0    0    0  501  0.00000000000E+00  0.00000000000E+00 -0.11837966163E+04  0.11837966163E+04  0.50400001928E-02 0. -1.
    10030    2    1    2    0    0  0.00000000000E+00  0.00000000000E+00  0.35557713898E+03  0.27231703716E+04  0.26998558797E+04 0.  0.
        2    1    3    3  502    0 -0.11779235493E+04 -0.65063806893E+03  0.28581930363E+03  0.13756912659E+04  0.25500000920E-02 0. -1.
       -2    1    3    3    0  502  0.11779235493E+04  0.65063806893E+03  0.69757835356E+02  0.13474791057E+04  0.25500000920E-02 0.  1.
</event>
<event>
 5   0  0.4487186E-06  0.2701966E+04  0.7818609E-02  0.8334367E-01
        2   -1    0    0  501    0  0.00000000000E+00  0.00000000000E+00  0.17821406562E+04  0.17821406562E+04  0.25500000920E-02 0.  1.
       -2   -1    0    0    0  501  0.00000000000E+00  0.00000000000E+00 -0.10241362290E+04  0.10241362290E+04  0.25500000920E-02 0. -1.
    10030    2    1    2    0    0  0.00000000000E+00  0.00000000000E+00  0.75800442723E+03  0.28062768853E+04  0.27019658112E+04 0.  0.
        3    1    3    3  502    0  0.10329658133E+04  0.23165716288E+03  0.12507329304E+04  0.16386019303E+04  0.10100000352E+00 0.  1.
       -3    1    3    3    0  502 -0.10329658133E+04 -0.23165716288E+03 -0.49272850314E+03  0.11676749550E+04  0.10100000352E+00 0. -1.
</event>
<event>
 5   0  0.4448804E-06  0.2663107E+04  0.7818609E-02  0.8347076E-01
        2   -1    0    0  501    0  0.00000000000E+00  0.00000000000E+00  0.13443427921E+04  0.13443427921E+04  0.25500000920E-02 0.  1.
       -2   -1    0    0    0  501  0.00000000000E+00  0.00000000000E+00 -0.13188858049E+04  0.13188858049E+04  0.25500000920E-02 0. -1.
    10030    2    1    2    0    0  0.00000000000E+00  0.00000000000E+00  0.25456987177E+02  0.26632285970E+04  0.26631069264E+04 0.  0.
        2    1    3    3  502    0 -0.15090413562E+03 -0.48452211584E+03 -0.12183845672E+04  0.13198464655E+04  0.25500000920E-02 0. -1.
       -2    1    3    3    0  502  0.15090413562E+03  0.48452211584E+03  0.12438415544E+04  0.13433821315E+04  0.25500000920E-02 0.  1.
</event>
<event>
 5   0  0.1723605E-06  0.2697369E+04  0.7818609E-02  0.8335859E-01
        1   -1    0    0  501    0  0.00000000000E+00  0.00000000000E+00  0.20439662018E+04  0.20439662018E+04  0.50400001928E-02 0.  1.
       -1   -1    0    0    0  501  0.00000000000E+00  0.00000000000E+00 -0.88991169034E+03  0.88991169035E+03  0.50400001928E-02 0. -1.
    10030    2    1    2    0    0  0.00000000000E+00  0.00000000000E+00  0.11540545115E+04  0.29338778922E+04  0.26973686568E+04 0.  0.
        1    1    3    3  502    0  0.10119699218E+04 -0.60970868852E+03  0.12845401045E+04  0.17452424151E+04  0.50400001928E-02 0.  1.
       -1    1    3    3    0  502 -0.10119699218E+04  0.60970868852E+03 -0.13048559298E+03  0.11886354771E+04  0.50400001928E-02 0. -1.
</event>
<event>
 5   0  0.1732312E-06  0.2706176E+04  0.7818609E-02  0.8333004E-01
       -1   -1    0    0    0  501  0.00000000000E+00  0.00000000000E+00  0.12890763704E+04  0.12890763704E+04  0.50400001928E-02 0. -1.
        1   -1    0    0  501    0  0.00000000000E+00  0.00000000000E+00 -0.14202786212E+04  0.14202786212E+04  0.50400001928E-02 0.  1.
    10030    2    1    2    0    0  0.00000000000E+00  0.00000000000E+00 -0.13120225081E+03  0.27093549916E+04  0.27061763505E+04 0.  0.
        5    1    3    3  502    0 -0.12380726374E+04  0.38090966652E+03 -0.45709686292E+03  0.13736359276E+04  0.46999998093E+01 0.  1.
       -5    1    3    3    0  502  0.12380726374E+04 -0.38090966652E+03  0.32589461211E+03  0.13357190640E+04  0.46999998093E+01 0. -1.
</event>
<event>
 5   0  0.1828511E-06  0.2703015E+04  0.7818609E-02  0.8334027E-01
       -1   -1    0    0    0  501  0.00000000000E+00  0.00000000000E+00  0.11010647067E+04  0.11010647067E+04  0.50400001928E-02 0. -1.
        1   -1    0    0  501    0  0.00000000000E+00  0.00000000000E+00 -0.16589144973E+04  0.16589144973E+04  0.50400001928E-02 0.  1.
    10030    2    1    2    0    0  0.00000000000E+00  0.00000000000E+00 -0.55784979061E+03  0.27599792040E+04  0.27030147646E+04 0.  0.
        4    1    3    3  502    0 -0.19200868032E+03  0.15364281831E+03 -0.16358775211E+04  0.16542582403E+04  0.12699999809E+01 0.  1.
       -4    1    3    3    0  502  0.19200868032E+03 -0.15364281831E+03  0.10780277304E+04  0.11057209636E+04  0.12699999809E+01 0. -1.
</event>
<event>
 5   0  0.1753474E-06  0.2697473E+04  0.7818609E-02  0.8335825E-01
       -1   -1    0    0    0  501  0.00000000000E+00  0.00000000000E+00  0.10509429949E+04  0.10509429949E+04  0.50400001928E-02 0. -1.
        1   -1    0    0  501    0  0.00000000000E+00  0.00000000000E+00 -0.17309123477E+04  0.17309123477E+04  0.50400001928E-02 0.  1.
    10030    2    1    2    0    0  0.00000000000E+00  0.00000000000E+00 -0.67996935281E+03  0.27818553426E+04  0.26974730446E+04 0.  0.
        3    1    3    3  502    0 -0.36685354039E+03  0.10880910252E+02  0.99845497083E+03  0.10637726511E+04  0.10100000352E+00 0. -1.
       -3    1    3    3    0  502  0.36685354039E+03 -0.10880910252E+02 -0.16784243236E+04  0.17180826915E+04  0.10100000352E+00 0.  1.
</event>
<event>
 5   0  0.4487186E-06  0.2709935E+04  0.7818609E-02  0.8331789E-01
       -2   -1    0    0    0  501  0.00000000000E+00  0.00000000000E+00  0.92713118521E+03  0.92713118521E+03  0.25500000920E-02 0.  1.
        2   -1    0    0  501    0  0.00000000000E+00  0.00000000000E+00 -0.19802346982E+04  0.19802346982E+04  0.25500000920E-02 0. -1.
    10030    2    1    2    0    0  0.00000000000E+00  0.00000000000E+00 -0.10531035130E+04  0.29073658834E+04  0.27099353075E+04 0.  0.
        3    1    3    3  502    0  0.12411615763E+04  0.24890120657E+03 -0.10449785392E+04  0.16414670349E+04  0.10100000352E+00 0. -1.
       -3    1    3    3    0  502 -0.12411615763E+04 -0.24890120657E+03 -0.81249737465E+01  0.12658988485E+04  0.10100000352E+00 0.  1.
</event>
<event>
 5   0  0.1828511E-06  0.2712313E+04  0.7818609E-02  0.8331021E-01
       -1   -1    0    0    0  501  0.00000000000E+00  0.00000000000E+00  0.12170470726E+04  0.12170470726E+04  0.50400001928E-02 0. -1.
        1   -1    0    0  501    0  0.00000000000E+00  0.00000000000E+00 -0.15111665157E+04  0.15111665157E+04  0.50400001928E-02 0.  1.
    10030    2    1    2    0    0  0.00000000000E+00  0.00000000000E+00 -0.29411944304E+03  0.27282135883E+04  0.27123132446E+04 0.  0.
        4    1    3    3  502    0 -0.12956355704E+03 -0.22260131790E+03  0.11922190349E+04  0.12197236991E+04  0.12699999809E+01 0. -1.
       -4    1    3    3    0  502  0.12956355704E+03  0.22260131790E+03 -0.14863384779E+04  0.15084898892E+04  0.12699999809E+01 0.  1.
</event>
<event>
 5   0  0.4655882E-06  0.2691387E+04  0.7818609E-02  0.8337805E-01
        2   -1    0    0  501    0  0.00000000000E+00  0.00000000000E+00  0.11137213977E+04  0.11137213977E+04  0.25500000920E-02 0. -1.
       -2   -1    0    0    0  501  0.00000000000E+00  0.00000000000E+00 -0.16259820415E+04  0.16259820415E+04  0.25500000920E-02 0.  1.
    10030    2    1    2    0    0  0.00000000000E+00  0.00000000000E+00 -0.51226064379E+03  0.27397034393E+04  0.26913869971E+04 0.  0.
        1    1    3    3  502    0 -0.49453779527E+03  0.77111881622E+03  0.74731407556E+03  0.11822310211E+04  0.50400001928E-02 0. -1.
       -1    1    3    3    0  502  0.49453779527E+03 -0.77111881622E+03 -0.12595747194E+04  0.15574724182E+04  0.50400001928E-02 0.  1.
</event>
<event>
 5   0  0.1771016E-06  0.2701343E+04  0.7818609E-02  0.8334569E-01
        1   -1    0    0  501    0  0.00000000000E+00  0.00000000000E+00  0.16079209793E+04  0.16079209793E+04  0.50400001928E-02 0. -1.
       -1   -1    0    0    0  501  0.00000000000E+00  0.00000000000E+00 -0.11345794460E+04  0.11345794460E+04  0.50400001928E-02 0.  1.
    10030    2    1    2    0    0  0.00000000000E+00  0.00000000000E+00  0.47334153335E+03  0.27425004253E+04  0.27013434390E+04 0.  0.
        2    1    3    3  502    0 -0.22799236903E+03 -0.10757695031E+04  0.10328729533E+04  0.15086706340E+04  0.25500000920E-02 0. -1.
       -2    1    3    3    0  502  0.22799236903E+03  0.10757695031E+04 -0.55953141997E+03  0.12338297913E+04  0.25500000920E-02 0.  1.
</event>
<event>
 5   0  0.1753474E-06  0.2694795E+04  0.7818609E-02  0.8336696E-01
       -1   -1    0    0    0  501  0.00000000000E+00  0.00000000000E+00  0.95986151579E+03  0.95986151580E+03  0.50400001928E-02 0.  1.
        1   -1    0    0  501    0  0.00000000000E+00  0.00000000000E+00 -0.18913976378E+04  0.18913976378E+04  0.50400001928E-02 0. -1.
    10030    2    1    2    0    0  0.00000000000E+00  0.00000000000E+00 -0.93153612200E+03  0.28512591536E+04  0.26947948372E+04 0.  0.
        3    1    3    3  502    0  0.66045034895E+03  0.24518609420E+03 -0.16810056361E+04  0.18226603751E+04  0.10100000352E+00 0. -1.
       -3    1    3    3    0  502 -0.66045034895E+03 -0.24518609420E+03  0.74946951413E+03  0.10285987785E+04  0.10100000352E+00 0.  1.
</event>
<event>
 5   0  0.4655882E-06  0.2695841E+04  0.7818609E-02  0.8336356E-01
       -2   -1    0    0    0  501  0.00000000000E+00  0.00000000000E+00  0.96378587220E+03  0.96378587221E+03  0.25500000920E-02 0. -1.
        2   -1    0    0  501    0  0.00000000000E+00  0.00000000000E+00 -0.18851595952E+04  0.18851595952E+04  0.25500000920E-02 0.  1.
    10030    2    1    2    0    0  0.00000000000E+00  0.00000000000E+00 -0.92137372301E+03  0.28489454674E+04  0.26958413787E+04 0.  0.
        1    1    3    3  502    0  0.66918089868E+03  0.73771970819E+03 -0.14204831484E+04  0.17348791940E+04  0.50400001928E-02 0.  1.
       -1    1    3    3    0  502 -0.66918089868E+03 -0.73771970819E+03  0.49910942536E+03  0.11140662734E+04  0.50400001928E-02 0. -1.
</event>
<event>
 5   0  0.1828511E-06  0.2776957E+04  0.7818609E-02  0.8310458E-01
       -1   -1    0    0    0  501  0.00000000000E+00  0.00000000000E+00  0.10294596311E+04  0.10294596311E+04  0.50400001928E-02 0.  1.
        1   -1    0    0  501    0  0.00000000000E+00  0.00000000000E+00 -0.18727032252E+04  0.18727032252E+04  0.50400001928E-02 0. -1.
    10030    2    1    2    0    0  0.00000000000E+00  0.00000000000E+00 -0.84324359405E+03  0.29021628563E+04  0.27769568750E+04 0.  0.
        4    1    3    3  502    0  0.10714764077E+04 -0.64869285939E+03  0.20456496884E+03  0.12691385100E+04  0.12699999809E+01 0.  1.
       -4    1    3    3    0  502 -0.10714764077E+04  0.64869285939E+03 -0.10478085629E+04  0.16330243463E+04  0.12699999809E+01 0. -1.
</event>
<event>
 5   0  0.4448804E-06  0.2709361E+04  0.7818609E-02  0.8331974E-01
        2   -1    0    0  501    0  0.00000000000E+00  0.00000000000E+00  0.81363870126E+03  0.81363870127E+03  0.25500000920E-02 0.  1.
       -2   -1    0    0    0  501  0.00000000000E+00  0.00000000000E+00 -0.22554965029E+04  0.22554965029E+04  0.25500000920E-02 0. -1.
    10030    2    1    2    0    0  0.00000000000E+00  0.00000000000E+00 -0.14418578016E+04  0.30691352041E+04  0.27093609913E+04 0.  0.
        2    1    3    3  502    0 -0.25114005560E+03  0.20682873427E+03  0.76872558066E+03  0.83473856459E+03  0.25500000920E-02 0.  1.
       -2    1    3    3    0  502  0.25114005560E+03 -0.20682873427E+03 -0.22105833823E+04  0.22343966395E+04  0.25500000920E-02 0. -1.
</event>
<event>
 5   0  0.1732312E-06  0.2696354E+04  0.7818609E-02  0.8336189E-01
       -1   -1    0    0    0  501  0.00000000000E+00  0.00000000000E+00  0.29486064267E+04  0.29486064267E+04  0.50400001928E-02 0. -1.
        1   -1    0    0  501    0  0.00000000000E+00  0.00000000000E+00 -0.61642037308E+03  0.61642037310E+03  0.50400001928E-02 0.  1.
    10030    2    1    2    0    0  0.00000000000E+00  0.00000000000E+00  0.23321860536E+04  0.35650267998E+04  0.26963538890E+04 0.  0.
        5    1    3    3  502    0 -0.17706349000E+03 -0.42380675203E+03 -0.50977246754E+03  0.68618780317E+03  0.46999998093E+01 0.  1.
       -5    1    3    3    0  502  0.17706349000E+03  0.42380675203E+03  0.28419585212E+04  0.28788389966E+04  0.46999998093E+01 0. -1.
</event>
<event>
 5   0  0.4487186E-06  0.2697146E+04  0.7818609E-02  0.8335932E-01
        2   -1    0    0  501    0  0.00000000000E+00  0.00000000000E+00  0.19151442268E+04  0.19151442268E+04  0.25500000920E-02 0.  1.
       -2   -1    0    0    0  501  0.00000000000E+00  0.00000000000E+00 -0.94961473824E+03  0.94961473824E+03  0.25500000920E-02 0. -1.
    10030    2    1    2    0    0  0.00000000000E+00  0.00000000000E+00  0.96552948857E+03  0.28647589651E+04  0.26971460351E+04 0.  0.
        3    1    3    3  502    0  0.96487495137E+03  0.31326569870E+03 -0.46100917656E+03  0.11142928434E+04  0.10100000352E+00 0. -1.
       -3    1    3    3    0  502 -0.96487495137E+03 -0.31326569870E+03  0.14265386651E+04  0.17504661217E+04  0.10100000352E+00 0.  1.
</event>
<event>
 5   0  0.1771016E-06  0.2664629E+04  0.7818609E-02  0.8346574E-01
        1   -1    0    0  501    0  0.00000000000E+00  0.00000000000E+00  0.19734236803E+04  0.19734236803E+04  0.50400001928E-02 0. -1.
       -1   -1    0    0    0  501  0.00000000000E+00  0.00000000000E+00 -0.89948363966E+03  0.89948363968E+03  0.50400001928E-02 0.  1.
    10030    2    1    2    0    0  0.00000000000E+00  0.00000000000E+00  0.10739400406E+04  0.28729073199E+04  0.26646292909E+04 0.  0.
        2    1    3    3  502    0  0.86711930555E+03  0.63891685674E+03 -0.30851382235E+03  0.11203978840E+04  0.25500000920E-02 0.  1.
       -2    1    3    3    0  502 -0.86711930555E+03 -0.63891685674E+03  0.13824538629E+04  0.17525094359E+04  0.25500000920E-02 0. -1.
</event>
<event>
 5   0  0.4448804E-06  0.2709309E+04  0.7818609E-02  0.8331991E-01
       -2   -1    0    0    0  501  0.00000000000E+00  0.00000000000E+00  0.76810068153E+03  0.76810068153E+03  0.25500000920E-02 0.  1.
        2   -1    0    0  501    0  0.00000000000E+00  0.00000000000E+00 -0.23891255560E+04  0.23891255560E+04  0.25500000920E-02 0. -1.
    10030    2    1    2    0    0  0.00000000000E+00  0.00000000000E+00 -0.16210248744E+04  0.31572262375E+04  0.27093091133E+04 0.  0.
        2    1    3    3  502    0  0.12231511059E+04 -0.16330861973E+03 -0.15926281455E+03  0.12442399195E+04  0.25500000920E-02 0.  1.
       -2    1    3    3    0  502 -0.12231511059E+04  0.16330861973E+03 -0.14617620599E+04  0.19129863180E+04  0.25500000920E-02 0. -1.
</event>
<event>
 5   0  0.4655882E-06  0.2696842E+04  0.7818609E-02  0.8336030E-01
        2   -1    0    0  501    0  0.00000000000E+00  0.00000000000E+00  0.21033421875E+04  0.21033421875E+04  0.25500000920E-02 0.  1.
       -2   -1    0    0    0  501  0.00000000000E+00  0.00000000000E+00 -0.86445256357E+03  0.86445256358E+03  0.25500000920E-02 0. -1.
    10030    2    1    2    0    0  0.00000000000E+00  0.00000000000E+00  0.12388896239E+04  0.29677947511E+04  0.26968422616E+04 0.  0.
        1    1    3    3  502    0  0.54088925345E+03  0.62366495412E+03 -0.55384457308E+03  0.99411416379E+03  0.50400001928E-02 0. -1.
       -1    1    3    3    0  502 -0.54088925345E+03 -0.62366495412E+03  0.17927341970E+04  0.19736805873E+04  0.50400001928E-02 0.  1.
</event>
<event>
 5   0  0.1753474E-06  0.2702474E+04  0.7818609E-02  0.8334203E-01
        1   -1    0    0  501    0  0.00000000000E+00  0.00000000000E+00  0.14832256637E+04  0.14832256637E+04  0.50400001928E-02 0.  1.
       -1   -1    0    0    0  501  0.00000000000E+00  0.00000000000E+00 -0.12309939395E+04  0.12309939395E+04  0.50400001928E-02 0. -1.
    10030    2    1    2    0    0  0.00000000000E+00  0.00000000000E+00  0.25223172420E+03  0.27142196033E+04  0.27024742759E+04 0.  0.
        3    1    3    3  502    0  0.11514079933E+04 -0.55604017914E+03  0.56495966940E+03  0.13978914429E+04  0.10100000352E+00 0.  1.
       -3    1    3    3    0  502 -0.11514079933E+04  0.55604017914E+03 -0.31272794520E+03  0.13163281604E+04  0.10100000352E+00 0. -1.
</event>
<event>
 5   0  0.1828511E-06  0.2710550E+04  0.7818609E-02  0.8331590E-01
       -1   -1    0    0    0  501  0.00000000000E+00  0.00000000000E+00  0.83717986219E+03  0.83717986221E+03  0.50400001928E-02 0.  1.
        1   -1    0    0  501    0  0.00000000000E+00  0.00000000000E+00 -0.21939973881E+04  0.21939973881E+04  0.50400001928E-02 0. -1.
    10030    2    1    2    0    0  0.00000000000E+00  0.00000000000E+00 -0.13568175259E+04  0.30311772504E+04  0.27105500778E+04 0.  0.
        4    1    3    3  502    0  0.25095207272E+03  0.13020201081E+04 -0.36501745928E+03  0.13753082066E+04  0.12699999809E+01 0. -1.
       -4    1    3    3    0  502 -0.25095207272E+03 -0.13020201081E+04 -0.99180006667E+03  0.16558690437E+04  0.12699999809E+01 0.  1.
</event>
<event>
 5   0  0.4448804E-06  0.2701483E+04  0.7818609E-02  0.8334524E-01
        2   -1    0    0  501    0  0.00000000000E+00  0.00000000000E+00  0.77786462654E+03  0.77786462654E+03  0.25500000920E-02 0.  1.
       -2   -1    0    0    0  501  0.00000000000E+00  0.00000000000E+00 -0.23455272598E+04  0.23455272598E+04  0.25500000920E-02 0. -1.
    10030    2    1    2    0    0  0.00000000000E+00  0.00000000000E+00 -0.15676626333E+04  0.31233918864E+04  0.27014830638E+04 0.  0.
        2    1    3    3  502    0  0.72636325145E+03 -0.10366360544E+04 -0.23872763483E+03  0.12881027777E+04  0.25500000920E-02 0. -1.
       -2    1    3    3    0  502 -0.72636325145E+03  0.10366360544E+04 -0.13289349985E+04  0.18352891087E+04  0.25500000920E-02 0.  1.
</event>
<event>
 5   0  0.4439357E-06  0.2694496E+04  0.7818609E-02  0.8336793E-01
       -2   -1    0    0    0  501  0.00000000000E+00  0.00000000000E+00  0.54133623067E+03  0.54133623067E+03  0.25500000920E-02 0. -1.
        2   -1    0    0  501    0  0.00000000000E+00  0.00000000000E+00 -0.33529577462E+04  0.33529577462E+04  0.25500000920E-02 0.  1.
    10030    2    1    2    0    0  0.00000000000E+00  0.00000000000E+00 -0.28116215155E+04  0.38942939769E+04  0.26944962482E+04 0.  0.
        4    1    3    3  502    0 -0.72028392535E+03 -0.10479658503E+04 -0.76264691713E+03  0.14827923960E+04  0.12699999809E+01 0. -1.
       -4    1    3    3    0  502  0.72028392535E+03  0.10479658503E+04 -0.20489745984E+04  0.24115015808E+04  0.12699999809E+01 0.  1.
</event>
<event>
 5   0  0.4487186E-06  0.2720395E+04  0.7818609E-02  0.8328418E-01
       -2   -1    0    0    0  501  0.00000000000E+00  0.00000000000E+00  0.18857119596E+04  0.18857119596E+04  0.25500000920E-02 0.  1.
        2   -1    0    0  501    0  0.00000000000E+00  0.00000000000E+00 -0.98113490262E+03  0.98113490263E+03  0.25500000920E-02 0. -1.
    10030    2    1    2    0    0  0.00000000000E+00  0.00000000000E+00  0.90457705702E+03  0.28668468623E+04  0.27203954271E+04 0.  0.
        3    1    3    3  502    0 -0.12859185280E+04 -0.33565709702E+03  0.75751087558E+03  0.15297303306E+04  0.10100000352E+00 0.  1.
       -3    1    3    3    0  502  0.12859185280E+04  0.33565709702E+03  0.14706618144E+03  0.13371165317E+04  0.10100000352E+00 0. -1.
</event>
<event>
 5   0  0.4401659E-06  0.2697438E+04  0.7818609E-02  0.8335837E-01
        2   -1    0    0  501    0  0.00000000000E+00  0.00000000000E+00  0.13527836155E+04  0.13527836155E+04  0.25500000920E-02 0. -1.
       -2   -1    0    0    0  501  0.00000000000E+00  0.00000000000E+00 -0.13446668570E+04  0.13446668570E+04  0.25500000920E-02 0.  1.
    10030    2    1    2    0    0  0.00000000000E+00  0.00000000000E+00  0.81167584968E+01  0.26974504725E+04  0.26974382606E+04 0.  0.
        5    1    3    3  502    0 -0.52408248987E+03 -0.80528463938E+03 -0.94245285023E+03  0.13458771383E+04  0.46999998093E+01 0.  1.
       -5    1    3    3    0  502  0.52408248987E+03  0.80528463938E+03  0.95056960873E+03  0.13515733342E+04  0.46999998093E+01 0. -1.
</event>
<event>
 5   0  0.1828511E-06  0.2720562E+04  0.7818609E-02  0.8328364E-01
        1   -1    0    0  501    0  0.00000000000E+00  0.00000000000E+00  0.15866486006E+04  0.15866486006E+04  0.50400001928E-02 0.  1.
       -1   -1    0    0    0  501  0.00000000000E+00  0.00000000000E+00 -0.11662095164E+04  0.11662095164E+04  0.50400001928E-02 0. -1.
    10030    2    1    2    0    0  0.00000000000E+00  0.00000000000E+00  0.42043908422E+03  0.27528581170E+04  0.27205622193E+04 0.  0.
        4    1    3    3  502    0 -0.80340826131E+03 -0.12690955982E+03  0.13134802254E+04  0.15449280845E+04  0.12699999809E+01 0.  1.
       -4    1    3    3    0  502  0.80340826131E+03  0.12690955982E+03 -0.89304114121E+03  0.12079300325E+04  0.12699999809E+01 0. -1.
</event>
<event>
 5   0  0.1732312E-06  0.2635369E+04  0.7818609E-02  0.8356285E-01
       -1   -1    0    0    0  501  0.00000000000E+00  0.00000000000E+00  0.13290021566E+04  0.13290021566E+04  0.50400001928E-02 0.  1.
        1   -1    0    0  501    0  0.00000000000E+00  0.00000000000E+00 -0.13064633669E+04  0.13064633669E+04  0.50400001928E-02 0. -1.
    10030    2    1    2    0    0  0.00000000000E+00  0.00000000000E+00  0.22538789677E+02  0.26354655235E+04  0.26353691446E+04 0.  0.
        5    1    3    3  502    0 -0.11594060634E+04  0.56960969258E+03 -0.24872649823E+03  0.13155092484E+04  0.46999998093E+01 0. -1.
       -5    1    3    3    0  502  0.11594060634E+04 -0.56960969258E+03  0.27126528791E+03  0.13199562751E+04  0.46999998093E+01 0.  1.
</event>
<event>
 5   0  0.1723605E-06  0.2704200E+04  0.7818609E-02  0.8333644E-01
       -1   -1    0    0    0  501  0.00000000000E+00  0.00000000000E+00  0.87155770231E+03  0.87155770232E+03  0.50400001928E-02 0.  1.
        1   -1    0    0  501    0  0.00000000000E+00  0.00000000000E+00 -0.20975940180E+04  0.20975940180E+04  0.50400001928E-02 0. -1.
    10030    2    1    2    0    0  0.00000000000E+00  0.00000000000E+00 -0.12260363157E+04  0.29691517204E+04  0.27041998615E+04 0.  0.
        1    1    3    3  502    0  0.61420082630E+03 -0.12036369199E+04 -0.56163874185E+03  0.14633600262E+04  0.50400001928E-02 0.  1.
       -1    1    3    3    0  502 -0.61420082630E+03  0.12036369199E+04 -0.66439757386E+03  0.15057916941E+04  0.50400001928E-02 0. -1.
</event>
<event>
 5   0  0.4439357E-06  0.2697575E+04  0.7818609E-02  0.8335792E-01
       -2   -1    0    0    0  501  0.00000000000E+00  0.00000000000E+00  0.11504154026E+04  0.11504154026E+04  0.25500000920E-02 0. -1.
        2   -1    0    0  501    0  0.00000000000E+00  0.00000000000E+00 -0.15813659333E+04  0.15813659333E+04  0.25500000920E-02 0.  1.
    10030    2    1    2    0    0  0.00000000000E+00  0.00000000000E+00 -0.43095053071E+03  0.27317813359E+04  0.26975750049E+04 0.  0.
        4    1    3    3  502    0 -0.53540586227E+03 -0.86536110032E+03  0.68102824553E+03  0.12244632928E+04  0.12699999809E+01 0. -1.
       -4    1    3    3    0  502  0.53540586227E+03  0.86536110032E+03 -0.11119787762E+04  0.15073180431E+04  0.12699999809E+01 0.  1.
</event>
<event>
 5   0  0.4439357E-06  0.2699014E+04  0.7818609E-02  0.8335325E-01
        2   -1    0    0  501    0  0.00000000000E+00  0.00000000000E+00  0.12430571530E+04  0.12430571530E+04  0.25500000920E-02 0. -1.
       -2   -1    0    0    0  501  0.00000000000E+00  0.00000000000E+00 -0.14650724106E+04  0.14650724106E+04  0.25500000920E-02 0.  1.
    10030    2    1    2    0    0  0.00000000000E+00  0.00000000000E+00 -0.22201525764E+03  0.27081295637E+04  0.26990137011E+04 0.  0.
        4    1    3    3  502    0  0.14641924958E+03  0.88269918700E+03  0.90263739280E+03  0.12709651164E+04  0.12699999809E+01 0. -1.
       -4    1    3    3    0  502 -0.14641924958E+03 -0.88269918700E+03 -0.11246526504E+04  0.14371644472E+04  0.12699999809E+01 0.  1.
</event>
<event>
 5   0  0.4448804E-06  0.2686191E+04  0.7818609E-02  0.8339499E-01
        2   -1    0    0  501    0  0.00000000000E+00  0.00000000000E+00  0.19395088693E+04  0.19395088693E+04  0.25500000920E-02 0. -1.
       -2   -1    0    0    0  501  0.00000000000E+00  0.00000000000E+00 -0.93008359065E+03  0.93008359066E+03  0.25500000920E-02 0.  1.
    10030    2    1    2    0    0  0.00000000000E+00  0.00000000000E+00  0.10094252786E+04  0.28695924599E+04  0.26861908892E+04 0.  0.
        2    1    3    3  502    0  0.66945692164E+03  0.93400588626E+03  0.12474261322E+04  0.16960576408E+04  0.25500000920E-02 0. -1.
       -2    1    3    3    0  502 -0.66945692164E+03 -0.93400588626E+03 -0.23800085358E+03  0.11735348192E+04  0.25500000920E-02 0.  1.
</event>
<event>
 5   0  0.1771016E-06  0.2722524E+04  0.7818609E-02  0.8327734E-01
       -1   -1    0    0    0  501  0.00000000000E+00  0.00000000000E+00  0.12049576288E+04  0.12049576288E+04  0.50400001928E-02 0. -1.
        1   -1    0    0  501    0  0.00000000000E+00  0.00000000000E+00 -0.15378416738E+04  0.15378416738E+04  0.50400001928E-02 0.  1.
    10030    2    1    2    0    0  0.00000000000E+00  0.00000000000E+00 -0.33288404499E+03  0.27427993026E+04  0.27225238707E+04 0.  0.
        2    1    3    3  502    0  0.97875101294E+03 -0.90779474352E+03  0.10198023278E+03  0.13388221725E+04  0.25500000920E-02 0.  1.
       -2    1    3    3    0  502 -0.97875101294E+03  0.90779474352E+03 -0.43486427777E+03  0.14039771301E+04  0.25500000920E-02 0. -1.
</event>
<event>
 5   0  0.1753474E-06  0.2701215E+04  0.7818609E-02  0.8334611E-01
       -1   -1    0    0    0  501  0.00000000000E+00  0.00000000000E+00  0.70925229812E+03  0.70925229813E+03  0.50400001928E-02 0. -1.
        1   -1    0    0  501    0  0.00000000000E+00  0.00000000000E+00 -0.25719197765E+04  0.25719197765E+04  0.50400001928E-02 0.  1.
    10030    2    1    2    0    0  0.00000000000E+00  0.00000000000E+00 -0.18626674784E+04  0.32811720747E+04  0.27012145506E+04 0.  0.
        3    1    3    3  502    0  0.22149281729E+03 -0.81337546663E+03  0.35045156292E+03  0.91293758055E+03  0.10100000352E+00 0. -1.
       -3    1    3    3    0  502 -0.22149281729E+03  0.81337546663E+03 -0.22131190413E+04  0.23682344941E+04  0.10100000352E+00 0.  1.
</event>
<event>
 5   0  0.4401659E-06  0.2694509E+04  0.7818609E-02  0.8336789E-01
       -2   -1    0    0    0  501  0.00000000000E+00  0.00000000000E+00  0.18521585166E+04  0.18521585166E+04  0.25500000920E-02 0. -1.
        2   -1    0    0  501    0  0.00000000000E+00  0.00000000000E+00 -0.97998858138E+03  0.97998858138E+03  0.25500000920E-02 0.  1.
    10030    2    1    2    0    0  0.00000000000E+00  0.00000000000E+00  0.87216993527E+03  0.28321470980E+04  0.26945086359E+04 0.  0.
        5    1    3    3  502    0 -0.14494075317E+03  0.55135745995E+03  0.17191227655E+04  0.18111896762E+04  0.46999998093E+01 0. -1.
       -5    1    3    3    0  502  0.14494075317E+03 -0.55135745995E+03 -0.84695283019E+03  0.10209574218E+04  0.46999998093E+01 0.  1.
</event>
<event>
 5   0  0.4655882E-06  0.2596355E+04  0.7818609E-02  0.8369440E-01
       -2   -1    0    0    0  501  0.00000000000E+00  0.00000000000E+00  0.18552814856E+04  0.18552814856E+04  0.25500000920E-02 0. -1.
        2   -1    0    0  501    0  0.00000000000E+00  0.00000000000E+00 -0.90836090298E+03  0.90836090298E+03  0.25500000920E-02 0.  1.
    10030    2    1    2    0    0  0.00000000000E+00  0.00000000000E+00  0.94692058261E+03  0.27636423886E+04  0.25963552650E+04 0.  0.
        1    1    3    3  502    0 -0.51714048621E+02  0.12319965880E+04  0.41380762635E+02  0.12337756292E+04  0.50400001928E-02 0.  1.
       -1    1    3    3    0  502  0.51714048621E+02 -0.12319965880E+04  0.90553981998E+03  0.15298667593E+04  0.50400001928E-02 0. -1.
</event>
<event>
 5   0  0.1828511E-06  0.2634749E+04  0.7818609E-02  0.8356493E-01
       -1   -1    0    0    0  501  0.00000000000E+00  0.00000000000E+00  0.10933421193E+04  0.10933421193E+04  0.50400001928E-02 0.  1.
        1   -1    0    0  501    0  0.00000000000E+00  0.00000000000E+00 -0.15873125788E+04  0.15873125789E+04  0.50400001928E-02 0. -1.
    10030    2    1    2    0    0  0.00000000000E+00  0.00000000000E+00 -0.49397045956E+03  0.26806546981E+04  0.26347490954E+04 0.  0.
        4    1    3    3  502    0  0.56067013118E+03 -0.11768187810E+04 -0.53352079308E+02  0.13046461193E+04  0.12699999809E+01 0.  1.
       -4    1    3    3    0  502 -0.56067013118E+03  0.11768187810E+04 -0.44061838025E+03  0.13760085789E+04  0.12699999809E+01 0. -1.
</event>
<event>
 5   0  0.1828511E-06  0.2698420E+04  0.7818609E-02  0.8335518E-01
        1   -1    0    0  501    0  0.00000000000E+00  0.00000000000E+00  0.10476424544E+04  0.10476424544E+04  0.50400001928E-02 0.  1.
       -1   -1    0    0    0  501  0.00000000000E+00  0.00000000000E+00 -0.17375842571E+04  0.17375842571E+04  0.50400001928E-02 0. -1.
    10030    2    1    2    0    0  0.00000000000E+00  0.00000000000E+00 -0.68994180267E+03  0.27852267115E+04  0.26984195640E+04 0.  0.
        4    1    3    3  502    0 -0.45371320679E+03 -0.12705971645E+04 -0.33503874150E+03  0.13901530130E+04  0.12699999809E+01 0.  1.
       -4    1    3    3    0  502  0.45371320679E+03  0.12705971645E+04 -0.35490306117E+03  0.13950736985E+04  0.12699999809E+01 0. -1.
</event>
<event>
 5   0  0.1732312E-06  0.2720278E+04  0.7818609E-02  0.8328455E-01
        1   -1    0    0  501    0  0.00000000000E+00  0.00000000000E+00  0.16554220370E+04  0.16554220370E+04  0.50400001928E-02 0.  1.
       -1   -1    0    0    0  501  0.00000000000E+00  0.00000000000E+00 -0.11175266029E+04  0.11175266030E+04  0.50400001928E-02 0. -1.
    10030    2    1    2    0    0  0.00000000000E+00  0.00000000000E+00  0.53789543404E+03  0.27729486399E+04  0.27202780486E+04 0.  0.
        5    1    3    3  502    0 -0.49357730837E+03 -0.21096407214E+03  0.15428779432E+04  0.16335907801E+04  0.46999998093E+01 0.  1.
       -5    1    3    3    0  502  0.49357730837E+03  0.21096407214E+03 -0.10049825092E+04  0.11393578599E+04  0.46999998093E+01 0. -1.
</event>
<event>
 5   0  0.4439357E-06  0.2691533E+04  0.7818609E-02  0.8337757E-01
        2   -1    0    0  501    0  0.00000000000E+00  0.00000000000E+00  0.27290864989E+04  0.27290864989E+04  0.25500000920E-02 0.  1.
       -2   -1    0    0    0  501  0.00000000000E+00  0.00000000000E+00 -0.66362404705E+03  0.66362404705E+03  0.25500000920E-02 0. -1.
    10030    2    1    2    0    0  0.00000000000E+00  0.00000000000E+00  0.20654624519E+04  0.33927105460E+04  0.26915329663E+04 0.  0.
        4    1    3    3  502    0 -0.91333943790E+03  0.53699542584E+03 -0.13215154998E+02  0.10595891984E+04  0.12699999809E+01 0. -1.
       -4    1    3    3    0  502  0.91333943790E+03 -0.53699542584E+03  0.20786776069E+04  0.23331213476E+04  0.12699999809E+01 0.  1.
</event>
<event>
 5   0  0.1482875E-06  0.2702218E+04  0.7818609E-02  0.8334286E-01
       -3   -1    0    0    0  501  0.00000000000E+00  0.00000000000E+00  0.11355451384E+04  0.11355451429E+04  0.10100000352E+00 0. -1.
        3   -1    0    0  501    0  0.00000000000E+00  0.00000000000E+00 -0.16075934197E+04  0.16075934228E+04  0.10100000352E+00 0.  1.
    10030    2    1    2    0    0  0.00000000000E+00  0.00000000000E+00 -0.47204828121E+03  0.27431385658E+04  0.27022175359E+04 0.  0.
        2    1    3    3  502    0 -0.73811552005E+03  0.80363807664E+03 -0.10448624415E+04  0.15107568305E+04  0.25500000920E-02 0.  1.
       -2    1    3    3    0  502  0.73811552005E+03 -0.80363807664E+03  0.57281416031E+03  0.12323817353E+04  0.25500000920E-02 0. -1.
</event>
<event>
 5   0  0.4487186E-06  0.2696320E+04  0.7818609E-02  0.8336200E-01
        2   -1    0    0  501    0  0.00000000000E+00  0.00000000000E+00  0.15733347867E+04  0.15733347867E+04  0.25500000920E-02 0. -1.
       -2   -1    0    0    0  501  0.00000000000E+00  0.00000000000E+00 -0.11552120332E+04  0.11552120332E+04  0.25500000920E-02 0.  1.
    10030    2    1    2    0    0  0.00000000000E+00  0.00000000000E+00  0.41812275352E+03  0.27285468200E+04  0.26963199201E+04 0.  0.
        3    1    3    3  502    0  0.10076089441E+04 -0.49488836449E+03  0.96453975787E+03  0.14800429832E+04  0.10100000352E+00 0. -1.
       -3    1    3    3    0  502 -0.10076089441E+04  0.49488836449E+03 -0.54641700435E+03  0.12485038367E+04  0.10100000352E+00 0.  1.
</event>
<event>
 5   0  0.4487186E-06  0.2717889E+04  0.7818609E-02  0.8329224E-01
       -2   -1    0    0    0  501  0.00000000000E+00  0.00000000000E+00  0.20714013421E+04  0.20714013421E+04  0.25500000920E-02 0. -1.
        2   -1    0    0  501    0  0.00000000000E+00  0.00000000000E+00 -0.89153632323E+03  0.89153632323E+03  0.25500000920E-02 0.  1.
    10030    2    1    2    0    0  0.00000000000E+00  0.00000000000E+00  0.11798650188E+04  0.29629376653E+04  0.27178885455E+04 0.  0.
        3    1    3    3  502    0 -0.32152133088E+03 -0.50217610260E+03 -0.74130285682E+03  0.95136046795E+03  0.10100000352E+00 0.  1.
       -3    1    3    3    0  502  0.32152133088E+03  0.50217610260E+03  0.19211678757E+04  0.20115771973E+04  0.10100000352E+00 0. -1.
</event>
<event>
 5   0  0.1732312E-06  0.2696164E+04  0.7818609E-02  0.8336251E-01
        1   -1    0    0  501    0  0.00000000000E+00  0.00000000000E+00  0.10580391000E+04  0.10580391000E+04  0.50400001928E-02 0.  1.
       -1   -1    0    0    0  501  0.00000000000E+00  0.00000000000E+00 -0.17176352680E+04  0.17176352680E+04  0.50400001928E-02 0. -1.
    10030    2    1    2    0    0  0.00000000000E+00  0.00000000000E+00 -0.65959616798E+03  0.27756743680E+04  0.26961641442E+04 0.  0.
        5    1    3    3  502    0  0.47345026143E+03  0.59805076420E+03 -0.14741000096E+04  0.16597628731E+04  0.46999998093E+01 0. -1.
       -5    1    3    3    0  502 -0.47345026143E+03 -0.59805076420E+03  0.81450384160E+03  0.11159114950E+04  0.46999998093E+01 0.  1.
</event>
<event>
 5   0  0.4487186E-06  0.2698231E+04  0.7818609E-02  0.8335579E-01
        2   -1    0    0  501    0  0.00000000000E+00  0.00000000000E+00  0.14308481826E+04  0.14308481827E+04  0.25500000920E-02 0.  1.
       -2   -1    0    0    0  501  0.00000000000E+00  0.00000000000E+00 -0.12720517450E+04  0.12720517450E+04  0.25500000920E-02 0. -1.
    10030    2    1    2    0    0  0.00000000000E+00  0.00000000000E+00  0.15879643761E+03  0.27028999277E+04  0.26982312189E+04 0.  0.
        3    1    3    3  502    0  0.12459988117E+03  0.87078191735E+03 -0.94527278131E+03  0.12912501381E+04  0.10100000352E+00 0. -1.
       -3    1    3    3    0  502 -0.12459988117E+03 -0.87078191735E+03  0.11040692189E+04  0.14116497896E+04  0.10100000352E+00 0.  1.
</event>
<event>
 5   0  0.4448804E-06  0.2693974E+04  0.7818609E-02  0.8336963E-01
        2   -1    0    0  501    0  0.00000000000E+00  0.00000000000E+00  0.11060790043E+04  0.11060790043E+04  0.25500000920E-02 0.  1.
       -2   -1    0    0    0  501  0.00000000000E+00  0.00000000000E+00 -0.16403651368E+04  0.16403651368E+04  0.25500000920E-02 0. -1.
    10030    2    1    2    0    0  0.00000000000E+00  0.00000000000E+00 -0.53428613245E+03  0.27464441411E+04  0.26939735984E+04 0.  0.
        2    1    3    3  502    0 -0.35574210473E+03  0.53752032001E+03  0.93864135339E+03  0.11386518914E+04  0.25500000920E-02 0.  1.
       -2    1    3    3    0  502  0.35574210473E+03 -0.53752032001E+03 -0.14729274858E+04  0.16077922497E+04  0.25500000920E-02 0. -1.
</event>
<event>
 5   0  0.4655882E-06  0.2688338E+04  0.7818609E-02  0.8338799E-01
        2   -1    0    0  501    0  0.00000000000E+00  0.00000000000E+00  0.17767265700E+04  0.17767265701E+04  0.25500000920E-02 0. -1.
       -2   -1    0    0    0  501  0.00000000000E+00  0.00000000000E+00 -0.10169212131E+04  0.10169212131E+04  0.25500000920E-02 0.  1.
    10030    2    1    2    0    0  0.00000000000E+00  0.00000000000E+00  0.75980535696E+03  0.27936477831E+04  0.26883384749E+04 0.  0.
        1    1    3    3  502    0 -0.49599346291E+03  0.11753054651E+04  0.82009808101E+03  0.15165465091E+04  0.50400001928E-02 0. -1.
       -1    1    3    3    0  502  0.49599346291E+03 -0.11753054651E+04 -0.60292724058E+02  0.12771012741E+04  0.50400001928E-02 0.  1.
</event>
<event>
 5   0  0.1753474E-06  0.2704196E+04  0.7818609E-02  0.8333645E-01
       -1   -1    0    0    0  501  0.00000000000E+00  0.00000000000E+00  0.12509671450E+04  0.12509671451E+04  0.50400001928E-02 0. -1.
        1   -1    0    0  501    0  0.00000000000E+00  0.00000000000E+00 -0.14614047421E+04  0.14614047421E+04  0.50400001928E-02 0.  1.
    10030    2    1    2    0    0  0.00000000000E+00  0.00000000000E+00 -0.21043759705E+03  0.27123718872E+04  0.27041962340E+04 0.  0.
        3    1    3    3  502    0 -0.51987296916E+03 -0.73867307723E+03 -0.11143736608E+04  0.14344805629E+04  0.10100000352E+00 0.  1.
       -3    1    3    3    0  502  0.51987296916E+03  0.73867307723E+03  0.90393606378E+03  0.12778913243E+04  0.10100000352E+00 0. -1.
</event>
<event>
 5   0  0.4439357E-06  0.2696738E+04  0.7818609E-02  0.8336064E-01
        2   -1    0    0  501    0  0.00000000000E+00  0.00000000000E+00  0.12554481098E+04  0.12554481099E+04  0.25500000920E-02 0.  1.
       -2   -1    0    0    0  501  0.00000000000E+00  0.00000000000E+00 -0.14481673190E+04  0.14481673190E+04  0.25500000920E-02 0. -1.
    10030    2    1    2    0    0  0.00000000000E+00  0.00000000000E+00 -0.19271920917E+03  0.27036154289E+04  0.26967379727E+04 0.  0.
        4    1    3    3  502    0 -0.79686269473E+02  0.12788648497E+04 -0.51725417389E+03  0.13818099358E+04  0.12699999809E+01 0. -1.
       -4    1    3    3    0  502  0.79686269473E+02 -0.12788648497E+04  0.32453496471E+03  0.13218054931E+04  0.12699999809E+01 0.  1.
</event>
<event>
 5   0  0.4439357E-06  0.2704571E+04  0.7818609E-02  0.8333524E-01
        2   -1    0    0  501    0  0.00000000000E+00  0.00000000000E+00  0.17066622311E+04  0.17066622311E+04  0.25500000920E-02 0. -1.
       -2   -1    0    0    0  501  0.00000000000E+00  0.00000000000E+00 -0.10714922885E+04  0.10714922885E+04  0.25500000920E-02 0.  1.
    10030    2    1    2    0    0  0.00000000000E+00  0.00000000000E+00  0.63516994261E+03  0.27781545197E+04  0.27045705166E+04 0.  0.
        4    1    3    3  502    0  0.12090972485E+04  0.60291956416E+03  0.25906435159E+03  0.13756976805E+04  0.12699999809E+01 0.  1.
       -4    1    3    3    0  502 -0.12090972485E+04 -0.60291956416E+03  0.37610559102E+03  0.14024568391E+04  0.12699999809E+01 0. -1.
</event>
<event>
 5   0  0.4401659E-06  0.2705412E+04  0.7818609E-02  0.8333251E-01
       -2   -1    0    0    0  501  0.00000000000E+00  0.00000000000E+00  0.14153952591E+04  0.14153952591E+04  0.25500000920E-02 0.  1.
        2   -1    0    0  501    0  0.00000000000E+00  0.00000000000E+00 -0.12927933006E+04  0.12927933006E+04  0.25500000920E-02 0. -1.
    10030    2    1    2    0    0  0.00000000000E+00  0.00000000000E+00  0.12260195851E+03  0.27081885597E+04  0.27054119898E+04 0.  0.
        5    1    3    3  502    0  0.68654545279E+03 -0.32551224390E+03  0.11815959053E+04  0.14048109670E+04  0.46999998093E+01 0.  1.
       -5    1    3    3    0  502 -0.68654545279E+03  0.32551224390E+03 -0.10589939468E+04  0.13033775926E+04  0.46999998093E+01 0. -1.
</event>
<event>
 5   0  0.1828511E-06  0.2830764E+04  0.7818609E-02  0.8293780E-01
       -1   -1    0    0    0  501  0.00000000000E+00  0.00000000000E+00  0.20351373765E+04  0.20351373765E+04  0.50400001928E-02 0.  1.
        1   -1    0    0  501    0  0.00000000000E+00  0.00000000000E+00 -0.98435952083E+03  0.98435952085E+03  0.50400001928E-02 0. -1.
    10030    2    1    2    0    0  0.00000000000E+00  0.00000000000E+00  0.10507778556E+04  0.30194968973E+04  0.28307644570E+04 0.  0.
        4    1    3    3  502    0  0.69249917377E+03  0.91248092893E+03  0.14121575431E+04  0.18183418520E+04  0.12699999809E+01 0.  1.
       -4    1    3    3    0  502 -0.69249917377E+03 -0.91248092893E+03 -0.36137968751E+03  0.12011550453E+04  0.12699999809E+01 0. -1.
</event>
<event>
 5   0  0.1771016E-06  0.2694984E+04  0.7818609E-02  0.8336634E-01
       -1   -1    0    0    0  501  0.00000000000E+00  0.00000000000E+00  0.22473677245E+04  0.22473677245E+04  0.50400001928E-02 0.  1.
        1   -1    0    0  501    0  0.00000000000E+00  0.00000000000E+00 -0.80793858966E+03  0.80793858968E+03  0.50400001928E-02 0. -1.
    10030    2    1    2    0    0  0.00000000000E+00  0.00000000000E+00  0.14394291349E+04  0.30553063142E+04  0.26949843115E+04 0.  0.
        2    1    3    3  502    0 -0.14737558783E+02  0.23283158682E+03  0.22242973647E+04  0.22364987168E+04  0.25500000920E-02 0.  1.
       -2    1    3    3    0  502  0.14737558783E+02 -0.23283158682E+03 -0.78486822983E+03  0.81880759746E+03  0.25500000920E-02 0. -1.
</event>
<event>
 5   0  0.4487186E-06  0.2692112E+04  0.7818609E-02  0.8337569E-01
        2   -1    0    0  501    0  0.00000000000E+00  0.00000000000E+00  0.17361644033E+04  0.17361644033E+04  0.25500000920E-02 0.  1.
       -2   -1    0    0    0  501  0.00000000000E+00  0.00000000000E+00 -0.10436031247E+04  0.10436031247E+04  0.25500000920E-02 0. -1.
    10030    2    1    2    0    0  0.00000000000E+00  0.00000000000E+00  0.69256127860E+03  0.27797675280E+04  0.26921118820E+04 0.  0.
        3    1    3    3  502    0  0.10977642239E+04  0.23861849069E+03 -0.41937614414E+03  0.11991252795E+04  0.10100000352E+00 0. -1.
       -3    1    3    3    0  502 -0.10977642239E+04 -0.23861849069E+03  0.11119374227E+04  0.15806422485E+04  0.10100000352E+00 0.  1.
</event>
<event>
 5   0  0.4439357E-06  0.2701665E+04  0.7818609E-02  0.8334465E-01
       -2   -1    0    0    0  501  0.00000000000E+00  0.00000000000E+00  0.75478999170E+03  0.75478999170E+03  0.25500000920E-02 0.  1.
        2   -1    0    0  501    0  0.00000000000E+00  0.00000000000E+00 -0.24175575931E+04  0.24175575931E+04  0.25500000920E-02 0. -1.
    10030    2    1    2    0    0  0.00000000000E+00  0.00000000000E+00 -0.16627676014E+04  0.31723475848E+04  0.27016648761E+04 0.  0.
        4    1    3    3  502    0  0.88007846902E+03 -0.10247471126E+04 -0.84323738449E+03  0.15923867797E+04  0.12699999809E+01 0. -1.
       -4    1    3    3    0  502 -0.88007846902E+03  0.10247471126E+04 -0.81953021693E+03  0.15799608052E+04  0.12699999809E+01 0.  1.
</event>
<event>
 5   0  0.4439357E-06  0.2682422E+04  0.7818609E-02  0.8340731E-01
       -2   -1    0    0    0  501  0.00000000000E+00  0.00000000000E+00  0.12908143732E+04  0.12908143732E+04  0.25500000920E-02 0.  1.
        2   -1    0    0  501    0  0.00000000000E+00  0.00000000000E+00 -0.13935750244E+04  0.13935750244E+04  0.25500000920E-02 0. -1.
    10030    2    1    2    0    0  0.00000000000E+00  0.00000000000E+00 -0.10276065124E+03  0.26843893976E+04  0.26824217950E+04 0.  0.
        4    1    3    3  502    0  0.47398504819E+03 -0.10515749525E+04  0.63349975429E+03  0.13159769216E+04  0.12699999809E+01 0.  1.
       -4    1    3    3    0  502 -0.47398504819E+03  0.10515749525E+04 -0.73626040553E+03  0.13684124759E+04  0.12699999809E+01 0. -1.
</event>
<event>
 5   0  0.1753474E-06  0.2582090E+04  0.7818609E-02  0.8374310E-01
       -1   -1    0    0    0  501  0.00000000000E+00  0.00000000000E+00  0.87695789417E+03  0.87695789418E+03  0.50400001928E-02 0.  1.
        1   -1    0    0  501    0  0.00000000000E+00  0.00000000000E+00 -0.19006588982E+04  0.19006588982E+04  0.50400001928E-02 0. -1.
    10030    2    1    2    0    0  0.00000000000E+00  0.00000000000E+00 -0.10237010040E+04  0.27776167924E+04  0.25820904902E+04 0.  0.
        3    1    3    3  502    0 -0.67007348731E+03  0.15949536480E+03 -0.16864901969E+04  0.18217262264E+04  0.10100000352E+00 0. -1.
       -3    1    3    3    0  502  0.67007348731E+03 -0.15949536480E+03  0.66278919281E+03  0.95589056596E+03  0.10100000352E+00 0.  1.
</event>
<event>
 5   0  0.1723605E-06  0.2719997E+04  0.7818609E-02  0.8328546E-01
       -1   -1    0    0    0  501  0.00000000000E+00  0.00000000000E+00  0.15302514009E+04  0.15302514009E+04  0.50400001928E-02 0.  1.
        1   -1    0    0  501    0  0.00000000000E+00  0.00000000000E+00 -0.12086874166E+04  0.12086874166E+04  0.50400001928E-02 0. -1.
    10030    2    1    2    0    0  0.00000000000E+00  0.00000000000E+00  0.32156398424E+03  0.27389388175E+04  0.27199967739E+04 0.  0.
        1    1    3    3  502    0  0.30583949396E+03  0.31311894956E+03  0.14573881604E+04  0.15216969221E+04  0.50400001928E-02 0.  1.
       -1    1    3    3    0  502 -0.30583949396E+03 -0.31311894956E+03 -0.11358241762E+04  0.12172418954E+04  0.50400001928E-02 0. -1.
</event>
<event>
 5   0  0.1828511E-06  0.2710893E+04  0.7818609E-02  0.8331479E-01
       -1   -1    0    0    0  501  0.00000000000E+00  0.00000000000E+00  0.10664519876E+04  0.10664519876E+04  0.50400001928E-02 0. -1.
        1   -1    0    0  501    0  0.00000000000E+00  0.00000000000E+00 -0.17227543887E+04  0.17227543887E+04  0.50400001928E-02 0.  1.
    10030    2    1    2    0    0  0.00000000000E+00  0.00000000000E+00 -0.65630240112E+03  0.27892063763E+04  0.27108927252E+04 0.  0.
        4    1    3    3  502    0  0.12068332511E+04  0.11635195615E+03  0.29536623437E+03  0.12478890571E+04  0.12699999809E+01 0. -1.
       -4    1    3    3    0  502 -0.12068332511E+04 -0.11635195615E+03 -0.95166863549E+03  0.15413173191E+04  0.12699999809E+01 0.  1.
</event>
<event>
 5   0  0.4655882E-06  0.2691319E+04  0.7818609E-02  0.8337827E-01
       -2   -1    0    0    0  501  0.00000000000E+00  0.00000000000E+00  0.10048965462E+04  0.10048965462E+04  0.25500000920E-02 0.  1.
        2   -1    0    0  501    0  0.00000000000E+00  0.00000000000E+00 -0.18019757566E+04  0.18019757566E+04  0.25500000920E-02 0. -1.
    10030    2    1    2    0    0  0.00000000000E+00  0.00000000000E+00 -0.79707921034E+03  0.28068723028E+04  0.26913187950E+04 0.  0.
        1    1    3    3  502    0 -0.12692029625E+04 -0.18279690441E+02 -0.86447500823E+03  0.15357497671E+04  0.50400001928E-02 0.  1.
       -1    1    3    3    0  502  0.12692029625E+04  0.18279690441E+02  0.67395797884E+02  0.12711225357E+04  0.50400001928E-02 0. -1.
</event>
<event>
 5   0  0.4439357E-06  0.2682501E+04  0.7818609E-02  0.8340705E-01
        2   -1    0    0  501    0  0.00000000000E+00  0.00000000000E+00  0.17063783879E+04  0.17063783879E+04  0.25500000920E-02 0.  1.
       -2   -1    0    0    0  501  0.00000000000E+00  0.00000000000E+00 -0.10542518348E+04  0.10542518348E+04  0.25500000920E-02 0. -1.
    10030    2    1    2    0    0  0.00000000000E+00  0.00000000000E+00  0.65212655315E+03  0.27606302227E+04  0.26825007334E+04 0.  0.
        4    1    3    3  502    0 -0.64337569667E+03 -0.99027744228E+03  0.98048459925E+03  0.15349050010E+04  0.12699999809E+01 0.  1.
       -4    1    3    3    0  502  0.64337569667E+03  0.99027744228E+03 -0.32835804610E+03  0.12257252217E+04  0.12699999809E+01 0. -1.
</event>
<event>
 5   0  0.1732312E-06  0.2707589E+04  0.7818609E-02  0.8332547E-01
        1   -1    0    0  501    0  0.00000000000E+00  0.00000000000E+00  0.17279741127E+04  0.17279741127E+04  0.50400001928E-02 0.  1.
       -1   -1    0    0    0  501  0.00000000000E+00  0.00000000000E+00 -0.10606405989E+04  0.10606405989E+04  0.50400001928E-02 0. -1.
    10030    2    1    2    0    0  0.00000000000E+00  0.00000000000E+00  0.66733351379E+03  0.27886147116E+04  0.27075889628E+04 0.  0.
        5    1    3    3  502    0 -0.10532010125E+03 -0.53128508878E+03 -0.94418029030E+03  0.10885103031E+04  0.46999998093E+01 0. -1.
       -5    1    3    3    0  502  0.10532010125E+03  0.53128508878E+03  0.16115138041E+04  0.17001044086E+04  0.46999998093E+01 0.  1.
</event>
<event>
 5   0  0.4655882E-06  0.2689213E+04  0.7818609E-02  0.8338513E-01
        2   -1    0    0  501    0  0.00000000000E+00  0.00000000000E+00  0.16005884030E+04  0.16005884030E+04  0.25500000920E-02 0.  1.
       -2   -1    0    0    0  501  0.00000000000E+00  0.00000000000E+00 -0.11295640687E+04  0.11295640687E+04  0.25500000920E-02 0. -1.
    10030    2    1    2    0    0  0.00000000000E+00  0.00000000000E+00  0.47102433434E+03  0.27301524717E+04  0.26892133785E+04 0.  0.
        1    1    3    3  502    0  0.20794063810E+03 -0.11069851930E+04  0.98107032821E+03  0.14937049627E+04  0.50400001928E-02 0. -1.
       -1    1    3    3    0  502 -0.20794063810E+03  0.11069851930E+04 -0.51004599387E+03  0.12364475090E+04  0.50400001928E-02 0.  1.
</event>
<event>
 5   0  0.1753474E-06  0.2698578E+04  0.7818609E-02  0.8335466E-01
        1   -1    0    0  501    0  0.00000000000E+00  0.00000000000E+00  0.19818113030E+04  0.19818113030E+04  0.50400001928E-02 0.  1.
       -1   -1    0    0    0  501  0.00000000000E+00  0.00000000000E+00 -0.91864500591E+03  0.91864500592E+03  0.50400001928E-02 0. -1.
    10030    2    1    2    0    0  0.00000000000E+00  0.00000000000E+00  0.10631662971E+04  0.29004563089E+04  0.26985781858E+04 0.  0.
        3    1    3    3  502    0 -0.63484453307E+03 -0.29042020116E+03  0.17726081590E+04  0.19051275994E+04  0.10100000352E+00 0.  1.
       -3    1    3    3    0  502  0.63484453307E+03  0.29042020116E+03 -0.70944186190E+03  0.99532870954E+03  0.10100000352E+00 0. -1.
</event>
<event>
 5   0  0.1482875E-06  0.2727275E+04  0.7818609E-02  0.8326209E-01
       -3   -1    0    0    0  501  0.00000000000E+00  0.00000000000E+00  0.18777135523E+04  0.18777135550E+04  0.10100000352E+00 0. -1.
        3   -1    0    0  501    0  0.00000000000E+00  0.00000000000E+00 -0.99030421672E+03  0.99030422187E+03  0.10100000352E+00 0.  1.
    10030    2    1    2    0    0  0.00000000000E+00  0.00000000000E+00  0.88740933557E+03  0.28680177769E+04  0.27272753142E+04 0.  0.
        3    1    3    3  502    0  0.45561890089E+03  0.11729262353E+04  0.99633623961E+03  0.16050016975E+04  0.10100000352E+00 0. -1.
       -3    1    3    3    0  502 -0.45561890089E+03 -0.11729262353E+04 -0.10892690404E+03  0.12630160794E+04  0.10100000352E+00 0.  1.
</event>
<event>
 5   0  0.1732312E-06  0.2694317E+04  0.7818609E-02  0.8336851E-01
        1   -1    0    0  501    0  0.00000000000E+00  0.00000000000E+00  0.22556192310E+04  0.22556192310E+04  0.50400001928E-02 0.  1.
       -1   -1    0    0    0  501  0.00000000000E+00  0.00000000000E+00 -0.80458446357E+03  0.80458446359E+03  0.50400001928E-02 0. -1.
    10030    2    1    2    0    0  0.00000000000E+00  0.00000000000E+00  0.14510347674E+04  0.30602036946E+04  0.26943171224E+04 0.  0.
        5    1    3    3  502    0  0.62477498035E+03  0.52823794067E+03 -0.49007186113E+03  0.95371464134E+03  0.46999998093E+01 0. -1.
       -5    1    3    3    0  502 -0.62477498035E+03 -0.52823794067E+03  0.19411066285E+04  0.21064890532E+04  0.46999998093E+01 0.  1.
</event>
<event>
 5   0  0.1771016E-06  0.2702218E+04  0.7818609E-02  0.8334286E-01
       -1   -1    0    0    0  501  0.00000000000E+00  0.00000000000E+00  0.13039336550E+04  0.13039336551E+04  0.50400001928E-02 0.  1.
        1   -1    0    0  501    0  0.00000000000E+00  0.00000000000E+00 -0.13999910799E+04  0.13999910799E+04  0.50400001928E-02 0. -1.
    10030    2    1    2    0    0  0.00000000000E+00  0.00000000000E+00 -0.96057424850E+02  0.27039247350E+04  0.27022179674E+04 0.  0.
        2    1    3    3  502    0  0.73447428228E+03 -0.30182324361E+03  0.10457974701E+04  0.13131039906E+04  0.25500000920E-02 0.  1.
       -2    1    3    3    0  502 -0.73447428228E+03  0.30182324361E+03 -0.11418548950E+04  0.13908207443E+04  0.25500000920E-02 0. -1.
</event>
<event>
 5   0  0.4401659E-06  0.2693427E+04  0.7818609E-02  0.8337141E-01
        2   -1    0    0  501    0  0.00000000000E+00  0.00000000000E+00  0.12762205625E+04  0.12762205625E+04  0.25500000920E-02 0.  1.
       -2   -1    0    0    0  501  0.00000000000E+00  0.00000000000E+00 -0.14211005896E+04  0.14211005896E+04  0.25500000920E-02 0. -1.
    10030    2    1    2    0    0  0.00000000000E+00  0.00000000000E+00 -0.14488002704E+03  0.26973211521E+04  0.26934274030E+04 0.  0.
        5    1    3    3  502    0 -0.61699275667E+03 -0.42479783179E+03  0.10483214956E+04  0.12884616051E+04  0.46999998093E+01 0.  1.
       -5    1    3    3    0  502  0.61699275667E+03  0.42479783179E+03 -0.11932015226E+04  0.14088595470E+04  0.46999998093E+01 0. -1.
</event>
<event>
 5   0  0.4439357E-06  0.2702063E+04  0.7818609E-02  0.8334336E-01
       -2   -1    0    0    0  501  0.00000000000E+00  0.00000000000E+00  0.71756073408E+03  0.71756073408E+03  0.25500000920E-02 0.  1.
        2   -1    0    0  501    0  0.00000000000E+00  0.00000000000E+00 -0.25437375764E+04  0.25437375764E+04  0.25500000920E-02 0. -1.
    10030    2    1    2    0    0  0.00000000000E+00  0.00000000000E+00 -0.18261768423E+04  0.32612983104E+04  0.27020630656E+04 0.  0.
        4    1    3    3  502    0 -0.21558057963E+03  0.49437708273E+02 -0.25217371172E+04  0.25314183325E+04  0.12699999809E+01 0. -1.
       -4    1    3    3    0  502  0.21558057963E+03 -0.49437708273E+02  0.69556027486E+03  0.72987997793E+03  0.12699999809E+01 0.  1.
</event>
<event>
 5   0  0.1723605E-06  0.2699052E+04  0.7818609E-02  0.8335313E-01
        1   -1    0    0  501    0  0.00000000000E+00  0.00000000000E+00  0.15253837841E+04  0.15253837841E+04  0.50400001928E-02 0. -1.
       -1   -1    0    0    0  501  0.00000000000E+00  0.00000000000E+00 -0.11939426558E+04  0.11939426558E+04  0.50400001928E-02 0.  1.
    10030    2    1    2    0    0  0.00000000000E+00  0.00000000000E+00  0.33144112830E+03  0.27193264400E+04  0.26990522532E+04 0.  0.
        1    1    3    3  502    0 -0.11189446900E+04  0.62968247076E+03  0.58439410516E+03  0.14106926326E+04  0.50400001928E-02 0. -1.
       -1    1    3    3    0  502  0.11189446900E+04 -0.62968247076E+03 -0.25295297686E+03  0.13086338074E+04  0.50400001928E-02 0.  1.
</event>
<event>
 5   0  0.4401659E-06  0.2674822E+04  0.7818609E-02  0.8343221E-01
       -2   -1    0    0    0  501  0.00000000000E+00  0.00000000000E+00  0.15910673594E+04  0.15910673594E+04  0.25500000920E-02 0. -1.
        2   -1    0    0  501    0  0.00000000000E+00  0.00000000000E+00 -0.11241936312E+04  0.11241936312E+04  0.25500000920E-02 0.  1.
    10030    2    1    2    0    0  0.00000000000E+00  0.00000000000E+00  0.46687372817E+03  0.27152609905E+04  0.26748217078E+04 0.  0.
        5    1    3    3  502    0  0.60988044204E+03 -0.11716507619E+04  0.20682845950E+02  0.13210486485E+04  0.46999998093E+01 0.  1.
       -5    1    3    3    0  502 -0.60988044204E+03  0.11716507619E+04  0.44619088222E+03  0.13942123421E+04  0.46999998093E+01 0. -1.
</event>
<event>
 5   0  0.1732312E-06  0.2702982E+04  0.7818609E-02  0.8334038E-01
       -1   -1    0    0    0  501  0.00000000000E+00  0.00000000000E+00  0.16867205813E+04  0.16867205813E+04  0.50400001928E-02 0. -1.
        1   -1    0    0  501    0  0.00000000000E+00  0.00000000000E+00 -0.10828872885E+04  0.10828872885E+04  0.50400001928E-02 0.  1.
    10030    2    1    2    0    0  0.00000000000E+00  0.00000000000E+00  0.60383329281E+03  0.27696078698E+04  0.27029822616E+04 0.  0.
        5    1    3    3  502    0 -0.30614806070E+02 -0.19609817076E+03 -0.10678647684E+04  0.10861625167E+04  0.46999998093E+01 0.  1.
       -5    1    3    3    0  502  0.30614806070E+02  0.19609817076E+03  0.16716980612E+04  0.16834453531E+04  0.46999998093E+01 0. -1.
</event>
<event>
 5   0  0.4487186E-06  0.2697674E+04  0.7818609E-02  0.8335760E-01
       -2   -1    0    0    0  501  0.00000000000E+00  0.00000000000E+00  0.17215678557E+04  0.17215678557E+04  0.25500000920E-02 0. -1.
        2   -1    0    0  501    0  0.00000000000E+00  0.00000000000E+00 -0.10568045744E+04  0.10568045744E+04  0.25500000920E-02 0.  1.
    10030    2    1    2    0    0  0.00000000000E+00  0.00000000000E+00  0.66476328128E+03  0.27783724301E+04  0.26976736534E+04 0.  0.
        3    1    3    3  502    0 -0.54668830716E+03  0.12235967133E+04  0.48960388178E+03  0.14268037683E+04  0.10100000352E+00 0.  1.
       -3    1    3    3    0  502  0.54668830716E+03 -0.12235967133E+04  0.17515939951E+03  0.13515686618E+04  0.10100000352E+00 0. -1.
</event>
<event>
 5   0  0.4401659E-06  0.2705260E+04  0.7818609E-02  0.8333300E-01
        2   -1    0    0  501    0  0.00000000000E+00  0.00000000000E+00  0.17682315110E+04  0.17682315110E+04  0.25500000920E-02 0.  1.
       -2   -1    0    0    0  501  0.00000000000E+00  0.00000000000E+00 -0.10347107739E+04  0.10347107739E+04  0.25500000920E-02 0. -1.
    10030    2    1    2    0    0  0.00000000000E+00  0.00000000000E+00  0.73352073718E+03  0.28029422849E+04  0.27052602057E+04 0.  0.
        5    1    3    3  502    0 -0.28180472653E+03  0.13213517855E+04  0.43392112456E+03  0.14190468904E+04  0.46999998093E+01 0.  1.
       -5    1    3    3    0  502  0.28180472653E+03 -0.13213517855E+04  0.29959961262E+03  0.13838953945E+04  0.46999998093E+01 0. -1.
</event>
<event>
 5   0  0.1828511E-06  0.2693265E+04  0.7818609E-02  0.8337193E-01
       -1   -1    0    0    0  501  0.00000000000E+00  0.00000000000E+00  0.11088264324E+04  0.11088264324E+04  0.50400001928E-02 0. -1.
        1   -1    0    0  501    0  0.00000000000E+00  0.00000000000E+00 -0.16354403497E+04  0.16354403497E+04  0.50400001928E-02 0.  1.
    10030    2    1    2    0    0  0.00000000000E+00  0.00000000000E+00 -0.52661391725E+03  0.27442667821E+04  0.26932652958E+04 0.  0.
        4    1    3    3  502    0 -0.77575199715E+02  0.12619608610E+04 -0.73560883693E+03  0.14627662493E+04  0.12699999809E+01 0. -1.
       -4    1    3    3    0  502  0.77575199715E+02 -0.12619608610E+04  0.20899491968E+03  0.12815005328E+04  0.12699999809E+01 0.  1.
</event>
<event>
 5   0  0.4487186E-06  0.2707746E+04  0.7818609E-02  0.8332496E-01
       -2   -1    0    0    0  501  0.00000000000E+00  0.00000000000E+00  0.85825186191E+03  0.85825186191E+03  0.25500000920E-02 0. -1.
        2   -1    0    0  501    0  0.00000000000E+00  0.00000000000E+00 -0.21357036327E+04  0.21357036327E+04  0.25500000920E-02 0.  1.
    10030    2    1    2    0    0  0.00000000000E+00  0.00000000000E+00 -0.12774517708E+04  0.29939554946E+04  0.27077456448E+04 0.  0.
        3    1    3    3  502    0  0.10876698296E+04  0.38840749518E+03 -0.14198588759E+04  0.18302691819E+04  0.10100000352E+00 0.  1.
       -3    1    3    3    0  502 -0.10876698296E+04 -0.38840749518E+03  0.14240710511E+03  0.11636863127E+04  0.10100000352E+00 0. -1.
</event>
<event>
 5   0  0.4448804E-06  0.2696223E+04  0.7818609E-02  0.8336231E-01
        2   -1    0    0  501    0  0.00000000000E+00  0.00000000000E+00  0.10806147782E+04  0.10806147782E+04  0.25500000920E-02 0.  1.
       -2   -1    0    0    0  501  0.00000000000E+00  0.00000000000E+00 -0.16818253113E+04  0.16818253113E+04  0.25500000920E-02 0. -1.
    10030    2    1    2    0    0  0.00000000000E+00  0.00000000000E+00 -0.60121053309E+03  0.27624400895E+04  0.26962234965E+04 0.  0.
        2    1    3    3  502    0 -0.10501606739E+04 -0.72563338071E+03  0.14366134006E+03  0.12845309747E+04  0.25500000920E-02 0. -1.
       -2    1    3    3    0  502  0.10501606739E+04  0.72563338071E+03 -0.74487187315E+03  0.14779091148E+04  0.25500000920E-02 0.  1.
</event>
<event>
 5   0  0.4439357E-06  0.2700759E+04  0.7818609E-02  0.8334759E-01
        2   -1    0    0  501    0  0.00000000000E+00  0.00000000000E+00  0.15838655187E+04  0.15838655187E+04  0.25500000920E-02 0.  1.
       -2   -1    0    0    0  501  0.00000000000E+00  0.00000000000E+00 -0.11513131071E+04  0.11513131071E+04  0.25500000920E-02 0. -1.
    10030    2    1    2    0    0  0.00000000000E+00  0.00000000000E+00  0.43255241154E+03  0.27351786258E+04  0.27007592500E+04 0.  0.
        4    1    3    3  502    0  0.16148388274E+03 -0.13277099287E+04  0.40474686388E+03  0.13973948389E+04  0.12699999809E+01 0.  1.
       -4    1    3    3    0  502 -0.16148388274E+03  0.13277099287E+04  0.27805547662E+02  0.13377837869E+04  0.12699999809E+01 0. -1.
</event>
<event>
 5   0  0.4401659E-06  0.2689165E+04  0.7818609E-02  0.8338529E-01
        2   -1    0    0  501    0  0.00000000000E+00  0.00000000000E+00  0.96143898290E+03  0.96143898291E+03  0.25500000920E-02 0.  1.
       -2   -1    0    0    0  501  0.00000000000E+00  0.00000000000E+00 -0.18804131691E+04  0.18804131691E+04  0.25500000920E-02 0. -1.
    10030    2    1    2    0    0  0.00000000000E+00  0.00000000000E+00 -0.91897418619E+03  0.28418521520E+04  0.26891653164E+04 0.  0.
        5    1    3    3  502    0 -0.97029389494E+02 -0.13326292385E+04 -0.30074135265E+03  0.13695922170E+04  0.46999998093E+01 0.  1.
       -5    1    3    3    0  502  0.97029389494E+02  0.13326292385E+04 -0.61823283354E+03  0.14722599350E+04  0.46999998093E+01 0. -1.
</event>
<event>
 5   0  0.4655882E-06  0.2638073E+04  0.7818609E-02  0.8355383E-01
       -2   -1    0    0    0  501  0.00000000000E+00  0.00000000000E+00  0.63376102452E+03  0.63376102453E+03  0.25500000920E-02 0. -1.
        2   -1    0    0  501    0  0.00000000000E+00  0.00000000000E+00 -0.27452889256E+04  0.27452889256E+04  0.25500000920E-02 0.  1.
    10030    2    1    2    0    0  0.00000000000E+00  0.00000000000E+00 -0.21115279010E+04  0.33790499501E+04  0.26380728740E+04 0.  0.
        1    1    3    3  502    0 -0.37959174671E+03  0.43096985986E+03  0.46521197452E+03  0.73908531006E+03  0.50400001928E-02 0. -1.
       -1    1    3    3    0  502  0.37959174671E+03 -0.43096985986E+03 -0.25767398756E+04  0.26399646400E+04  0.50400001928E-02 0.  1.
</event>
<event>
 5   0  0.4655882E-06  0.2698137E+04  0.7818609E-02  0.8335610E-01
       -2   -1    0    0    0  501  0.00000000000E+00  0.00000000000E+00  0.15056193259E+04  0.15056193259E+04  0.25500000920E-02 0. -1.
        2   -1    0    0  501    0  0.00000000000E+00  0.00000000000E+00 -0.12087951277E+04  0.12087951277E+04  0.25500000920E-02 0.  1.
    10030    2    1    2    0    0  0.00000000000E+00  0.00000000000E+00  0.29682419826E+03  0.27144144536E+04  0.26981366202E+04 0.  0.
        1    1    3    3  502    0  0.43925745820E+03  0.12557133613E+04  0.37386708912E+03  0.13818609773E+04  0.50400001928E-02 0.  1.
       -1    1    3    3    0  502 -0.43925745820E+03 -0.12557133613E+04 -0.77042890864E+02  0.13325534763E+04  0.50400001928E-02 0. -1.
</event>
<event>
 5   0  0.1723605E-06  0.2696638E+04  0.7818609E-02  0.8336097E-01
       -1   -1    0    0    0  501  0.00000000000E+00  0.00000000000E+00  0.79067358692E+03  0.79067358693E+03  0.50400001928E-02 0.  1.
        1   -1    0    0  501    0  0.00000000000E+00  0.00000000000E+00 -0.22992604007E+04  0.22992604007E+04  0.50400001928E-02 0. -1.
    10030    2    1    2    0    0  0.00000000000E+00  0.00000000000E+00 -0.15085868138E+04  0.30899339877E+04  0.26966382541E+04 0.  0.
        1    1    3    3  502    0 -0.75119536543E+03 -0.64743823064E+03  0.29244473344E+03  0.10339219805E+04  0.50400001928E-02 0.  1.
       -1    1    3    3    0  502  0.75119536543E+03  0.64743823064E+03 -0.18010315473E+04  0.20560120072E+04  0.50400001928E-02 0. -1.
</event>
<event>
 5   0  0.1771016E-06  0.2694953E+04  0.7818609E-02  0.8336644E-01
        1   -1    0    0  501    0  0.00000000000E+00  0.00000000000E+00  0.13989087533E+04  0.13989087534E+04  0.50400001928E-02 0.  1.
       -1   -1    0    0    0  501  0.00000000000E+00  0.00000000000E+00 -0.12979355928E+04  0.12979355929E+04  0.50400001928E-02 0. -1.
    10030    2    1    2    0    0  0.00000000000E+00  0.00000000000E+00  0.10097316050E+03  0.26968443462E+04  0.26949534038E+04 0.  0.
        2    1    3    3  502    0 -0.73658484888E+03  0.28773220295E+03  0.11422820859E+04  0.13893003361E+04  0.25500000920E-02 0.  1.
       -2    1    3    3    0  502  0.73658484888E+03 -0.28773220295E+03 -0.10413089254E+04  0.13075440101E+04  0.25500000920E-02 0. -1.
</event>
<event>
 5   0  0.4655882E-06  0.2709982E+04  0.7818609E-02  0.8331773E-01
       -2   -1    0    0    0  501  0.00000000000E+00  0.00000000000E+00  0.11727214425E+04  0.11727214425E+04  0.25500000920E-02 0. -1.
        2   -1    0    0  501    0  0.00000000000E+00  0.00000000000E+00 -0.15655898621E+04  0.15655898621E+04  0.25500000920E-02 0.  1.
    10030    2    1    2    0    0  0.00000000000E+00  0.00000000000E+00 -0.39286841954E+03  0.27383113046E+04  0.27099821413E+04 0.  0.
        1    1    3    3  502    0 -0.30872630465E+03 -0.45044282338E+03  0.10566057629E+04  0.11893806819E+04  0.50400001928E-02 0. -1.
       -1    1    3    3    0  502  0.30872630465E+03  0.45044282338E+03 -0.14494741824E+04  0.15489306227E+04  0.50400001928E-02 0.  1.
</event>
<event>
 5   0  0.1732312E-06  0.2698435E+04  0.7818609E-02  0.8335513E-01
       -1   -1    0    0    0  501  0.00000000000E+00  0.00000000000E+00  0.97566587391E+03  0.97566587392E+03  0.50400001928E-02 0. -1.
        1   -1    0    0  501    0  0.00000000000E+00  0.00000000000E+00 -0.18657904241E+04  0.18657904241E+04  0.50400001928E-02 0.  1.
    10030    2    1    2    0    0  0.00000000000E+00  0.00000000000E+00 -0.89012455019E+03  0.28414562980E+04  0.26984351352E+04 0.  0.
        5    1    3    3  502    0 -0.59854714185E+03 -0.31921134078E+03  0.78303340046E+03  0.10360105971E+04  0.46999998093E+01 0. -1.
       -5    1    3    3    0  502  0.59854714185E+03  0.31921134078E+03 -0.16731579507E+04  0.18054457009E+04  0.46999998093E+01 0.  1.
</event>
<event>
 5   0  0.4401659E-06  0.2697668E+04  0.7818609E-02  0.8335762E-01
       -2   -1    0    0    0  501  0.00000000000E+00  0.00000000000E+00  0.10037917313E+04  0.10037917313E+04  0.25500000920E-02 0. -1.
        2   -1    0    0  501    0  0.00000000000E+00  0.00000000000E+00 -0.18124809779E+04  0.18124809779E+04  0.25500000920E-02 0.  1.
    10030    2    1    2    0    0  0.00000000000E+00  0.00000000000E+00 -0.80868924654E+03  0.28162727092E+04  0.26976681922E+04 0.  0.
        5    1    3    3  502    0  0.13336964513E+04 -0.14917813237E+03 -0.54568919271E+03  0.14487232740E+04  0.46999998093E+01 0.  1.
       -5    1    3    3    0  502 -0.13336964513E+04  0.14917813237E+03 -0.26300005383E+03  0.13675494352E+04  0.46999998093E+01 0. -1.
</event>
<event>
 5   0  0.1753474E-06  0.2703138E+04  0.7818609E-02  0.8333988E-01
        1   -1    0    0  501    0  0.00000000000E+00  0.00000000000E+00  0.17032845032E+04  0.17032845032E+04  0.50400001928E-02 0.  1.
       -1   -1    0    0    0  501  0.00000000000E+00  0.00000000000E+00 -0.10724798142E+04  0.10724798142E+04  0.50400001928E-02 0. -1.
    10030    2    1    2    0    0  0.00000000000E+00  0.00000000000E+00  0.63080468897E+03  0.27757643175E+04  0.27031376196E+04 0.  0.
        3    1    3    3  502    0 -0.13240974043E+04 -0.25711900639E+03  0.22710297171E+03  0.13678157367E+04  0.10100000352E+00 0. -1.
       -3    1    3    3    0  502  0.13240974043E+04  0.25711900639E+03  0.40370171727E+03  0.14079485808E+04  0.10100000352E+00 0.  1.
</event>
<event>
 5   0  0.4448804E-06  0.2700059E+04  0.7818609E-02  0.8334986E-01
        2   -1    0    0  501    0  0.00000000000E+00  0.00000000000E+00  0.17429249561E+04  0.17429249561E+04  0.25500000920E-02 0. -1.
       -2   -1    0    0    0  501  0.00000000000E+00  0.00000000000E+00 -0.10457018335E+04  0.10457018335E+04  0.25500000920E-02 0.  1.
    10030    2    1    2    0    0  0.00000000000E+00  0.00000000000E+00  0.69722312262E+03  0.27886267896E+04  0.27000591270E+04 0.  0.
        2    1    3    3  502    0  0.42851819899E+03 -0.11928191447E+04 -0.13154086930E+03  0.12742638499E+04  0.25500000920E-02 0.  1.
       -2    1    3    3    0  502 -0.42851819899E+03  0.11928191447E+04  0.82876399192E+03  0.15143629397E+04  0.25500000920E-02 0. -1.
</event>
<event>
 5   0  0.1828511E-06  0.2705668E+04  0.7818609E-02  0.8333168E-01
        1   -1    0    0  501    0  0.00000000000E+00  0.00000000000E+00  0.12103918464E+04  0.12103918464E+04  0.50400001928E-02 0.  1.
       -1   -1    0    0    0  501  0.00000000000E+00  0.00000000000E+00 -0.15120392645E+04  0.15120392645E+04  0.50400001928E-02 0. -1.
    10030    2    1    2    0    0  0.00000000000E+00  0.00000000000E+00 -0.30164741810E+03  0.27224311109E+04  0.27056681224E+04 0.  0.
        4    1    3    3  502    0 -0.82535183332E+03  0.10590790900E+04  0.15439912319E+02  0.13427934210E+04  0.12699999809E+01 0.  1.
       -4    1    3    3    0  502  0.82535183332E+03 -0.10590790900E+04 -0.31708733042E+03  0.13796376900E+04  0.12699999809E+01 0. -1.
</event>
<event>
 5   0  0.1732312E-06  0.2710590E+04  0.7818609E-02  0.8331577E-01
       -1   -1    0    0    0  501  0.00000000000E+00  0.00000000000E+00  0.16922436555E+04  0.16922436555E+04  0.50400001928E-02 0.  1.
        1   -1    0    0  501    0  0.00000000000E+00  0.00000000000E+00 -0.10854375745E+04  0.10854375745E+04  0.50400001928E-02 0. -1.
    10030    2    1    2    0    0  0.00000000000E+00  0.00000000000E+00  0.60680608096E+03  0.27776812300E+04  0.27105902301E+04 0.  0.
        5    1    3    3  502    0  0.88422678105E+03  0.69131298649E+03 -0.47502509948E+03  0.12187869300E+04  0.46999998093E+01 0. -1.
       -5    1    3    3    0  502 -0.88422678105E+03 -0.69131298649E+03  0.10818311804E+04  0.15588943000E+04  0.46999998093E+01 0.  1.
</event>
<event>
 5   0  0.1753474E-06  0.2731989E+04  0.7818609E-02  0.8324700E-01
        1   -1    0    0  501    0  0.00000000000E+00  0.00000000000E+00  0.17893007833E+04  0.17893007833E+04  0.50400001928E-02 0. -1.
       -1   -1    0    0    0  501  0.00000000000E+00  0.00000000000E+00 -0.10428321877E+04  0.10428321877E+04  0.50400001928E-02 0.  1.
    10030    2    1    2    0    0  0.00000000000E+00  0.00000000000E+00  0.74646859557E+03  0.28321329710E+04  0.27319886166E+04 0.  0.
        3    1    3    3  502    0 -0.37479400076E+03  0.94623778452E+03  0.13177321950E+04  0.16650088996E+04  0.10100000352E+00 0. -1.
       -3    1    3    3    0  502  0.37479400076E+03 -0.94623778452E+03 -0.57126359941E+03  0.11671240714E+04  0.10100000352E+00 0.  1.
</event>
<event>
 5   0  0.1771016E-06  0.2705289E+04  0.7818609E-02  0.8333291E-01
       -1   -1    0    0    0  501  0.00000000000E+00  0.00000000000E+00  0.16705236646E+04  0.16705236646E+04  0.50400001928E-02 0. -1.
        1   -1    0    0  501    0  0.00000000000E+00  0.00000000000E+00 -0.10952535579E+04  0.10952535579E+04  0.50400001928E-02 0.  1.
    10030    2    1    2    0    0  0.00000000000E+00  0.00000000000E+00  0.57527010669E+03  0.27657772225E+04  0.27052888845E+04 0.  0.
        2    1    3    3  502    0 -0.51193047488E+03  0.11791181927E+04  0.71806466154E+03  0.14724161714E+04  0.25500000920E-02 0.  1.
       -2    1    3    3    0  502  0.51193047488E+03 -0.11791181927E+04 -0.14279455485E+03  0.12933610511E+04  0.25500000920E-02 0. -1.
</event>
<event>
 5   0  0.4487186E-06  0.2695861E+04  0.7818609E-02  0.8336349E-01
       -2   -1    0    0    0  501  0.00000000000E+00  0.00000000000E+00  0.74315598088E+03  0.74315598089E+03  0.25500000920E-02 0.  1.
        2   -1    0    0  501    0  0.00000000000E+00  0.00000000000E+00 -0.24448664735E+04  0.24448664735E+04  0.25500000920E-02 0. -1.
    10030    2    1    2    0    0  0.00000000000E+00  0.00000000000E+00 -0.17017104926E+04  0.31880224544E+04  0.26958613779E+04 0.  0.
        3    1    3    3  502    0 -0.69598299718E+03 -0.78535035527E+03  0.14961546117E+03  0.10599775041E+04  0.10100000352E+00 0.  1.
       -3    1    3    3    0  502  0.69598299718E+03  0.78535035527E+03 -0.18513259538E+04  0.21280449502E+04  0.10100000352E+00 0. -1.
</event>
<event>
 5   0  0.4655882E-06  0.2705334E+04  0.7818609E-02  0.8333276E-01
        2   -1    0    0  501    0  0.00000000000E+00  0.00000000000E+00  0.13871676243E+04  0.13871676243E+04  0.25500000920E-02 0. -1.
       -2   -1    0    0    0  501  0.00000000000E+00  0.00000000000E+00 -0.13190242906E+04  0.13190242906E+04  0.25500000920E-02 0.  1.
    10030    2    1    2    0    0  0.00000000000E+00  0.00000000000E+00  0.68143333639E+02  0.27061919149E+04  0.27053338364E+04 0.  0.
        1    1    3    3  502    0 -0.81129279967E+03 -0.56123393147E+03  0.95985333266E+03  0.13764076260E+04  0.50400001928E-02 0. -1.
       -1    1    3    3    0  502  0.81129279967E+03  0.56123393147E+03 -0.89170999902E+03  0.13297842889E+04  0.50400001928E-02 0.  1.
</event>
<event>
 5   0  0.1771016E-06  0.2694468E+04  0.7818609E-02  0.8336802E-01
       -1   -1    0    0    0  501  0.00000000000E+00  0.00000000000E+00  0.87467720678E+03  0.87467720680E+03  0.50400001928E-02 0. -1.
        1   -1    0    0  501    0  0.00000000000E+00  0.00000000000E+00 -0.20750962893E+04  0.20750962893E+04  0.50400001928E-02 0.  1.
    10030    2    1    2    0    0  0.00000000000E+00  0.00000000000E+00 -0.12004190825E+04  0.29497734961E+04  0.26944679817E+04 0.  0.
        2    1    3    3  502    0  0.74511829268E+03 -0.77273167082E+02  0.62565188794E+03  0.97601879968E+03  0.25500000920E-02 0. -1.
       -2    1    3    3    0  502 -0.74511829268E+03  0.77273167082E+02 -0.18260709704E+04  0.19737546964E+04  0.25500000920E-02 0.  1.
</event>
<event>
 5   0  0.1828511E-06  0.2676880E+04  0.7818609E-02  0.8342546E-01
       -1   -1    0    0    0  501  0.00000000000E+00  0.00000000000E+00  0.92124062894E+03  0.92124062895E+03  0.50400001928E-02 0. -1.
        1   -1    0    0  501    0  0.00000000000E+00  0.00000000000E+00 -0.19445748790E+04  0.19445748790E+04  0.50400001928E-02 0.  1.
    10030    2    1    2    0    0  0.00000000000E+00  0.00000000000E+00 -0.10233342500E+04  0.28658155079E+04  0.26768798139E+04 0.  0.
        4    1    3    3  502    0  0.86867192035E+03  0.10173766964E+04 -0.46658151925E+03  0.14168084467E+04  0.12699999809E+01 0.  1.
       -4    1    3    3    0  502 -0.86867192035E+03 -0.10173766964E+04 -0.55675273079E+03  0.14490070613E+04  0.12699999809E+01 0. -1.
</event>
<event>
 5   0  0.1753474E-06  0.2804482E+04  0.7818609E-02  0.8301878E-01
       -1   -1    0    0    0  501  0.00000000000E+00  0.00000000000E+00  0.13707741151E+04  0.13707741151E+04  0.50400001928E-02 0. -1.
        1   -1    0    0  501    0  0.00000000000E+00  0.00000000000E+00 -0.14344301275E+04  0.14344301275E+04  0.50400001928E-02 0.  1.
    10030    2    1    2    0    0  0.00000000000E+00  0.00000000000E+00 -0.63656012386E+02  0.28052042427E+04  0.28044819049E+04 0.  0.
        3    1    3    3  502    0 -0.10869083537E+04 -0.85528508417E+02 -0.91386848040E+03  0.14226174837E+04  0.10100000352E+00 0.  1.
       -3    1    3    3    0  502  0.10869083537E+04  0.85528508417E+02  0.85021246801E+03  0.13825867590E+04  0.10100000352E+00 0. -1.
</event>
<event>
 5   0  0.1828511E-06  0.2704118E+04  0.7818609E-02  0.8333670E-01
       -1   -1    0    0    0  501  0.00000000000E+00  0.00000000000E+00  0.11611741579E+04  0.11611741579E+04  0.50400001928E-02 0. -1.
        1   -1    0    0  501    0  0.00000000000E+00  0.00000000000E+00 -0.15743238162E+04  0.15743238162E+04  0.50400001928E-02 0.  1.
    10030    2    1    2    0    0  0.00000000000E+00  0.00000000000E+00 -0.41314965828E+03  0.27354979741E+04  0.27041184379E+04 0.  0.
        4    1    3    3  502    0  0.13304352070E+04 -0.10699433109E+03 -0.42484916608E+03  0.14007155506E+04  0.12699999809E+01 0. -1.
       -4    1    3    3    0  502 -0.13304352070E+04  0.10699433109E+03  0.11699507796E+02  0.13347824236E+04  0.12699999809E+01 0.  1.
</event>
<event>
 5   0  0.4448804E-06  0.2704864E+04  0.7818609E-02  0.8333429E-01
       -2   -1    0    0    0  501  0.00000000000E+00  0.00000000000E+00  0.14778202889E+04  0.14778202889E+04  0.25500000920E-02 0. -1.
        2   -1    0    0  501    0  0.00000000000E+00  0.00000000000E+00 -0.12376822534E+04  0.12376822534E+04  0.25500000920E-02 0.  1.
    10030    2    1    2    0    0  0.00000000000E+00  0.00000000000E+00  0.24013803552E+03  0.27155025422E+04  0.27048637268E+04 0.  0.
        2    1    3    3  502    0  0.40013436288E+03 -0.12451436701E+04 -0.22564231719E+03  0.13271792354E+04  0.25500000920E-02 0. -1.
       -2    1    3    3    0  502 -0.40013436288E+03  0.12451436701E+04  0.46578035271E+03  0.13883233069E+04  0.25500000920E-02 0.  1.
</event>
<event>
 5   0  0.4655882E-06  0.2755341E+04  0.7818609E-02  0.8317269E-01
        2   -1    0    0  501    0  0.00000000000E+00  0.00000000000E+00  0.17810073888E+04  0.17810073888E+04  0.25500000920E-02 0.  1.
       -2   -1    0    0    0  501  0.00000000000E+00  0.00000000000E+00 -0.10656757817E+04  0.10656757817E+04  0.25500000920E-02 0. -1.
    10030    2    1    2    0    0  0.00000000000E+00  0.00000000000E+00  0.71533160708E+03  0.28466831705E+04  0.27553413155E+04 0.  0.
        1    1    3    3  502    0 -0.12685870780E+04 -0.11055798510E+02 -0.19730166096E+03  0.12838860349E+04  0.50400001928E-02 0.  1.
       -1    1    3    3    0  502  0.12685870780E+04  0.11055798510E+02  0.91263326804E+03  0.15627971356E+04  0.50400001928E-02 0. -1.
</event>
<event>
 5   0  0.1723605E-06  0.2698622E+04  0.7818609E-02  0.8335452E-01
       -1   -1    0    0    0  501  0.00000000000E+00  0.00000000000E+00  0.12362991691E+04  0.12362991691E+04  0.50400001928E-02 0. -1.
        1   -1    0    0  501    0  0.00000000000E+00  0.00000000000E+00 -0.14726530189E+04  0.14726530189E+04  0.50400001928E-02 0.  1.
    10030    2    1    2    0    0  0.00000000000E+00  0.00000000000E+00 -0.23635384978E+03  0.27089521880E+04  0.26986216509E+04 0.  0.
        1    1    3    3  502    0 -0.76834132199E+03  0.62909418765E+03 -0.10352011103E+04  0.14344856997E+04  0.50400001928E-02 0.  1.
       -1    1    3    3    0  502  0.76834132199E+03 -0.62909418765E+03  0.79884726051E+03  0.12744664882E+04  0.50400001928E-02 0. -1.
</event>
<event>
 5   0  0.4448804E-06  0.2690523E+04  0.7818609E-02  0.8338087E-01
        2   -1    0    0  501    0  0.00000000000E+00  0.00000000000E+00  0.23786603319E+04  0.23786603319E+04  0.25500000920E-02 0.  1.
       -2   -1    0    0    0  501  0.00000000000E+00  0.00000000000E+00 -0.76081814458E+03  0.76081814459E+03  0.25500000920E-02 0. -1.
    10030    2    1    2    0    0  0.00000000000E+00  0.00000000000E+00  0.16178421874E+04  0.31394784765E+04  0.26905225815E+04 0.  0.
        2    1    3    3  502    0 -0.79180593943E+03 -0.10276580931E+04  0.12242501103E+04  0.17837673992E+04  0.25500000920E-02 0.  1.
       -2    1    3    3    0  502  0.79180593943E+03  0.10276580931E+04  0.39359207707E+03  0.13557110773E+04  0.25500000920E-02 0. -1.
</event>
<event>
 5   0  0.1753474E-06  0.2702857E+04  0.7818609E-02  0.8334079E-01
       -1   -1    0    0    0  501  0.00000000000E+00  0.00000000000E+00  0.15381538308E+04  0.15381538308E+04  0.50400001928E-02 0. -1.
        1   -1    0    0  501    0  0.00000000000E+00  0.00000000000E+00 -0.11873705931E+04  0.11873705931E+04  0.50400001928E-02 0.  1.
    10030    2    1    2    0    0  0.00000000000E+00  0.00000000000E+00  0.35078323768E+03  0.27255244239E+04  0.27028567305E+04 0.  0.
        3    1    3    3  502    0 -0.64848710583E+02  0.16855189797E+03 -0.11751476760E+04  0.11889437195E+04  0.10100000352E+00 0.  1.
       -3    1    3    3    0  502  0.64848710583E+02 -0.16855189797E+03  0.15259309137E+04  0.15365807044E+04  0.10100000352E+00 0. -1.
</event>
<event>
 5   0  0.4655882E-06  0.2703017E+04  0.7818609E-02  0.8334027E-01
       -2   -1    0    0    0  501  0.00000000000E+00  0.00000000000E+00  0.13382622485E+04  0.13382622485E+04  0.25500000920E-02 0. -1.
        2   -1    0    0  501    0  0.00000000000E+00  0.00000000000E+00 -0.13648858875E+04  0.13648858875E+04  0.25500000920E-02 0.  1.
    10030    2    1    2    0    0  0.00000000000E+00  0.00000000000E+00 -0.26623638983E+02  0.27031481361E+04  0.27030170231E+04 0.  0.
        1    1    3    3  502    0 -0.10216933254E+04 -0.44392552958E+03 -0.77862544561E+03  0.13591117362E+04  0.50400001928E-02 0.  1.
       -1    1    3    3    0  502  0.10216933254E+04  0.44392552958E+03  0.75200180662E+03  0.13440363999E+04  0.50400001928E-02 0. -1.
</event>
<event>
 5   0  0.1753474E-06  0.2697968E+04  0.7818609E-02  0.8335665E-01
        1   -1    0    0  501    0  0.00000000000E+00  0.00000000000E+00  0.15710488543E+04  0.15710488543E+04  0.50400001928E-02 0. -1.
       -1   -1    0    0    0  501  0.00000000000E+00  0.00000000000E+00 -0.11583072246E+04  0.11583072246E+04  0.50400001928E-02 0.  1.
    10030    2    1    2    0    0  0.00000000000E+00  0.00000000000E+00  0.41274162972E+03  0.27293560789E+04  0.26979675595E+04 0.  0.
        3    1    3    3  502    0 -0.15835192526E+03  0.27055025822E+03 -0.11209473186E+04  0.11639569046E+04  0.10100000352E+00 0.  1.
       -3    1    3    3    0  502  0.15835192526E+03 -0.27055025822E+03  0.15336889483E+04  0.15653991743E+04  0.10100000352E+00 0. -1.
</event>
<event>
 5   0  0.4401659E-06  0.2697014E+04  0.7818609E-02  0.8335974E-01
        2   -1    0    0  501    0  0.00000000000E+00  0.00000000000E+00  0.17647426018E+04  0.17647426018E+04  0.25500000920E-02 0.  1.
       -2   -1    0    0    0  501  0.00000000000E+00  0.00000000000E+00 -0.10304454781E+04  0.10304454781E+04  0.25500000920E-02 0. -1.
    10030    2    1    2    0    0  0.00000000000E+00  0.00000000000E+00  0.73429712371E+03  0.27951880798E+04  0.26970139295E+04 0.  0.
        5    1    3    3  502    0  0.27040495454E+03 -0.10919837633E+04 -0.40349180818E+03  0.11951464797E+04  0.46999998093E+01 0. -1.
       -5    1    3    3    0  502 -0.27040495454E+03  0.10919837633E+04  0.11377889319E+04  0.16000416001E+04  0.46999998093E+01 0.  1.
</event>
<event>
 5   0  0.4655882E-06  0.2698757E+04  0.7818609E-02  0.8335408E-01
       -2   -1    0    0    0  501  0.00000000000E+00  0.00000000000E+00  0.17301409323E+04  0.17301409323E+04  0.25500000920E-02 0.  1.
        2   -1    0    0  501    0  0.00000000000E+00  0.00000000000E+00 -0.10524128691E+04  0.10524128691E+04  0.25500000920E-02 0. -1.
    10030    2    1    2    0    0  0.00000000000E+00  0.00000000000E+00  0.67772806320E+03  0.27825538015E+04  0.26987571825E+04 0.  0.
        1    1    3    3  502    0  0.24033975280E+03  0.11713152508E+04 -0.30591743414E+03  0.12342317813E+04  0.50400001928E-02 0.  1.
       -1    1    3    3    0  502 -0.24033975280E+03 -0.11713152508E+04  0.98364549735E+03  0.15483220201E+04  0.50400001928E-02 0. -1.
</event>
<event>
 5   0  0.1771016E-06  0.2698477E+04  0.7818609E-02  0.8335499E-01
        1   -1    0    0  501    0  0.00000000000E+00  0.00000000000E+00  0.10753436443E+04  0.10753436443E+04  0.50400001928E-02 0.  1.
       -1   -1    0    0    0  501  0.00000000000E+00  0.00000000000E+00 -0.16928953446E+04  0.16928953446E+04  0.50400001928E-02 0. -1.
    10030    2    1    2    0    0  0.00000000000E+00  0.00000000000E+00 -0.61755170028E+03  0.27682389888E+04  0.26984767920E+04 0.  0.
        2    1    3    3  502    0 -0.38278035863E+03  0.10357187039E+04 -0.11041987105E+04  0.15615661462E+04  0.25500000920E-02 0. -1.
       -2    1    3    3    0  502  0.38278035863E+03 -0.10357187039E+04  0.48664701021E+03  0.12066728427E+04  0.25500000920E-02 0.  1.
</event>
<event>
 5   0  0.4448804E-06  0.2692196E+04  0.7818609E-02  0.8337542E-01
       -2   -1    0    0    0  501  0.00000000000E+00  0.00000000000E+00  0.17901624874E+04  0.17901624874E+04  0.25500000920E-02 0.  1.
        2   -1    0    0  501    0  0.00000000000E+00  0.00000000000E+00 -0.10121871361E+04  0.10121871361E+04  0.25500000920E-02 0. -1.
    10030    2    1    2    0    0  0.00000000000E+00  0.00000000000E+00  0.77797535126E+03  0.28023496235E+04  0.26921957145E+04 0.  0.
        2    1    3    3  502    0 -0.54098600029E+03 -0.39012722150E+03  0.16060648233E+04  0.17390541447E+04  0.25500000920E-02 0.  1.
       -2    1    3    3    0  502  0.54098600029E+03  0.39012722150E+03 -0.82808947207E+03  0.10632954788E+04  0.25500000920E-02 0. -1.
</event>
<event>
 5   0  0.4655882E-06  0.2695481E+04  0.7818609E-02  0.8336473E-01
        2   -1    0    0  501    0  0.00000000000E+00  0.00000000000E+00  0.31219568365E+04  0.31219568365E+04  0.25500000920E-02 0.  1.
       -2   -1    0    0    0  501  0.00000000000E+00  0.00000000000E+00 -0.58181587635E+03  0.58181587635E+03  0.25500000920E-02 0. -1.
    10030    2    1    2    0    0  0.00000000000E+00  0.00000000000E+00  0.25401409602E+04  0.37037727129E+04  0.26954807013E+04 0.  0.
        1    1    3    3  502    0  0.67106905686E+03  0.44662740486E+03  0.27541871136E+04  0.28697310631E+04  0.50400001928E-02 0.  1.
       -1    1    3    3    0  502 -0.67106905686E+03 -0.44662740486E+03 -0.21404615336E+03  0.83404164983E+03  0.50400001928E-02 0. -1.
</event>
<event>
 5   0  0.1771016E-06  0.2699518E+04  0.7818609E-02  0.8335162E-01
        1   -1    0    0  501    0  0.00000000000E+00  0.00000000000E+00  0.14199010723E+04  0.14199010723E+04  0.50400001928E-02 0. -1.
       -1   -1    0    0    0  501  0.00000000000E+00  0.00000000000E+00 -0.12830815163E+04  0.12830815163E+04  0.50400001928E-02 0.  1.
    10030    2    1    2    0    0  0.00000000000E+00  0.00000000000E+00  0.13681955596E+03  0.27029825886E+04  0.26995176020E+04 0.  0.
        2    1    3    3  502    0 -0.15508461734E+03 -0.31785786031E+02  0.14105732429E+04  0.14194289163E+04  0.25500000920E-02 0. -1.
       -2    1    3    3    0  502  0.15508461734E+03  0.31785786031E+02 -0.12737536870E+04  0.12835536723E+04  0.25500000920E-02 0.  1.
</event>
<event>
 5   0  0.1828511E-06  0.2715537E+04  0.7818609E-02  0.8329981E-01
        1   -1    0    0  501    0  0.00000000000E+00  0.00000000000E+00  0.11156531537E+04  0.11156531537E+04  0.50400001928E-02 0. -1.
       -1   -1    0    0    0  501  0.00000000000E+00  0.00000000000E+00 -0.16524271075E+04  0.16524271075E+04  0.50400001928E-02 0.  1.
    10030    2    1    2    0    0  0.00000000000E+00  0.00000000000E+00 -0.53677395380E+03  0.27680802612E+04  0.27155371577E+04 0.  0.
        4    1    3    3  502    0 -0.10962170270E+04  0.79459778295E+03 -0.37262255293E+03  0.14042530352E+04  0.12699999809E+01 0. -1.
       -4    1    3    3    0  502  0.10962170270E+04 -0.79459778295E+03 -0.16415140087E+03  0.13638272260E+04  0.12699999809E+01 0.  1.
</event>
<event>
 5   0  0.4401659E-06  0.2707822E+04  0.7818609E-02  0.8332471E-01
        2   -1    0    0  501    0  0.00000000000E+00  0.00000000000E+00  0.20984465354E+04  0.20984465354E+04  0.25500000920E-02 0. -1.
       -2   -1    0    0    0  501  0.00000000000E+00  0.00000000000E+00 -0.87353928610E+03  0.87353928610E+03  0.25500000920E-02 0.  1.
    10030    2    1    2    0    0  0.00000000000E+00  0.00000000000E+00  0.12249072493E+04  0.29719858215E+04  0.27078223638E+04 0.  0.
        5    1    3    3  502    0  0.11527630507E+04 -0.13047445500E+03 -0.15361127996E+03  0.11702584115E+04  0.46999998093E+01 0.  1.
       -5    1    3    3    0  502 -0.11527630507E+04  0.13047445500E+03  0.13785185293E+04  0.18017274100E+04  0.46999998093E+01 0. -1.
</event>
<event>
 5   0  0.1732312E-06  0.2701270E+04  0.7818609E-02  0.8334593E-01
        1   -1    0    0  501    0  0.00000000000E+00  0.00000000000E+00  0.16119662279E+04  0.16119662279E+04  0.50400001928E-02 0.  1.
       -1   -1    0    0    0  501  0.00000000000E+00  0.00000000000E+00 -0.11316708850E+04  0.11316708850E+04  0.50400001928E-02 0. -1.
    10030    2    1    2    0    0  0.00000000000E+00  0.00000000000E+00  0.48029534295E+03  0.27436371129E+04  0.27012702551E+04 0.  0.
        5    1    3    3  502    0 -0.87959856436E+02  0.23947303163E+03 -0.11069683274E+04  0.11359952628E+04  0.46999998093E+01 0. -1.
       -5    1    3    3    0  502  0.87959856436E+02 -0.23947303163E+03  0.15872636703E+04  0.16076418502E+04  0.46999998093E+01 0.  1.
</event>
<event>
 5   0  0.1753474E-06  0.2685515E+04  0.7818609E-02  0.8339720E-01
        1   -1    0    0  501    0  0.00000000000E+00  0.00000000000E+00  0.16985271423E+04  0.16985271423E+04  0.50400001928E-02 0. -1.
       -1   -1    0    0    0  501  0.00000000000E+00  0.00000000000E+00 -0.10615069258E+04  0.10615069258E+04  0.50400001928E-02 0.  1.
    10030    2    1    2    0    0  0.00000000000E+00  0.00000000000E+00  0.63702021649E+03  0.27600340681E+04  0.26855154628E+04 0.  0.
        3    1    3    3  502    0  0.56050661182E+03  0.12201720703E+04  0.31513696973E+03  0.13792385084E+04  0.10100000352E+00 0. -1.
       -3    1    3    3    0  502 -0.56050661182E+03 -0.12201720703E+04  0.32188324676E+03  0.13807955598E+04  0.10100000352E+00 0.  1.
</event>
<event>
 5   0  0.4487186E-06  0.2693068E+04  0.7818609E-02  0.8337258E-01
        2   -1    0    0  501    0  0.00000000000E+00  0.00000000000E+00  0.17019789881E+04  0.17019789881E+04  0.25500000920E-02 0.  1.
       -2   -1    0    0    0  501  0.00000000000E+00  0.00000000000E+00 -0.10653212833E+04  0.10653212833E+04  0.25500000920E-02 0. -1.
    10030    2    1    2    0    0  0.00000000000E+00  0.00000000000E+00  0.63665770476E+03  0.27673002714E+04  0.26930684654E+04 0.  0.
        3    1    3    3  502    0  0.26127106512E+03 -0.79020637939E+03  0.14060264810E+04  0.16338908063E+04  0.10100000352E+00 0.  1.
       -3    1    3    3    0  502 -0.26127106512E+03  0.79020637939E+03 -0.76936877626E+03  0.11334094651E+04  0.10100000352E+00 0. -1.
</event>
<event>
 5   0  0.4401659E-06  0.2692481E+04  0.7818609E-02  0.8337449E-01
       -2   -1    0    0    0  501  0.00000000000E+00  0.00000000000E+00  0.16935828363E+04  0.16935828363E+04  0.25500000920E-02 0. -1.
        2   -1    0    0  501    0  0.00000000000E+00  0.00000000000E+00 -0.10701354268E+04  0.10701354268E+04  0.25500000920E-02 0.  1.
    10030    2    1    2    0    0  0.00000000000E+00  0.00000000000E+00  0.62344740949E+03  0.27637182632E+04  0.26924806342E+04 0.  0.
        5    1    3    3  502    0  0.37241487402E+03 -0.37268116691E+03  0.15833542894E+04  0.16687171679E+04  0.46999998093E+01 0. -1.
       -5    1    3    3    0  502 -0.37241487402E+03  0.37268116691E+03 -0.95990687993E+03  0.10950010953E+04  0.46999998093E+01 0.  1.
</event>
<event>
 5   0  0.1732312E-06  0.2690751E+04  0.7818609E-02  0.8338012E-01
        1   -1    0    0  501    0  0.00000000000E+00  0.00000000000E+00  0.16531812027E+04  0.16531812027E+04  0.50400001928E-02 0.  1.
       -1   -1    0    0    0  501  0.00000000000E+00  0.00000000000E+00 -0.10948803442E+04  0.10948803442E+04  0.50400001928E-02 0. -1.
    10030    2    1    2    0    0  0.00000000000E+00  0.00000000000E+00  0.55830085849E+03  0.27480615470E+04  0.26907512738E+04 0.  0.
        5    1    3    3  502    0 -0.46000871012E+02 -0.80477561333E+03  0.13792338727E+04  0.15975255972E+04  0.46999998093E+01 0.  1.
       -5    1    3    3    0  502  0.46000871012E+02  0.80477561333E+03 -0.82093301423E+03  0.11505359498E+04  0.46999998093E+01 0. -1.
</event>
<event>
 5   0  0.1771016E-06  0.2706640E+04  0.7818609E-02  0.8332854E-01
       -1   -1    0    0    0  501  0.00000000000E+00  0.00000000000E+00  0.91682013536E+03  0.91682013537E+03  0.50400001928E-02 0. -1.
        1   -1    0    0  501    0  0.00000000000E+00  0.00000000000E+00 -0.19976378589E+04  0.19976378589E+04  0.50400001928E-02 0.  1.
    10030    2    1    2    0    0  0.00000000000E+00  0.00000000000E+00 -0.10808177235E+04  0.29144579943E+04  0.27066396969E+04 0.  0.
        2    1    3    3  502    0 -0.43733714168E+03 -0.11998884346E+04 -0.58281984211E+02  0.12784337373E+04  0.25500000920E-02 0. -1.
       -2    1    3    3    0  502  0.43733714168E+03  0.11998884346E+04 -0.10225357393E+04  0.16360242569E+04  0.25500000920E-02 0.  1.
</event>
<event>
 5   0  0.4439357E-06  0.2697216E+04  0.7818609E-02  0.8335909E-01
       -2   -1    0    0    0  501  0.00000000000E+00  0.00000000000E+00  0.11090888777E+04  0.11090888777E+04  0.25500000920E-02 0.  1.
        2   -1    0    0  501    0  0.00000000000E+00  0.00000000000E+00 -0.16398542532E+04  0.16398542532E+04  0.25500000920E-02 0. -1.
    10030    2    1    2    0    0  0.00000000000E+00  0.00000000000E+00 -0.53076537550E+03  0.27489431308E+04  0.26972164268E+04 0.  0.
        4    1    3    3  502    0  0.10891247657E+04  0.77593808686E+03 -0.87478988984E+02  0.13401219558E+04  0.12699999809E+01 0.  1.
       -4    1    3    3    0  502 -0.10891247657E+04 -0.77593808686E+03 -0.44328638652E+03  0.14088211751E+04  0.12699999809E+01 0. -1.
</event>
<event>
 5   0  0.4401659E-06  0.2705487E+04  0.7818609E-02  0.8333227E-01
        2   -1    0    0  501    0  0.00000000000E+00  0.00000000000E+00  0.19927543729E+04  0.19927543729E+04  0.25500000920E-02 0. -1.
       -2   -1    0    0    0  501  0.00000000000E+00  0.00000000000E+00 -0.91828452612E+03  0.91828452613E+03  0.25500000920E-02 0.  1.
    10030    2    1    2    0    0  0.00000000000E+00  0.00000000000E+00  0.10744698468E+04  0.29110388991E+04  0.27054873905E+04 0.  0.
        5    1    3    3  502    0 -0.25108540052E+03  0.11149875988E+04  0.13158520588E+04  0.17429084756E+04  0.46999998093E+01 0. -1.
       -5    1    3    3    0  502  0.25108540052E+03 -0.11149875988E+04 -0.24138221195E+03  0.11681304234E+04  0.46999998093E+01 0.  1.
</event>
<event>
 5   0  0.1723605E-06  0.2711534E+04  0.7818609E-02  0.8331272E-01
       -1   -1    0    0    0  501  0.00000000000E+00  0.00000000000E+00  0.73066098961E+03  0.73066098963E+03  0.50400001928E-02 0.  1.
        1   -1    0    0  501    0  0.00000000000E+00  0.00000000000E+00 -0.25156728222E+04  0.25156728222E+04  0.50400001928E-02 0. -1.
    10030    2    1    2    0    0  0.00000000000E+00  0.00000000000E+00 -0.17850118326E+04  0.32463338118E+04  0.27115338787E+04 0.  0.
        1    1    3    3  502    0  0.11994267474E+04  0.60580550572E+03 -0.67674114425E+03  0.15045276367E+04  0.50400001928E-02 0. -1.
       -1    1    3    3    0  502 -0.11994267474E+04 -0.60580550572E+03 -0.11082706883E+04  0.17418061751E+04  0.50400001928E-02 0.  1.
</event>
<event>
 5   0  0.4448804E-06  0.2702089E+04  0.7818609E-02  0.8334328E-01
       -2   -1    0    0    0  501  0.00000000000E+00  0.00000000000E+00  0.18987955080E+04  0.18987955081E+04  0.25500000920E-02 0.  1.
        2   -1    0    0  501    0  0.00000000000E+00  0.00000000000E+00 -0.96130444963E+03  0.96130444963E+03  0.25500000920E-02 0. -1.
    10030    2    1    2    0    0  0.00000000000E+00  0.00000000000E+00  0.93749105842E+03  0.28600999577E+04  0.27020885040E+04 0.  0.
        2    1    3    3  502    0 -0.76225241371E+03 -0.66463614096E+03 -0.47949357573E+03  0.11192336804E+04  0.25500000920E-02 0. -1.
       -2    1    3    3    0  502  0.76225241371E+03  0.66463614096E+03  0.14169846342E+04  0.17408662773E+04  0.25500000920E-02 0.  1.
</event>
<event>
 5   0  0.1771016E-06  0.2697090E+04  0.7818609E-02  0.8335950E-01
        1   -1    0    0  501    0  0.00000000000E+00  0.00000000000E+00  0.21711593180E+04  0.21711593180E+04  0.50400001928E-02 0. -1.
       -1   -1    0    0    0  501  0.00000000000E+00  0.00000000000E+00 -0.83760462202E+03  0.83760462204E+03  0.50400001928E-02 0.  1.
    10030    2    1    2    0    0  0.00000000000E+00  0.00000000000E+00  0.13335546960E+04  0.30087639400E+04  0.26970896017E+04 0.  0.
        2    1    3    3  502    0 -0.59941877982E+03 -0.57585516183E+03  0.18514054439E+04  0.20294369068E+04  0.25500000920E-02 0. -1.
       -2    1    3    3    0  502  0.59941877982E+03  0.57585516183E+03 -0.51785074789E+03  0.97932703327E+03  0.25500000920E-02 0.  1.
</event>
<event>
 5   0  0.4655882E-06  0.2711996E+04  0.7818609E-02  0.8331123E-01
       -2   -1    0    0    0  501  0.00000000000E+00  0.00000000000E+00  0.17208823131E+04  0.17208823131E+04  0.25500000920E-02 0.  1.
        2   -1    0    0  501    0  0.00000000000E+00  0.00000000000E+00 -0.10684811388E+04  0.10684811388E+04  0.25500000920E-02 0. -1.
    10030    2    1    2    0    0  0.00000000000E+00  0.00000000000E+00  0.65240117425E+03  0.27893634519E+04  0.27119957917E+04 0.  0.
        1    1    3    3  502    0  0.63558994164E+03 -0.39450375261E+03 -0.83704701388E+03  0.11226110138E+04  0.50400001928E-02 0. -1.
       -1    1    3    3    0  502 -0.63558994164E+03  0.39450375261E+03  0.14894481881E+04  0.16667524381E+04  0.50400001928E-02 0.  1.
</event>
<event>
 5   0  0.1753474E-06  0.2720277E+04  0.7818609E-02  0.8328456E-01
        1   -1    0    0  501    0  0.00000000000E+00  0.00000000000E+00  0.27074755082E+04  0.27074755082E+04  0.50400001928E-02 0.  1.
       -1   -1    0    0    0  501  0.00000000000E+00  0.00000000000E+00 -0.68328474267E+03  0.68328474269E+03  0.50400001928E-02 0. -1.
    10030    2    1    2    0    0  0.00000000000E+00  0.00000000000E+00  0.20241907655E+04  0.33907602509E+04  0.27202769756E+04 0.  0.
        3    1    3    3  502    0 -0.88527127795E+02  0.48694015582E+03  0.25912526739E+04  0.26380936674E+04  0.10100000352E+00 0.  1.
       -3    1    3    3    0  502  0.88527127795E+02 -0.48694015582E+03 -0.56706190841E+03  0.75266658347E+03  0.10100000352E+00 0. -1.
</event>
<event>
 5   0  0.1753474E-06  0.2691308E+04  0.7818609E-02  0.8337831E-01
        1   -1    0    0  501    0  0.00000000000E+00  0.00000000000E+00  0.23490911795E+04  0.23490911795E+04  0.50400001928E-02 0. -1.
       -1   -1    0    0    0  501  0.00000000000E+00  0.00000000000E+00 -0.77084451547E+03  0.77084451548E+03  0.50400001928E-02 0.  1.
    10030    2    1    2    0    0  0.00000000000E+00  0.00000000000E+00  0.15782466640E+04  0.31199356950E+04  0.26913075276E+04 0.  0.
        3    1    3    3  502    0 -0.40368992913E+03 -0.89942369823E+03  0.18508821912E+04  0.20970678205E+04  0.10100000352E+00 0. -1.
       -3    1    3    3    0  502  0.40368992913E+03  0.89942369823E+03 -0.27263552716E+03  0.10228678745E+04  0.10100000352E+00 0.  1.
</event>
<event>
 5   0  0.4439357E-06  0.2707005E+04  0.7818609E-02  0.8332736E-01
       -2   -1    0    0    0  501  0.00000000000E+00  0.00000000000E+00  0.13297161377E+04  0.13297161377E+04  0.25500000920E-02 0. -1.
        2   -1    0    0  501    0  0.00000000000E+00  0.00000000000E+00 -0.13777145184E+04  0.13777145184E+04  0.25500000920E-02 0.  1.
    10030    2    1    2    0    0  0.00000000000E+00  0.00000000000E+00 -0.47998380690E+02  0.27074306561E+04  0.27070051557E+04 0.  0.
        4    1    3    3  502    0 -0.10785897122E+04 -0.80015838767E+03  0.14442681251E+03  0.13507294066E+04  0.12699999809E+01 0. -1.
       -4    1    3    3    0  502  0.10785897122E+04  0.80015838767E+03 -0.19242519319E+03  0.13567012495E+04  0.12699999809E+01 0.  1.
</event>
<event>
 5   0  0.4655882E-06  0.2698499E+04  0.7818609E-02  0.8335492E-01
       -2   -1    0    0    0  501  0.00000000000E+00  0.00000000000E+00  0.31249756527E+04  0.31249756527E+04  0.25500000920E-02 0. -1.
        2   -1    0    0  501    0  0.00000000000E+00  0.00000000000E+00 -0.58255627823E+03  0.58255627823E+03  0.25500000920E-02 0.  1.
    10030    2    1    2    0    0  0.00000000000E+00  0.00000000000E+00  0.25424193744E+04  0.37075319309E+04  0.26984989796E+04 0.  0.
        1    1    3    3  502    0  0.24599109155E+03  0.42648142640E+03  0.29971533736E+04  0.30373222367E+04  0.50400001928E-02 0. -1.
       -1    1    3    3    0  502 -0.24599109155E+03 -0.42648142640E+03 -0.45473399920E+03  0.67020969423E+03  0.50400001928E-02 0.  1.
</event>
<event>
 5   0  0.1771016E-06  0.2702889E+04  0.7818609E-02  0.8334068E-01
       -1   -1    0    0    0  501  0.00000000000E+00  0.00000000000E+00  0.10403611703E+04  0.10403611704E+04  0.50400001928E-02 0.  1.
        1   -1    0    0  501    0  0.00000000000E+00  0.00000000000E+00 -0.17555469247E+04  0.17555469247E+04  0.50400001928E-02 0. -1.
    10030    2    1    2    0    0  0.00000000000E+00  0.00000000000E+00 -0.71518575435E+03  0.27959080951E+04  0.27028894563E+04 0.  0.
        2    1    3    3  502    0  0.62039830008E+03 -0.10309737304E+04 -0.99407475381E+03  0.15607643959E+04  0.25500000920E-02 0.  1.
       -2    1    3    3    0  502 -0.62039830008E+03  0.10309737304E+04  0.27888899945E+03  0.12351436991E+04  0.25500000920E-02 0. -1.
</event>
<event>
 5   0  0.1723605E-06  0.2677779E+04  0.7818609E-02  0.8342251E-01
        1   -1    0    0  501    0  0.00000000000E+00  0.00000000000E+00  0.19759576830E+04  0.19759576831E+04  0.50400001928E-02 0. -1.
       -1   -1    0    0    0  501  0.00000000000E+00  0.00000000000E+00 -0.90721865304E+03  0.90721865306E+03  0.50400001928E-02 0.  1.
    10030    2    1    2    0    0  0.00000000000E+00  0.00000000000E+00  0.10687390300E+04  0.28831763361E+04  0.26777794291E+04 0.  0.
        1    1    3    3  502    0  0.14358994356E+03 -0.30471231451E+03  0.19295878842E+04  0.19587692741E+04  0.50400001928E-02 0. -1.
       -1    1    3    3    0  502 -0.14358994356E+03  0.30471231451E+03 -0.86084885416E+03  0.92440706199E+03  0.50400001928E-02 0.  1.
</event>
<event>
 5   0  0.1732312E-06  0.2679151E+04  0.7818609E-02  0.8341802E-01
       -1   -1    0    0    0  501  0.00000000000E+00  0.00000000000E+00  0.21599613470E+04  0.21599613471E+04  0.50400001928E-02 0.  1.
        1   -1    0    0  501    0  0.00000000000E+00  0.00000000000E+00 -0.83078439970E+03  0.83078439972E+03  0.50400001928E-02 0. -1.
    10030    2    1    2    0    0  0.00000000000E+00  0.00000000000E+00  0.13291769473E+04  0.29907457468E+04  0.26791507543E+04 0.  0.
        5    1    3    3  502    0  0.46803298894E+02  0.10897243771E+04  0.15326897615E+04  0.18811830751E+04  0.46999998093E+01 0.  1.
       -5    1    3    3    0  502 -0.46803298894E+02 -0.10897243771E+04 -0.20351281416E+03  0.11095626717E+04  0.46999998093E+01 0. -1.
</event>
<event>
 5   0  0.4448804E-06  0.2697995E+04  0.7818609E-02  0.8335656E-01
       -2   -1    0    0    0  501  0.00000000000E+00  0.00000000000E+00  0.10322379682E+04  0.10322379682E+04  0.25500000920E-02 0. -1.
        2   -1    0    0  501    0  0.00000000000E+00  0.00000000000E+00 -0.17629596702E+04  0.17629596702E+04  0.25500000920E-02 0.  1.
    10030    2    1    2    0    0  0.00000000000E+00  0.00000000000E+00 -0.73072170202E+03  0.27951976384E+04  0.26979947428E+04 0.  0.
        2    1    3    3  502    0 -0.87340871035E+03 -0.64190229852E+03 -0.11973580098E+04  0.16150998544E+04  0.25500000920E-02 0.  1.
       -2    1    3    3    0  502  0.87340871035E+03  0.64190229852E+03  0.46663630775E+03  0.11800977840E+04  0.25500000920E-02 0. -1.
</event>
<event>
 5   0  0.1828511E-06  0.2699460E+04  0.7818609E-02  0.8335180E-01
       -1   -1    0    0    0  501  0.00000000000E+00  0.00000000000E+00  0.13977539834E+04  0.13977539834E+04  0.50400001928E-02 0.  1.
        1   -1    0    0  501    0  0.00000000000E+00  0.00000000000E+00 -0.13033558906E+04  0.13033558906E+04  0.50400001928E-02 0. -1.
    10030    2    1    2    0    0  0.00000000000E+00  0.00000000000E+00  0.94398092822E+02  0.27011098740E+04  0.26994598629E+04 0.  0.
        4    1    3    3  502    0  0.67032737752E+03  0.45940050702E+03  0.11255319496E+04  0.13882403975E+04  0.12699999809E+01 0.  1.
       -4    1    3    3    0  502 -0.67032737752E+03 -0.45940050702E+03 -0.10311338567E+04  0.13128694765E+04  0.12699999809E+01 0. -1.
</event>
<event>
 5   0  0.4401659E-06  0.2701622E+04  0.7818609E-02  0.8334479E-01
        2   -1    0    0  501    0  0.00000000000E+00  0.00000000000E+00  0.19398578025E+04  0.19398578025E+04  0.25500000920E-02 0.  1.
       -2   -1    0    0    0  501  0.00000000000E+00  0.00000000000E+00 -0.94063118162E+03  0.94063118162E+03  0.25500000920E-02 0. -1.
    10030    2    1    2    0    0  0.00000000000E+00  0.00000000000E+00  0.99922662085E+03  0.28804889841E+04  0.27016222807E+04 0.  0.
        5    1    3    3  502    0  0.45209586181E+03  0.10244723069E+04  0.13051005063E+04  0.17196638036E+04  0.46999998093E+01 0.  1.
       -5    1    3    3    0  502 -0.45209586181E+03 -0.10244723069E+04 -0.30587388546E+03  0.11608251805E+04  0.46999998093E+01 0. -1.
</event>
<event>
 5   0  0.1732312E-06  0.2697019E+04  0.7818609E-02  0.8335973E-01
        1   -1    0    0  501    0  0.00000000000E+00  0.00000000000E+00  0.16814093739E+04  0.16814093739E+04  0.50400001928E-02 0.  1.
       -1   -1    0    0    0  501  0.00000000000E+00  0.00000000000E+00 -0.10815201905E+04  0.10815201905E+04  0.50400001928E-02 0. -1.
    10030    2    1    2    0    0  0.00000000000E+00  0.00000000000E+00  0.59988918336E+03  0.27629295644E+04  0.26970192334E+04 0.  0.
        5    1    3    3  502    0  0.11003129167E+04 -0.29818408991E+02  0.10980065801E+04  0.15547405547E+04  0.46999998093E+01 0.  1.
       -5    1    3    3    0  502 -0.11003129167E+04  0.29818408991E+02 -0.49811739678E+03  0.12081890097E+04  0.46999998093E+01 0. -1.
</event>
<event>
 5   0  0.1723605E-06  0.2700539E+04  0.7818609E-02  0.8334830E-01
        1   -1    0    0  501    0  0.00000000000E+00  0.00000000000E+00  0.13220119371E+04  0.13220119371E+04  0.50400001928E-02 0.  1.
       -1   -1    0    0    0  501  0.00000000000E+00  0.00000000000E+00 -0.13791305990E+04  0.13791305990E+04  0.50400001928E-02 0. -1.
    10030    2    1    2    0    0  0.00000000000E+00  0.00000000000E+00 -0.57118661863E+02  0.27011425361E+04  0.27005385498E+04 0.  0.
        1    1    3    3  502    0 -0.39064741702E+03 -0.79085048451E+03  0.99400841249E+03  0.13289479363E+04  0.50400001928E-02 0.  1.
       -1    1    3    3    0  502  0.39064741702E+03  0.79085048451E+03 -0.10511270744E+04  0.13721945998E+04  0.50400001928E-02 0. -1.
</event>
<event>
 5   0  0.4448804E-06  0.2672994E+04  0.7818609E-02  0.8343821E-01
        2   -1    0    0  501    0  0.00000000000E+00  0.00000000000E+00  0.10349566239E+04  0.10349566239E+04  0.25500000920E-02 0. -1.
       -2   -1    0    0    0  501  0.00000000000E+00  0.00000000000E+00 -0.17258924938E+04  0.17258924938E+04  0.25500000920E-02 0.  1.
    10030    2    1    2    0    0  0.00000000000E+00  0.00000000000E+00 -0.69093586981E+03  0.27608491177E+04  0.26729937288E+04 0.  0.
        2    1    3    3  502    0 -0.20549488927E+03  0.10333678202E+04  0.50384001403E+03  0.11678749767E+04  0.25500000920E-02 0. -1.
       -2    1    3    3    0  502  0.20549488927E+03 -0.10333678202E+04 -0.11947758838E+04  0.15929741410E+04  0.25500000920E-02 0.  1.
</event>
<event>
 5   0  0.1732312E-06  0.2676760E+04  0.7818609E-02  0.8342585E-01
       -1   -1    0    0    0  501  0.00000000000E+00  0.00000000000E+00  0.95572845227E+03  0.95572845229E+03  0.50400001928E-02 0.  1.
        1   -1    0    0  501    0  0.00000000000E+00  0.00000000000E+00 -0.18742359281E+04  0.18742359281E+04  0.50400001928E-02 0. -1.
    10030    2    1    2    0    0  0.00000000000E+00  0.00000000000E+00 -0.91850747583E+03  0.28299643804E+04  0.26767596850E+04 0.  0.
        5    1    3    3  502    0  0.65391537478E+02 -0.77274975978E+03  0.69396653378E+03  0.10406872174E+04  0.46999998093E+01 0.  1.
       -5    1    3    3    0  502 -0.65391537478E+02  0.77274975978E+03 -0.16124740096E+04  0.17892771630E+04  0.46999998093E+01 0. -1.
</event>
<event>
 5   0  0.4655882E-06  0.2750826E+04  0.7818609E-02  0.8318700E-01
        2   -1    0    0  501    0  0.00000000000E+00  0.00000000000E+00  0.16827715607E+04  0.16827715607E+04  0.25500000920E-02 0.  1.
       -2   -1    0    0    0  501  0.00000000000E+00  0.00000000000E+00 -0.11241934287E+04  0.11241934288E+04  0.25500000920E-02 0. -1.
    10030    2    1    2    0    0  0.00000000000E+00  0.00000000000E+00  0.55857813192E+03  0.28069649894E+04  0.27508258619E+04 0.  0.
        1    1    3    3  502    0  0.10411279093E+03 -0.13685545234E+04  0.37044169219E+03  0.14216216108E+04  0.50400001928E-02 0. -1.
       -1    1    3    3    0  502 -0.10411279093E+03  0.13685545234E+04  0.18813643973E+03  0.13853433787E+04  0.50400001928E-02 0.  1.
</event>
<event>
 5   0  0.1723605E-06  0.2692137E+04  0.7818609E-02  0.8337561E-01
       -1   -1    0    0    0  501  0.00000000000E+00  0.00000000000E+00  0.82596050220E+03  0.82596050222E+03  0.50400001928E-02 0.  1.
        1   -1    0    0  501    0  0.00000000000E+00  0.00000000000E+00 -0.21936881377E+04  0.21936881377E+04  0.50400001928E-02 0. -1.
    10030    2    1    2    0    0  0.00000000000E+00  0.00000000000E+00 -0.13677276355E+04  0.30196486400E+04  0.26921365166E+04 0.  0.
        1    1    3    3  502    0 -0.84806708508E+03 -0.31662195553E+03  0.43353916189E+03  0.10037048612E+04  0.50400001928E-02 0.  1.
       -1    1    3    3    0  502  0.84806708508E+03  0.31662195553E+03 -0.18012667974E+04  0.20159437787E+04  0.50400001928E-02 0. -1.
</event>
<event>
 5   0  0.1771016E-06  0.2705537E+04  0.7818609E-02  0.8333211E-01
       -1   -1    0    0    0  501  0.00000000000E+00  0.00000000000E+00  0.20353812290E+04  0.20353812290E+04  0.50400001928E-02 0. -1.
        1   -1    0    0  501    0  0.00000000000E+00  0.00000000000E+00 -0.89908590005E+03  0.89908590006E+03  0.50400001928E-02 0.  1.
    10030    2    1    2    0    0  0.00000000000E+00  0.00000000000E+00  0.11362953290E+04  0.29344671291E+04  0.27055369628E+04 0.  0.
        2    1    3    3  502    0 -0.12226146399E+04 -0.10390073711E+03 -0.49607849942E+02  0.12280239655E+04  0.25500000920E-02 0.  1.
       -2    1    3    3    0  502  0.12226146399E+04  0.10390073711E+03  0.11859031789E+04  0.17064431636E+04  0.25500000920E-02 0. -1.
</event>
<event>
 5   0  0.4439357E-06  0.2692058E+04  0.7818609E-02  0.8337586E-01
       -2   -1    0    0    0  501  0.00000000000E+00  0.00000000000E+00  0.14697044860E+04  0.14697044860E+04  0.25500000920E-02 0.  1.
        2   -1    0    0  501    0  0.00000000000E+00  0.00000000000E+00 -0.12327608932E+04  0.12327608932E+04  0.25500000920E-02 0. -1.
    10030    2    1    2    0    0  0.00000000000E+00  0.00000000000E+00  0.23694359277E+03  0.27024653793E+04  0.26920581086E+04 0.  0.
        4    1    3    3  502    0  0.11225909336E+04 -0.54643543584E+03  0.62339790336E+03  0.13955030092E+04  0.12699999809E+01 0.  1.
       -4    1    3    3    0  502 -0.11225909336E+04  0.54643543584E+03 -0.38645431058E+03  0.13069623701E+04  0.12699999809E+01 0. -1.
</event>
<event>
 5   0  0.4448804E-06  0.2706955E+04  0.7818609E-02  0.8332752E-01
        2   -1    0    0  501    0  0.00000000000E+00  0.00000000000E+00  0.13113025021E+04  0.13113025021E+04  0.25500000920E-02 0. -1.
       -2   -1    0    0    0  501  0.00000000000E+00  0.00000000000E+00 -0.13970084622E+04  0.13970084622E+04  0.25500000920E-02 0.  1.
    10030    2    1    2    0    0  0.00000000000E+00  0.00000000000E+00 -0.85705960103E+02  0.27083109644E+04  0.27069545190E+04 0.  0.
        2    1    3    3  502    0 -0.32175921088E+03  0.12661313141E+04 -0.39698401109E+03  0.13653621495E+04  0.25500000920E-02 0.  1.
       -2    1    3    3    0  502  0.32175921088E+03 -0.12661313141E+04  0.31127805099E+03  0.13429488148E+04  0.25500000920E-02 0. -1.
</event>
<event>
 5   0  0.4439357E-06  0.2697351E+04  0.7818609E-02  0.8335865E-01
       -2   -1    0    0    0  501  0.00000000000E+00  0.00000000000E+00  0.90118910350E+03  0.90118910350E+03  0.25500000920E-02 0.  1.
        2   -1    0    0  501    0  0.00000000000E+00  0.00000000000E+00 -0.20183611227E+04  0.20183611227E+04  0.25500000920E-02 0. -1.
    10030    2    1    2    0    0  0.00000000000E+00  0.00000000000E+00 -0.11171720192E+04  0.29195502262E+04  0.26973505895E+04 0.  0.
        4    1    3    3  502    0 -0.16068914406E+03 -0.88494240204E+03  0.52917830515E+03  0.10435398160E+04  0.12699999809E+01 0.  1.
       -4    1    3    3    0  502  0.16068914406E+03  0.88494240204E+03 -0.16463503243E+04  0.18760104102E+04  0.12699999809E+01 0. -1.
</event>
<event>
 5   0  0.1771016E-06  0.2702006E+04  0.7818609E-02  0.8334354E-01
       -1   -1    0    0    0  501  0.00000000000E+00  0.00000000000E+00  0.10779205310E+04  0.10779205310E+04  0.50400001928E-02 0.  1.
        1   -1    0    0  501    0  0.00000000000E+00  0.00000000000E+00 -0.16932691325E+04  0.16932691325E+04  0.50400001928E-02 0. -1.
    10030    2    1    2    0    0  0.00000000000E+00  0.00000000000E+00 -0.61534860148E+03  0.27711896634E+04  0.27020063378E+04 0.  0.
        2    1    3    3  502    0  0.76027175114E+02 -0.10299653292E+04  0.58560351798E+03  0.11872405784E+04  0.25500000920E-02 0.  1.
       -2    1    3    3    0  502 -0.76027175114E+02  0.10299653292E+04 -0.12009521195E+04  0.15839490850E+04  0.25500000920E-02 0. -1.
</event>
<event>
 5   0  0.4655882E-06  0.2721360E+04  0.7818609E-02  0.8328107E-01
        2   -1    0    0  501    0  0.00000000000E+00  0.00000000000E+00  0.24844448279E+04  0.24844448279E+04  0.25500000920E-02 0.  1.
       -2   -1    0    0    0  501  0.00000000000E+00  0.00000000000E+00 -0.74521689655E+03  0.74521689655E+03  0.25500000920E-02 0. -1.
    10030    2    1    2    0    0  0.00000000000E+00  0.00000000000E+00  0.17392279313E+04  0.32296617244E+04  0.27213601484E+04 0.  0.
        1    1    3    3  502    0  0.21597687083E+03  0.10172890895E+04 -0.17173391404E+03  0.10540472653E+04  0.50400001928E-02 0. -1.
       -1    1    3    3    0  502 -0.21597687083E+03 -0.10172890895E+04  0.19109618454E+04  0.21756144591E+04  0.50400001928E-02 0.  1.
</event>
<event>
 5   0  0.1828511E-06  0.2705094E+04  0.7818609E-02  0.8333354E-01
        1   -1    0    0  501    0  0.00000000000E+00  0.00000000000E+00  0.12905799397E+04  0.12905799398E+04  0.50400001928E-02 0.  1.
       -1   -1    0    0    0  501  0.00000000000E+00  0.00000000000E+00 -0.14174891652E+04  0.14174891652E+04  0.50400001928E-02 0. -1.
    10030    2    1    2    0    0  0.00000000000E+00  0.00000000000E+00 -0.12690922544E+03  0.27080691050E+04  0.27050937739E+04 0.  0.
        4    1    3    3  502    0  0.10172302585E+04  0.85463378603E+03  0.19025096786E+03  0.13421450558E+04  0.12699999809E+01 0. -1.
       -4    1    3    3    0  502 -0.10172302585E+04 -0.85463378603E+03 -0.31716019331E+03  0.13659240492E+04  0.12699999809E+01 0.  1.
</event>
<event>
 5   0  0.1771016E-06  0.2700949E+04  0.7818609E-02  0.8334697E-01
       -1   -1    0    0    0  501  0.00000000000E+00  0.00000000000E+00  0.86842460442E+03  0.86842460443E+03  0.50400001928E-02 0.  1.
        1   -1    0    0  501    0  0.00000000000E+00  0.00000000000E+00 -0.21001028644E+04  0.21001028644E+04  0.50400001928E-02 0. -1.
    10030    2    1    2    0    0  0.00000000000E+00  0.00000000000E+00 -0.12316782600E+04  0.29685274688E+04  0.27009487217E+04 0.  0.
        2    1    3    3  502    0  0.98808040838E+02  0.10234508377E+04 -0.15781150304E+04  0.18835237443E+04  0.25500000920E-02 0. -1.
       -2    1    3    3    0  502 -0.98808040838E+02 -0.10234508377E+04  0.34643677047E+03  0.10850037245E+04  0.25500000920E-02 0.  1.
</event>
<event>
 5   0  0.1723605E-06  0.2707949E+04  0.7818609E-02  0.8332430E-01
       -1   -1    0    0    0  501  0.00000000000E+00  0.00000000000E+00  0.77231917559E+03  0.77231917560E+03  0.50400001928E-02 0.  1.
        1   -1    0    0  501    0  0.00000000000E+00  0.00000000000E+00 -0.23736905760E+04  0.23736905760E+04  0.50400001928E-02 0. -1.
    10030    2    1    2    0    0  0.00000000000E+00  0.00000000000E+00 -0.16013714004E+04  0.31460097516E+04  0.27079488539E+04 0.  0.
        1    1    3    3  502    0 -0.19020479242E+03  0.28336956754E+03 -0.23228997897E+04  0.23478372192E+04  0.50400001928E-02 0. -1.
       -1    1    3    3    0  502  0.19020479242E+03 -0.28336956754E+03  0.72152838930E+03  0.79817253239E+03  0.50400001928E-02 0.  1.
</event>
<event>
 5   0  0.4655882E-06  0.2706301E+04  0.7818609E-02  0.8332964E-01
        2   -1    0    0  501    0  0.00000000000E+00  0.00000000000E+00  0.18280943832E+04  0.18280943832E+04  0.25500000920E-02 0.  1.
       -2   -1    0    0    0  501  0.00000000000E+00  0.00000000000E+00 -0.10015980074E+04  0.10015980074E+04  0.25500000920E-02 0. -1.
    10030    2    1    2    0    0  0.00000000000E+00  0.00000000000E+00  0.82649637572E+03  0.28296923906E+04  0.27063005684E+04 0.  0.
        1    1    3    3  502    0 -0.44640710619E+03 -0.67744852667E+03  0.15455837703E+04  0.17455787011E+04  0.50400001928E-02 0.  1.
       -1    1    3    3    0  502  0.44640710619E+03  0.67744852667E+03 -0.71908739455E+03  0.10841136895E+04  0.50400001928E-02 0. -1.
</event>
<event>
 5   0  0.1753474E-06  0.2720822E+04  0.7818609E-02  0.8328280E-01
        1   -1    0    0  501    0  0.00000000000E+00  0.00000000000E+00  0.14175267993E+04  0.14175267993E+04  0.50400001928E-02 0.  1.
       -1   -1    0    0    0  501  0.00000000000E+00  0.00000000000E+00 -0.13055964566E+04  0.13055964566E+04  0.50400001928E-02 0. -1.
    10030    2    1    2    0    0  0.00000000000E+00  0.00000000000E+00  0.11193034274E+03  0.27231232559E+04  0.27208219098E+04 0.  0.
        3    1    3    3  502    0 -0.52527113047E+03  0.53921329190E+03 -0.10781557754E+04  0.13149451019E+04  0.10100000352E+00 0. -1.
       -3    1    3    3    0  502  0.52527113047E+03 -0.53921329190E+03  0.11900861181E+04  0.14081781540E+04  0.10100000352E+00 0.  1.
</event>
<event>
 5   0  0.1732312E-06  0.2535081E+04  0.7818609E-02  0.8390593E-01
       -1   -1    0    0    0  501  0.00000000000E+00  0.00000000000E+00  0.10989375858E+04  0.10989375858E+04  0.50400001928E-02 0.  1.
        1   -1    0    0  501    0  0.00000000000E+00  0.00000000000E+00 -0.14620104966E+04  0.14620104966E+04  0.50400001928E-02 0. -1.
    10030    2    1    2    0    0  0.00000000000E+00  0.00000000000E+00 -0.36307291086E+03  0.25609480824E+04  0.25350805001E+04 0.  0.
        5    1    3    3  502    0 -0.56626973894E+03 -0.10155334829E+04  0.32825781395E+03  0.12081990542E+04  0.46999998093E+01 0.  1.
       -5    1    3    3    0  502  0.56626973894E+03  0.10155334829E+04 -0.69133072481E+03  0.13527490282E+04  0.46999998093E+01 0. -1.
</event>
<event>
 5   0  0.1753474E-06  0.2701887E+04  0.7818609E-02  0.8334393E-01
        1   -1    0    0  501    0  0.00000000000E+00  0.00000000000E+00  0.19838625780E+04  0.19838625780E+04  0.50400001928E-02 0. -1.
       -1   -1    0    0    0  501  0.00000000000E+00  0.00000000000E+00 -0.91994678705E+03  0.91994678706E+03  0.50400001928E-02 0.  1.
    10030    2    1    2    0    0  0.00000000000E+00  0.00000000000E+00  0.10639157910E+04  0.29038093651E+04  0.27018867516E+04 0.  0.
        3    1    3    3  502    0  0.73346679957E+02 -0.69460000129E+03 -0.71083567302E+03  0.99656222159E+03  0.10100000352E+00 0.  1.
       -3    1    3    3    0  502 -0.73346679957E+02  0.69460000129E+03  0.17747514640E+04  0.19072471435E+04  0.10100000352E+00 0. -1.
</event>
<event>
 5   0  0.4448804E-06  0.2697275E+04  0.7818609E-02  0.8335890E-01
       -2   -1    0    0    0  501  0.00000000000E+00  0.00000000000E+00  0.86056588543E+03  0.86056588544E+03  0.25500000920E-02 0.  1.
        2   -1    0    0  501    0  0.00000000000E+00  0.00000000000E+00 -0.21135191731E+04  0.21135191731E+04  0.25500000920E-02 0. -1.
    10030    2    1    2    0    0  0.00000000000E+00  0.00000000000E+00 -0.12529532876E+04  0.29740850585E+04  0.26972745493E+04 0.  0.
        2    1    3    3  502    0  0.12152855764E+04  0.53330409563E+03 -0.36209873041E+03  0.13756626698E+04  0.25500000920E-02 0.  1.
       -2    1    3    3    0  502 -0.12152855764E+04 -0.53330409563E+03 -0.89085455722E+03  0.15984223887E+04  0.25500000920E-02 0. -1.
</event>
<event>
 5   0  0.4448804E-06  0.2686773E+04  0.7818609E-02  0.8339309E-01
       -2   -1    0    0    0  501  0.00000000000E+00  0.00000000000E+00  0.93584293167E+03  0.93584293168E+03  0.25500000920E-02 0.  1.
        2   -1    0    0  501    0  0.00000000000E+00  0.00000000000E+00 -0.19284082884E+04  0.19284082884E+04  0.25500000920E-02 0. -1.
    10030    2    1    2    0    0  0.00000000000E+00  0.00000000000E+00 -0.99256535670E+03  0.28642512201E+04  0.26867729834E+04 0.  0.
        2    1    3    3  502    0  0.11684074155E+04  0.76058330179E+01 -0.12029851531E+04  0.16770232604E+04  0.25500000920E-02 0.  1.
       -2    1    3    3    0  502 -0.11684074155E+04 -0.76058330179E+01  0.21041979642E+03  0.11872279596E+04  0.25500000920E-02 0. -1.
</event>
<event>
 5   0  0.4439357E-06  0.2697764E+04  0.7818609E-02  0.8335731E-01
       -2   -1    0    0    0  501  0.00000000000E+00  0.00000000000E+00  0.90107022252E+03  0.90107022252E+03  0.25500000920E-02 0. -1.
        2   -1    0    0  501    0  0.00000000000E+00  0.00000000000E+00 -0.20192456703E+04  0.20192456703E+04  0.25500000920E-02 0.  1.
    10030    2    1    2    0    0  0.00000000000E+00  0.00000000000E+00 -0.11181754477E+04  0.29203158928E+04  0.26977636260E+04 0.  0.
        4    1    3    3  502    0  0.10862042742E+04 -0.75208712404E+03 -0.26460575133E+03  0.13474021612E+04  0.12699999809E+01 0. -1.
       -4    1    3    3    0  502 -0.10862042742E+04  0.75208712404E+03 -0.85356969641E+03  0.15729137316E+04  0.12699999809E+01 0.  1.
</event>
<event>
 5   0  0.1753474E-06  0.2702530E+04  0.7818609E-02  0.8334185E-01
        1   -1    0    0  501    0  0.00000000000E+00  0.00000000000E+00  0.89530506974E+03  0.89530506975E+03  0.50400001928E-02 0. -1.
       -1   -1    0    0    0  501  0.00000000000E+00  0.00000000000E+00 -0.20394357590E+04  0.20394357590E+04  0.50400001928E-02 0.  1.
    10030    2    1    2    0    0  0.00000000000E+00  0.00000000000E+00 -0.11441306893E+04  0.29347408288E+04  0.27025300550E+04 0.  0.
        3    1    3    3  502    0 -0.42493917167E+03  0.10371037726E+04  0.24761601444E+03  0.11478114983E+04  0.10100000352E+00 0. -1.
       -3    1    3    3    0  502  0.42493917167E+03 -0.10371037726E+04 -0.13917467037E+04  0.17869293305E+04  0.10100000352E+00 0.  1.
</event>
<event>
 5   0  0.1828511E-06  0.2700343E+04  0.7818609E-02  0.8334894E-01
       -1   -1    0    0    0  501  0.00000000000E+00  0.00000000000E+00  0.85274038148E+03  0.85274038149E+03  0.50400001928E-02 0. -1.
        1   -1    0    0  501    0  0.00000000000E+00  0.00000000000E+00 -0.21377697744E+04  0.21377697744E+04  0.50400001928E-02 0.  1.
    10030    2    1    2    0    0  0.00000000000E+00  0.00000000000E+00 -0.12850293930E+04  0.29905101559E+04  0.27003426545E+04 0.  0.
        4    1    3    3  502    0  0.79395588404E+03  0.42373264471E+03 -0.17571708651E+04  0.19742255095E+04  0.12699999809E+01 0.  1.
       -4    1    3    3    0  502 -0.79395588404E+03 -0.42373264471E+03  0.47214147218E+03  0.10162846465E+04  0.12699999809E+01 0. -1.
</event>
<event>
 5   0  0.4401659E-06  0.2703723E+04  0.7818609E-02  0.8333798E-01
        2   -1    0    0  501    0  0.00000000000E+00  0.00000000000E+00  0.15183020296E+04  0.15183020296E+04  0.25500000920E-02 0.  1.
       -2   -1    0    0    0  501  0.00000000000E+00  0.00000000000E+00 -0.12036668260E+04  0.12036668260E+04  0.25500000920E-02 0. -1.
    10030    2    1    2    0    0  0.00000000000E+00  0.00000000000E+00  0.31463520359E+03  0.27219688556E+04  0.27037231995E+04 0.  0.
        5    1    3    3  502    0  0.85870636438E+03  0.23135800611E+03 -0.86769092715E+03  0.12425026287E+04  0.46999998093E+01 0. -1.
       -5    1    3    3    0  502 -0.85870636438E+03 -0.23135800611E+03  0.11823261307E+04  0.14794662269E+04  0.46999998093E+01 0.  1.
</event>
<event>
 5   0  0.1732312E-06  0.2697683E+04  0.7818609E-02  0.8335757E-01
       -1   -1    0    0    0  501  0.00000000000E+00  0.00000000000E+00  0.99207586106E+03  0.99207586107E+03  0.50400001928E-02 0. -1.
        1   -1    0    0  501    0  0.00000000000E+00  0.00000000000E+00 -0.18339055994E+04  0.18339055994E+04  0.50400001928E-02 0.  1.
    10030    2    1    2    0    0  0.00000000000E+00  0.00000000000E+00 -0.84182973829E+03  0.28259814604E+04  0.26976830626E+04 0.  0.
        5    1    3    3  502    0 -0.79553528601E+03 -0.84028192449E+03 -0.11469881618E+04  0.16292802206E+04  0.46999998093E+01 0.  1.
       -5    1    3    3    0  502  0.79553528601E+03  0.84028192449E+03  0.30515842355E+03  0.11967012398E+04  0.46999998093E+01 0. -1.
</event>
<event>
 5   0  0.1771016E-06  0.2707277E+04  0.7818609E-02  0.8332648E-01
        1   -1    0    0  501    0  0.00000000000E+00  0.00000000000E+00  0.15808508665E+04  0.15808508665E+04  0.50400001928E-02 0.  1.
       -1   -1    0    0    0  501  0.00000000000E+00  0.00000000000E+00 -0.11590829661E+04  0.11590829661E+04  0.50400001928E-02 0. -1.
    10030    2    1    2    0    0  0.00000000000E+00  0.00000000000E+00  0.42176790043E+03  0.27399338326E+04  0.27072770906E+04 0.  0.
        2    1    3    3  502    0 -0.64612431227E+03 -0.48759827851E+03 -0.88714965983E+03  0.12009426410E+04  0.25500000920E-02 0. -1.
       -2    1    3    3    0  502  0.64612431227E+03  0.48759827851E+03  0.13089175603E+04  0.15389911915E+04  0.25500000920E-02 0.  1.
</event>
<event>
 5   0  0.4401659E-06  0.2710163E+04  0.7818609E-02  0.8331715E-01
       -2   -1    0    0    0  501  0.00000000000E+00  0.00000000000E+00  0.75403176119E+03  0.75403176120E+03  0.25500000920E-02 0. -1.
        2   -1    0    0  501    0  0.00000000000E+00  0.00000000000E+00 -0.24352375339E+04  0.24352375339E+04  0.25500000920E-02 0.  1.
    10030    2    1    2    0    0  0.00000000000E+00  0.00000000000E+00 -0.16812057727E+04  0.31892692951E+04  0.27101634243E+04 0.  0.
        5    1    3    3  502    0 -0.40185474771E+03  0.25260628925E+03  0.65299491804E+03  0.80729277751E+03  0.46999998093E+01 0. -1.
       -5    1    3    3    0  502  0.40185474771E+03 -0.25260628925E+03 -0.23342006907E+04  0.23819765176E+04  0.46999998093E+01 0.  1.
</event>
<event>
 5   0  0.1753474E-06  0.2717265E+04  0.7818609E-02  0.8329425E-01
        1   -1    0    0  501    0  0.00000000000E+00  0.00000000000E+00  0.11944637385E+04  0.11944637385E+04  0.50400001928E-02 0. -1.
       -1   -1    0    0    0  501  0.00000000000E+00  0.00000000000E+00 -0.15453646589E+04  0.15453646589E+04  0.50400001928E-02 0.  1.
    10030    2    1    2    0    0  0.00000000000E+00  0.00000000000E+00 -0.35090092038E+03  0.27398283974E+04  0.27172648364E+04 0.  0.
        3    1    3    3  502    0  0.93941595238E+03 -0.85353406522E+03  0.31319658857E+03  0.13073311919E+04  0.10100000352E+00 0. -1.
       -3    1    3    3    0  502 -0.93941595238E+03  0.85353406522E+03 -0.66409750894E+03  0.14324972055E+04  0.10100000352E+00 0.  1.
</event>
<event>
 5   0  0.1753474E-06  0.2699956E+04  0.7818609E-02  0.8335019E-01
       -1   -1    0    0    0  501  0.00000000000E+00  0.00000000000E+00  0.11801767108E+04  0.11801767108E+04  0.50400001928E-02 0.  1.
        1   -1    0    0  501    0  0.00000000000E+00  0.00000000000E+00 -0.15442100510E+04  0.15442100510E+04  0.50400001928E-02 0. -1.
    10030    2    1    2    0    0  0.00000000000E+00  0.00000000000E+00 -0.36403334015E+03  0.27243867618E+04  0.26999561024E+04 0.  0.
        3    1    3    3  502    0  0.13488439520E+04 -0.48257545870E+02 -0.15471764664E+03  0.13585456776E+04  0.10100000352E+00 0. -1.
       -3    1    3    3    0  502 -0.13488439520E+04  0.48257545870E+02 -0.20931569352E+03  0.13658410842E+04  0.10100000352E+00 0.  1.
</event>
<event>
 5   0  0.1753474E-06  0.2704111E+04  0.7818609E-02  0.8333672E-01
       -1   -1    0    0    0  501  0.00000000000E+00  0.00000000000E+00  0.32024350118E+04  0.32024350118E+04  0.50400001928E-02 0. -1.
        1   -1    0    0  501    0  0.00000000000E+00  0.00000000000E+00 -0.57083234379E+03  0.57083234381E+03  0.50400001928E-02 0.  1.
    10030    2    1    2    0    0  0.00000000000E+00  0.00000000000E+00  0.26316026680E+04  0.37732673556E+04  0.27041105626E+04 0.  0.
        3    1    3    3  502    0  0.12674397800E+04  0.46774774644E+03  0.13904500117E+04  0.19386961586E+04  0.10100000352E+00 0. -1.
       -3    1    3    3    0  502 -0.12674397800E+04 -0.46774774644E+03  0.12411526563E+04  0.18345711970E+04  0.10100000352E+00 0.  1.
</event>
<event>
 5   0  0.1771016E-06  0.2704264E+04  0.7818609E-02  0.8333623E-01
       -1   -1    0    0    0  501  0.00000000000E+00  0.00000000000E+00  0.32306175410E+04  0.32306175410E+04  0.50400001928E-02 0.  1.
        1   -1    0    0  501    0  0.00000000000E+00  0.00000000000E+00 -0.56591706306E+03  0.56591706308E+03  0.50400001928E-02 0. -1.
    10030    2    1    2    0    0  0.00000000000E+00  0.00000000000E+00  0.26647004779E+04  0.37965346041E+04  0.27042644772E+04 0.  0.
        2    1    3    3  502    0  0.84307607051E+03 -0.35814103051E+03  0.27286687544E+04  0.28783112114E+04  0.25500000920E-02 0.  1.
       -2    1    3    3    0  502 -0.84307607051E+03  0.35814103051E+03 -0.63968276499E+02  0.91822339265E+03  0.25500000920E-02 0. -1.
</event>
<event>
 5   0  0.1828511E-06  0.2650309E+04  0.7818609E-02  0.8351310E-01
       -1   -1    0    0    0  501  0.00000000000E+00  0.00000000000E+00  0.93303305982E+03  0.93303305983E+03  0.50400001928E-02 0.  1.
        1   -1    0    0  501    0  0.00000000000E+00  0.00000000000E+00 -0.18820713583E+04  0.18820713583E+04  0.50400001928E-02 0. -1.
    10030    2    1    2    0    0  0.00000000000E+00  0.00000000000E+00 -0.94903829849E+03  0.28151044181E+04  0.26503092637E+04 0.  0.
        4    1    3    3  502    0  0.66704980969E+03  0.11426492140E+04 -0.39624501393E+03  0.13811641463E+04  0.12699999809E+01 0.  1.
       -4    1    3    3    0  502 -0.66704980969E+03 -0.11426492140E+04 -0.55279328456E+03  0.14339402719E+04  0.12699999809E+01 0. -1.
</event>
<event>
 5   0  0.1828511E-06  0.2689964E+04  0.7818609E-02  0.8338269E-01
       -1   -1    0    0    0  501  0.00000000000E+00  0.00000000000E+00  0.15174522568E+04  0.15174522569E+04  0.50400001928E-02 0. -1.
        1   -1    0    0  501    0  0.00000000000E+00  0.00000000000E+00 -0.11921143134E+04  0.11921143134E+04  0.50400001928E-02 0.  1.
    10030    2    1    2    0    0  0.00000000000E+00  0.00000000000E+00  0.32533794346E+03  0.27095665703E+04  0.26899639814E+04 0.  0.
        4    1    3    3  502    0 -0.52339373305E+03 -0.55771404928E+03  0.12770715670E+04  0.14885897221E+04  0.12699999809E+01 0. -1.
       -4    1    3    3    0  502  0.52339373305E+03  0.55771404928E+03 -0.95173362357E+03  0.12209768481E+04  0.12699999809E+01 0.  1.
</event>
<event>
 5   0  0.4487186E-06  0.2696430E+04  0.7818609E-02  0.8336164E-01
        2   -1    0    0  501    0  0.00000000000E+00  0.00000000000E+00  0.11090562973E+04  0.11090562973E+04  0.25500000920E-02 0. -1.
       -2   -1    0    0    0  501  0.00000000000E+00  0.00000000000E+00 -0.16389465313E+04  0.16389465313E+04  0.25500000920E-02 0.  1.
    10030    2    1    2    0    0  0.00000000000E+00  0.00000000000E+00 -0.52989023395E+03  0.27480028286E+04  0.26964302115E+04 0.  0.
        3    1    3    3  502    0 -0.52472616570E+03 -0.11035514063E+04  0.31561767269E+03  0.12620530024E+04  0.10100000352E+00 0. -1.
       -3    1    3    3    0  502  0.52472616570E+03  0.11035514063E+04 -0.84550790664E+03  0.14859498261E+04  0.10100000352E+00 0.  1.
</event>
<event>
 5   0  0.4439357E-06  0.2679201E+04  0.7818609E-02  0.8341785E-01
       -2   -1    0    0    0  501  0.00000000000E+00  0.00000000000E+00  0.12635549244E+04  0.12635549244E+04  0.25500000920E-02 0.  1.
        2   -1    0    0  501    0  0.00000000000E+00  0.00000000000E+00 -0.14202230238E+04  0.14202230238E+04  0.25500000920E-02 0. -1.
    10030    2    1    2    0    0  0.00000000000E+00  0.00000000000E+00 -0.15666809940E+03  0.26837779481E+04  0.26792012208E+04 0.  0.
        4    1    3    3  502    0  0.12746235076E+04  0.36051784906E+03 -0.27839998073E+03  0.13535680138E+04  0.12699999809E+01 0. -1.
       -4    1    3    3    0  502 -0.12746235076E+04 -0.36051784906E+03  0.12173188132E+03  0.13302099344E+04  0.12699999809E+01 0.  1.
</event>
<event>
 5   0  0.4439357E-06  0.2700221E+04  0.7818609E-02  0.8334933E-01
        2   -1    0    0  501    0  0.00000000000E+00  0.00000000000E+00  0.14994072582E+04  0.14994072582E+04  0.25500000920E-02 0. -1.
       -2   -1    0    0    0  501  0.00000000000E+00  0.00000000000E+00 -0.12156796666E+04  0.12156796666E+04  0.25500000920E-02 0.  1.
    10030    2    1    2    0    0  0.00000000000E+00  0.00000000000E+00  0.28372759155E+03  0.27150869248E+04  0.27002214100E+04 0.  0.
        4    1    3    3  502    0  0.79935695978E+03  0.42075603683E+03 -0.86704946999E+03  0.12521116516E+04  0.12699999809E+01 0.  1.
       -4    1    3    3    0  502 -0.79935695978E+03 -0.42075603683E+03  0.11507770615E+04  0.14629752732E+04  0.12699999809E+01 0. -1.
</event>
<event>
 5   0  0.1732312E-06  0.2679140E+04  0.7818609E-02  0.8341805E-01
        1   -1    0    0  501    0  0.00000000000E+00  0.00000000000E+00  0.16371240512E+04  0.16371240512E+04  0.50400001928E-02 0. -1.
       -1   -1    0    0    0  501  0.00000000000E+00  0.00000000000E+00 -0.10960979692E+04  0.10960979692E+04  0.50400001928E-02 0.  1.
    10030    2    1    2    0    0  0.00000000000E+00  0.00000000000E+00  0.54102608200E+03  0.27332220204E+04  0.26791404203E+04 0.  0.
        5    1    3    3  502    0  0.88349471319E+03  0.78677654693E+03  0.91156512136E+03  0.14935037005E+04  0.46999998093E+01 0. -1.
       -5    1    3    3    0  502 -0.88349471319E+03 -0.78677654693E+03 -0.37053903936E+03  0.12397183199E+04  0.46999998093E+01 0.  1.
</event>
<event>
 5   0  0.1753474E-06  0.2698904E+04  0.7818609E-02  0.8335361E-01
        1   -1    0    0  501    0  0.00000000000E+00  0.00000000000E+00  0.11145228777E+04  0.11145228777E+04  0.50400001928E-02 0. -1.
       -1   -1    0    0    0  501  0.00000000000E+00  0.00000000000E+00 -0.16339010392E+04  0.16339010392E+04  0.50400001928E-02 0.  1.
    10030    2    1    2    0    0  0.00000000000E+00  0.00000000000E+00 -0.51937816148E+03  0.27484239169E+04  0.26989035463E+04 0.  0.
        3    1    3    3  502    0  0.79856656342E+03  0.10669010607E+04 -0.43584027846E+02  0.13333739187E+04  0.10100000352E+00 0. -1.
       -3    1    3    3    0  502 -0.79856656342E+03 -0.10669010607E+04 -0.47579413364E+03  0.14150499982E+04  0.10100000352E+00 0.  1.
</event>
<event>
 5   0  0.4439357E-06  0.2707161E+04  0.7818609E-02  0.8332685E-01
       -2   -1    0    0    0  501  0.00000000000E+00  0.00000000000E+00  0.12993347885E+04  0.12993347885E+04  0.25500000920E-02 0. -1.
        2   -1    0    0  501    0  0.00000000000E+00  0.00000000000E+00 -0.14100913243E+04  0.14100913243E+04  0.25500000920E-02 0.  1.
    10030    2    1    2    0    0  0.00000000000E+00  0.00000000000E+00 -0.11075653581E+03  0.27094261128E+04  0.27071614009E+04 0.  0.
        4    1    3    3  502    0 -0.52615041028E+03  0.70401105254E+03 -0.10856632089E+04  0.13968292782E+04  0.12699999809E+01 0.  1.
       -4    1    3    3    0  502  0.52615041028E+03 -0.70401105254E+03  0.97490667306E+03  0.13125968347E+04  0.12699999809E+01 0. -1.
</event>
<event>
 5   0  0.4401659E-06  0.2689462E+04  0.7818609E-02  0.8338432E-01
       -2   -1    0    0    0  501  0.00000000000E+00  0.00000000000E+00  0.14260353895E+04  0.14260353895E+04  0.25500000920E-02 0. -1.
        2   -1    0    0  501    0  0.00000000000E+00  0.00000000000E+00 -0.12680619723E+04  0.12680619723E+04  0.25500000920E-02 0.  1.
    10030    2    1    2    0    0  0.00000000000E+00  0.00000000000E+00  0.15797341718E+03  0.26940973619E+04  0.26894618411E+04 0.  0.
        5    1    3    3  502    0  0.30487615441E+02  0.11389471650E+04 -0.63649152797E+03  0.13050952818E+04  0.46999998093E+01 0.  1.
       -5    1    3    3    0  502 -0.30487615441E+02 -0.11389471650E+04  0.79446494515E+03  0.13890020801E+04  0.46999998093E+01 0. -1.
</event>
<event>
 5   0  0.1732312E-06  0.2701510E+04  0.7818609E-02  0.8334515E-01
        1   -1    0    0  501    0  0.00000000000E+00  0.00000000000E+00  0.16626006070E+04  0.16626006070E+04  0.50400001928E-02 0. -1.
       -1   -1    0    0    0  501  0.00000000000E+00  0.00000000000E+00 -0.10974004005E+04  0.10974004006E+04  0.50400001928E-02 0.  1.
    10030    2    1    2    0    0  0.00000000000E+00  0.00000000000E+00  0.56520020642E+03  0.27600010075E+04  0.27015096313E+04 0.  0.
        5    1    3    3  502    0 -0.49593233889E+03 -0.60434309521E+03 -0.84276500231E+03  0.11495453017E+04  0.46999998093E+01 0.  1.
       -5    1    3    3    0  502  0.49593233889E+03  0.60434309521E+03  0.14079652087E+04  0.16104557058E+04  0.46999998093E+01 0. -1.
</event>
<event>
 5   0  0.1753474E-06  0.2694091E+04  0.7818609E-02  0.8336925E-01
        1   -1    0    0  501    0  0.00000000000E+00  0.00000000000E+00  0.82098880134E+03  0.82098880135E+03  0.50400001928E-02 0. -1.
       -1   -1    0    0    0  501  0.00000000000E+00  0.00000000000E+00 -0.22101788335E+04  0.22101788335E+04  0.50400001928E-02 0.  1.
    10030    2    1    2    0    0  0.00000000000E+00  0.00000000000E+00 -0.13891900321E+04  0.30311676348E+04  0.26940913654E+04 0.  0.
        3    1    3    3  502    0 -0.11543039359E+04  0.29465333241E+03  0.12792987573E+02  0.11913865173E+04  0.10100000352E+00 0. -1.
       -3    1    3    3    0  502  0.11543039359E+04 -0.29465333241E+03 -0.14019830197E+04  0.18397811176E+04  0.10100000352E+00 0.  1.
</event>
<event>
 5   0  0.4448804E-06  0.2680694E+04  0.7818609E-02  0.8341296E-01
       -2   -1    0    0    0  501  0.00000000000E+00  0.00000000000E+00  0.21233932181E+04  0.21233932181E+04  0.25500000920E-02 0.  1.
        2   -1    0    0  501    0  0.00000000000E+00  0.00000000000E+00 -0.84606559159E+03  0.84606559159E+03  0.25500000920E-02 0. -1.
    10030    2    1    2    0    0  0.00000000000E+00  0.00000000000E+00  0.12773276265E+04  0.29694588096E+04  0.26806938947E+04 0.  0.
        2    1    3    3  502    0 -0.12051301459E+04 -0.12161835263E+03  0.12744221158E+04  0.17582040329E+04  0.25500000920E-02 0.  1.
       -2    1    3    3    0  502  0.12051301459E+04  0.12161835263E+03  0.29055107193E+01  0.12112547767E+04  0.25500000920E-02 0. -1.
</event>
<event>
 5   0  0.4401659E-06  0.2557581E+04  0.7818609E-02  0.8382755E-01
        2   -1    0    0  501    0  0.00000000000E+00  0.00000000000E+00  0.14258308493E+04  0.14258308493E+04  0.25500000920E-02 0.  1.
       -2   -1    0    0    0  501  0.00000000000E+00  0.00000000000E+00 -0.11469135200E+04  0.11469135200E+04  0.25500000920E-02 0. -1.
    10030    2    1    2    0    0  0.00000000000E+00  0.00000000000E+00  0.27891732929E+03  0.25727443693E+04  0.25575806367E+04 0.  0.
        5    1    3    3  502    0 -0.11505122615E+03  0.21157490170E+03  0.14028036361E+04  0.14233344144E+04  0.46999998093E+01 0.  1.
       -5    1    3    3    0  502  0.11505122615E+03 -0.21157490170E+03 -0.11238863068E+04  0.11494099549E+04  0.46999998093E+01 0. -1.
</event>
<event>
 5   0  0.4655882E-06  0.2528501E+04  0.7818609E-02  0.8392902E-01
       -2   -1    0    0    0  501  0.00000000000E+00  0.00000000000E+00  0.89327079187E+03  0.89327079187E+03  0.25500000920E-02 0.  1.
        2   -1    0    0  501    0  0.00000000000E+00  0.00000000000E+00 -0.17893004362E+04  0.17893004362E+04  0.25500000920E-02 0. -1.
    10030    2    1    2    0    0  0.00000000000E+00  0.00000000000E+00 -0.89602964436E+03  0.26825712281E+04  0.25285013882E+04 0.  0.
        1    1    3    3  502    0  0.36807451415E+02  0.60362346602E+03  0.72986658948E+03  0.94785089316E+03  0.50400001928E-02 0.  1.
       -1    1    3    3    0  502 -0.36807451415E+02 -0.60362346602E+03 -0.16258962338E+04  0.17347203349E+04  0.50400001928E-02 0. -1.
</event>
<event>
 5   0  0.4439357E-06  0.2702263E+04  0.7818609E-02  0.8334271E-01
        2   -1    0    0  501    0  0.00000000000E+00  0.00000000000E+00  0.14028313980E+04  0.14028313980E+04  0.25500000920E-02 0. -1.
       -2   -1    0    0    0  501  0.00000000000E+00  0.00000000000E+00 -0.13013368752E+04  0.13013368752E+04  0.25500000920E-02 0.  1.
    10030    2    1    2    0    0  0.00000000000E+00  0.00000000000E+00  0.10149452279E+03  0.27041682732E+04  0.27022629242E+04 0.  0.
        4    1    3    3  502    0  0.95334203552E+03  0.83507373072E+03  0.51942078300E+03  0.13696746822E+04  0.12699999809E+01 0. -1.
       -4    1    3    3    0  502 -0.95334203552E+03 -0.83507373072E+03 -0.41792626021E+03  0.13344935910E+04  0.12699999809E+01 0.  1.
</event>
<event>
 5   0  0.4401659E-06  0.2703787E+04  0.7818609E-02  0.8333777E-01
       -2   -1    0    0    0  501  0.00000000000E+00  0.00000000000E+00  0.15108746768E+04  0.15108746768E+04  0.25500000920E-02 0. -1.
        2   -1    0    0  501    0  0.00000000000E+00  0.00000000000E+00 -0.12096409891E+04  0.12096409891E+04  0.25500000920E-02 0.  1.
    10030    2    1    2    0    0  0.00000000000E+00  0.00000000000E+00  0.30123368769E+03  0.27205156659E+04  0.27037869284E+04 0.  0.
        5    1    3    3  502    0 -0.43558816813E+03 -0.58901089912E+03 -0.99260082779E+03  0.12336731272E+04  0.46999998093E+01 0.  1.
       -5    1    3    3    0  502  0.43558816813E+03  0.58901089912E+03  0.12938345155E+04  0.14868425387E+04  0.46999998093E+01 0. -1.
</event>
<event>
 5   0  0.4487186E-06  0.2704341E+04  0.7818609E-02  0.8333598E-01
       -2   -1    0    0    0  501  0.00000000000E+00  0.00000000000E+00  0.11599754456E+04  0.11599754456E+04  0.25500000920E-02 0.  1.
        2   -1    0    0  501    0  0.00000000000E+00  0.00000000000E+00 -0.15762101332E+04  0.15762101332E+04  0.25500000920E-02 0. -1.
    10030    2    1    2    0    0  0.00000000000E+00  0.00000000000E+00 -0.41623468756E+03  0.27361855788E+04  0.27043409930E+04 0.  0.
        3    1    3    3  502    0  0.55959809506E+03 -0.10730399394E+04  0.40214366960E+03  0.12752585152E+04  0.10100000352E+00 0.  1.
       -3    1    3    3    0  502 -0.55959809506E+03  0.10730399394E+04 -0.81837835716E+03  0.14609270636E+04  0.10100000352E+00 0. -1.
</event>
<event>
 5   0  0.1828511E-06  0.2588406E+04  0.7818609E-02  0.8372150E-01
       -1   -1    0    0    0  501  0.00000000000E+00  0.00000000000E+00  0.18651911285E+04  0.18651911285E+04  0.50400001928E-02 0. -1.
        1   -1    0    0  501    0  0.00000000000E+00  0.00000000000E+00 -0.89801089133E+03  0.89801089135E+03  0.50400001928E-02 0.  1.
    10030    2    1    2    0    0  0.00000000000E+00  0.00000000000E+00  0.96718023715E+03  0.27632020198E+04  0.25884064193E+04 0.  0.
        4    1    3    3  502    0  0.10532709685E+03 -0.51607704108E+03 -0.77841436687E+03  0.93987225149E+03  0.12699999809E+01 0.  1.
       -4    1    3    3    0  502 -0.10532709685E+03  0.51607704108E+03  0.17455946040E+04  0.18233297683E+04  0.12699999809E+01 0. -1.
</event>
<event>
 5   0  0.4401659E-06  0.2714155E+04  0.7818609E-02  0.8330427E-01
        2   -1    0    0  501    0  0.00000000000E+00  0.00000000000E+00  0.96502533424E+03  0.96502533425E+03  0.25500000920E-02 0.  1.
       -2   -1    0    0    0  501  0.00000000000E+00  0.00000000000E+00 -0.19084050402E+04  0.19084050402E+04  0.25500000920E-02 0. -1.
    10030    2    1    2    0    0  0.00000000000E+00  0.00000000000E+00 -0.94337970593E+03  0.28734303744E+04  0.27141549048E+04 0.  0.
        5    1    3    3  502    0  0.87751429897E+03 -0.42482982163E+03  0.52770120438E+03  0.11086037946E+04  0.46999998093E+01 0.  1.
       -5    1    3    3    0  502 -0.87751429897E+03  0.42482982163E+03 -0.14710809103E+04  0.17648265798E+04  0.46999998093E+01 0. -1.
</event>
<event>
 5   0  0.1732312E-06  0.2697903E+04  0.7818609E-02  0.8335686E-01
        1   -1    0    0  501    0  0.00000000000E+00  0.00000000000E+00  0.19083554769E+04  0.19083554769E+04  0.50400001928E-02 0.  1.
       -1   -1    0    0    0  501  0.00000000000E+00  0.00000000000E+00 -0.95352761511E+03  0.95352761512E+03  0.50400001928E-02 0. -1.
    10030    2    1    2    0    0  0.00000000000E+00  0.00000000000E+00  0.95482786176E+03  0.28618830920E+04  0.26979026274E+04 0.  0.
        5    1    3    3  502    0  0.82344550306E+03 -0.95860087058E+03  0.97797367219E+03  0.15979464068E+04  0.46999998093E+01 0.  1.
       -5    1    3    3    0  502 -0.82344550306E+03  0.95860087058E+03 -0.23145810436E+02  0.12639366852E+04  0.46999998093E+01 0. -1.
</event>
<event>
 5   0  0.1732312E-06  0.2702687E+04  0.7818609E-02  0.8334134E-01
       -1   -1    0    0    0  501  0.00000000000E+00  0.00000000000E+00  0.11257611448E+04  0.11257611448E+04  0.50400001928E-02 0.  1.
        1   -1    0    0  501    0  0.00000000000E+00  0.00000000000E+00 -0.16221281090E+04  0.16221281090E+04  0.50400001928E-02 0. -1.
    10030    2    1    2    0    0  0.00000000000E+00  0.00000000000E+00 -0.49636696415E+03  0.27478892538E+04  0.27026866611E+04 0.  0.
        5    1    3    3  502    0 -0.82487778233E+03 -0.21829975958E+03  0.81721076386E+03  0.11814963662E+04  0.46999998093E+01 0.  1.
       -5    1    3    3    0  502  0.82487778233E+03  0.21829975958E+03 -0.13135777280E+04  0.15663928876E+04  0.46999998093E+01 0. -1.
</event>
<event>
 5   0  0.1732312E-06  0.2662584E+04  0.7818609E-02  0.8347248E-01
        1   -1    0    0  501    0  0.00000000000E+00  0.00000000000E+00  0.12892253568E+04  0.12892253569E+04  0.50400001928E-02 0.  1.
       -1   -1    0    0    0  501  0.00000000000E+00  0.00000000000E+00 -0.13747317138E+04  0.13747317138E+04  0.50400001928E-02 0. -1.
    10030    2    1    2    0    0  0.00000000000E+00  0.00000000000E+00 -0.85506356931E+02  0.26639570706E+04  0.26625844470E+04 0.  0.
        5    1    3    3  502    0  0.11219037004E+04  0.71661033567E+03 -0.31856829429E+02  0.13316287898E+04  0.46999998093E+01 0.  1.
       -5    1    3    3    0  502 -0.11219037004E+04 -0.71661033567E+03 -0.53649527502E+02  0.13323282809E+04  0.46999998093E+01 0. -1.
</event>
<event>
 5   0  0.1723605E-06  0.2706863E+04  0.7818609E-02  0.8332782E-01
        1   -1    0    0  501    0  0.00000000000E+00  0.00000000000E+00  0.20162305676E+04  0.20162305676E+04  0.50400001928E-02 0.  1.
       -1   -1    0    0    0  501  0.00000000000E+00  0.00000000000E+00 -0.90851562779E+03  0.90851562780E+03  0.50400001928E-02 0. -1.
    10030    2    1    2    0    0  0.00000000000E+00  0.00000000000E+00  0.11077149398E+04  0.29247461954E+04  0.27068631143E+04 0.  0.
        1    1    3    3  502    0 -0.17038887946E+03  0.32755981277E+03 -0.85304592863E+03  0.92952415653E+03  0.50400001928E-02 0. -1.
       -1    1    3    3    0  502  0.17038887946E+03 -0.32755981277E+03  0.19607608684E+04  0.19952220388E+04  0.50400001928E-02 0.  1.
</event>
<event>
 5   0  0.4487186E-06  0.2687344E+04  0.7818609E-02  0.8339123E-01
       -2   -1    0    0    0  501  0.00000000000E+00  0.00000000000E+00  0.11672813442E+04  0.11672813442E+04  0.25500000920E-02 0.  1.
        2   -1    0    0  501    0  0.00000000000E+00  0.00000000000E+00 -0.15467169352E+04  0.15467169352E+04  0.25500000920E-02 0. -1.
    10030    2    1    2    0    0  0.00000000000E+00  0.00000000000E+00 -0.37943559098E+03  0.27139982795E+04  0.26873435384E+04 0.  0.
        3    1    3    3  502    0  0.50063943642E+03 -0.65147958800E+03  0.88402486757E+03  0.12068825442E+04  0.10100000352E+00 0.  1.
       -3    1    3    3    0  502 -0.50063943642E+03  0.65147958800E+03 -0.12634604586E+04  0.15071157352E+04  0.10100000352E+00 0. -1.
</event>
<event>
 5   0  0.1771016E-06  0.2703928E+04  0.7818609E-02  0.8333731E-01
        1   -1    0    0  501    0  0.00000000000E+00  0.00000000000E+00  0.19806891864E+04  0.19806891864E+04  0.50400001928E-02 0. -1.
       -1   -1    0    0    0  501  0.00000000000E+00  0.00000000000E+00 -0.92281374976E+03  0.92281374977E+03  0.50400001928E-02 0.  1.
    10030    2    1    2    0    0  0.00000000000E+00  0.00000000000E+00  0.10578754366E+04  0.29035029361E+04  0.27039284127E+04 0.  0.
        2    1    3    3  502    0 -0.53961567518E+03 -0.58024198113E+03 -0.64733248445E+03  0.10231838442E+04  0.25500000920E-02 0.  1.
       -2    1    3    3    0  502  0.53961567518E+03  0.58024198113E+03  0.17052079211E+04  0.18803190920E+04  0.25500000920E-02 0. -1.
</event>
<event>
 5   0  0.1828511E-06  0.2799730E+04  0.7818609E-02  0.8303352E-01
        1   -1    0    0  501    0  0.00000000000E+00  0.00000000000E+00  0.22193444160E+04  0.22193444160E+04  0.50400001928E-02 0. -1.
       -1   -1    0    0    0  501  0.00000000000E+00  0.00000000000E+00 -0.88297342898E+03  0.88297342899E+03  0.50400001928E-02 0.  1.
    10030    2    1    2    0    0  0.00000000000E+00  0.00000000000E+00  0.13363709870E+04  0.31023178450E+04  0.27997300935E+04 0.  0.
        4    1    3    3  502    0  0.79297283381E+03 -0.30496045481E+03 -0.56462912486E+03  0.10201051199E+04  0.12699999809E+01 0.  1.
       -4    1    3    3    0  502 -0.79297283381E+03  0.30496045481E+03  0.19010001119E+04  0.20822127250E+04  0.12699999809E+01 0. -1.
</event>
<event>
 5   0  0.4439357E-06  0.2656548E+04  0.7818609E-02  0.8349243E-01
        2   -1    0    0  501    0  0.00000000000E+00  0.00000000000E+00  0.28086209769E+04  0.28086209769E+04  0.25500000920E-02 0. -1.
       -2   -1    0    0    0  501  0.00000000000E+00  0.00000000000E+00 -0.62817725577E+03  0.62817725578E+03  0.25500000920E-02 0.  1.
    10030    2    1    2    0    0  0.00000000000E+00  0.00000000000E+00  0.21804437211E+04  0.34367982327E+04  0.26565479990E+04 0.  0.
        4    1    3    3  502    0 -0.25430982973E+03 -0.11690262634E+04  0.34365653054E+03  0.12447478933E+04  0.12699999809E+01 0.  1.
       -4    1    3    3    0  502  0.25430982973E+03  0.11690262634E+04  0.18367871906E+04  0.21920503394E+04  0.12699999809E+01 0. -1.
</event>
<event>
 5   0  0.4448804E-06  0.2704146E+04  0.7818609E-02  0.8333661E-01
       -2   -1    0    0    0  501  0.00000000000E+00  0.00000000000E+00  0.17523614217E+04  0.17523614217E+04  0.25500000920E-02 0.  1.
        2   -1    0    0  501    0  0.00000000000E+00  0.00000000000E+00 -0.10432216804E+04  0.10432216804E+04  0.25500000920E-02 0. -1.
    10030    2    1    2    0    0  0.00000000000E+00  0.00000000000E+00  0.70913974127E+03  0.27955831021E+04  0.27041460220E+04 0.  0.
        2    1    3    3  502    0 -0.63405126837E+03  0.82099113331E+03  0.12511038882E+04  0.16252102605E+04  0.25500000920E-02 0.  1.
       -2    1    3    3    0  502  0.63405126837E+03 -0.82099113331E+03 -0.54196414688E+03  0.11703728416E+04  0.25500000920E-02 0. -1.
</event>
<event>
 5   0  0.1723605E-06  0.2706524E+04  0.7818609E-02  0.8332891E-01
        1   -1    0    0  501    0  0.00000000000E+00  0.00000000000E+00  0.16176489961E+04  0.16176489961E+04  0.50400001928E-02 0.  1.
       -1   -1    0    0    0  501  0.00000000000E+00  0.00000000000E+00 -0.11320860246E+04  0.11320860246E+04  0.50400001928E-02 0. -1.
    10030    2    1    2    0    0  0.00000000000E+00  0.00000000000E+00  0.48556297151E+03  0.27497350207E+04  0.27065238378E+04 0.  0.
        1    1    3    3  502    0 -0.89962141581E+03 -0.92751327604E+03 -0.16578101943E+03  0.13027213499E+04  0.50400001928E-02 0. -1.
       -1    1    3    3    0  502  0.89962141581E+03  0.92751327604E+03  0.65134399094E+03  0.14470136708E+04  0.50400001928E-02 0.  1.
</event>
<event>
 5   0  0.4401659E-06  0.2645559E+04  0.7818609E-02  0.8352889E-01
        2   -1    0    0  501    0  0.00000000000E+00  0.00000000000E+00  0.23078623849E+04  0.23078623849E+04  0.25500000920E-02 0. -1.
       -2   -1    0    0    0  501  0.00000000000E+00  0.00000000000E+00 -0.75816695936E+03  0.75816695936E+03  0.25500000920E-02 0.  1.
    10030    2    1    2    0    0  0.00000000000E+00  0.00000000000E+00  0.15496954255E+04  0.30660293442E+04  0.26455585474E+04 0.  0.
        5    1    3    3  502    0  0.57318584180E+03  0.35563984590E+02  0.21558368847E+04  0.22310225390E+04  0.46999998093E+01 0. -1.
       -5    1    3    3    0  502 -0.57318584180E+03 -0.35563984590E+02 -0.60614145917E+03  0.83500680522E+03  0.46999998093E+01 0.  1.
</event>
<event>
 5   0  0.1753474E-06  0.2702452E+04  0.7818609E-02  0.8334210E-01
       -1   -1    0    0    0  501  0.00000000000E+00  0.00000000000E+00  0.14635391395E+04  0.14635391395E+04  0.50400001928E-02 0. -1.
        1   -1    0    0  501    0  0.00000000000E+00  0.00000000000E+00 -0.12475320677E+04  0.12475320677E+04  0.50400001928E-02 0.  1.
    10030    2    1    2    0    0  0.00000000000E+00  0.00000000000E+00  0.21600707182E+03  0.27110712072E+04  0.27024522263E+04 0.  0.
        3    1    3    3  502    0  0.56355762370E+03 -0.12280932411E+04  0.10665967711E+03  0.13554285304E+04  0.10100000352E+00 0.  1.
       -3    1    3    3    0  502 -0.56355762370E+03  0.12280932411E+04  0.10934739470E+03  0.13556426768E+04  0.10100000352E+00 0. -1.
</event>
<event>
 5   0  0.4439357E-06  0.2720830E+04  0.7818609E-02  0.8328278E-01
       -2   -1    0    0    0  501  0.00000000000E+00  0.00000000000E+00  0.12230623114E+04  0.12230623114E+04  0.25500000920E-02 0.  1.
        2   -1    0    0  501    0  0.00000000000E+00  0.00000000000E+00 -0.15131925589E+04  0.15131925589E+04  0.25500000920E-02 0. -1.
    10030    2    1    2    0    0  0.00000000000E+00  0.00000000000E+00 -0.29013024750E+03  0.27362548703E+04  0.27208298651E+04 0.  0.
        4    1    3    3  502    0  0.76417571243E+03  0.26307520491E+03  0.95546701897E+03  0.12514359433E+04  0.12699999809E+01 0.  1.
       -4    1    3    3    0  502 -0.76417571243E+03 -0.26307520491E+03 -0.12455972665E+04  0.14848189270E+04  0.12699999809E+01 0. -1.
</event>
<event>
 5   0  0.1771016E-06  0.2695673E+04  0.7818609E-02  0.8336410E-01
        1   -1    0    0  501    0  0.00000000000E+00  0.00000000000E+00  0.99449210859E+03  0.99449210861E+03  0.50400001928E-02 0.  1.
       -1   -1    0    0    0  501  0.00000000000E+00  0.00000000000E+00 -0.18267240005E+04  0.18267240006E+04  0.50400001928E-02 0. -1.
    10030    2    1    2    0    0  0.00000000000E+00  0.00000000000E+00 -0.83223189195E+03  0.28212161092E+04  0.26956725344E+04 0.  0.
        2    1    3    3  502    0  0.88109246116E+03  0.27311618852E+03 -0.14446075033E+04  0.17140032719E+04  0.25500000920E-02 0. -1.
       -2    1    3    3    0  502 -0.88109246116E+03 -0.27311618852E+03  0.61237561136E+03  0.11072128372E+04  0.25500000920E-02 0.  1.
</event>
<event>
 5   0  0.1753474E-06  0.2654608E+04  0.7818609E-02  0.8349885E-01
        1   -1    0    0  501    0  0.00000000000E+00  0.00000000000E+00  0.13693012089E+04  0.13693012089E+04  0.50400001928E-02 0. -1.
       -1   -1    0    0    0  501  0.00000000000E+00  0.00000000000E+00 -0.12865951531E+04  0.12865951531E+04  0.50400001928E-02 0.  1.
    10030    2    1    2    0    0  0.00000000000E+00  0.00000000000E+00  0.82706055804E+02  0.26558963620E+04  0.26546082939E+04 0.  0.
        3    1    3    3  502    0  0.79220423454E+03 -0.70073930563E+03 -0.76097945823E+03  0.13029631114E+04  0.10100000352E+00 0.  1.
       -3    1    3    3    0  502 -0.79220423454E+03  0.70073930563E+03  0.84368551403E+03  0.13529332506E+04  0.10100000352E+00 0. -1.
</event>
<event>
 5   0  0.1723605E-06  0.2708207E+04  0.7818609E-02  0.8332347E-01
       -1   -1    0    0    0  501  0.00000000000E+00  0.00000000000E+00  0.12040388699E+04  0.12040388699E+04  0.50400001928E-02 0. -1.
        1   -1    0    0  501    0  0.00000000000E+00  0.00000000000E+00 -0.15228710860E+04  0.15228710860E+04  0.50400001928E-02 0.  1.
    10030    2    1    2    0    0  0.00000000000E+00  0.00000000000E+00 -0.31883221607E+03  0.27269099559E+04  0.27082067731E+04 0.  0.
        1    1    3    3  502    0  0.20191651699E+03  0.42950501039E+03 -0.14363823439E+04  0.15127587619E+04  0.50400001928E-02 0.  1.
       -1    1    3    3    0  502 -0.20191651699E+03 -0.42950501039E+03  0.11175501278E+04  0.12141511940E+04  0.50400001928E-02 0. -1.
</event>
<event>
 5   0  0.1753474E-06  0.2696391E+04  0.7818609E-02  0.8336177E-01
        1   -1    0    0  501    0  0.00000000000E+00  0.00000000000E+00  0.20512100843E+04  0.20512100843E+04  0.50400001928E-02 0. -1.
       -1   -1    0    0    0  501  0.00000000000E+00  0.00000000000E+00 -0.88612614061E+03  0.88612614063E+03  0.50400001928E-02 0.  1.
    10030    2    1    2    0    0  0.00000000000E+00  0.00000000000E+00  0.11650839437E+04  0.29373362249E+04  0.26963908290E+04 0.  0.
        3    1    3    3  502    0 -0.45096860715E+03  0.34507583403E+03  0.19145832490E+04  0.19970175371E+04  0.10100000352E+00 0. -1.
       -3    1    3    3    0  502  0.45096860715E+03 -0.34507583403E+03 -0.74949930531E+03  0.94031868785E+03  0.10100000352E+00 0.  1.
</event>
<event>
 5   0  0.4439357E-06  0.2701614E+04  0.7818609E-02  0.8334481E-01
       -2   -1    0    0    0  501  0.00000000000E+00  0.00000000000E+00  0.27802945532E+04  0.27802945532E+04  0.25500000920E-02 0.  1.
        2   -1    0    0  501    0  0.00000000000E+00  0.00000000000E+00 -0.65629018485E+03  0.65629018486E+03  0.25500000920E-02 0. -1.
    10030    2    1    2    0    0  0.00000000000E+00  0.00000000000E+00  0.21240043683E+04  0.34365847380E+04  0.27016143517E+04 0.  0.
        4    1    3    3  502    0  0.37348812774E+03 -0.73366065904E+03  0.24242985679E+04  0.25602688342E+04  0.12699999809E+01 0.  1.
       -4    1    3    3    0  502 -0.37348812774E+03  0.73366065904E+03 -0.30029419954E+03  0.87631590387E+03  0.12699999809E+01 0. -1.
</event>
<event>
 5   0  0.4655882E-06  0.2701189E+04  0.7818609E-02  0.8334619E-01
       -2   -1    0    0    0  501  0.00000000000E+00  0.00000000000E+00  0.14770040558E+04  0.14770040558E+04  0.25500000920E-02 0.  1.
        2   -1    0    0  501    0  0.00000000000E+00  0.00000000000E+00 -0.12350035764E+04  0.12350035764E+04  0.25500000920E-02 0. -1.
    10030    2    1    2    0    0  0.00000000000E+00  0.00000000000E+00  0.24200047945E+03  0.27120076322E+04  0.27011888429E+04 0.  0.
        1    1    3    3  502    0 -0.98932500044E+02 -0.11621272913E+04  0.80474016975E+03  0.14170159567E+04  0.50400001928E-02 0.  1.
       -1    1    3    3    0  502  0.98932500044E+02  0.11621272913E+04 -0.56273969030E+03  0.12949916755E+04  0.50400001928E-02 0. -1.
</event>
<event>
 5   0  0.1771016E-06  0.2697277E+04  0.7818609E-02  0.8335889E-01
       -1   -1    0    0    0  501  0.00000000000E+00  0.00000000000E+00  0.78379757319E+03  0.78379757320E+03  0.50400001928E-02 0.  1.
        1   -1    0    0  501    0  0.00000000000E+00  0.00000000000E+00 -0.23205299819E+04  0.23205299819E+04  0.50400001928E-02 0. -1.
    10030    2    1    2    0    0  0.00000000000E+00  0.00000000000E+00 -0.15367324087E+04  0.31043275551E+04  0.26972769738E+04 0.  0.
        2    1    3    3  502    0 -0.25094000926E+03  0.29675809642E+03 -0.22546872054E+04  0.22879358929E+04  0.25500000920E-02 0. -1.
       -2    1    3    3    0  502  0.25094000926E+03 -0.29675809642E+03  0.71795479666E+03  0.81639166219E+03  0.25500000920E-02 0.  1.
</event>
<event>
 5   0  0.1771016E-06  0.2673826E+04  0.7818609E-02  0.8343548E-01
       -1   -1    0    0    0  501  0.00000000000E+00  0.00000000000E+00  0.12246783633E+04  0.12246783633E+04  0.50400001928E-02 0.  1.
        1   -1    0    0  501    0  0.00000000000E+00  0.00000000000E+00 -0.14594330485E+04  0.14594330485E+04  0.50400001928E-02 0. -1.
    10030    2    1    2    0    0  0.00000000000E+00  0.00000000000E+00 -0.23475468526E+03  0.26841114118E+04  0.26738257813E+04 0.  0.
        2    1    3    3  502    0 -0.60199022110E+02  0.52664020952E+03  0.11146834660E+04  0.12342986113E+04  0.25500000920E-02 0.  1.
       -2    1    3    3    0  502  0.60199022110E+02 -0.52664020952E+03 -0.13494381512E+04  0.14498128005E+04  0.25500000920E-02 0. -1.
</event>
<event>
 5   0  0.1482875E-06  0.2695516E+04  0.7818609E-02  0.8336461E-01
        3   -1    0    0  501    0  0.00000000000E+00  0.00000000000E+00  0.22729925566E+04  0.22729925589E+04  0.10100000352E+00 0.  1.
       -3   -1    0    0    0  501  0.00000000000E+00  0.00000000000E+00 -0.79914532742E+03  0.79914533381E+03  0.10100000352E+00 0. -1.
    10030    2    1    2    0    0  0.00000000000E+00  0.00000000000E+00  0.14738472292E+04  0.30721378927E+04  0.26955158276E+04 0.  0.
        5    1    3    3  502    0 -0.30568944282E+02  0.34821871201E+03 -0.74657143463E+03  0.82436747192E+03  0.46999998093E+01 0. -1.
       -5    1    3    3    0  502  0.30568944282E+02 -0.34821871201E+03  0.22204186638E+04  0.22477704208E+04  0.46999998093E+01 0.  1.
</event>
<event>
 5   0  0.4439357E-06  0.2705947E+04  0.7818609E-02  0.8333078E-01
        2   -1    0    0  501    0  0.00000000000E+00  0.00000000000E+00  0.18150979022E+04  0.18150979022E+04  0.25500000920E-02 0.  1.
       -2   -1    0    0    0  501  0.00000000000E+00  0.00000000000E+00 -0.10085061709E+04  0.10085061709E+04  0.25500000920E-02 0. -1.
    10030    2    1    2    0    0  0.00000000000E+00  0.00000000000E+00  0.80659173121E+03  0.28236040731E+04  0.27059471061E+04 0.  0.
        4    1    3    3  502    0  0.40888548400E+03 -0.65808762123E+03  0.15606987661E+04  0.17424261556E+04  0.12699999809E+01 0.  1.
       -4    1    3    3    0  502 -0.40888548400E+03  0.65808762123E+03 -0.75410703493E+03  0.10811779175E+04  0.12699999809E+01 0. -1.
</event>
<event>
 5   0  0.1753474E-06  0.2694391E+04  0.7818609E-02  0.8336827E-01
       -1   -1    0    0    0  501  0.00000000000E+00  0.00000000000E+00  0.10881279485E+04  0.10881279485E+04  0.50400001928E-02 0.  1.
        1   -1    0    0  501    0  0.00000000000E+00  0.00000000000E+00 -0.16679437977E+04  0.16679437977E+04  0.50400001928E-02 0. -1.
    10030    2    1    2    0    0  0.00000000000E+00  0.00000000000E+00 -0.57981584923E+03  0.27560717461E+04  0.26943914064E+04 0.  0.
        3    1    3    3  502    0 -0.34136853084E+03 -0.15565632873E+03 -0.16134271241E+04  0.16564747090E+04  0.10100000352E+00 0. -1.
       -3    1    3    3    0  502  0.34136853084E+03  0.15565632873E+03  0.10336112748E+04  0.10995970372E+04  0.10100000352E+00 0.  1.
</event>
<event>
 5   0  0.4439357E-06  0.2700618E+04  0.7818609E-02  0.8334804E-01
        2   -1    0    0  501    0  0.00000000000E+00  0.00000000000E+00  0.15785002198E+04  0.15785002198E+04  0.25500000920E-02 0. -1.
       -2   -1    0    0    0  501  0.00000000000E+00  0.00000000000E+00 -0.11551057935E+04  0.11551057935E+04  0.25500000920E-02 0.  1.
    10030    2    1    2    0    0  0.00000000000E+00  0.00000000000E+00  0.42339442628E+03  0.27336060134E+04  0.27006182618E+04 0.  0.
        4    1    3    3  502    0 -0.70843740493E+03  0.24968444370E+03 -0.92410859390E+03  0.11908837829E+04  0.12699999809E+01 0.  1.
       -4    1    3    3    0  502  0.70843740493E+03 -0.24968444370E+03  0.13475030202E+04  0.15427222305E+04  0.12699999809E+01 0. -1.
</event>
<event>
 5   0  0.1753474E-06  0.2700613E+04  0.7818609E-02  0.8334806E-01
        1   -1    0    0  501    0  0.00000000000E+00  0.00000000000E+00  0.13384564369E+04  0.13384564369E+04  0.50400001928E-02 0. -1.
       -1   -1    0    0    0  501  0.00000000000E+00  0.00000000000E+00 -0.13622612254E+04  0.13622612254E+04  0.50400001928E-02 0.  1.
    10030    2    1    2    0    0  0.00000000000E+00  0.00000000000E+00 -0.23804788480E+02  0.27007176624E+04  0.27006127497E+04 0.  0.
        3    1    3    3  502    0  0.31426347234E+03 -0.22798408465E+03  0.12814339804E+04  0.13389590469E+04  0.10100000352E+00 0. -1.
       -3    1    3    3    0  502 -0.31426347234E+03  0.22798408465E+03 -0.13052387689E+04  0.13617586155E+04  0.10100000352E+00 0.  1.
</event>
<event>
 5   0  0.1753474E-06  0.2688775E+04  0.7818609E-02  0.8338656E-01
        1   -1    0    0  501    0  0.00000000000E+00  0.00000000000E+00  0.20642562896E+04  0.20642562896E+04  0.50400001928E-02 0.  1.
       -1   -1    0    0    0  501  0.00000000000E+00  0.00000000000E+00 -0.87555877799E+03  0.87555877800E+03  0.50400001928E-02 0. -1.
    10030    2    1    2    0    0  0.00000000000E+00  0.00000000000E+00  0.11886975116E+04  0.29398150676E+04  0.26887749734E+04 0.  0.
        3    1    3    3  502    0 -0.13720653745E+03  0.13038264738E+04  0.26892109471E+03  0.13383227089E+04  0.10100000352E+00 0. -1.
       -3    1    3    3    0  502  0.13720653745E+03 -0.13038264738E+04  0.91977641691E+03  0.16014923587E+04  0.10100000352E+00 0.  1.
</event>
<event>
 5   0  0.4439357E-06  0.2685096E+04  0.7818609E-02  0.8339857E-01
        2   -1    0    0  501    0  0.00000000000E+00  0.00000000000E+00  0.12909243655E+04  0.12909243655E+04  0.25500000920E-02 0.  1.
       -2   -1    0    0    0  501  0.00000000000E+00  0.00000000000E+00 -0.13962356796E+04  0.13962356796E+04  0.25500000920E-02 0. -1.
    10030    2    1    2    0    0  0.00000000000E+00  0.00000000000E+00 -0.10531131404E+03  0.26871600451E+04  0.26850956473E+04 0.  0.
        4    1    3    3  502    0 -0.82697416325E+03  0.10575801531E+04 -0.44223088285E+02  0.13432495454E+04  0.12699999809E+01 0.  1.
       -4    1    3    3    0  502  0.82697416325E+03 -0.10575801531E+04 -0.61088225759E+02  0.13439104996E+04  0.12699999809E+01 0. -1.
</event>
<event>
 5   0  0.4655882E-06  0.2734735E+04  0.7818609E-02  0.8323822E-01
       -2   -1    0    0    0  501  0.00000000000E+00  0.00000000000E+00  0.13304031069E+04  0.13304031069E+04  0.25500000920E-02 0. -1.
        2   -1    0    0  501    0  0.00000000000E+00  0.00000000000E+00 -0.14053585132E+04  0.14053585132E+04  0.25500000920E-02 0.  1.
    10030    2    1    2    0    0  0.00000000000E+00  0.00000000000E+00 -0.74955406337E+02  0.27357616202E+04  0.27347345994E+04 0.  0.
        1    1    3    3  502    0 -0.75952631949E+03  0.92513337295E+03  0.62378592808E+03  0.13497632651E+04  0.50400001928E-02 0. -1.
       -1    1    3    3    0  502  0.75952631949E+03 -0.92513337295E+03 -0.69874133442E+03  0.13859983550E+04  0.50400001928E-02 0.  1.
</event>
<event>
 5   0  0.4439357E-06  0.2698405E+04  0.7818609E-02  0.8335523E-01
       -2   -1    0    0    0  501  0.00000000000E+00  0.00000000000E+00  0.13986026440E+04  0.13986026440E+04  0.25500000920E-02 0. -1.
        2   -1    0    0  501    0  0.00000000000E+00  0.00000000000E+00 -0.13015476793E+04  0.13015476793E+04  0.25500000920E-02 0.  1.
    10030    2    1    2    0    0  0.00000000000E+00  0.00000000000E+00  0.97054964776E+02  0.27001503233E+04  0.26984054740E+04 0.  0.
        4    1    3    3  502    0 -0.11397137411E+04  0.22020132530E+03 -0.63960198498E+03  0.13253408420E+04  0.12699999809E+01 0.  1.
       -4    1    3    3    0  502  0.11397137411E+04 -0.22020132530E+03  0.73665694975E+03  0.13748094813E+04  0.12699999809E+01 0. -1.
</event>
<event>
 5   0  0.4439357E-06  0.2703461E+04  0.7818609E-02  0.8333883E-01
       -2   -1    0    0    0  501  0.00000000000E+00  0.00000000000E+00  0.13643243521E+04  0.13643243521E+04  0.25500000920E-02 0. -1.
        2   -1    0    0  501    0  0.00000000000E+00  0.00000000000E+00 -0.13392529135E+04  0.13392529135E+04  0.25500000920E-02 0.  1.
    10030    2    1    2    0    0  0.00000000000E+00  0.00000000000E+00  0.25071438574E+02  0.27035772655E+04  0.27034610139E+04 0.  0.
        4    1    3    3  502    0 -0.22855697784E+03 -0.13239887905E+04  0.16082945583E+03  0.13531638246E+04  0.12699999809E+01 0.  1.
       -4    1    3    3    0  502  0.22855697784E+03  0.13239887905E+04 -0.13575801726E+03  0.13504134410E+04  0.12699999809E+01 0. -1.
</event>
<event>
 5   0  0.1723605E-06  0.2694421E+04  0.7818609E-02  0.8336817E-01
        1   -1    0    0  501    0  0.00000000000E+00  0.00000000000E+00  0.14332078813E+04  0.14332078814E+04  0.50400001928E-02 0.  1.
       -1   -1    0    0    0  501  0.00000000000E+00  0.00000000000E+00 -0.12663731334E+04  0.12663731334E+04  0.50400001928E-02 0. -1.
    10030    2    1    2    0    0  0.00000000000E+00  0.00000000000E+00  0.16683474793E+03  0.26995810148E+04  0.26944208695E+04 0.  0.
        1    1    3    3  502    0  0.12668517453E+03  0.47028593696E+03  0.13419112933E+04  0.14275657305E+04  0.50400001928E-02 0.  1.
       -1    1    3    3    0  502 -0.12668517453E+03 -0.47028593696E+03 -0.11750765453E+04  0.12720152843E+04  0.50400001928E-02 0. -1.
</event>
<event>
 5   0  0.1753474E-06  0.2702690E+04  0.7818609E-02  0.8334133E-01
       -1   -1    0    0    0  501  0.00000000000E+00  0.00000000000E+00  0.10417961906E+04  0.10417961907E+04  0.50400001928E-02 0. -1.
        1   -1    0    0  501    0  0.00000000000E+00  0.00000000000E+00 -0.17528700934E+04  0.17528700934E+04  0.50400001928E-02 0.  1.
    10030    2    1    2    0    0  0.00000000000E+00  0.00000000000E+00 -0.71107390272E+03  0.27946662840E+04  0.27026900569E+04 0.  0.
        3    1    3    3  502    0  0.10530018191E+04  0.46748575333E+03 -0.10858132215E+04  0.15831443784E+04  0.10100000352E+00 0.  1.
       -3    1    3    3    0  502 -0.10530018191E+04 -0.46748575333E+03  0.37473931881E+03  0.12115219056E+04  0.10100000352E+00 0. -1.
</event>
<event>
 5   0  0.4448804E-06  0.2554469E+04  0.7818609E-02  0.8383834E-01
       -2   -1    0    0    0  501  0.00000000000E+00  0.00000000000E+00  0.73085531460E+03  0.73085531460E+03  0.25500000920E-02 0.  1.
        2   -1    0    0  501    0  0.00000000000E+00  0.00000000000E+00 -0.22320800985E+04  0.22320800985E+04  0.25500000920E-02 0. -1.
    10030    2    1    2    0    0  0.00000000000E+00  0.00000000000E+00 -0.15012247839E+04  0.29629354131E+04  0.25544687140E+04 0.  0.
        2    1    3    3  502    0 -0.91662646669E+03  0.82266024171E+03 -0.35837714989E+03  0.12827346313E+04  0.25500000920E-02 0. -1.
       -2    1    3    3    0  502  0.91662646669E+03 -0.82266024171E+03 -0.11428476340E+04  0.16802007819E+04  0.25500000920E-02 0.  1.
</event>
<event>
 5   0  0.1771016E-06  0.2676182E+04  0.7818609E-02  0.8342775E-01
       -1   -1    0    0    0  501  0.00000000000E+00  0.00000000000E+00  0.71057471801E+03  0.71057471803E+03  0.50400001928E-02 0. -1.
        1   -1    0    0  501    0  0.00000000000E+00  0.00000000000E+00 -0.25197742507E+04  0.25197742507E+04  0.50400001928E-02 0.  1.
    10030    2    1    2    0    0  0.00000000000E+00  0.00000000000E+00 -0.18091995327E+04  0.32303489687E+04  0.26761822641E+04 0.  0.
        2    1    3    3  502    0  0.73467837352E+03  0.27838530619E+03  0.40285496985E+03  0.88291722033E+03  0.25500000920E-02 0. -1.
       -2    1    3    3    0  502 -0.73467837352E+03 -0.27838530619E+03 -0.22120545025E+04  0.23474317484E+04  0.25500000920E-02 0.  1.
</event>
<event>
 5   0  0.1828511E-06  0.2690338E+04  0.7818609E-02  0.8338147E-01
       -1   -1    0    0    0  501  0.00000000000E+00  0.00000000000E+00  0.16023762710E+04  0.16023762710E+04  0.50400001928E-02 0. -1.
        1   -1    0    0  501    0  0.00000000000E+00  0.00000000000E+00 -0.11292477869E+04  0.11292477869E+04  0.50400001928E-02 0.  1.
    10030    2    1    2    0    0  0.00000000000E+00  0.00000000000E+00  0.47312848413E+03  0.27316240579E+04  0.26903381630E+04 0.  0.
        4    1    3    3  502    0  0.35576322171E+03 -0.11506122265E+04 -0.37179857134E+03  0.12604410959E+04  0.12699999809E+01 0.  1.
       -4    1    3    3    0  502 -0.35576322171E+03  0.11506122265E+04  0.84492705546E+03  0.14711829620E+04  0.12699999809E+01 0. -1.
</event>
<event>
 5   0  0.1828511E-06  0.2718018E+04  0.7818609E-02  0.8329182E-01
        1   -1    0    0  501    0  0.00000000000E+00  0.00000000000E+00  0.27314976267E+04  0.27314976267E+04  0.50400001928E-02 0.  1.
       -1   -1    0    0    0  501  0.00000000000E+00  0.00000000000E+00 -0.67615117034E+03  0.67615117036E+03  0.50400001928E-02 0. -1.
    10030    2    1    2    0    0  0.00000000000E+00  0.00000000000E+00  0.20553464564E+04  0.34076487971E+04  0.27180178933E+04 0.  0.
        4    1    3    3  502    0  0.21122572582E+03 -0.33792051983E+03 -0.60125230764E+03  0.72132692679E+03  0.12699999809E+01 0. -1.
       -4    1    3    3    0  502 -0.21122572582E+03  0.33792051983E+03  0.26565987640E+04  0.26863218703E+04  0.12699999809E+01 0.  1.
</event>
<event>
 5   0  0.4448804E-06  0.2697117E+04  0.7818609E-02  0.8335941E-01
       -2   -1    0    0    0  501  0.00000000000E+00  0.00000000000E+00  0.10712503493E+04  0.10712503493E+04  0.25500000920E-02 0. -1.
        2   -1    0    0  501    0  0.00000000000E+00  0.00000000000E+00 -0.16976515686E+04  0.16976515686E+04  0.25500000920E-02 0.  1.
    10030    2    1    2    0    0  0.00000000000E+00  0.00000000000E+00 -0.62640121931E+03  0.27689019179E+04  0.26971168576E+04 0.  0.
        2    1    3    3  502    0 -0.63785095815E+03  0.36817068050E+03 -0.14729609617E+04  0.16468204181E+04  0.25500000920E-02 0.  1.
       -2    1    3    3    0  502  0.63785095815E+03 -0.36817068050E+03  0.84655974237E+03  0.11220814998E+04  0.25500000920E-02 0. -1.
</event>
<event>
 5   0  0.1723605E-06  0.2697514E+04  0.7818609E-02  0.8335812E-01
        1   -1    0    0  501    0  0.00000000000E+00  0.00000000000E+00  0.15717807106E+04  0.15717807106E+04  0.50400001928E-02 0.  1.
       -1   -1    0    0    0  501  0.00000000000E+00  0.00000000000E+00 -0.11573790606E+04  0.11573790606E+04  0.50400001928E-02 0. -1.
    10030    2    1    2    0    0  0.00000000000E+00  0.00000000000E+00  0.41440164999E+03  0.27291597713E+04  0.26975144725E+04 0.  0.
        1    1    3    3  502    0  0.46269931045E+03  0.21304712909E+03 -0.10563159987E+04  0.11727246993E+04  0.50400001928E-02 0. -1.
       -1    1    3    3    0  502 -0.46269931045E+03 -0.21304712909E+03  0.14707176487E+04  0.15564350720E+04  0.50400001928E-02 0.  1.
</event>
<event>
 5   0  0.4448804E-06  0.2703552E+04  0.7818609E-02  0.8333854E-01
       -2   -1    0    0    0  501  0.00000000000E+00  0.00000000000E+00  0.14038423189E+04  0.14038423189E+04  0.25500000920E-02 0.  1.
        2   -1    0    0  501    0  0.00000000000E+00  0.00000000000E+00 -0.13016403370E+04  0.13016403370E+04  0.25500000920E-02 0. -1.
    10030    2    1    2    0    0  0.00000000000E+00  0.00000000000E+00  0.10220198188E+03  0.27054826560E+04  0.27035515820E+04 0.  0.
        2    1    3    3  502    0  0.96652307772E+03 -0.26671690873E+03  0.95838688535E+03  0.13870148489E+04  0.25500000920E-02 0.  1.
       -2    1    3    3    0  502 -0.96652307772E+03  0.26671690873E+03 -0.85618490347E+03  0.13184678070E+04  0.25500000920E-02 0. -1.
</event>
<event>
 5   0  0.4448804E-06  0.2707635E+04  0.7818609E-02  0.8332532E-01
       -2   -1    0    0    0  501  0.00000000000E+00  0.00000000000E+00  0.15186970420E+04  0.15186970420E+04  0.25500000920E-02 0. -1.
        2   -1    0    0  501    0  0.00000000000E+00  0.00000000000E+00 -0.12068381484E+04  0.12068381484E+04  0.25500000920E-02 0.  1.
    10030    2    1    2    0    0  0.00000000000E+00  0.00000000000E+00  0.31185889355E+03  0.27255351904E+04  0.27076347805E+04 0.  0.
        2    1    3    3  502    0 -0.27832262507E+03 -0.44077113950E+03  0.14136209556E+04  0.15066741145E+04  0.25500000920E-02 0. -1.
       -2    1    3    3    0  502  0.27832262507E+03  0.44077113950E+03 -0.11017620621E+04  0.12188610760E+04  0.25500000920E-02 0.  1.
</event>
<event>
 5   0  0.4448804E-06  0.2700360E+04  0.7818609E-02  0.8334888E-01
        2   -1    0    0  501    0  0.00000000000E+00  0.00000000000E+00  0.18822829362E+04  0.18822829362E+04  0.25500000920E-02 0. -1.
       -2   -1    0    0    0  501  0.00000000000E+00  0.00000000000E+00 -0.96849762109E+03  0.96849762109E+03  0.25500000920E-02 0.  1.
    10030    2    1    2    0    0  0.00000000000E+00  0.00000000000E+00  0.91378531516E+03  0.28507805573E+04  0.27003603804E+04 0.  0.
        2    1    3    3  502    0 -0.30055251399E+03 -0.53761704138E+02 -0.93157427002E+03  0.98033298173E+03  0.25500000920E-02 0.  1.
       -2    1    3    3    0  502  0.30055251399E+03  0.53761704138E+02  0.18453595852E+04  0.18704475756E+04  0.25500000920E-02 0. -1.
</event>
<event>
 5   0  0.4655882E-06  0.2658441E+04  0.7818609E-02  0.8348617E-01
        2   -1    0    0  501    0  0.00000000000E+00  0.00000000000E+00  0.11436736580E+04  0.11436736580E+04  0.25500000920E-02 0.  1.
       -2   -1    0    0    0  501  0.00000000000E+00  0.00000000000E+00 -0.15448699204E+04  0.15448699204E+04  0.25500000920E-02 0. -1.
    10030    2    1    2    0    0  0.00000000000E+00  0.00000000000E+00 -0.40119626237E+03  0.26885435784E+04  0.26584409213E+04 0.  0.
        1    1    3    3  502    0 -0.88765076855E+02  0.13256838263E+04 -0.23989929277E+03  0.13501364809E+04  0.50400001928E-02 0. -1.
       -1    1    3    3    0  502  0.88765076855E+02 -0.13256838263E+04 -0.16129696960E+03  0.13384070975E+04  0.50400001928E-02 0.  1.
</event>
<event>
 5   0  0.1771016E-06  0.2698204E+04  0.7818609E-02  0.8335588E-01
       -1   -1    0    0    0  501  0.00000000000E+00  0.00000000000E+00  0.58853254065E+03  0.58853254067E+03  0.50400001928E-02 0. -1.
        1   -1    0    0  501    0  0.00000000000E+00  0.00000000000E+00 -0.30925678042E+04  0.30925678042E+04  0.50400001928E-02 0.  1.
    10030    2    1    2    0    0  0.00000000000E+00  0.00000000000E+00 -0.25040352635E+04  0.36811003448E+04  0.26982044303E+04 0.  0.
        2    1    3    3  502    0 -0.11537463130E+04  0.67266201779E+03 -0.99147257112E+03  0.16633167480E+04  0.25500000920E-02 0. -1.
       -2    1    3    3    0  502  0.11537463130E+04 -0.67266201779E+03 -0.15125626924E+04  0.20177835968E+04  0.25500000920E-02 0.  1.
</event>
<event>
 5   0  0.4439357E-06  0.2702450E+04  0.7818609E-02  0.8334211E-01
        2   -1    0    0  501    0  0.00000000000E+00  0.00000000000E+00  0.26091111339E+04  0.26091111339E+04  0.25500000920E-02 0. -1.
       -2   -1    0    0    0  501  0.00000000000E+00  0.00000000000E+00 -0.69978189606E+03  0.69978189606E+03  0.25500000920E-02 0.  1.
    10030    2    1    2    0    0  0.00000000000E+00  0.00000000000E+00  0.19093292378E+04  0.33088930299E+04  0.27024498044E+04 0.  0.
        4    1    3    3  502    0  0.10503612666E+03 -0.96582796925E+02  0.25998596118E+04  0.26037727318E+04  0.12699999809E+01 0. -1.
       -4    1    3    3    0  502 -0.10503612666E+03  0.96582796925E+02 -0.69053037401E+03  0.70512029817E+03  0.12699999809E+01 0.  1.
</event>
<event>
 5   0  0.4401659E-06  0.2699853E+04  0.7818609E-02  0.8335053E-01
       -2   -1    0    0    0  501  0.00000000000E+00  0.00000000000E+00  0.22263185478E+04  0.22263185478E+04  0.25500000920E-02 0.  1.
        2   -1    0    0  501    0  0.00000000000E+00  0.00000000000E+00 -0.81852666284E+03  0.81852666285E+03  0.25500000920E-02 0. -1.
    10030    2    1    2    0    0  0.00000000000E+00  0.00000000000E+00  0.14077918849E+04  0.30448452106E+04  0.26998526562E+04 0.  0.
        5    1    3    3  502    0  0.10548844030E+04  0.40811945789E+03 -0.12710140581E+03  0.11382088794E+04  0.46999998093E+01 0. -1.
       -5    1    3    3    0  502 -0.10548844030E+04 -0.40811945789E+03  0.15348932907E+04  0.19066363313E+04  0.46999998093E+01 0.  1.
</event>
<event>
 5   0  0.1732312E-06  0.2704801E+04  0.7818609E-02  0.8333449E-01
       -1   -1    0    0    0  501  0.00000000000E+00  0.00000000000E+00  0.18734306562E+04  0.18734306562E+04  0.50400001928E-02 0.  1.
        1   -1    0    0  501    0  0.00000000000E+00  0.00000000000E+00 -0.97627698205E+03  0.97627698206E+03  0.50400001928E-02 0. -1.
    10030    2    1    2    0    0  0.00000000000E+00  0.00000000000E+00  0.89715367410E+03  0.28497076382E+04  0.27048010848E+04 0.  0.
        5    1    3    3  502    0 -0.68027072043E+03 -0.74582641159E+03 -0.49960440105E+03  0.11263445018E+04  0.46999998093E+01 0. -1.
       -5    1    3    3    0  502  0.68027072043E+03  0.74582641159E+03  0.13967580752E+04  0.17233631364E+04  0.46999998093E+01 0.  1.
</event>
<event>
 5   0  0.4401659E-06  0.2723272E+04  0.7818609E-02  0.8327493E-01
       -2   -1    0    0    0  501  0.00000000000E+00  0.00000000000E+00  0.14337661742E+04  0.14337661742E+04  0.25500000920E-02 0.  1.
        2   -1    0    0  501    0  0.00000000000E+00  0.00000000000E+00 -0.12931343817E+04  0.12931343817E+04  0.25500000920E-02 0. -1.
    10030    2    1    2    0    0  0.00000000000E+00  0.00000000000E+00  0.14063179255E+03  0.27269005559E+04  0.27232718081E+04 0.  0.
        5    1    3    3  502    0 -0.10498204818E+04 -0.34544354053E+03  0.86672213309E+03  0.14045225629E+04  0.46999998093E+01 0.  1.
       -5    1    3    3    0  502  0.10498204818E+04  0.34544354053E+03 -0.72609034054E+03  0.13223779930E+04  0.46999998093E+01 0. -1.
</event>
<event>
 5   0  0.1732312E-06  0.2691598E+04  0.7818609E-02  0.8337736E-01
       -1   -1    0    0    0  501  0.00000000000E+00  0.00000000000E+00  0.15939411435E+04  0.15939411435E+04  0.50400001928E-02 0. -1.
        1   -1    0    0  501    0  0.00000000000E+00  0.00000000000E+00 -0.11362871482E+04  0.11362871482E+04  0.50400001928E-02 0.  1.
    10030    2    1    2    0    0  0.00000000000E+00  0.00000000000E+00  0.45765399527E+03  0.27302282917E+04  0.26915979167E+04 0.  0.
        5    1    3    3  502    0  0.11334823546E+04  0.39948690591E+03  0.84314327484E+03  0.14680887943E+04  0.46999998093E+01 0. -1.
       -5    1    3    3    0  502 -0.11334823546E+04 -0.39948690591E+03 -0.38548927957E+03  0.12621394973E+04  0.46999998093E+01 0.  1.
</event>
<event>
 5   0  0.4401659E-06  0.2697758E+04  0.7818609E-02  0.8335733E-01
        2   -1    0    0  501    0  0.00000000000E+00  0.00000000000E+00  0.16635213667E+04  0.16635213667E+04  0.25500000920E-02 0.  1.
       -2   -1    0    0    0  501  0.00000000000E+00  0.00000000000E+00 -0.10937491148E+04  0.10937491148E+04  0.25500000920E-02 0. -1.
    10030    2    1    2    0    0  0.00000000000E+00  0.00000000000E+00  0.56977225191E+03  0.27572704816E+04  0.26977583453E+04 0.  0.
        5    1    3    3  502    0  0.10712352182E+04 -0.78400757594E+03  0.40359166256E+02  0.13281053137E+04  0.46999998093E+01 0. -1.
       -5    1    3    3    0  502 -0.10712352182E+04  0.78400757594E+03  0.52941308565E+03  0.14291651679E+04  0.46999998093E+01 0.  1.
</event>
<event>
 5   0  0.4448804E-06  0.2641188E+04  0.7818609E-02  0.8354344E-01
       -2   -1    0    0    0  501  0.00000000000E+00  0.00000000000E+00  0.12799515208E+04  0.12799515208E+04  0.25500000920E-02 0.  1.
        2   -1    0    0  501    0  0.00000000000E+00  0.00000000000E+00 -0.13625266134E+04  0.13625266134E+04  0.25500000920E-02 0. -1.
    10030    2    1    2    0    0  0.00000000000E+00  0.00000000000E+00 -0.82575092571E+02  0.26424781341E+04  0.26411876199E+04 0.  0.
        2    1    3    3  502    0 -0.13061943866E+04  0.17441589560E+03 -0.12737219687E+03  0.13239291359E+04  0.25500000920E-02 0. -1.
       -2    1    3    3    0  502  0.13061943866E+04 -0.17441589560E+03  0.44797104299E+02  0.13185489983E+04  0.25500000920E-02 0.  1.
</event>
<event>
 5   0  0.1723605E-06  0.2695643E+04  0.7818609E-02  0.8336420E-01
        1   -1    0    0  501    0  0.00000000000E+00  0.00000000000E+00  0.22690376026E+04  0.22690376026E+04  0.50400001928E-02 0.  1.
       -1   -1    0    0    0  501  0.00000000000E+00  0.00000000000E+00 -0.80061357858E+03  0.80061357859E+03  0.50400001928E-02 0. -1.
    10030    2    1    2    0    0  0.00000000000E+00  0.00000000000E+00  0.14684240240E+04  0.30696511812E+04  0.26956426432E+04 0.  0.
        1    1    3    3  502    0  0.12422448631E+04 -0.75829959253E+02  0.13233957603E+04  0.18166724583E+04  0.50400001928E-02 0.  1.
       -1    1    3    3    0  502 -0.12422448631E+04  0.75829959253E+02  0.14502826375E+03  0.12529787228E+04  0.50400001928E-02 0. -1.
</event>
<event>
 5   0  0.1753474E-06  0.2695932E+04  0.7818609E-02  0.8336326E-01
        1   -1    0    0  501    0  0.00000000000E+00  0.00000000000E+00  0.17115097065E+04  0.17115097065E+04  0.50400001928E-02 0. -1.
       -1   -1    0    0    0  501  0.00000000000E+00  0.00000000000E+00 -0.10616433427E+04  0.10616433427E+04  0.50400001928E-02 0.  1.
    10030    2    1    2    0    0  0.00000000000E+00  0.00000000000E+00  0.64986636382E+03  0.27731530492E+04  0.26959324071E+04 0.  0.
        3    1    3    3  502    0  0.13320995230E+04 -0.16373841135E+03  0.45387710517E+03  0.14167935076E+04  0.10100000352E+00 0.  1.
       -3    1    3    3    0  502 -0.13320995230E+04  0.16373841135E+03  0.19598925865E+03  0.13563595416E+04  0.10100000352E+00 0. -1.
</event>
<event>
 5   0  0.4439357E-06  0.2698350E+04  0.7818609E-02  0.8335541E-01
        2   -1    0    0  501    0  0.00000000000E+00  0.00000000000E+00  0.11578875110E+04  0.11578875110E+04  0.25500000920E-02 0.  1.
       -2   -1    0    0    0  501  0.00000000000E+00  0.00000000000E+00 -0.15720638352E+04  0.15720638352E+04  0.25500000920E-02 0. -1.
    10030    2    1    2    0    0  0.00000000000E+00  0.00000000000E+00 -0.41417632421E+03  0.27299513462E+04  0.26983499264E+04 0.  0.
        4    1    3    3  502    0  0.10270837419E+04  0.78192134908E+03  0.18989668522E+03  0.13047468617E+04  0.12699999809E+01 0.  1.
       -4    1    3    3    0  502 -0.10270837419E+04 -0.78192134908E+03 -0.60407300943E+03  0.14252044845E+04  0.12699999809E+01 0. -1.
</event>
<event>
 5   0  0.4439357E-06  0.2702594E+04  0.7818609E-02  0.8334164E-01
       -2   -1    0    0    0  501  0.00000000000E+00  0.00000000000E+00  0.14425331942E+04  0.14425331942E+04  0.25500000920E-02 0. -1.
        2   -1    0    0  501    0  0.00000000000E+00  0.00000000000E+00 -0.12658307908E+04  0.12658307908E+04  0.25500000920E-02 0.  1.
    10030    2    1    2    0    0  0.00000000000E+00  0.00000000000E+00  0.17670240340E+03  0.27083639851E+04  0.27025935203E+04 0.  0.
        4    1    3    3  502    0  0.65111174180E+03  0.10727868720E+04 -0.41390065218E+03  0.13214134613E+04  0.12699999809E+01 0.  1.
       -4    1    3    3    0  502 -0.65111174180E+03 -0.10727868720E+04  0.59060305558E+03  0.13869505237E+04  0.12699999809E+01 0. -1.
</event>
<event>
 5   0  0.4655882E-06  0.2704576E+04  0.7818609E-02  0.8333522E-01
       -2   -1    0    0    0  501  0.00000000000E+00  0.00000000000E+00  0.16211961878E+04  0.16211961878E+04  0.25500000920E-02 0. -1.
        2   -1    0    0  501    0  0.00000000000E+00  0.00000000000E+00 -0.11279836546E+04  0.11279836546E+04  0.25500000920E-02 0.  1.
    10030    2    1    2    0    0  0.00000000000E+00  0.00000000000E+00  0.49321253315E+03  0.27491798424E+04  0.27045759747E+04 0.  0.
        1    1    3    3  502    0 -0.75197717323E+03 -0.32638727503E+03 -0.84662342651E+03  0.11784606691E+04  0.50400001928E-02 0.  1.
       -1    1    3    3    0  502  0.75197717323E+03  0.32638727503E+03  0.13398359597E+04  0.15707191732E+04  0.50400001928E-02 0. -1.
</event>
<event>
 5   0  0.1482875E-06  0.2695111E+04  0.7818609E-02  0.8336593E-01
       -4   -1    0    0    0  501  0.00000000000E+00  0.00000000000E+00  0.14387048331E+04  0.14387053936E+04  0.12699999809E+01 0.  1.
        4   -1    0    0  501    0  0.00000000000E+00  0.00000000000E+00 -0.12621797816E+04  0.12621804206E+04  0.12699999809E+01 0. -1.
    10030    2    1    2    0    0  0.00000000000E+00  0.00000000000E+00  0.17652505143E+03  0.27008858142E+04  0.26951109601E+04 0.  0.
        3    1    3    3  502    0 -0.55226923879E+01  0.32807054647E+03 -0.12215364606E+04  0.12648367951E+04  0.10100000352E+00 0. -1.
       -3    1    3    3    0  502  0.55226923879E+01 -0.32807054647E+03  0.13980615120E+04  0.14360490190E+04  0.10100000352E+00 0.  1.
</event>
<event>
 5   0  0.1753474E-06  0.2708556E+04  0.7818609E-02  0.8332234E-01
        1   -1    0    0  501    0  0.00000000000E+00  0.00000000000E+00  0.11455372348E+04  0.11455372348E+04  0.50400001928E-02 0. -1.
       -1   -1    0    0    0  501  0.00000000000E+00  0.00000000000E+00 -0.16010556917E+04  0.16010556917E+04  0.50400001928E-02 0.  1.
    10030    2    1    2    0    0  0.00000000000E+00  0.00000000000E+00 -0.45551845689E+03  0.27465929265E+04  0.27085560063E+04 0.  0.
        3    1    3    3  502    0 -0.48204279777E+03 -0.29777744901E+03  0.10195684714E+04  0.11664289717E+04  0.10100000352E+00 0. -1.
       -3    1    3    3    0  502  0.48204279777E+03  0.29777744901E+03 -0.14750869282E+04  0.15801639548E+04  0.10100000352E+00 0.  1.
</event>
<event>
 5   0  0.1723605E-06  0.2705131E+04  0.7818609E-02  0.8333342E-01
       -1   -1    0    0    0  501  0.00000000000E+00  0.00000000000E+00  0.99939970289E+03  0.99939970291E+03  0.50400001928E-02 0. -1.
        1   -1    0    0  501    0  0.00000000000E+00  0.00000000000E+00 -0.18305317466E+04  0.18305317466E+04  0.50400001928E-02 0.  1.
    10030    2    1    2    0    0  0.00000000000E+00  0.00000000000E+00 -0.83113204373E+03  0.28299314495E+04  0.27051305948E+04 0.  0.
        1    1    3    3  502    0 -0.55979020235E+03 -0.14032784461E+03 -0.16952656188E+04  0.17908049846E+04  0.50400001928E-02 0.  1.
       -1    1    3    3    0  502  0.55979020235E+03  0.14032784461E+03  0.86413357504E+03  0.10391264649E+04  0.50400001928E-02 0. -1.
</event>
<event>
 5   0  0.4448804E-06  0.2705450E+04  0.7818609E-02  0.8333239E-01
        2   -1    0    0  501    0  0.00000000000E+00  0.00000000000E+00  0.26379545477E+04  0.26379545477E+04  0.25500000920E-02 0.  1.
       -2   -1    0    0    0  501  0.00000000000E+00  0.00000000000E+00 -0.69366826038E+03  0.69366826038E+03  0.25500000920E-02 0. -1.
    10030    2    1    2    0    0  0.00000000000E+00  0.00000000000E+00  0.19442862873E+04  0.33316228081E+04  0.27054503078E+04 0.  0.
        2    1    3    3  502    0 -0.26661774288E+03  0.94364496838E+03 -0.17536239523E+03  0.99614397395E+03  0.25500000920E-02 0. -1.
       -2    1    3    3    0  502  0.26661774288E+03 -0.94364496838E+03  0.21196486825E+04  0.23354788341E+04  0.25500000920E-02 0.  1.
</event>
<event>
 5   0  0.1732312E-06  0.2706664E+04  0.7818609E-02  0.8332846E-01
       -1   -1    0    0    0  501  0.00000000000E+00  0.00000000000E+00  0.70945832412E+03  0.70945832414E+03  0.50400001928E-02 0.  1.
        1   -1    0    0  501    0  0.00000000000E+00  0.00000000000E+00 -0.25815575196E+04  0.25815575196E+04  0.50400001928E-02 0. -1.
    10030    2    1    2    0    0  0.00000000000E+00  0.00000000000E+00 -0.18720991955E+04  0.32910158438E+04  0.27066639773E+04 0.  0.
        5    1    3    3  502    0  0.48508848431E+03  0.40031897662E+03 -0.23930532506E+04  0.24743265894E+04  0.46999998093E+01 0. -1.
       -5    1    3    3    0  502 -0.48508848431E+03 -0.40031897662E+03  0.52095405513E+03  0.81668925437E+03  0.46999998093E+01 0.  1.
</event>
<event>
 5   0  0.1753474E-06  0.2667826E+04  0.7818609E-02  0.8345520E-01
        1   -1    0    0  501    0  0.00000000000E+00  0.00000000000E+00  0.10510224463E+04  0.10510224463E+04  0.50400001928E-02 0. -1.
       -1   -1    0    0    0  501  0.00000000000E+00  0.00000000000E+00 -0.16929457601E+04  0.16929457601E+04  0.50400001928E-02 0.  1.
    10030    2    1    2    0    0  0.00000000000E+00  0.00000000000E+00 -0.64192331384E+03  0.27439682064E+04  0.26678260770E+04 0.  0.
        3    1    3    3  502    0 -0.59252119123E+03 -0.34041913706E+03  0.85731596464E+03  0.10963380977E+04  0.10100000352E+00 0. -1.
       -3    1    3    3    0  502  0.59252119123E+03  0.34041913706E+03 -0.14992392785E+04  0.16476301088E+04  0.10100000352E+00 0.  1.
</event>
<event>
 5   0  0.1771016E-06  0.2699991E+04  0.7818609E-02  0.8335008E-01
       -1   -1    0    0    0  501  0.00000000000E+00  0.00000000000E+00  0.96412350747E+03  0.96412350748E+03  0.50400001928E-02 0. -1.
        1   -1    0    0  501    0  0.00000000000E+00  0.00000000000E+00 -0.18903052538E+04  0.18903052538E+04  0.50400001928E-02 0.  1.
    10030    2    1    2    0    0  0.00000000000E+00  0.00000000000E+00 -0.92618174629E+03  0.28544287612E+04  0.26999909122E+04 0.  0.
        2    1    3    3  502    0 -0.26811740107E+03 -0.16666750076E+03  0.92455038290E+03  0.97696387195E+03  0.25500000920E-02 0. -1.
       -2    1    3    3    0  502  0.26811740107E+03  0.16666750076E+03 -0.18507321292E+04  0.18774648893E+04  0.25500000920E-02 0.  1.
</event>
<event>
 5   0  0.4448804E-06  0.2702269E+04  0.7818609E-02  0.8334269E-01
       -2   -1    0    0    0  501  0.00000000000E+00  0.00000000000E+00  0.13745684060E+04  0.13745684060E+04  0.25500000920E-02 0.  1.
        2   -1    0    0  501    0  0.00000000000E+00  0.00000000000E+00 -0.13281005739E+04  0.13281005739E+04  0.25500000920E-02 0. -1.
    10030    2    1    2    0    0  0.00000000000E+00  0.00000000000E+00  0.46467832085E+02  0.27026689799E+04  0.27022694823E+04 0.  0.
        2    1    3    3  502    0  0.21804197017E+03 -0.30595716319E+03  0.13212751630E+04  0.13736521186E+04  0.25500000920E-02 0.  1.
       -2    1    3    3    0  502 -0.21804197017E+03  0.30595716319E+03 -0.12748073309E+04  0.13290168613E+04  0.25500000920E-02 0. -1.
</event>
<event>
 5   0  0.4401659E-06  0.2689033E+04  0.7818609E-02  0.8338572E-01
       -2   -1    0    0    0  501  0.00000000000E+00  0.00000000000E+00  0.12519217638E+04  0.12519217638E+04  0.25500000920E-02 0. -1.
        2   -1    0    0  501    0  0.00000000000E+00  0.00000000000E+00 -0.14439601156E+04  0.14439601156E+04  0.25500000920E-02 0.  1.
    10030    2    1    2    0    0  0.00000000000E+00  0.00000000000E+00 -0.19203835179E+03  0.26958818794E+04  0.26890333541E+04 0.  0.
        5    1    3    3  502    0 -0.85834115032E+03  0.69056575840E+03 -0.86874310491E+03  0.14029851280E+04  0.46999998093E+01 0.  1.
       -5    1    3    3    0  502  0.85834115032E+03 -0.69056575840E+03  0.67670475312E+03  0.12928967515E+04  0.46999998093E+01 0. -1.
</event>
<event>
 5   0  0.1732312E-06  0.2709211E+04  0.7818609E-02  0.8332022E-01
        1   -1    0    0  501    0  0.00000000000E+00  0.00000000000E+00  0.16105808997E+04  0.16105808998E+04  0.50400001928E-02 0.  1.
       -1   -1    0    0    0  501  0.00000000000E+00  0.00000000000E+00 -0.11393133498E+04  0.11393133498E+04  0.50400001928E-02 0. -1.
    10030    2    1    2    0    0  0.00000000000E+00  0.00000000000E+00  0.47126754995E+03  0.27498942496E+04  0.27092111915E+04 0.  0.
        5    1    3    3  502    0 -0.12440880518E+03 -0.11430455911E+04  0.96256101683E+03  0.14995254500E+04  0.46999998093E+01 0.  1.
       -5    1    3    3    0  502  0.12440880518E+03  0.11430455911E+04 -0.49129346688E+03  0.12503687995E+04  0.46999998093E+01 0. -1.
</event>
<event>
 5   0  0.1723605E-06  0.2705917E+04  0.7818609E-02  0.8333088E-01
        1   -1    0    0  501    0  0.00000000000E+00  0.00000000000E+00  0.29468768245E+04  0.29468768246E+04  0.50400001928E-02 0.  1.
       -1   -1    0    0    0  501  0.00000000000E+00  0.00000000000E+00 -0.62116497475E+03  0.62116497477E+03  0.50400001928E-02 0. -1.
    10030    2    1    2    0    0  0.00000000000E+00  0.00000000000E+00  0.23257118498E+04  0.35680417993E+04  0.27059169746E+04 0.  0.
        1    1    3    3  502    0  0.98473401004E+03 -0.60764393845E+03  0.23835852008E+03  0.11814173736E+04  0.50400001928E-02 0. -1.
       -1    1    3    3    0  502 -0.98473401004E+03  0.60764393845E+03  0.20873533297E+04  0.23866244257E+04  0.50400001928E-02 0.  1.
</event>
<event>
 5   0  0.1732312E-06  0.2689061E+04  0.7818609E-02  0.8338563E-01
        1   -1    0    0  501    0  0.00000000000E+00  0.00000000000E+00  0.16263199888E+04  0.16263199888E+04  0.50400001928E-02 0. -1.
       -1   -1    0    0    0  501  0.00000000000E+00  0.00000000000E+00 -0.11115660656E+04  0.11115660656E+04  0.50400001928E-02 0.  1.
    10030    2    1    2    0    0  0.00000000000E+00  0.00000000000E+00  0.51475392321E+03  0.27378860544E+04  0.26890608854E+04 0.  0.
        5    1    3    3  502    0  0.17369467866E+03 -0.90908933354E+03 -0.73558802587E+03  0.11822542415E+04  0.46999998093E+01 0.  1.
       -5    1    3    3    0  502 -0.17369467866E+03  0.90908933354E+03  0.12503419491E+04  0.15556318129E+04  0.46999998093E+01 0. -1.
</event>
<event>
 5   0  0.4401659E-06  0.2703595E+04  0.7818609E-02  0.8333839E-01
       -2   -1    0    0    0  501  0.00000000000E+00  0.00000000000E+00  0.13497237457E+04  0.13497237457E+04  0.25500000920E-02 0. -1.
        2   -1    0    0  501    0  0.00000000000E+00  0.00000000000E+00 -0.13538748926E+04  0.13538748926E+04  0.25500000920E-02 0.  1.
    10030    2    1    2    0    0  0.00000000000E+00  0.00000000000E+00 -0.41511469652E+01  0.27035986383E+04  0.27035954514E+04 0.  0.
        5    1    3    3  502    0  0.14554344216E+03 -0.12825022453E+04 -0.40374767715E+03  0.13524160527E+04  0.46999998093E+01 0.  1.
       -5    1    3    3    0  502 -0.14554344216E+03  0.12825022453E+04  0.39959653019E+03  0.13511825856E+04  0.46999998093E+01 0. -1.
</event>
<event>
 5   0  0.4448804E-06  0.2700715E+04  0.7818609E-02  0.8334773E-01
        2   -1    0    0  501    0  0.00000000000E+00  0.00000000000E+00  0.22875300373E+04  0.22875300373E+04  0.25500000920E-02 0.  1.
       -2   -1    0    0    0  501  0.00000000000E+00  0.00000000000E+00 -0.79713286986E+03  0.79713286986E+03  0.25500000920E-02 0. -1.
    10030    2    1    2    0    0  0.00000000000E+00  0.00000000000E+00  0.14903971675E+04  0.30846629072E+04  0.27007150042E+04 0.  0.
        2    1    3    3  502    0  0.72960302366E+03  0.92186566056E+03 -0.13553868419E+02  0.11757298055E+04  0.25500000920E-02 0.  1.
       -2    1    3    3    0  502 -0.72960302366E+03 -0.92186566056E+03  0.15039510359E+04  0.19089331017E+04  0.25500000920E-02 0. -1.
</event>
<event>
 5   0  0.4448804E-06  0.2702037E+04  0.7818609E-02  0.8334344E-01
        2   -1    0    0  501    0  0.00000000000E+00  0.00000000000E+00  0.14875385049E+04  0.14875385049E+04  0.25500000920E-02 0.  1.
       -2   -1    0    0    0  501  0.00000000000E+00  0.00000000000E+00 -0.12270280187E+04  0.12270280187E+04  0.25500000920E-02 0. -1.
    10030    2    1    2    0    0  0.00000000000E+00  0.00000000000E+00  0.26051048618E+03  0.27145665236E+04  0.27020373235E+04 0.  0.
        2    1    3    3  502    0  0.86835719679E+03 -0.69562984880E+03  0.90016793898E+03  0.14311699501E+04  0.25500000920E-02 0.  1.
       -2    1    3    3    0  502 -0.86835719679E+03  0.69562984880E+03 -0.63965745280E+03  0.12833965734E+04  0.25500000920E-02 0. -1.
</event>
<event>
 5   0  0.4401659E-06  0.2705043E+04  0.7818609E-02  0.8333371E-01
       -2   -1    0    0    0  501  0.00000000000E+00  0.00000000000E+00  0.11280398052E+04  0.11280398052E+04  0.25500000920E-02 0.  1.
        2   -1    0    0  501    0  0.00000000000E+00  0.00000000000E+00 -0.16216749007E+04  0.16216749007E+04  0.25500000920E-02 0. -1.
    10030    2    1    2    0    0  0.00000000000E+00  0.00000000000E+00 -0.49363509548E+03  0.27497147060E+04  0.27050425795E+04 0.  0.
        5    1    3    3  502    0 -0.11259988048E+04 -0.33517530107E+03 -0.92801565636E+03  0.14971476010E+04  0.46999998093E+01 0.  1.
       -5    1    3    3    0  502  0.11259988048E+04  0.33517530107E+03  0.43438056088E+03  0.12525671050E+04  0.46999998093E+01 0. -1.
</event>
<event>
 5   0  0.4655882E-06  0.2695476E+04  0.7818609E-02  0.8336474E-01
        2   -1    0    0  501    0  0.00000000000E+00  0.00000000000E+00  0.20732082116E+04  0.20732082116E+04  0.25500000920E-02 0. -1.
       -2   -1    0    0    0  501  0.00000000000E+00  0.00000000000E+00 -0.87612889066E+03  0.87612889066E+03  0.25500000920E-02 0.  1.
    10030    2    1    2    0    0  0.00000000000E+00  0.00000000000E+00  0.11970793209E+04  0.29493371023E+04  0.26954759213E+04 0.  0.
        1    1    3    3  502    0 -0.47741672578E+03 -0.11411143826E+04  0.13046927090E+02  0.12370282885E+04  0.50400001928E-02 0.  1.
       -1    1    3    3    0  502  0.47741672578E+03  0.11411143826E+04  0.11840323938E+04  0.17123088138E+04  0.50400001928E-02 0. -1.
</event>
<event>
 5   0  0.4448804E-06  0.2707571E+04  0.7818609E-02  0.8332552E-01
        2   -1    0    0  501    0  0.00000000000E+00  0.00000000000E+00  0.16636727365E+04  0.16636727365E+04  0.25500000920E-02 0. -1.
       -2   -1    0    0    0  501  0.00000000000E+00  0.00000000000E+00 -0.11016203461E+04  0.11016203461E+04  0.25500000920E-02 0.  1.
    10030    2    1    2    0    0  0.00000000000E+00  0.00000000000E+00  0.56205239037E+03  0.27652930826E+04  0.27075714106E+04 0.  0.
        2    1    3    3  502    0 -0.10245415027E+04  0.53171673331E+03  0.10034441772E+04  0.15294797129E+04  0.25500000920E-02 0. -1.
       -2    1    3    3    0  502  0.10245415027E+04 -0.53171673331E+03 -0.44139178684E+03  0.12358133697E+04  0.25500000920E-02 0.  1.
</event>
<event>
 5   0  0.4655882E-06  0.2688843E+04  0.7818609E-02  0.8338634E-01
        2   -1    0    0  501    0  0.00000000000E+00  0.00000000000E+00  0.12082276460E+04  0.12082276460E+04  0.25500000920E-02 0.  1.
       -2   -1    0    0    0  501  0.00000000000E+00  0.00000000000E+00 -0.14959676730E+04  0.14959676730E+04  0.25500000920E-02 0. -1.
    10030    2    1    2    0    0  0.00000000000E+00  0.00000000000E+00 -0.28774002699E+03  0.27041953190E+04  0.26888432457E+04 0.  0.
        1    1    3    3  502    0  0.98748194184E+03  0.92297923503E+02  0.76896307851E+03  0.12549676124E+04  0.50400001928E-02 0.  1.
       -1    1    3    3    0  502 -0.98748194184E+03 -0.92297923503E+02 -0.10567031055E+04  0.14492277065E+04  0.50400001928E-02 0. -1.
</event>
<event>
 5   0  0.1828511E-06  0.2699803E+04  0.7818609E-02  0.8335069E-01
       -1   -1    0    0    0  501  0.00000000000E+00  0.00000000000E+00  0.12083729768E+04  0.12083729768E+04  0.50400001928E-02 0.  1.
        1   -1    0    0  501    0  0.00000000000E+00  0.00000000000E+00 -0.15080062887E+04  0.15080062887E+04  0.50400001928E-02 0. -1.
    10030    2    1    2    0    0  0.00000000000E+00  0.00000000000E+00 -0.29963331190E+03  0.27163792656E+04  0.26998029915E+04 0.  0.
        4    1    3    3  502    0 -0.86322195982E+03  0.42155479217E+03 -0.11039915281E+04  0.14634409800E+04  0.12699999809E+01 0. -1.
       -4    1    3    3    0  502  0.86322195982E+03 -0.42155479217E+03  0.80435821623E+03  0.12529382856E+04  0.12699999809E+01 0.  1.
</event>
<event>
 5   0  0.1723605E-06  0.2701872E+04  0.7818609E-02  0.8334398E-01
        1   -1    0    0  501    0  0.00000000000E+00  0.00000000000E+00  0.93972171190E+03  0.93972171191E+03  0.50400001928E-02 0. -1.
       -1   -1    0    0    0  501  0.00000000000E+00  0.00000000000E+00 -0.19420941185E+04  0.19420941185E+04  0.50400001928E-02 0.  1.
    10030    2    1    2    0    0  0.00000000000E+00  0.00000000000E+00 -0.10023724066E+04  0.28818158304E+04  0.27018719509E+04 0.  0.
        1    1    3    3  502    0 -0.93348167172E+03  0.92678603137E+03 -0.17294435827E+03  0.13267366470E+04  0.50400001928E-02 0.  1.
       -1    1    3    3    0  502  0.93348167172E+03 -0.92678603137E+03 -0.82942804837E+03  0.15550791835E+04  0.50400001928E-02 0. -1.
</event>
<event>
 5   0  0.1723605E-06  0.2701118E+04  0.7818609E-02  0.8334642E-01
       -1   -1    0    0    0  501  0.00000000000E+00  0.00000000000E+00  0.10135938768E+04  0.10135938768E+04  0.50400001928E-02 0.  1.
        1   -1    0    0  501    0  0.00000000000E+00  0.00000000000E+00 -0.17995472783E+04  0.17995472783E+04  0.50400001928E-02 0. -1.
    10030    2    1    2    0    0  0.00000000000E+00  0.00000000000E+00 -0.78595340152E+03  0.28131411550E+04  0.27011183626E+04 0.  0.
        1    1    3    3  502    0  0.11944756864E+04 -0.88280503335E+02 -0.10429128464E+04  0.15881539025E+04  0.50400001928E-02 0. -1.
       -1    1    3    3    0  502 -0.11944756864E+04  0.88280503335E+02  0.25695944487E+03  0.12249872526E+04  0.50400001928E-02 0.  1.
</event>
<event>
 5   0  0.4439357E-06  0.2713052E+04  0.7818609E-02  0.8330782E-01
        2   -1    0    0  501    0  0.00000000000E+00  0.00000000000E+00  0.92384413465E+03  0.92384413465E+03  0.25500000920E-02 0.  1.
       -2   -1    0    0    0  501  0.00000000000E+00  0.00000000000E+00 -0.19918544124E+04  0.19918544124E+04  0.25500000920E-02 0. -1.
    10030    2    1    2    0    0  0.00000000000E+00  0.00000000000E+00 -0.10680102777E+04  0.29156985470E+04  0.27130521675E+04 0.  0.
        4    1    3    3  502    0 -0.44160522848E+03  0.74588089855E+03  0.58739371925E+03  0.10470847563E+04  0.12699999809E+01 0.  1.
       -4    1    3    3    0  502  0.44160522848E+03 -0.74588089855E+03 -0.16554039970E+04  0.18686137907E+04  0.12699999809E+01 0. -1.
</event>
<event>
 5   0  0.1732312E-06  0.2699382E+04  0.7818609E-02  0.8335205E-01
       -1   -1    0    0    0  501  0.00000000000E+00  0.00000000000E+00  0.13314957991E+04  0.13314957991E+04  0.50400001928E-02 0. -1.
        1   -1    0    0  501    0  0.00000000000E+00  0.00000000000E+00 -0.13681350487E+04  0.13681350487E+04  0.50400001928E-02 0.  1.
    10030    2    1    2    0    0  0.00000000000E+00  0.00000000000E+00 -0.36639249608E+02  0.26996308478E+04  0.26993822034E+04 0.  0.
        5    1    3    3  502    0 -0.10383876204E+04 -0.85309663684E+03 -0.14331616883E+03  0.13515118705E+04  0.46999998093E+01 0. -1.
       -5    1    3    3    0  502  0.10383876204E+04  0.85309663684E+03  0.10667691922E+03  0.13481189773E+04  0.46999998093E+01 0.  1.
</event>
<event>
 5   0  0.1771016E-06  0.2696503E+04  0.7818609E-02  0.8336140E-01
       -1   -1    0    0    0  501  0.00000000000E+00  0.00000000000E+00  0.14705160768E+04  0.14705160768E+04  0.50400001928E-02 0.  1.
        1   -1    0    0  501    0  0.00000000000E+00  0.00000000000E+00 -0.12361525764E+04  0.12361525764E+04  0.50400001928E-02 0. -1.
    10030    2    1    2    0    0  0.00000000000E+00  0.00000000000E+00  0.23436350040E+03  0.27066686532E+04  0.26965030963E+04 0.  0.
        2    1    3    3  502    0  0.10066799354E+03  0.12663456021E+04 -0.33620346860E+03  0.13140768627E+04  0.25500000920E-02 0.  1.
       -2    1    3    3    0  502 -0.10066799354E+03 -0.12663456021E+04  0.57056696901E+03  0.13925917905E+04  0.25500000920E-02 0. -1.
</event>
<event>
 5   0  0.1828511E-06  0.2698272E+04  0.7818609E-02  0.8335566E-01
        1   -1    0    0  501    0  0.00000000000E+00  0.00000000000E+00  0.18265969382E+04  0.18265969382E+04  0.50400001928E-02 0.  1.
       -1   -1    0    0    0  501  0.00000000000E+00  0.00000000000E+00 -0.99648027065E+03  0.99648027066E+03  0.50400001928E-02 0. -1.
    10030    2    1    2    0    0  0.00000000000E+00  0.00000000000E+00  0.83011666754E+03  0.28230772089E+04  0.26982718998E+04 0.  0.
        4    1    3    3  502    0  0.27337958829E+03  0.59802552618E+03  0.16475947130E+04  0.17739619163E+04  0.12699999809E+01 0.  1.
       -4    1    3    3    0  502 -0.27337958829E+03 -0.59802552618E+03 -0.81747804549E+03  0.10491152925E+04  0.12699999809E+01 0. -1.
</event>
<event>
 5   0  0.1723605E-06  0.2694977E+04  0.7818609E-02  0.8336637E-01
       -1   -1    0    0    0  501  0.00000000000E+00  0.00000000000E+00  0.90529058514E+03  0.90529058515E+03  0.50400001928E-02 0. -1.
        1   -1    0    0  501    0  0.00000000000E+00  0.00000000000E+00 -0.20056823982E+04  0.20056823982E+04  0.50400001928E-02 0.  1.
    10030    2    1    2    0    0  0.00000000000E+00  0.00000000000E+00 -0.11003918131E+04  0.29109729834E+04  0.26949770997E+04 0.  0.
        1    1    3    3  502    0 -0.24832673626E+03 -0.90097770320E+03  0.49832555212E+03  0.10591295225E+04  0.50400001928E-02 0. -1.
       -1    1    3    3    0  502  0.24832673626E+03  0.90097770320E+03 -0.15987173652E+04  0.18518434608E+04  0.50400001928E-02 0.  1.
</event>
<event>
 5   0  0.4487186E-06  0.2688870E+04  0.7818609E-02  0.8338625E-01
       -2   -1    0    0    0  501  0.00000000000E+00  0.00000000000E+00  0.13608700367E+04  0.13608700367E+04  0.25500000920E-02 0. -1.
        2   -1    0    0  501    0  0.00000000000E+00  0.00000000000E+00 -0.13281985440E+04  0.13281985440E+04  0.25500000920E-02 0.  1.
    10030    2    1    2    0    0  0.00000000000E+00  0.00000000000E+00  0.32671492692E+02  0.26890685806E+04  0.26888700982E+04 0.  0.
        3    1    3    3  502    0  0.23515700597E+03 -0.25993653234E+03  0.13143682920E+04  0.13603050524E+04  0.10100000352E+00 0. -1.
       -3    1    3    3    0  502 -0.23515700597E+03  0.25993653234E+03 -0.12816967993E+04  0.13287635282E+04  0.10100000352E+00 0.  1.
</event>
<event>
 5   0  0.1771016E-06  0.2713463E+04  0.7818609E-02  0.8330650E-01
        1   -1    0    0  501    0  0.00000000000E+00  0.00000000000E+00  0.17898144460E+04  0.17898144460E+04  0.50400001928E-02 0.  1.
       -1   -1    0    0    0  501  0.00000000000E+00  0.00000000000E+00 -0.10284418537E+04  0.10284418538E+04  0.50400001928E-02 0. -1.
    10030    2    1    2    0    0  0.00000000000E+00  0.00000000000E+00  0.76137259230E+03  0.28182562998E+04  0.27134627963E+04 0.  0.
        2    1    3    3  502    0  0.10743955816E+03 -0.61327668178E+03 -0.87130025881E+03  0.10708948072E+04  0.25500000920E-02 0. -1.
       -2    1    3    3    0  502 -0.10743955816E+03  0.61327668178E+03  0.16326728511E+04  0.17473614926E+04  0.25500000920E-02 0.  1.
</event>
<event>
 5   0  0.4487186E-06  0.2680907E+04  0.7818609E-02  0.8341227E-01
       -2   -1    0    0    0  501  0.00000000000E+00  0.00000000000E+00  0.14666393981E+04  0.14666393981E+04  0.25500000920E-02 0.  1.
        2   -1    0    0  501    0  0.00000000000E+00  0.00000000000E+00 -0.12251244815E+04  0.12251244815E+04  0.25500000920E-02 0. -1.
    10030    2    1    2    0    0  0.00000000000E+00  0.00000000000E+00  0.24151491652E+03  0.26917638796E+04  0.26809071839E+04 0.  0.
        3    1    3    3  502    0 -0.48292933137E+03 -0.78644513361E+03 -0.85534153625E+03  0.12583027621E+04  0.10100000352E+00 0. -1.
       -3    1    3    3    0  502  0.48292933137E+03  0.78644513361E+03  0.10968564528E+04  0.14334611175E+04  0.10100000352E+00 0.  1.
</event>
<event>
 5   0  0.1482875E-06  0.2706240E+04  0.7818609E-02  0.8332983E-01
       -3   -1    0    0    0  501  0.00000000000E+00  0.00000000000E+00  0.14297357489E+04  0.14297357525E+04  0.10100000352E+00 0.  1.
        3   -1    0    0  501    0  0.00000000000E+00  0.00000000000E+00 -0.12806102062E+04  0.12806102102E+04  0.10100000352E+00 0. -1.
    10030    2    1    2    0    0  0.00000000000E+00  0.00000000000E+00  0.14912554269E+03  0.27103459627E+04  0.27062403460E+04 0.  0.
        4    1    3    3  502    0 -0.11915688381E+04  0.38228017797E+03  0.59008454680E+03  0.13835374284E+04  0.12699999809E+01 0.  1.
       -4    1    3    3    0  502  0.11915688381E+04 -0.38228017797E+03 -0.44095900411E+03  0.13268085343E+04  0.12699999809E+01 0. -1.
</event>
<event>
 5   0  0.4401659E-06  0.2659775E+04  0.7818609E-02  0.8348176E-01
       -2   -1    0    0    0  501  0.00000000000E+00  0.00000000000E+00  0.89923269355E+03  0.89923269355E+03  0.25500000920E-02 0.  1.
        2   -1    0    0  501    0  0.00000000000E+00  0.00000000000E+00 -0.19667893533E+04  0.19667893533E+04  0.25500000920E-02 0. -1.
    10030    2    1    2    0    0  0.00000000000E+00  0.00000000000E+00 -0.10675566597E+04  0.28660220468E+04  0.26597753949E+04 0.  0.
        5    1    3    3  502    0  0.45819510312E+03 -0.59157348545E+03  0.65087079472E+03  0.99174433330E+03  0.46999998093E+01 0.  1.
       -5    1    3    3    0  502 -0.45819510312E+03  0.59157348545E+03 -0.17184274545E+04  0.18742777135E+04  0.46999998093E+01 0. -1.
</event>
<event>
 5   0  0.1753474E-06  0.2699311E+04  0.7818609E-02  0.8335229E-01
       -1   -1    0    0    0  501  0.00000000000E+00  0.00000000000E+00  0.68298355408E+03  0.68298355410E+03  0.50400001928E-02 0. -1.
        1   -1    0    0  501    0  0.00000000000E+00  0.00000000000E+00 -0.26670774006E+04  0.26670774006E+04  0.50400001928E-02 0.  1.
    10030    2    1    2    0    0  0.00000000000E+00  0.00000000000E+00 -0.19840938465E+04  0.33500609547E+04  0.26993110248E+04 0.  0.
        3    1    3    3  502    0  0.11577945723E+04 -0.68496886816E+03 -0.11274291839E+04  0.17552114394E+04  0.10100000352E+00 0.  1.
       -3    1    3    3    0  502 -0.11577945723E+04  0.68496886816E+03 -0.85666466266E+03  0.15948495153E+04  0.10100000352E+00 0. -1.
</event>
<event>
 5   0  0.1732312E-06  0.2701028E+04  0.7818609E-02  0.8334672E-01
       -1   -1    0    0    0  501  0.00000000000E+00  0.00000000000E+00  0.89424935904E+03  0.89424935906E+03  0.50400001928E-02 0.  1.
        1   -1    0    0  501    0  0.00000000000E+00  0.00000000000E+00 -0.20395740135E+04  0.20395740135E+04  0.50400001928E-02 0. -1.
    10030    2    1    2    0    0  0.00000000000E+00  0.00000000000E+00 -0.11453246545E+04  0.29338233726E+04  0.27010277706E+04 0.  0.
        5    1    3    3  502    0  0.74885496411E+03  0.91456849072E+03  0.13681569826E+03  0.11899411358E+04  0.46999998093E+01 0.  1.
       -5    1    3    3    0  502 -0.74885496411E+03 -0.91456849072E+03 -0.12821403527E+04  0.17438822367E+04  0.46999998093E+01 0. -1.
</event>
<event>
 5   0  0.4401659E-06  0.2707805E+04  0.7818609E-02  0.8332477E-01
       -2   -1    0    0    0  501  0.00000000000E+00  0.00000000000E+00  0.91855726056E+03  0.91855726057E+03  0.25500000920E-02 0. -1.
        2   -1    0    0  501    0  0.00000000000E+00  0.00000000000E+00 -0.19955778529E+04  0.19955778529E+04  0.25500000920E-02 0.  1.
    10030    2    1    2    0    0  0.00000000000E+00  0.00000000000E+00 -0.10770205923E+04  0.29141351135E+04  0.27078054035E+04 0.  0.
        5    1    3    3  502    0  0.22557827985E+03  0.56120116607E+03  0.76506648168E+03  0.97528514831E+03  0.46999998093E+01 0. -1.
       -5    1    3    3    0  502 -0.22557827985E+03 -0.56120116607E+03 -0.18420870740E+04  0.19388499652E+04  0.46999998093E+01 0.  1.
</event>
<event>
 5   0  0.1753474E-06  0.2707205E+04  0.7818609E-02  0.8332671E-01
        1   -1    0    0  501    0  0.00000000000E+00  0.00000000000E+00  0.18868531859E+04  0.18868531859E+04  0.50400001928E-02 0.  1.
       -1   -1    0    0    0  501  0.00000000000E+00  0.00000000000E+00 -0.97105599496E+03  0.97105599498E+03  0.50400001928E-02 0. -1.
    10030    2    1    2    0    0  0.00000000000E+00  0.00000000000E+00  0.91579719094E+03  0.28579091809E+04  0.27072052732E+04 0.  0.
        3    1    3    3  502    0 -0.13671037140E+03 -0.12313719660E+04  0.10334780631E+04  0.16133950419E+04  0.10100000352E+00 0.  1.
       -3    1    3    3    0  502  0.13671037140E+03  0.12313719660E+04 -0.11768087216E+03  0.12445141390E+04  0.10100000352E+00 0. -1.
</event>
<event>
 5   0  0.1771016E-06  0.2677590E+04  0.7818609E-02  0.8342313E-01
        1   -1    0    0  501    0  0.00000000000E+00  0.00000000000E+00  0.22913169608E+04  0.22913169608E+04  0.50400001928E-02 0.  1.
       -1   -1    0    0    0  501  0.00000000000E+00  0.00000000000E+00 -0.78224515607E+03  0.78224515609E+03  0.50400001928E-02 0. -1.
    10030    2    1    2    0    0  0.00000000000E+00  0.00000000000E+00  0.15090718047E+04  0.30735621169E+04  0.26775896576E+04 0.  0.
        2    1    3    3  502    0  0.62284775373E+03 -0.80152703466E+03 -0.24747319189E+03  0.10448099791E+04  0.25500000920E-02 0. -1.
       -2    1    3    3    0  502 -0.62284775373E+03  0.80152703466E+03  0.17565449966E+04  0.20287521378E+04  0.25500000920E-02 0.  1.
</event>
<event>
 5   0  0.4448804E-06  0.2705143E+04  0.7818609E-02  0.8333338E-01
        2   -1    0    0  501    0  0.00000000000E+00  0.00000000000E+00  0.23392085173E+04  0.23392085173E+04  0.25500000920E-02 0. -1.
       -2   -1    0    0    0  501  0.00000000000E+00  0.00000000000E+00 -0.78208088129E+03  0.78208088129E+03  0.25500000920E-02 0.  1.
    10030    2    1    2    0    0  0.00000000000E+00  0.00000000000E+00  0.15571276360E+04  0.31212893986E+04  0.27051434407E+04 0.  0.
        2    1    3    3  502    0  0.12578778482E+04  0.29165574570E+03  0.12431605008E+04  0.17924195340E+04  0.25500000920E-02 0.  1.
       -2    1    3    3    0  502 -0.12578778482E+04 -0.29165574570E+03  0.31396713526E+03  0.13288698646E+04  0.25500000920E-02 0. -1.
</event>
<event>
 5   0  0.4448804E-06  0.2703282E+04  0.7818609E-02  0.8333941E-01
        2   -1    0    0  501    0  0.00000000000E+00  0.00000000000E+00  0.14133934132E+04  0.14133934132E+04  0.25500000920E-02 0.  1.
       -2   -1    0    0    0  501  0.00000000000E+00  0.00000000000E+00 -0.12925861462E+04  0.12925861462E+04  0.25500000920E-02 0. -1.
    10030    2    1    2    0    0  0.00000000000E+00  0.00000000000E+00  0.12080726699E+03  0.27059795594E+04  0.27032815207E+04 0.  0.
        2    1    3    3  502    0  0.32969321202E+03  0.10254055054E+04  0.87778378723E+03  0.13894813571E+04  0.25500000920E-02 0.  1.
       -2    1    3    3    0  502 -0.32969321202E+03 -0.10254055054E+04 -0.75697652024E+03  0.13164982023E+04  0.25500000920E-02 0. -1.
</event>
<event>
 5   0  0.4439357E-06  0.2664195E+04  0.7818609E-02  0.8346717E-01
       -2   -1    0    0    0  501  0.00000000000E+00  0.00000000000E+00  0.87422651651E+03  0.87422651652E+03  0.25500000920E-02 0.  1.
        2   -1    0    0  501    0  0.00000000000E+00  0.00000000000E+00 -0.20297757778E+04  0.20297757778E+04  0.25500000920E-02 0. -1.
    10030    2    1    2    0    0  0.00000000000E+00  0.00000000000E+00 -0.11555492612E+04  0.29040022943E+04  0.26641950435E+04 0.  0.
        4    1    3    3  502    0 -0.11987489548E+04 -0.26576383073E+03 -0.11408502969E+04  0.16760580191E+04  0.12699999809E+01 0. -1.
       -4    1    3    3    0  502  0.11987489548E+04  0.26576383073E+03 -0.14698964303E+02  0.12279442752E+04  0.12699999809E+01 0.  1.
</event>
<event>
 5   0  0.4655882E-06  0.2735861E+04  0.7818609E-02  0.8323462E-01
       -2   -1    0    0    0  501  0.00000000000E+00  0.00000000000E+00  0.10081862350E+04  0.10081862350E+04  0.25500000920E-02 0.  1.
        2   -1    0    0  501    0  0.00000000000E+00  0.00000000000E+00 -0.18560403699E+04  0.18560403699E+04  0.25500000920E-02 0. -1.
    10030    2    1    2    0    0  0.00000000000E+00  0.00000000000E+00 -0.84785413485E+03  0.28642266049E+04  0.27358613653E+04 0.  0.
        1    1    3    3  502    0  0.11364535055E+04  0.32854773342E+03  0.29515053943E+03  0.12192555205E+04  0.50400001928E-02 0. -1.
       -1    1    3    3    0  502 -0.11364535055E+04 -0.32854773342E+03 -0.11430046743E+04  0.16449710845E+04  0.50400001928E-02 0.  1.
</event>
<event>
 5   0  0.1771016E-06  0.2655990E+04  0.7818609E-02  0.8349428E-01
        1   -1    0    0  501    0  0.00000000000E+00  0.00000000000E+00  0.17611732136E+04  0.17611732136E+04  0.50400001928E-02 0.  1.
       -1   -1    0    0    0  501  0.00000000000E+00  0.00000000000E+00 -0.10013612450E+04  0.10013612450E+04  0.50400001928E-02 0. -1.
    10030    2    1    2    0    0  0.00000000000E+00  0.00000000000E+00  0.75981196856E+03  0.27625344586E+04  0.26559899110E+04 0.  0.
        2    1    3    3  502    0 -0.29555742759E+03 -0.97707938479E+03 -0.50359933181E+03  0.11382664908E+04  0.25500000920E-02 0. -1.
       -2    1    3    3    0  502  0.29555742759E+03  0.97707938479E+03  0.12634113004E+04  0.16242679678E+04  0.25500000920E-02 0.  1.
</event>
<event>
 5   0  0.4439357E-06  0.2678114E+04  0.7818609E-02  0.8342141E-01
        2   -1    0    0  501    0  0.00000000000E+00  0.00000000000E+00  0.15803678093E+04  0.15803678093E+04  0.25500000920E-02 0.  1.
       -2   -1    0    0    0  501  0.00000000000E+00  0.00000000000E+00 -0.11345922090E+04  0.11345922090E+04  0.25500000920E-02 0. -1.
    10030    2    1    2    0    0  0.00000000000E+00  0.00000000000E+00  0.44577560026E+03  0.27149600183E+04  0.26781135180E+04 0.  0.
        4    1    3    3  502    0  0.91089456043E+03  0.37828515309E+03  0.11410209730E+04  0.15082304304E+04  0.12699999809E+01 0.  1.
       -4    1    3    3    0  502 -0.91089456043E+03 -0.37828515309E+03 -0.69524537276E+03  0.12067295880E+04  0.12699999809E+01 0. -1.
</event>
<event>
 5   0  0.4487186E-06  0.2531020E+04  0.7818609E-02  0.8392017E-01
        2   -1    0    0  501    0  0.00000000000E+00  0.00000000000E+00  0.14973536917E+04  0.14973536917E+04  0.25500000920E-02 0.  1.
       -2   -1    0    0    0  501  0.00000000000E+00  0.00000000000E+00 -0.10695643629E+04  0.10695643629E+04  0.25500000920E-02 0. -1.
    10030    2    1    2    0    0  0.00000000000E+00  0.00000000000E+00  0.42778932876E+03  0.25669180546E+04  0.25310204640E+04 0.  0.
        3    1    3    3  502    0  0.85495287085E+03 -0.28245615407E+03  0.11157710179E+04  0.14337610906E+04  0.10100000352E+00 0.  1.
       -3    1    3    3    0  502 -0.85495287085E+03  0.28245615407E+03 -0.68798168910E+03  0.11331569640E+04  0.10100000352E+00 0. -1.
</event>
<event>
 5   0  0.1753474E-06  0.2701055E+04  0.7818609E-02  0.8334663E-01
       -1   -1    0    0    0  501  0.00000000000E+00  0.00000000000E+00  0.12603442225E+04  0.12603442225E+04  0.50400001928E-02 0.  1.
        1   -1    0    0  501    0  0.00000000000E+00  0.00000000000E+00 -0.14471636106E+04  0.14471636106E+04  0.50400001928E-02 0. -1.
    10030    2    1    2    0    0  0.00000000000E+00  0.00000000000E+00 -0.18681938812E+03  0.27075078332E+04  0.27010548278E+04 0.  0.
        3    1    3    3  502    0  0.91360624640E+03 -0.87386508013E+03 -0.56952628292E+03  0.13866061982E+04  0.10100000352E+00 0. -1.
       -3    1    3    3    0  502 -0.91360624640E+03  0.87386508013E+03  0.38270689480E+03  0.13209016350E+04  0.10100000352E+00 0.  1.
</event>
<event>
 5   0  0.4401659E-06  0.2704326E+04  0.7818609E-02  0.8333603E-01
        2   -1    0    0  501    0  0.00000000000E+00  0.00000000000E+00  0.18097088613E+04  0.18097088613E+04  0.25500000920E-02 0.  1.
       -2   -1    0    0    0  501  0.00000000000E+00  0.00000000000E+00 -0.10102973705E+04  0.10102973706E+04  0.25500000920E-02 0. -1.
    10030    2    1    2    0    0  0.00000000000E+00  0.00000000000E+00  0.79941149070E+03  0.28200062318E+04  0.27043255011E+04 0.  0.
        5    1    3    3  502    0 -0.44305148889E+03  0.95130861805E+03  0.12888455435E+04  0.16620552438E+04  0.46999998093E+01 0.  1.
       -5    1    3    3    0  502  0.44305148889E+03 -0.95130861805E+03 -0.48943405276E+03  0.11579509880E+04  0.46999998093E+01 0. -1.
</event>
<event>
 5   0  0.1828511E-06  0.2705363E+04  0.7818609E-02  0.8333267E-01
       -1   -1    0    0    0  501  0.00000000000E+00  0.00000000000E+00  0.10895229461E+04  0.10895229461E+04  0.50400001928E-02 0. -1.
        1   -1    0    0  501    0  0.00000000000E+00  0.00000000000E+00 -0.16794024867E+04  0.16794024867E+04  0.50400001928E-02 0.  1.
    10030    2    1    2    0    0  0.00000000000E+00  0.00000000000E+00 -0.58987954066E+03  0.27689254328E+04  0.27053632252E+04 0.  0.
        4    1    3    3  502    0 -0.74149789051E+03  0.11288610885E+04 -0.21835216383E+03  0.13681468339E+04  0.12699999809E+01 0.  1.
       -4    1    3    3    0  502  0.74149789051E+03 -0.11288610885E+04 -0.37152737683E+03  0.14007785990E+04  0.12699999809E+01 0. -1.
</event>
<event>
 5   0  0.4655882E-06  0.2687695E+04  0.7818609E-02  0.8339008E-01
       -2   -1    0    0    0  501  0.00000000000E+00  0.00000000000E+00  0.10405050252E+04  0.10405050252E+04  0.25500000920E-02 0. -1.
        2   -1    0    0  501    0  0.00000000000E+00  0.00000000000E+00 -0.17356249191E+04  0.17356249192E+04  0.25500000920E-02 0.  1.
    10030    2    1    2    0    0  0.00000000000E+00  0.00000000000E+00 -0.69511989393E+03  0.27761299444E+04  0.26876952582E+04 0.  0.
        1    1    3    3  502    0 -0.96080334214E+03  0.93063059173E+03 -0.21403907610E+03  0.13546324545E+04  0.50400001928E-02 0. -1.
       -1    1    3    3    0  502  0.96080334214E+03 -0.93063059173E+03 -0.48108081782E+03  0.14214974899E+04  0.50400001928E-02 0.  1.
</event>
<event>
 5   0  0.4448804E-06  0.2712403E+04  0.7818609E-02  0.8330992E-01
       -2   -1    0    0    0  501  0.00000000000E+00  0.00000000000E+00  0.10670847859E+04  0.10670847859E+04  0.25500000920E-02 0.  1.
        2   -1    0    0  501    0  0.00000000000E+00  0.00000000000E+00 -0.17236520249E+04  0.17236520249E+04  0.25500000920E-02 0. -1.
    10030    2    1    2    0    0  0.00000000000E+00  0.00000000000E+00 -0.65656723902E+03  0.27907368107E+04  0.27124032531E+04 0.  0.
        2    1    3    3  502    0 -0.98010160333E+03 -0.12416994976E+03 -0.12842372402E+04  0.16202723902E+04  0.25500000920E-02 0. -1.
       -2    1    3    3    0  502  0.98010160333E+03  0.12416994976E+03  0.62767000122E+03  0.11704644205E+04  0.25500000920E-02 0.  1.
</event>
<event>
 5   0  0.1732312E-06  0.2681316E+04  0.7818609E-02  0.8341093E-01
        1   -1    0    0  501    0  0.00000000000E+00  0.00000000000E+00  0.11549523293E+04  0.11549523293E+04  0.50400001928E-02 0.  1.
       -1   -1    0    0    0  501  0.00000000000E+00  0.00000000000E+00 -0.15562231474E+04  0.15562231474E+04  0.50400001928E-02 0. -1.
    10030    2    1    2    0    0  0.00000000000E+00  0.00000000000E+00 -0.40127081807E+03  0.27111754767E+04  0.26813157584E+04 0.  0.
        5    1    3    3  502    0  0.79866140552E+03  0.39818421986E+03 -0.12122420734E+04  0.15053118109E+04  0.46999998093E+01 0. -1.
       -5    1    3    3    0  502 -0.79866140552E+03 -0.39818421986E+03  0.81097125530E+03  0.12058636658E+04  0.46999998093E+01 0.  1.
</event>
<event>
 5   0  0.4439357E-06  0.2700612E+04  0.7818609E-02  0.8334806E-01
       -2   -1    0    0    0  501  0.00000000000E+00  0.00000000000E+00  0.15457690577E+04  0.15457690577E+04  0.25500000920E-02 0. -1.
        2   -1    0    0  501    0  0.00000000000E+00  0.00000000000E+00 -0.11795597510E+04  0.11795597510E+04  0.25500000920E-02 0.  1.
    10030    2    1    2    0    0  0.00000000000E+00  0.00000000000E+00  0.36620930668E+03  0.27253288088E+04  0.27006124971E+04 0.  0.
        4    1    3    3  502    0  0.56696156446E+03  0.39199117285E+03  0.13548614380E+04  0.15201163193E+04  0.12699999809E+01 0. -1.
       -4    1    3    3    0  502 -0.56696156446E+03 -0.39199117285E+03 -0.98865213129E+03  0.12052124895E+04  0.12699999809E+01 0.  1.
</event>
<event>
 5   0  0.4401659E-06  0.2709833E+04  0.7818609E-02  0.8331822E-01
        2   -1    0    0  501    0  0.00000000000E+00  0.00000000000E+00  0.14109542220E+04  0.14109542220E+04  0.25500000920E-02 0.  1.
       -2   -1    0    0    0  501  0.00000000000E+00  0.00000000000E+00 -0.13011043470E+04  0.13011043470E+04  0.25500000920E-02 0. -1.
    10030    2    1    2    0    0  0.00000000000E+00  0.00000000000E+00  0.10984987502E+03  0.27120585691E+04  0.27098329629E+04 0.  0.
        5    1    3    3  502    0 -0.11610494645E+04 -0.24464803307E+03 -0.59974383873E+03  0.13295124224E+04  0.46999998093E+01 0. -1.
       -5    1    3    3    0  502  0.11610494645E+04  0.24464803307E+03  0.70959371375E+03  0.13825461467E+04  0.46999998093E+01 0.  1.
</event>
<event>
 5   0  0.1828511E-06  0.2690395E+04  0.7818609E-02  0.8338128E-01
       -1   -1    0    0    0  501  0.00000000000E+00  0.00000000000E+00  0.17299321184E+04  0.17299321184E+04  0.50400001928E-02 0. -1.
        1   -1    0    0  501    0  0.00000000000E+00  0.00000000000E+00 -0.10460271073E+04  0.10460271073E+04  0.50400001928E-02 0.  1.
    10030    2    1    2    0    0  0.00000000000E+00  0.00000000000E+00  0.68390501109E+03  0.27759592257E+04  0.26903946846E+04 0.  0.
        4    1    3    3  502    0  0.41953793842E+03  0.29334456616E+03  0.16254977293E+04  0.17042029213E+04  0.12699999809E+01 0. -1.
       -4    1    3    3    0  502 -0.41953793842E+03 -0.29334456616E+03 -0.94159271816E+03  0.10717563044E+04  0.12699999809E+01 0.  1.
</event>
<event>
 5   0  0.4487186E-06  0.2695010E+04  0.7818609E-02  0.8336626E-01
        2   -1    0    0  501    0  0.00000000000E+00  0.00000000000E+00  0.18766994391E+04  0.18766994391E+04  0.25500000920E-02 0.  1.
       -2   -1    0    0    0  501  0.00000000000E+00  0.00000000000E+00 -0.96753360026E+03  0.96753360027E+03  0.25500000920E-02 0. -1.
    10030    2    1    2    0    0  0.00000000000E+00  0.00000000000E+00  0.90916583879E+03  0.28442330393E+04  0.26950100296E+04 0.  0.
        3    1    3    3  502    0  0.10900257545E+03 -0.13359556144E+03  0.18650093335E+04  0.18729626691E+04  0.10100000352E+00 0.  1.
       -3    1    3    3    0  502 -0.10900257545E+03  0.13359556144E+03 -0.95584349472E+03  0.97127037024E+03  0.10100000352E+00 0. -1.
</event>
<event>
 5   0  0.1482875E-06  0.2743532E+04  0.7818609E-02  0.8321017E-01
        3   -1    0    0  501    0  0.00000000000E+00  0.00000000000E+00  0.19385085274E+04  0.19385085301E+04  0.10100000352E+00 0. -1.
       -3   -1    0    0    0  501  0.00000000000E+00  0.00000000000E+00 -0.97071664939E+03  0.97071665464E+03  0.10100000352E+00 0.  1.
    10030    2    1    2    0    0  0.00000000000E+00  0.00000000000E+00  0.96779187803E+03  0.29092251847E+04  0.27435324048E+04 0.  0.
        3    1    3    3  502    0 -0.97716181559E+03  0.27613636798E+03  0.14619022911E+04  0.17799592204E+04  0.10100000352E+00 0. -1.
       -3    1    3    3    0  502  0.97716181559E+03 -0.27613636798E+03 -0.49411041303E+03  0.11292659643E+04  0.10100000352E+00 0.  1.
</event>
<event>
 5   0  0.1753474E-06  0.2693747E+04  0.7818609E-02  0.8337037E-01
        1   -1    0    0  501    0  0.00000000000E+00  0.00000000000E+00  0.13662242679E+04  0.13662242680E+04  0.50400001928E-02 0. -1.
       -1   -1    0    0    0  501  0.00000000000E+00  0.00000000000E+00 -0.13277965720E+04  0.13277965720E+04  0.50400001928E-02 0.  1.
    10030    2    1    2    0    0  0.00000000000E+00  0.00000000000E+00  0.38427695980E+02  0.26940208399E+04  0.26937467584E+04 0.  0.
        3    1    3    3  502    0  0.57484350980E+03  0.71042769341E+03  0.10087160133E+04  0.13611247460E+04  0.10100000352E+00 0. -1.
       -3    1    3    3    0  502 -0.57484350980E+03 -0.71042769341E+03 -0.97028831735E+03  0.13328960940E+04  0.10100000352E+00 0.  1.
</event>
<event>
 5   0  0.1753474E-06  0.2703042E+04  0.7818609E-02  0.8334019E-01
        1   -1    0    0  501    0  0.00000000000E+00  0.00000000000E+00  0.11352680907E+04  0.11352680907E+04  0.50400001928E-02 0.  1.
       -1   -1    0    0    0  501  0.00000000000E+00  0.00000000000E+00 -0.16089668421E+04  0.16089668421E+04  0.50400001928E-02 0. -1.
    10030    2    1    2    0    0  0.00000000000E+00  0.00000000000E+00 -0.47369875138E+03  0.27442349328E+04  0.27030417791E+04 0.  0.
        3    1    3    3  502    0  0.96867092554E+03  0.62051590576E+03 -0.95705816456E+03  0.14964369990E+04  0.10100000352E+00 0.  1.
       -3    1    3    3    0  502 -0.96867092554E+03 -0.62051590576E+03  0.48335941318E+03  0.12477979339E+04  0.10100000352E+00 0. -1.
</event>
<event>
 5   0  0.1723605E-06  0.2697916E+04  0.7818609E-02  0.8335682E-01
        1   -1    0    0  501    0  0.00000000000E+00  0.00000000000E+00  0.20150636520E+04  0.20150636520E+04  0.50400001928E-02 0. -1.
       -1   -1    0    0    0  501  0.00000000000E+00  0.00000000000E+00 -0.90304201489E+03  0.90304201491E+03  0.50400001928E-02 0.  1.
    10030    2    1    2    0    0  0.00000000000E+00  0.00000000000E+00  0.11120216371E+04  0.29181056669E+04  0.26979155957E+04 0.  0.
        1    1    3    3  502    0  0.62883267586E+03  0.11764243808E+04  0.33892588114E+03  0.13763268547E+04  0.50400001928E-02 0.  1.
       -1    1    3    3    0  502 -0.62883267586E+03 -0.11764243808E+04  0.77309575592E+03  0.15417788122E+04  0.50400001928E-02 0. -1.
</event>
<event>
 5   0  0.4487186E-06  0.2698017E+04  0.7818609E-02  0.8335649E-01
       -2   -1    0    0    0  501  0.00000000000E+00  0.00000000000E+00  0.10121210140E+04  0.10121210140E+04  0.25500000920E-02 0. -1.
        2   -1    0    0  501    0  0.00000000000E+00  0.00000000000E+00 -0.17980295645E+04  0.17980295645E+04  0.25500000920E-02 0.  1.
    10030    2    1    2    0    0  0.00000000000E+00  0.00000000000E+00 -0.78590855048E+03  0.28101505785E+04  0.26980166835E+04 0.  0.
        3    1    3    3  502    0  0.88413331772E+03  0.99800978227E+03 -0.60668577884E+03  0.14648491026E+04  0.10100000352E+00 0.  1.
       -3    1    3    3    0  502 -0.88413331772E+03 -0.99800978227E+03 -0.17922277164E+03  0.13453014759E+04  0.10100000352E+00 0. -1.
</event>
<event>
 5   0  0.4487186E-06  0.2699159E+04  0.7818609E-02  0.8335278E-01
       -2   -1    0    0    0  501  0.00000000000E+00  0.00000000000E+00  0.14309813502E+04  0.14309813502E+04  0.25500000920E-02 0. -1.
        2   -1    0    0  501    0  0.00000000000E+00  0.00000000000E+00 -0.12728081604E+04  0.12728081604E+04  0.25500000920E-02 0.  1.
    10030    2    1    2    0    0  0.00000000000E+00  0.00000000000E+00  0.15817318978E+03  0.27037895106E+04  0.26991589356E+04 0.  0.
        3    1    3    3  502    0  0.11769002545E+04 -0.45574141701E+03 -0.39982384269E+03  0.13238782284E+04  0.10100000352E+00 0.  1.
       -3    1    3    3    0  502 -0.11769002545E+04  0.45574141701E+03  0.55799703247E+03  0.13799112822E+04  0.10100000352E+00 0. -1.
</event>
<event>
 5   0  0.4401659E-06  0.2670278E+04  0.7818609E-02  0.8344714E-01
       -2   -1    0    0    0  501  0.00000000000E+00  0.00000000000E+00  0.99057488491E+03  0.99057488492E+03  0.25500000920E-02 0. -1.
        2   -1    0    0  501    0  0.00000000000E+00  0.00000000000E+00 -0.17995574608E+04  0.17995574608E+04  0.25500000920E-02 0.  1.
    10030    2    1    2    0    0  0.00000000000E+00  0.00000000000E+00 -0.80898257593E+03  0.27901323458E+04  0.26702782062E+04 0.  0.
        5    1    3    3  502    0  0.24837687161E+03  0.10358544170E+04  0.43655240702E+03  0.11512104662E+04  0.46999998093E+01 0. -1.
       -5    1    3    3    0  502 -0.24837687161E+03 -0.10358544170E+04 -0.12455349829E+04  0.16389218795E+04  0.46999998093E+01 0.  1.
</event>
<event>
 5   0  0.1828511E-06  0.2700261E+04  0.7818609E-02  0.8334920E-01
       -1   -1    0    0    0  501  0.00000000000E+00  0.00000000000E+00  0.92958328456E+03  0.92958328457E+03  0.50400001928E-02 0.  1.
        1   -1    0    0  501    0  0.00000000000E+00  0.00000000000E+00 -0.19609356266E+04  0.19609356266E+04  0.50400001928E-02 0. -1.
    10030    2    1    2    0    0  0.00000000000E+00  0.00000000000E+00 -0.10313523420E+04  0.28905189111E+04  0.27002614544E+04 0.  0.
        4    1    3    3  502    0  0.72445879853E+03 -0.80135716314E+03 -0.13825744194E+04  0.17545733076E+04  0.12699999809E+01 0. -1.
       -4    1    3    3    0  502 -0.72445879853E+03  0.80135716314E+03  0.35122207738E+03  0.11359456035E+04  0.12699999809E+01 0.  1.
</event>
<event>
 5   0  0.1723605E-06  0.2703756E+04  0.7818609E-02  0.8333787E-01
       -1   -1    0    0    0  501  0.00000000000E+00  0.00000000000E+00  0.10207659542E+04  0.10207659542E+04  0.50400001928E-02 0.  1.
        1   -1    0    0  501    0  0.00000000000E+00  0.00000000000E+00 -0.17903946138E+04  0.17903946138E+04  0.50400001928E-02 0. -1.
    10030    2    1    2    0    0  0.00000000000E+00  0.00000000000E+00 -0.76962865961E+03  0.28111605680E+04  0.27037558073E+04 0.  0.
        1    1    3    3  502    0  0.49458193551E+03  0.68172470650E+03  0.71464874879E+03  0.11045735379E+04  0.50400001928E-02 0.  1.
       -1    1    3    3    0  502 -0.49458193551E+03 -0.68172470650E+03 -0.14842774084E+04  0.17065870302E+04  0.50400001928E-02 0. -1.
</event>
<event>
 5   0  0.4448804E-06  0.2691945E+04  0.7818609E-02  0.8337623E-01
       -2   -1    0    0    0  501  0.00000000000E+00  0.00000000000E+00  0.10057680273E+04  0.10057680273E+04  0.25500000920E-02 0. -1.
        2   -1    0    0  501    0  0.00000000000E+00  0.00000000000E+00 -0.18012526321E+04  0.18012526321E+04  0.25500000920E-02 0.  1.
    10030    2    1    2    0    0  0.00000000000E+00  0.00000000000E+00 -0.79548460475E+03  0.28070206594E+04  0.26919452494E+04 0.  0.
        2    1    3    3  502    0 -0.98490385298E+03  0.91154111036E+03 -0.28988207018E+03  0.13729437025E+04  0.25500000920E-02 0. -1.
       -2    1    3    3    0  502  0.98490385298E+03 -0.91154111036E+03 -0.50560253457E+03  0.14340769570E+04  0.25500000920E-02 0.  1.
</event>
<event>
 5   0  0.4487186E-06  0.2698668E+04  0.7818609E-02  0.8335437E-01
        2   -1    0    0  501    0  0.00000000000E+00  0.00000000000E+00  0.16434070476E+04  0.16434070476E+04  0.25500000920E-02 0.  1.
       -2   -1    0    0    0  501  0.00000000000E+00  0.00000000000E+00 -0.11078828134E+04  0.11078828134E+04  0.25500000920E-02 0. -1.
    10030    2    1    2    0    0  0.00000000000E+00  0.00000000000E+00  0.53552423419E+03  0.27512898610E+04  0.26986681333E+04 0.  0.
        3    1    3    3  502    0  0.27668327800E+03  0.12267123216E+04  0.76651049564E+03  0.14727237033E+04  0.10100000352E+00 0.  1.
       -3    1    3    3    0  502 -0.27668327800E+03 -0.12267123216E+04 -0.23098626145E+03  0.12785661576E+04  0.10100000352E+00 0. -1.
</event>
<event>
 5   0  0.1723605E-06  0.2704743E+04  0.7818609E-02  0.8333468E-01
       -1   -1    0    0    0  501  0.00000000000E+00  0.00000000000E+00  0.75037624813E+03  0.75037624815E+03  0.50400001928E-02 0.  1.
        1   -1    0    0  501    0  0.00000000000E+00  0.00000000000E+00 -0.24373216877E+04  0.24373216877E+04  0.50400001928E-02 0. -1.
    10030    2    1    2    0    0  0.00000000000E+00  0.00000000000E+00 -0.16869454396E+04  0.31876979359E+04  0.27047427261E+04 0.  0.
        1    1    3    3  502    0 -0.49721258149E+03  0.30291400031E+03 -0.22820536093E+04  0.23551530563E+04  0.50400001928E-02 0. -1.
       -1    1    3    3    0  502  0.49721258149E+03 -0.30291400031E+03  0.59510816974E+03  0.83254487956E+03  0.50400001928E-02 0.  1.
</event>
<event>
 5   0  0.4401659E-06  0.2713412E+04  0.7818609E-02  0.8330666E-01
        2   -1    0    0  501    0  0.00000000000E+00  0.00000000000E+00  0.17960503599E+04  0.17960503599E+04  0.25500000920E-02 0.  1.
       -2   -1    0    0    0  501  0.00000000000E+00  0.00000000000E+00 -0.10248324482E+04  0.10248324482E+04  0.25500000920E-02 0. -1.
    10030    2    1    2    0    0  0.00000000000E+00  0.00000000000E+00  0.77121791170E+03  0.28208828081E+04  0.27134116440E+04 0.  0.
        5    1    3    3  502    0 -0.78695388608E+03 -0.33508553650E+03 -0.70921652283E+03  0.11111205613E+04  0.46999998093E+01 0. -1.
       -5    1    3    3    0  502  0.78695388608E+03  0.33508553650E+03  0.14804344345E+04  0.17097622468E+04  0.46999998093E+01 0.  1.
</event>
<event>
 5   0  0.1723605E-06  0.2696564E+04  0.7818609E-02  0.8336121E-01
        1   -1    0    0  501    0  0.00000000000E+00  0.00000000000E+00  0.18937517038E+04  0.18937517038E+04  0.50400001928E-02 0. -1.
       -1   -1    0    0    0  501  0.00000000000E+00  0.00000000000E+00 -0.95992758062E+03  0.95992758063E+03  0.50400001928E-02 0.  1.
    10030    2    1    2    0    0  0.00000000000E+00  0.00000000000E+00  0.93382412315E+03  0.28536792844E+04  0.26965641037E+04 0.  0.
        1    1    3    3  502    0  0.75344951156E+03 -0.69949410447E+03  0.13900238613E+04  0.17289142557E+04  0.50400001928E-02 0. -1.
       -1    1    3    3    0  502 -0.75344951156E+03  0.69949410447E+03 -0.45619973813E+03  0.11247650287E+04  0.50400001928E-02 0.  1.
</event>
<event>
 5   0  0.1732312E-06  0.2711406E+04  0.7818609E-02  0.8331313E-01
        1   -1    0    0  501    0  0.00000000000E+00  0.00000000000E+00  0.22289824255E+04  0.22289824255E+04  0.50400001928E-02 0.  1.
       -1   -1    0    0    0  501  0.00000000000E+00  0.00000000000E+00 -0.82456063314E+03  0.82456063316E+03  0.50400001928E-02 0. -1.
    10030    2    1    2    0    0  0.00000000000E+00  0.00000000000E+00  0.14044217924E+04  0.30535430587E+04  0.27114063953E+04 0.  0.
        5    1    3    3  502    0  0.94582398506E+03  0.97073315864E+03  0.73788079816E+03  0.15431772543E+04  0.46999998093E+01 0. -1.
       -5    1    3    3    0  502 -0.94582398506E+03 -0.97073315864E+03  0.66654099423E+03  0.15103658044E+04  0.46999998093E+01 0.  1.
</event>
<event>
 5   0  0.4448804E-06  0.2706411E+04  0.7818609E-02  0.8332928E-01
        2   -1    0    0  501    0  0.00000000000E+00  0.00000000000E+00  0.18173211775E+04  0.18173211775E+04  0.25500000920E-02 0. -1.
       -2   -1    0    0    0  501  0.00000000000E+00  0.00000000000E+00 -0.10076180337E+04  0.10076180337E+04  0.25500000920E-02 0.  1.
    10030    2    1    2    0    0  0.00000000000E+00  0.00000000000E+00  0.80970314377E+03  0.28249392112E+04  0.27064113445E+04 0.  0.
        2    1    3    3  502    0 -0.88333240706E+03 -0.32230059272E+03 -0.61091283739E+03  0.11213243546E+04  0.25500000920E-02 0.  1.
       -2    1    3    3    0  502  0.88333240706E+03  0.32230059272E+03  0.14206159812E+04  0.17036148565E+04  0.25500000920E-02 0. -1.
</event>
<event>
 5   0  0.1723605E-06  0.2694062E+04  0.7818609E-02  0.8336934E-01
       -1   -1    0    0    0  501  0.00000000000E+00  0.00000000000E+00  0.16539255584E+04  0.16539255584E+04  0.50400001928E-02 0. -1.
        1   -1    0    0  501    0  0.00000000000E+00  0.00000000000E+00 -0.10970819939E+04  0.10970819939E+04  0.50400001928E-02 0.  1.
    10030    2    1    2    0    0  0.00000000000E+00  0.00000000000E+00  0.55684356447E+03  0.27510075523E+04  0.26940615801E+04 0.  0.
        1    1    3    3  502    0 -0.24929005323E+03 -0.68341377373E+03 -0.87924926481E+03  0.11411744768E+04  0.50400001928E-02 0.  1.
       -1    1    3    3    0  502  0.24929005323E+03  0.68341377373E+03  0.14360928293E+04  0.16098330755E+04  0.50400001928E-02 0. -1.
</event>
<event>
 5   0  0.1771016E-06  0.2678254E+04  0.7818609E-02  0.8342096E-01
       -1   -1    0    0    0  501  0.00000000000E+00  0.00000000000E+00  0.13763396739E+04  0.13763396739E+04  0.50400001928E-02 0.  1.
        1   -1    0    0  501    0  0.00000000000E+00  0.00000000000E+00 -0.13029200586E+04  0.13029200587E+04  0.50400001928E-02 0. -1.
    10030    2    1    2    0    0  0.00000000000E+00  0.00000000000E+00  0.73419615286E+02  0.26792597326E+04  0.26782535867E+04 0.  0.
        2    1    3    3  502    0  0.11760533774E+04  0.60613903236E+03 -0.17013947330E+03  0.13339615862E+04  0.25500000920E-02 0. -1.
       -2    1    3    3    0  502 -0.11760533774E+04 -0.60613903236E+03  0.24355908858E+03  0.13452981464E+04  0.25500000920E-02 0.  1.
</event>
<event>
 5   0  0.4401659E-06  0.2696240E+04  0.7818609E-02  0.8336226E-01
       -2   -1    0    0    0  501  0.00000000000E+00  0.00000000000E+00  0.13500123815E+04  0.13500123815E+04  0.25500000920E-02 0. -1.
        2   -1    0    0  501    0  0.00000000000E+00  0.00000000000E+00 -0.13462303048E+04  0.13462303048E+04  0.25500000920E-02 0.  1.
    10030    2    1    2    0    0  0.00000000000E+00  0.00000000000E+00  0.37820766644E+01  0.26962426863E+04  0.26962400337E+04 0.  0.
        5    1    3    3  502    0 -0.51804857560E+03  0.10863897733E+04  0.60917116267E+03  0.13489731879E+04  0.46999998093E+01 0. -1.
       -5    1    3    3    0  502  0.51804857560E+03 -0.10863897733E+04 -0.60538908600E+03  0.13472694985E+04  0.46999998093E+01 0.  1.
</event>
<event>
 5   0  0.4439357E-06  0.2719762E+04  0.7818609E-02  0.8328621E-01
       -2   -1    0    0    0  501  0.00000000000E+00  0.00000000000E+00  0.96382431624E+03  0.96382431625E+03  0.25500000920E-02 0. -1.
        2   -1    0    0  501    0  0.00000000000E+00  0.00000000000E+00 -0.19186859924E+04  0.19186859924E+04  0.25500000920E-02 0.  1.
    10030    2    1    2    0    0  0.00000000000E+00  0.00000000000E+00 -0.95486167615E+03  0.28825103086E+04  0.27197619122E+04 0.  0.
        4    1    3    3  502    0  0.17718024689E+03  0.39381383573E+03  0.88922449424E+03  0.98853628722E+03  0.12699999809E+01 0. -1.
       -4    1    3    3    0  502 -0.17718024689E+03 -0.39381383573E+03 -0.18440861704E+04  0.18939740214E+04  0.12699999809E+01 0.  1.
</event>
<event>
 5   0  0.1771016E-06  0.2691326E+04  0.7818609E-02  0.8337825E-01
       -1   -1    0    0    0  501  0.00000000000E+00  0.00000000000E+00  0.12495467794E+04  0.12495467794E+04  0.50400001928E-02 0. -1.
        1   -1    0    0  501    0  0.00000000000E+00  0.00000000000E+00 -0.14491728749E+04  0.14491728749E+04  0.50400001928E-02 0.  1.
    10030    2    1    2    0    0  0.00000000000E+00  0.00000000000E+00 -0.19962609550E+03  0.26987196544E+04  0.26913262892E+04 0.  0.
        2    1    3    3  502    0 -0.13401083291E+03  0.12847315896E+04 -0.47809617220E+03  0.13773416826E+04  0.25500000920E-02 0.  1.
       -2    1    3    3    0  502  0.13401083291E+03 -0.12847315896E+04  0.27847007670E+03  0.13213779718E+04  0.25500000920E-02 0. -1.
</event>
<event>
 5   0  0.1732312E-06  0.2692538E+04  0.7818609E-02  0.8337430E-01
       -1   -1    0    0    0  501  0.00000000000E+00  0.00000000000E+00  0.76820267438E+03  0.76820267440E+03  0.50400001928E-02 0. -1.
        1   -1    0    0  501    0  0.00000000000E+00  0.00000000000E+00 -0.23593260541E+04  0.23593260541E+04  0.50400001928E-02 0.  1.
    10030    2    1    2    0    0  0.00000000000E+00  0.00000000000E+00 -0.15911233797E+04  0.31275287285E+04  0.26925382705E+04 0.  0.
        5    1    3    3  502    0  0.25943350797E+03  0.89105899947E+03 -0.19283756403E+04  0.21400809765E+04  0.46999998093E+01 0.  1.
       -5    1    3    3    0  502 -0.25943350797E+03 -0.89105899947E+03  0.33725226067E+03  0.98744775199E+03  0.46999998093E+01 0. -1.
</event>
<event>
 5   0  0.1771016E-06  0.2673637E+04  0.7818609E-02  0.8343610E-01
        1   -1    0    0  501    0  0.00000000000E+00  0.00000000000E+00  0.14062735384E+04  0.14062735384E+04  0.50400001928E-02 0.  1.
       -1   -1    0    0    0  501  0.00000000000E+00  0.00000000000E+00 -0.12707938274E+04  0.12707938274E+04  0.50400001928E-02 0. -1.
    10030    2    1    2    0    0  0.00000000000E+00  0.00000000000E+00  0.13547971102E+03  0.26770673658E+04  0.26736370226E+04 0.  0.
        2    1    3    3  502    0 -0.34938852292E+03  0.84903242607E+03  0.10406630980E+04  0.13877709047E+04  0.25500000920E-02 0.  1.
       -2    1    3    3    0  502  0.34938852292E+03 -0.84903242607E+03 -0.90518338695E+03  0.12892964611E+04  0.25500000920E-02 0. -1.
</event>
<event>
 5   0  0.4487186E-06  0.2688738E+04  0.7818609E-02  0.8338668E-01
        2   -1    0    0  501    0  0.00000000000E+00  0.00000000000E+00  0.93586129382E+03  0.93586129382E+03  0.25500000920E-02 0.  1.
       -2   -1    0    0    0  501  0.00000000000E+00  0.00000000000E+00 -0.19311920446E+04  0.19311920446E+04  0.25500000920E-02 0. -1.
    10030    2    1    2    0    0  0.00000000000E+00  0.00000000000E+00 -0.99533075080E+03  0.28670533384E+04  0.26887379088E+04 0.  0.
        3    1    3    3  502    0 -0.24455175799E+03  0.49401429640E+03  0.80981446565E+03  0.97961990913E+03  0.10100000352E+00 0.  1.
       -3    1    3    3    0  502  0.24455175799E+03 -0.49401429640E+03 -0.18051452165E+04  0.18874334293E+04  0.10100000352E+00 0. -1.
</event>
<event>
 5   0  0.1482875E-06  0.2705082E+04  0.7818609E-02  0.8333358E-01
        3   -1    0    0  501    0  0.00000000000E+00  0.00000000000E+00  0.13086462664E+04  0.13086462703E+04  0.10100000352E+00 0. -1.
       -3   -1    0    0    0  501  0.00000000000E+00  0.00000000000E+00 -0.13979079633E+04  0.13979079670E+04  0.10100000352E+00 0.  1.
    10030    2    1    2    0    0  0.00000000000E+00  0.00000000000E+00 -0.89261696952E+02  0.27065542373E+04  0.27050819191E+04 0.  0.
        5    1    3    3  502    0 -0.12773074183E+04  0.43286153027E+03  0.57706843467E+02  0.13499020390E+04  0.46999998093E+01 0. -1.
       -5    1    3    3    0  502  0.12773074183E+04 -0.43286153027E+03 -0.14696854042E+03  0.13566521983E+04  0.46999998093E+01 0.  1.
</event>
<event>
 5   0  0.1828511E-06  0.2697616E+04  0.7818609E-02  0.8335779E-01
       -1   -1    0    0    0  501  0.00000000000E+00  0.00000000000E+00  0.10426419896E+04  0.10426419896E+04  0.50400001928E-02 0. -1.
        1   -1    0    0  501    0  0.00000000000E+00  0.00000000000E+00 -0.17448777528E+04  0.17448777528E+04  0.50400001928E-02 0.  1.
    10030    2    1    2    0    0  0.00000000000E+00  0.00000000000E+00 -0.70223576315E+03  0.27875197424E+04  0.26976158450E+04 0.  0.
        4    1    3    3  502    0  0.58709818872E+03 -0.83732795954E+03  0.55766901509E+03  0.11648170407E+04  0.12699999809E+01 0. -1.
       -4    1    3    3    0  502 -0.58709818872E+03  0.83732795954E+03 -0.12599047782E+04  0.16227027017E+04  0.12699999809E+01 0.  1.
</event>
<event>
 5   0  0.1753474E-06  0.2693223E+04  0.7818609E-02  0.8337207E-01
        1   -1    0    0  501    0  0.00000000000E+00  0.00000000000E+00  0.21858908485E+04  0.21858908485E+04  0.50400001928E-02 0. -1.
       -1   -1    0    0    0  501  0.00000000000E+00  0.00000000000E+00 -0.82957600963E+03  0.82957600965E+03  0.50400001928E-02 0.  1.
    10030    2    1    2    0    0  0.00000000000E+00  0.00000000000E+00  0.13563148389E+04  0.30154668582E+04  0.26932230562E+04 0.  0.
        3    1    3    3  502    0  0.70155875684E+03 -0.25195543642E+03  0.19338118662E+04  0.20725092461E+04  0.10100000352E+00 0. -1.
       -3    1    3    3    0  502 -0.70155875684E+03  0.25195543642E+03 -0.57749702735E+03  0.94295761201E+03  0.10100000352E+00 0.  1.
</event>
<event>
 5   0  0.4655882E-06  0.2702796E+04  0.7818609E-02  0.8334098E-01
        2   -1    0    0  501    0  0.00000000000E+00  0.00000000000E+00  0.23608479787E+04  0.23608479787E+04  0.25500000920E-02 0.  1.
       -2   -1    0    0    0  501  0.00000000000E+00  0.00000000000E+00 -0.77356801312E+03  0.77356801313E+03  0.25500000920E-02 0. -1.
    10030    2    1    2    0    0  0.00000000000E+00  0.00000000000E+00  0.15872799656E+04  0.31344159919E+04  0.27027959451E+04 0.  0.
        1    1    3    3  502    0  0.13473116827E+03 -0.47174804792E+02  0.23520798444E+04  0.23564077628E+04  0.50400001928E-02 0.  1.
       -1    1    3    3    0  502 -0.13473116827E+03  0.47174804792E+02 -0.76479987880E+03  0.77800822910E+03  0.50400001928E-02 0. -1.
</event>
<event>
 5   0  0.1723605E-06  0.2689936E+04  0.7818609E-02  0.8338278E-01
       -1   -1    0    0    0  501  0.00000000000E+00  0.00000000000E+00  0.20831885785E+04  0.20831885785E+04  0.50400001928E-02 0.  1.
        1   -1    0    0  501    0  0.00000000000E+00  0.00000000000E+00 -0.86835109695E+03  0.86835109697E+03  0.50400001928E-02 0. -1.
    10030    2    1    2    0    0  0.00000000000E+00  0.00000000000E+00  0.12148374815E+04  0.29515396754E+04  0.26899361236E+04 0.  0.
        1    1    3    3  502    0  0.89071381594E+03 -0.18676105620E+03  0.16940248785E+04  0.19230109420E+04  0.50400001928E-02 0.  1.
       -1    1    3    3    0  502 -0.89071381594E+03  0.18676105620E+03 -0.47918739700E+03  0.10285287334E+04  0.50400001928E-02 0. -1.
</event>
<event>
 5   0  0.4487186E-06  0.2719493E+04  0.7818609E-02  0.8328708E-01
        2   -1    0    0  501    0  0.00000000000E+00  0.00000000000E+00  0.96587151741E+03  0.96587151742E+03  0.25500000920E-02 0.  1.
       -2   -1    0    0    0  501  0.00000000000E+00  0.00000000000E+00 -0.19142410382E+04  0.19142410382E+04  0.25500000920E-02 0. -1.
    10030    2    1    2    0    0  0.00000000000E+00  0.00000000000E+00 -0.94836952075E+03  0.28801125556E+04  0.27194932588E+04 0.  0.
        3    1    3    3  502    0  0.11864843451E+04 -0.26236846063E+03 -0.11204111042E+04  0.16528470477E+04  0.10100000352E+00 0. -1.
       -3    1    3    3    0  502 -0.11864843451E+04  0.26236846063E+03  0.17204158348E+03  0.12272655079E+04  0.10100000352E+00 0.  1.
</event>
<event>
 5   0  0.4487186E-06  0.2699364E+04  0.7818609E-02  0.8335211E-01
       -2   -1    0    0    0  501  0.00000000000E+00  0.00000000000E+00  0.12857988589E+04  0.12857988589E+04  0.25500000920E-02 0.  1.
        2   -1    0    0  501    0  0.00000000000E+00  0.00000000000E+00 -0.14167392053E+04  0.14167392053E+04  0.25500000920E-02 0. -1.
    10030    2    1    2    0    0  0.00000000000E+00  0.00000000000E+00 -0.13094034648E+03  0.27025380642E+04  0.26993641129E+04 0.  0.
        3    1    3    3  502    0 -0.26011834864E+03 -0.89315296737E+03 -0.10445043660E+04  0.13987040999E+04  0.10100000352E+00 0. -1.
       -3    1    3    3    0  502  0.26011834864E+03  0.89315296737E+03  0.91356401951E+03  0.13038339643E+04  0.10100000352E+00 0.  1.
</event>
<event>
 5   0  0.4439357E-06  0.2707295E+04  0.7818609E-02  0.8332642E-01
       -2   -1    0    0    0  501  0.00000000000E+00  0.00000000000E+00  0.14841327078E+04  0.14841327078E+04  0.25500000920E-02 0. -1.
        2   -1    0    0  501    0  0.00000000000E+00  0.00000000000E+00 -0.12346345538E+04  0.12346345538E+04  0.25500000920E-02 0.  1.
    10030    2    1    2    0    0  0.00000000000E+00  0.00000000000E+00  0.24949815400E+03  0.27187672616E+04  0.27072949773E+04 0.  0.
        4    1    3    3  502    0 -0.12603014737E+04 -0.45426275840E+03 -0.70097469839E+02  0.13415027866E+04  0.12699999809E+01 0.  1.
       -4    1    3    3    0  502  0.12603014737E+04  0.45426275840E+03  0.31959562384E+03  0.13772644750E+04  0.12699999809E+01 0. -1.
</event>
<event>
 5   0  0.1732312E-06  0.2625556E+04  0.7818609E-02  0.8359572E-01
        1   -1    0    0  501    0  0.00000000000E+00  0.00000000000E+00  0.11322827460E+04  0.11322827460E+04  0.50400001928E-02 0.  1.
       -1   -1    0    0    0  501  0.00000000000E+00  0.00000000000E+00 -0.15220456959E+04  0.15220456959E+04  0.50400001928E-02 0. -1.
    10030    2    1    2    0    0  0.00000000000E+00  0.00000000000E+00 -0.38976294988E+03  0.26543284419E+04  0.26255560021E+04 0.  0.
        5    1    3    3  502    0  0.54276098974E+03  0.27705499216E+03 -0.13703855373E+04  0.14997758404E+04  0.46999998093E+01 0. -1.
       -5    1    3    3    0  502 -0.54276098974E+03 -0.27705499216E+03  0.98062258740E+03  0.11545526015E+04  0.46999998093E+01 0.  1.
</event>
<event>
 5   0  0.4439357E-06  0.2699571E+04  0.7818609E-02  0.8335144E-01
        2   -1    0    0  501    0  0.00000000000E+00  0.00000000000E+00  0.15546091446E+04  0.15546091446E+04  0.25500000920E-02 0.  1.
       -2   -1    0    0    0  501  0.00000000000E+00  0.00000000000E+00 -0.11719474988E+04  0.11719474988E+04  0.25500000920E-02 0. -1.
    10030    2    1    2    0    0  0.00000000000E+00  0.00000000000E+00  0.38266164587E+03  0.27265566434E+04  0.26995705574E+04 0.  0.
        4    1    3    3  502    0 -0.43352364299E+02 -0.57183042246E+03 -0.10427877972E+04  0.11900745617E+04  0.12699999809E+01 0. -1.
       -4    1    3    3    0  502  0.43352364299E+02  0.57183042246E+03  0.14254494431E+04  0.15364820817E+04  0.12699999809E+01 0.  1.
</event>
<event>
 5   0  0.1732312E-06  0.2687693E+04  0.7818609E-02  0.8339009E-01
       -1   -1    0    0    0  501  0.00000000000E+00  0.00000000000E+00  0.74664923893E+03  0.74664923895E+03  0.50400001928E-02 0. -1.
        1   -1    0    0  501    0  0.00000000000E+00  0.00000000000E+00 -0.24187035227E+04  0.24187035227E+04  0.50400001928E-02 0.  1.
    10030    2    1    2    0    0  0.00000000000E+00  0.00000000000E+00 -0.16720542837E+04  0.31653527616E+04  0.26876927982E+04 0.  0.
        5    1    3    3  502    0 -0.61885914968E+03 -0.17977330478E+03  0.55278329600E+03  0.84905627057E+03  0.46999998093E+01 0. -1.
       -5    1    3    3    0  502  0.61885914968E+03  0.17977330478E+03 -0.22248375797E+04  0.23162964910E+04  0.46999998093E+01 0.  1.
</event>
<event>
 5   0  0.4655882E-06  0.2709784E+04  0.7818609E-02  0.8331837E-01
        2   -1    0    0  501    0  0.00000000000E+00  0.00000000000E+00  0.34497382951E+04  0.34497382951E+04  0.25500000920E-02 0.  1.
       -2   -1    0    0    0  501  0.00000000000E+00  0.00000000000E+00 -0.53213685810E+03  0.53213685811E+03  0.25500000920E-02 0. -1.
    10030    2    1    2    0    0  0.00000000000E+00  0.00000000000E+00  0.29176014370E+04  0.39818751532E+04  0.27097844177E+04 0.  0.
        1    1    3    3  502    0  0.78926759355E+03  0.43515174873E+03  0.29453609289E+04  0.30801706739E+04  0.50400001928E-02 0.  1.
       -1    1    3    3    0  502 -0.78926759355E+03 -0.43515174873E+03 -0.27759491896E+02  0.90170447934E+03  0.50400001928E-02 0. -1.
</event>
<event>
 5   0  0.1771016E-06  0.2666579E+04  0.7818609E-02  0.8345931E-01
       -1   -1    0    0    0  501  0.00000000000E+00  0.00000000000E+00  0.16098607425E+04  0.16098607425E+04  0.50400001928E-02 0. -1.
        1   -1    0    0  501    0  0.00000000000E+00  0.00000000000E+00 -0.11042322998E+04  0.11042322999E+04  0.50400001928E-02 0.  1.
    10030    2    1    2    0    0  0.00000000000E+00  0.00000000000E+00  0.50562844266E+03  0.27140930424E+04  0.26665785045E+04 0.  0.
        2    1    3    3  502    0 -0.45385312384E+03  0.84747008309E+03 -0.68748267885E+03  0.11818716654E+04  0.25500000920E-02 0.  1.
       -2    1    3    3    0  502  0.45385312384E+03 -0.84747008309E+03  0.11931111215E+04  0.15322213770E+04  0.25500000920E-02 0. -1.
</event>
<event>
 5   0  0.4401659E-06  0.2689204E+04  0.7818609E-02  0.8338516E-01
       -2   -1    0    0    0  501  0.00000000000E+00  0.00000000000E+00  0.19022849600E+04  0.19022849600E+04  0.25500000920E-02 0. -1.
        2   -1    0    0  501    0  0.00000000000E+00  0.00000000000E+00 -0.95041217235E+03  0.95041217235E+03  0.25500000920E-02 0.  1.
    10030    2    1    2    0    0  0.00000000000E+00  0.00000000000E+00  0.95187278769E+03  0.28526971324E+04  0.26892041806E+04 0.  0.
        5    1    3    3  502    0  0.11625579016E+04 -0.14809209698E+03  0.11751454754E+04  0.16596569290E+04  0.46999998093E+01 0. -1.
       -5    1    3    3    0  502 -0.11625579016E+04  0.14809209698E+03 -0.22327268773E+03  0.11930402033E+04  0.46999998093E+01 0.  1.
</event>
<event>
 5   0  0.1753474E-06  0.2698449E+04  0.7818609E-02  0.8335508E-01
       -1   -1    0    0    0  501  0.00000000000E+00  0.00000000000E+00  0.13530911487E+04  0.13530911487E+04  0.50400001928E-02 0. -1.
        1   -1    0    0  501    0  0.00000000000E+00  0.00000000000E+00 -0.13453690079E+04  0.13453690079E+04  0.50400001928E-02 0.  1.
    10030    2    1    2    0    0  0.00000000000E+00  0.00000000000E+00  0.77221408175E+01  0.26984601566E+04  0.26984491074E+04 0.  0.
        3    1    3    3  502    0  0.18114837710E+03 -0.21301018140E+03  0.13237978423E+04  0.13530073205E+04  0.10100000352E+00 0. -1.
       -3    1    3    3    0  502 -0.18114837710E+03  0.21301018140E+03 -0.13160757015E+04  0.13454528361E+04  0.10100000352E+00 0.  1.
</event>
<event>
 5   0  0.1753474E-06  0.2691569E+04  0.7818609E-02  0.8337746E-01
       -1   -1    0    0    0  501  0.00000000000E+00  0.00000000000E+00  0.56226650205E+03  0.56226650207E+03  0.50400001928E-02 0. -1.
        1   -1    0    0  501    0  0.00000000000E+00  0.00000000000E+00 -0.32211351240E+04  0.32211351240E+04  0.50400001928E-02 0.  1.
    10030    2    1    2    0    0  0.00000000000E+00  0.00000000000E+00 -0.26588686219E+04  0.37834016260E+04  0.26915693406E+04 0.  0.
        3    1    3    3  502    0  0.35144659779E+03 -0.47145867137E+03  0.37212588451E+03  0.69589199883E+03  0.10100000352E+00 0. -1.
       -3    1    3    3    0  502 -0.35144659779E+03  0.47145867137E+03 -0.30309945064E+04  0.30875096272E+04  0.10100000352E+00 0.  1.
</event>
<event>
 5   0  0.1753474E-06  0.2650694E+04  0.7818609E-02  0.8351183E-01
        1   -1    0    0  501    0  0.00000000000E+00  0.00000000000E+00  0.18395687433E+04  0.18395687433E+04  0.50400001928E-02 0. -1.
       -1   -1    0    0    0  501  0.00000000000E+00  0.00000000000E+00 -0.95486742024E+03  0.95486742025E+03  0.50400001928E-02 0.  1.
    10030    2    1    2    0    0  0.00000000000E+00  0.00000000000E+00  0.88470132309E+03  0.27944361636E+04  0.26506936906E+04 0.  0.
        3    1    3    3  502    0  0.67679637518E+03  0.43113647918E+03 -0.66965389771E+03  0.10451642694E+04  0.10100000352E+00 0.  1.
       -3    1    3    3    0  502 -0.67679637518E+03 -0.43113647918E+03  0.15543552208E+04  0.17492718942E+04  0.10100000352E+00 0. -1.
</event>
<event>
 5   0  0.1828511E-06  0.2702251E+04  0.7818609E-02  0.8334275E-01
        1   -1    0    0  501    0  0.00000000000E+00  0.00000000000E+00  0.21988753954E+04  0.21988753954E+04  0.50400001928E-02 0. -1.
       -1   -1    0    0    0  501  0.00000000000E+00  0.00000000000E+00 -0.83021535145E+03  0.83021535147E+03  0.50400001928E-02 0.  1.
    10030    2    1    2    0    0  0.00000000000E+00  0.00000000000E+00  0.13686600439E+04  0.30290907468E+04  0.27022509944E+04 0.  0.
        4    1    3    3  502    0 -0.80953026065E+03 -0.48039103936E+02 -0.52707075368E+03  0.96718777427E+03  0.12699999809E+01 0.  1.
       -4    1    3    3    0  502  0.80953026065E+03  0.48039103936E+02  0.18957307976E+04  0.20619029726E+04  0.12699999809E+01 0. -1.
</event>
<event>
 5   0  0.1732312E-06  0.2695722E+04  0.7818609E-02  0.8336394E-01
       -1   -1    0    0    0  501  0.00000000000E+00  0.00000000000E+00  0.12393304734E+04  0.12393304734E+04  0.50400001928E-02 0.  1.
        1   -1    0    0  501    0  0.00000000000E+00  0.00000000000E+00 -0.14658958722E+04  0.14658958722E+04  0.50400001928E-02 0. -1.
    10030    2    1    2    0    0  0.00000000000E+00  0.00000000000E+00 -0.22656539874E+03  0.27052263456E+04  0.26957221112E+04 0.  0.
        5    1    3    3  502    0 -0.88498145318E+03  0.10165635810E+04 -0.10258450917E+03  0.13517171887E+04  0.46999998093E+01 0.  1.
       -5    1    3    3    0  502  0.88498145318E+03 -0.10165635810E+04 -0.12398088958E+03  0.13535091569E+04  0.46999998093E+01 0. -1.
</event>
<event>
 5   0  0.4401659E-06  0.2659885E+04  0.7818609E-02  0.8348139E-01
        2   -1    0    0  501    0  0.00000000000E+00  0.00000000000E+00  0.22134070721E+04  0.22134070721E+04  0.25500000920E-02 0. -1.
       -2   -1    0    0    0  501  0.00000000000E+00  0.00000000000E+00 -0.79910605585E+03  0.79910605585E+03  0.25500000920E-02 0.  1.
    10030    2    1    2    0    0  0.00000000000E+00  0.00000000000E+00  0.14143010163E+04  0.30125131280E+04  0.26598849565E+04 0.  0.
        5    1    3    3  502    0 -0.67985906050E+03 -0.11357660709E+04  0.56143986503E+03  0.14378489913E+04  0.46999998093E+01 0. -1.
       -5    1    3    3    0  502  0.67985906050E+03  0.11357660709E+04  0.85286115123E+03  0.15746641366E+04  0.46999998093E+01 0.  1.
</event>
<event>
 5   0  0.1482875E-06  0.2701494E+04  0.7818609E-02  0.8334520E-01
       -3   -1    0    0    0  501  0.00000000000E+00  0.00000000000E+00  0.11830283747E+04  0.11830283790E+04  0.10100000352E+00 0.  1.
        3   -1    0    0  501    0  0.00000000000E+00  0.00000000000E+00 -0.15422431165E+04  0.15422431198E+04  0.10100000352E+00 0. -1.
    10030    2    1    2    0    0  0.00000000000E+00  0.00000000000E+00 -0.35921474180E+03  0.27252714988E+04  0.27014939407E+04 0.  0.
        3    1    3    3  502    0 -0.75239776521E+03  0.33274406222E+03 -0.12603425255E+04  0.15050861437E+04  0.10100000352E+00 0. -1.
       -3    1    3    3    0  502  0.75239776521E+03 -0.33274406222E+03  0.90112778372E+03  0.12201853551E+04  0.10100000352E+00 0.  1.
</event>
<event>
 5   0  0.4655882E-06  0.2700633E+04  0.7818609E-02  0.8334799E-01
       -2   -1    0    0    0  501  0.00000000000E+00  0.00000000000E+00  0.12967958767E+04  0.12967958767E+04  0.25500000920E-02 0.  1.
        2   -1    0    0  501    0  0.00000000000E+00  0.00000000000E+00 -0.14060463776E+04  0.14060463776E+04  0.25500000920E-02 0. -1.
    10030    2    1    2    0    0  0.00000000000E+00  0.00000000000E+00 -0.10925050090E+03  0.27028422543E+04  0.27006333664E+04 0.  0.
        1    1    3    3  502    0  0.31806036517E+03 -0.84321012083E+03  0.95177638463E+03  0.13107417710E+04  0.50400001928E-02 0.  1.
       -1    1    3    3    0  502 -0.31806036517E+03  0.84321012083E+03 -0.10610268855E+04  0.13921004833E+04  0.50400001928E-02 0. -1.
</event>
<event>
 5   0  0.1723605E-06  0.2694991E+04  0.7818609E-02  0.8336632E-01
       -1   -1    0    0    0  501  0.00000000000E+00  0.00000000000E+00  0.73207813581E+03  0.73207813583E+03  0.50400001928E-02 0.  1.
        1   -1    0    0  501    0  0.00000000000E+00  0.00000000000E+00 -0.24802601920E+04  0.24802601920E+04  0.50400001928E-02 0. -1.
    10030    2    1    2    0    0  0.00000000000E+00  0.00000000000E+00 -0.17481820562E+04  0.32123383279E+04  0.26949911004E+04 0.  0.
        1    1    3    3  502    0 -0.97667941933E+03  0.54715796334E+03  0.19851630668E+02  0.11196779056E+04  0.50400001928E-02 0.  1.
       -1    1    3    3    0  502  0.97667941933E+03 -0.54715796334E+03 -0.17680336869E+04  0.20926604223E+04  0.50400001928E-02 0. -1.
</event>
<event>
 5   0  0.4439357E-06  0.2720501E+04  0.7818609E-02  0.8328384E-01
       -2   -1    0    0    0  501  0.00000000000E+00  0.00000000000E+00  0.96769411168E+03  0.96769411169E+03  0.25500000920E-02 0. -1.
        2   -1    0    0  501    0  0.00000000000E+00  0.00000000000E+00 -0.19120517812E+04  0.19120517812E+04  0.25500000920E-02 0.  1.
    10030    2    1    2    0    0  0.00000000000E+00  0.00000000000E+00 -0.94435766953E+03  0.28797458929E+04  0.27205008729E+04 0.  0.
        4    1    3    3  502    0 -0.10631315384E+04 -0.40218182688E+03  0.31873946395E+03  0.11805063950E+04  0.12699999809E+01 0. -1.
       -4    1    3    3    0  502  0.10631315384E+04  0.40218182688E+03 -0.12630971335E+04  0.16992394979E+04  0.12699999809E+01 0.  1.
</event>
<event>
 5   0  0.4487186E-06  0.2701931E+04  0.7818609E-02  0.8334379E-01
       -2   -1    0    0    0  501  0.00000000000E+00  0.00000000000E+00  0.12687763989E+04  0.12687763989E+04  0.25500000920E-02 0. -1.
        2   -1    0    0  501    0  0.00000000000E+00  0.00000000000E+00 -0.14384781717E+04  0.14384781717E+04  0.25500000920E-02 0.  1.
    10030    2    1    2    0    0  0.00000000000E+00  0.00000000000E+00 -0.16970177281E+03  0.27072545706E+04  0.27019305354E+04 0.  0.
        3    1    3    3  502    0 -0.45574996070E+03  0.16110345106E+03  0.11791596826E+04  0.12743939406E+04  0.10100000352E+00 0. -1.
       -3    1    3    3    0  502  0.45574996070E+03 -0.16110345106E+03 -0.13488614554E+04  0.14328606299E+04  0.10100000352E+00 0.  1.
</event>
<event>
 5   0  0.1753474E-06  0.2697405E+04  0.7818609E-02  0.8335848E-01
       -1   -1    0    0    0  501  0.00000000000E+00  0.00000000000E+00  0.13994108661E+04  0.13994108661E+04  0.50400001928E-02 0.  1.
        1   -1    0    0  501    0  0.00000000000E+00  0.00000000000E+00 -0.12998312429E+04  0.12998312429E+04  0.50400001928E-02 0. -1.
    10030    2    1    2    0    0  0.00000000000E+00  0.00000000000E+00  0.99579623258E+02  0.26992421090E+04  0.26974046529E+04 0.  0.
        3    1    3    3  502    0  0.45708396035E+03  0.48560000328E+03  0.12228787959E+04  0.13928982984E+04  0.10100000352E+00 0.  1.
       -3    1    3    3    0  502 -0.45708396035E+03 -0.48560000328E+03 -0.11232991726E+04  0.13063438106E+04  0.10100000352E+00 0. -1.
</event>
<event>
 5   0  0.1732312E-06  0.2686862E+04  0.7818609E-02  0.8339280E-01
       -1   -1    0    0    0  501  0.00000000000E+00  0.00000000000E+00  0.10961435223E+04  0.10961435223E+04  0.50400001928E-02 0. -1.
        1   -1    0    0  501    0  0.00000000000E+00  0.00000000000E+00 -0.16465057144E+04  0.16465057144E+04  0.50400001928E-02 0.  1.
    10030    2    1    2    0    0  0.00000000000E+00  0.00000000000E+00 -0.55036219213E+03  0.27426492368E+04  0.26868617928E+04 0.  0.
        5    1    3    3  502    0  0.46994793045E+03 -0.12585362682E+04 -0.27062893262E+03  0.13704111444E+04  0.46999998093E+01 0.  1.
       -5    1    3    3    0  502 -0.46994793045E+03  0.12585362682E+04 -0.27973325951E+03  0.13722380923E+04  0.46999998093E+01 0. -1.
</event>
<event>
 5   0  0.1828511E-06  0.2715546E+04  0.7818609E-02  0.8329979E-01
       -1   -1    0    0    0  501  0.00000000000E+00  0.00000000000E+00  0.12924887672E+04  0.12924887672E+04  0.50400001928E-02 0.  1.
        1   -1    0    0  501    0  0.00000000000E+00  0.00000000000E+00 -0.14263544051E+04  0.14263544051E+04  0.50400001928E-02 0. -1.
    10030    2    1    2    0    0  0.00000000000E+00  0.00000000000E+00 -0.13386563787E+03  0.27188431724E+04  0.27155456518E+04 0.  0.
        4    1    3    3  502    0  0.25941936968E+03 -0.11738975288E+04 -0.69873920541E+03  0.13905293624E+04  0.12699999809E+01 0. -1.
       -4    1    3    3    0  502 -0.25941936968E+03  0.11738975288E+04  0.56487356754E+03  0.13283138100E+04  0.12699999809E+01 0.  1.
</event>
<event>
 5   0  0.4401659E-06  0.2700845E+04  0.7818609E-02  0.8334731E-01
        2   -1    0    0  501    0  0.00000000000E+00  0.00000000000E+00  0.15428212410E+04  0.15428212410E+04  0.25500000920E-02 0. -1.
       -2   -1    0    0    0  501  0.00000000000E+00  0.00000000000E+00 -0.11820166222E+04  0.11820166222E+04  0.25500000920E-02 0.  1.
    10030    2    1    2    0    0  0.00000000000E+00  0.00000000000E+00  0.36080461877E+03  0.27248378632E+04  0.27008445731E+04 0.  0.
        5    1    3    3  502    0 -0.11514064057E+04  0.32472844960E+03 -0.45160750873E+03  0.12787324618E+04  0.46999998093E+01 0.  1.
       -5    1    3    3    0  502  0.11514064057E+04 -0.32472844960E+03  0.81241212750E+03  0.14461054014E+04  0.46999998093E+01 0. -1.
</event>
<event>
 5   0  0.4448804E-06  0.2624853E+04  0.7818609E-02  0.8359808E-01
        2   -1    0    0  501    0  0.00000000000E+00  0.00000000000E+00  0.10268988285E+04  0.10268988285E+04  0.25500000920E-02 0. -1.
       -2   -1    0    0    0  501  0.00000000000E+00  0.00000000000E+00 -0.16773446349E+04  0.16773446349E+04  0.25500000920E-02 0.  1.
    10030    2    1    2    0    0  0.00000000000E+00  0.00000000000E+00 -0.65044580637E+03  0.27042434634E+04  0.26248529411E+04 0.  0.
        2    1    3    3  502    0  0.14436131768E+03  0.51196920134E+02 -0.16681045779E+04  0.16751221440E+04  0.25500000920E-02 0.  1.
       -2    1    3    3    0  502 -0.14436131768E+03 -0.51196920134E+02  0.10176587715E+04  0.10291213193E+04  0.25500000920E-02 0. -1.
</event>
<event>
 5   0  0.4487186E-06  0.2711824E+04  0.7818609E-02  0.8331179E-01
       -2   -1    0    0    0  501  0.00000000000E+00  0.00000000000E+00  0.99554376010E+03  0.99554376010E+03  0.25500000920E-02 0.  1.
        2   -1    0    0  501    0  0.00000000000E+00  0.00000000000E+00 -0.18467264664E+04  0.18467264664E+04  0.25500000920E-02 0. -1.
    10030    2    1    2    0    0  0.00000000000E+00  0.00000000000E+00 -0.85118270629E+03  0.28422702265E+04  0.27118237481E+04 0.  0.
        3    1    3    3  502    0 -0.90420836537E+03 -0.82992003165E+03 -0.10296269288E+04  0.16020273561E+04  0.10100000352E+00 0. -1.
       -3    1    3    3    0  502  0.90420836537E+03  0.82992003165E+03  0.17844422246E+03  0.12402428704E+04  0.10100000352E+00 0.  1.
</event>
<event>
 5   0  0.4448804E-06  0.2727954E+04  0.7818609E-02  0.8325992E-01
       -2   -1    0    0    0  501  0.00000000000E+00  0.00000000000E+00  0.99119442589E+03  0.99119442590E+03  0.25500000920E-02 0.  1.
        2   -1    0    0  501    0  0.00000000000E+00  0.00000000000E+00 -0.18769607154E+04  0.18769607154E+04  0.25500000920E-02 0. -1.
    10030    2    1    2    0    0  0.00000000000E+00  0.00000000000E+00 -0.88576628947E+03  0.28681551413E+04  0.27279538110E+04 0.  0.
        2    1    3    3  502    0 -0.87548950805E+03 -0.99267692239E+03 -0.78927512817E+03  0.15410530747E+04  0.25500000920E-02 0. -1.
       -2    1    3    3    0  502  0.87548950805E+03  0.99267692239E+03 -0.96491161302E+02  0.13271020666E+04  0.25500000920E-02 0.  1.
</event>
<event>
 5   0  0.4487186E-06  0.2669346E+04  0.7818609E-02  0.8345020E-01
        2   -1    0    0  501    0  0.00000000000E+00  0.00000000000E+00  0.17542391215E+04  0.17542391215E+04  0.25500000920E-02 0.  1.
       -2   -1    0    0    0  501  0.00000000000E+00  0.00000000000E+00 -0.10154558139E+04  0.10154558139E+04  0.25500000920E-02 0. -1.
    10030    2    1    2    0    0  0.00000000000E+00  0.00000000000E+00  0.73878330764E+03  0.27696949354E+04  0.26693462233E+04 0.  0.
        3    1    3    3  502    0 -0.65227772432E+02 -0.10024670561E+04  0.12811504487E+04  0.16280483234E+04  0.10100000352E+00 0.  1.
       -3    1    3    3    0  502  0.65227772432E+02  0.10024670561E+04 -0.54236714105E+03  0.11416466121E+04  0.10100000352E+00 0. -1.
</event>
<event>
 5   0  0.4401659E-06  0.2676617E+04  0.7818609E-02  0.8342632E-01
       -2   -1    0    0    0  501  0.00000000000E+00  0.00000000000E+00  0.90951659599E+03  0.90951659600E+03  0.25500000920E-02 0. -1.
        2   -1    0    0  501    0  0.00000000000E+00  0.00000000000E+00 -0.19692542766E+04  0.19692542766E+04  0.25500000920E-02 0.  1.
    10030    2    1    2    0    0  0.00000000000E+00  0.00000000000E+00 -0.10597376806E+04  0.28787708726E+04  0.26766168544E+04 0.  0.
        5    1    3    3  502    0 -0.30486145026E+03 -0.41440535155E+03 -0.18586440642E+04  0.19285362705E+04  0.46999998093E+01 0.  1.
       -5    1    3    3    0  502  0.30486145026E+03  0.41440535155E+03  0.79890638360E+03  0.95023460209E+03  0.46999998093E+01 0. -1.
</event>
<event>
 5   0  0.4439357E-06  0.2704878E+04  0.7818609E-02  0.8333424E-01
       -2   -1    0    0    0  501  0.00000000000E+00  0.00000000000E+00  0.62880744963E+03  0.62880744963E+03  0.25500000920E-02 0. -1.
        2   -1    0    0  501    0  0.00000000000E+00  0.00000000000E+00 -0.29088247246E+04  0.29088247246E+04  0.25500000920E-02 0.  1.
    10030    2    1    2    0    0  0.00000000000E+00  0.00000000000E+00 -0.22800172749E+04  0.35376321742E+04  0.27048775621E+04 0.  0.
        4    1    3    3  502    0 -0.30846950172E+03 -0.10356854775E+04 -0.22035672680E+04  0.24542836346E+04  0.12699999809E+01 0.  1.
       -4    1    3    3    0  502  0.30846950172E+03  0.10356854775E+04 -0.76450006943E+02  0.10833485396E+04  0.12699999809E+01 0. -1.
</event>
<event>
 5   0  0.4439357E-06  0.2697852E+04  0.7818609E-02  0.8335702E-01
        2   -1    0    0  501    0  0.00000000000E+00  0.00000000000E+00  0.22138117055E+04  0.22138117055E+04  0.25500000920E-02 0. -1.
       -2   -1    0    0    0  501  0.00000000000E+00  0.00000000000E+00 -0.82193157057E+03  0.82193157058E+03  0.25500000920E-02 0.  1.
    10030    2    1    2    0    0  0.00000000000E+00  0.00000000000E+00  0.13918801349E+04  0.30357432761E+04  0.26978522807E+04 0.  0.
        4    1    3    3  502    0  0.55090431753E+03  0.56532225156E+03 -0.53491241025E+03  0.95352908436E+03  0.12699999809E+01 0.  1.
       -4    1    3    3    0  502 -0.55090431753E+03 -0.56532225156E+03  0.19267925452E+04  0.20822141917E+04  0.12699999809E+01 0. -1.
</event>
<event>
 5   0  0.1723605E-06  0.2692644E+04  0.7818609E-02  0.8337396E-01
       -1   -1    0    0    0  501  0.00000000000E+00  0.00000000000E+00  0.10727891704E+04  0.10727891704E+04  0.50400001928E-02 0.  1.
        1   -1    0    0  501    0  0.00000000000E+00  0.00000000000E+00 -0.16895981236E+04  0.16895981236E+04  0.50400001928E-02 0. -1.
    10030    2    1    2    0    0  0.00000000000E+00  0.00000000000E+00 -0.61680895316E+03  0.27623872940E+04  0.26926437338E+04 0.  0.
        1    1    3    3  502    0 -0.11049942925E+02 -0.69458656766E+03  0.87472730430E+03  0.11170140814E+04  0.50400001928E-02 0.  1.
       -1    1    3    3    0  502  0.11049942925E+02  0.69458656766E+03 -0.14915362575E+04  0.16453732125E+04  0.50400001928E-02 0. -1.
</event>
<event>
 5   0  0.4448804E-06  0.2685730E+04  0.7818609E-02  0.8339650E-01
        2   -1    0    0  501    0  0.00000000000E+00  0.00000000000E+00  0.16519696077E+04  0.16519696077E+04  0.25500000920E-02 0. -1.
       -2   -1    0    0    0  501  0.00000000000E+00  0.00000000000E+00 -0.10915979682E+04  0.10915979682E+04  0.25500000920E-02 0.  1.
    10030    2    1    2    0    0  0.00000000000E+00  0.00000000000E+00  0.56037163950E+03  0.27435675759E+04  0.26857301929E+04 0.  0.
        2    1    3    3  502    0  0.95886590525E+03 -0.92221779080E+03  0.46681440383E+03  0.14099025376E+04  0.25500000920E-02 0.  1.
       -2    1    3    3    0  502 -0.95886590525E+03  0.92221779080E+03  0.93557235676E+02  0.13336650383E+04  0.25500000920E-02 0. -1.
</event>
<event>
 5   0  0.1732312E-06  0.2697824E+04  0.7818609E-02  0.8335711E-01
       -1   -1    0    0    0  501  0.00000000000E+00  0.00000000000E+00  0.12278975974E+04  0.12278975975E+04  0.50400001928E-02 0.  1.
        1   -1    0    0  501    0  0.00000000000E+00  0.00000000000E+00 -0.14818528989E+04  0.14818528989E+04  0.50400001928E-02 0. -1.
    10030    2    1    2    0    0  0.00000000000E+00  0.00000000000E+00 -0.25395530142E+03  0.27097504963E+04  0.26978240227E+04 0.  0.
        5    1    3    3  502    0 -0.93453990799E+03 -0.94647577262E+03  0.98425419058E+02  0.13337506817E+04  0.46999998093E+01 0.  1.
       -5    1    3    3    0  502  0.93453990799E+03  0.94647577262E+03 -0.35238072048E+03  0.13759998147E+04  0.46999998093E+01 0. -1.
</event>
<event>
 5   0  0.1723605E-06  0.2643076E+04  0.7818609E-02  0.8353715E-01
       -1   -1    0    0    0  501  0.00000000000E+00  0.00000000000E+00  0.10442447508E+04  0.10442447508E+04  0.50400001928E-02 0. -1.
        1   -1    0    0  501    0  0.00000000000E+00  0.00000000000E+00 -0.16724649230E+04  0.16724649230E+04  0.50400001928E-02 0.  1.
    10030    2    1    2    0    0  0.00000000000E+00  0.00000000000E+00 -0.62822017222E+03  0.27167096738E+04  0.26430760236E+04 0.  0.
        1    1    3    3  502    0 -0.96758533496E+02 -0.32065018699E+03  0.99989586861E+03  0.10545001206E+04  0.50400001928E-02 0. -1.
       -1    1    3    3    0  502  0.96758533496E+02  0.32065018699E+03 -0.16281160408E+04  0.16622095532E+04  0.50400001928E-02 0.  1.
</event>
<event>
 5   0  0.1732312E-06  0.2710747E+04  0.7818609E-02  0.8331526E-01
       -1   -1    0    0    0  501  0.00000000000E+00  0.00000000000E+00  0.21387169176E+04  0.21387169176E+04  0.50400001928E-02 0.  1.
        1   -1    0    0  501    0  0.00000000000E+00  0.00000000000E+00 -0.85894385642E+03  0.85894385643E+03  0.50400001928E-02 0. -1.
    10030    2    1    2    0    0  0.00000000000E+00  0.00000000000E+00  0.12797730612E+04  0.29976607741E+04  0.27107473191E+04 0.  0.
        5    1    3    3  502    0 -0.10053624124E+04  0.71583896457E+03  0.20380858354E+02  0.12343486026E+04  0.46999998093E+01 0. -1.
       -5    1    3    3    0  502  0.10053624124E+04 -0.71583896457E+03  0.12593922029E+04  0.17633121715E+04  0.46999998093E+01 0.  1.
</event>
<event>
 5   0  0.4655882E-06  0.2700777E+04  0.7818609E-02  0.8334753E-01
       -2   -1    0    0    0  501  0.00000000000E+00  0.00000000000E+00  0.93593925812E+03  0.93593925812E+03  0.25500000920E-02 0.  1.
        2   -1    0    0  501    0  0.00000000000E+00  0.00000000000E+00 -0.19483624233E+04  0.19483624233E+04  0.25500000920E-02 0. -1.
    10030    2    1    2    0    0  0.00000000000E+00  0.00000000000E+00 -0.10124231652E+04  0.28843016815E+04  0.27007768372E+04 0.  0.
        1    1    3    3  502    0  0.28862904087E+02  0.35352644194E+02  0.93511540287E+03  0.93622844082E+03  0.50400001928E-02 0.  1.
       -1    1    3    3    0  502 -0.28862904087E+02 -0.35352644194E+02 -0.19475385681E+04  0.19480732406E+04  0.50400001928E-02 0. -1.
</event>
<event>
 5   0  0.4487186E-06  0.2688467E+04  0.7818609E-02  0.8338757E-01
        2   -1    0    0  501    0  0.00000000000E+00  0.00000000000E+00  0.14981914649E+04  0.14981914649E+04  0.25500000920E-02 0.  1.
       -2   -1    0    0    0  501  0.00000000000E+00  0.00000000000E+00 -0.12060966554E+04  0.12060966554E+04  0.25500000920E-02 0. -1.
    10030    2    1    2    0    0  0.00000000000E+00  0.00000000000E+00  0.29209480951E+03  0.27042881203E+04  0.26884670093E+04 0.  0.
        3    1    3    3  502    0 -0.79729360330E+03  0.81479823560E+03 -0.57045787225E+03  0.12747530933E+04  0.10100000352E+00 0. -1.
       -3    1    3    3    0  502  0.79729360330E+03 -0.81479823560E+03  0.86255268176E+03  0.14295350271E+04  0.10100000352E+00 0.  1.
</event>
<event>
 5   0  0.4401659E-06  0.2700949E+04  0.7818609E-02  0.8334697E-01
       -2   -1    0    0    0  501  0.00000000000E+00  0.00000000000E+00  0.10600607211E+04  0.10600607211E+04  0.25500000920E-02 0.  1.
        2   -1    0    0  501    0  0.00000000000E+00  0.00000000000E+00 -0.17204494487E+04  0.17204494487E+04  0.25500000920E-02 0. -1.
    10030    2    1    2    0    0  0.00000000000E+00  0.00000000000E+00 -0.66038872760E+03  0.27805101699E+04  0.27009486358E+04 0.  0.
        5    1    3    3  502    0  0.97748094929E+02 -0.11516812921E+04  0.38883119949E+03  0.12194819722E+04  0.46999998093E+01 0. -1.
       -5    1    3    3    0  502 -0.97748094929E+02  0.11516812921E+04 -0.10492199271E+04  0.15610281977E+04  0.46999998093E+01 0.  1.
</event>
<event>
 5   0  0.1732312E-06  0.2699794E+04  0.7818609E-02  0.8335072E-01
        1   -1    0    0  501    0  0.00000000000E+00  0.00000000000E+00  0.14397130152E+04  0.14397130152E+04  0.50400001928E-02 0.  1.
       -1   -1    0    0    0  501  0.00000000000E+00  0.00000000000E+00 -0.12656838449E+04  0.12656838449E+04  0.50400001928E-02 0. -1.
    10030    2    1    2    0    0  0.00000000000E+00  0.00000000000E+00  0.17402917029E+03  0.27053968601E+04  0.26997936993E+04 0.  0.
        5    1    3    3  502    0  0.61438443518E+03 -0.66448105946E+03  0.10906900786E+04  0.14172615320E+04  0.46999998093E+01 0.  1.
       -5    1    3    3    0  502 -0.61438443518E+03  0.66448105946E+03 -0.91666090835E+03  0.12881353281E+04  0.46999998093E+01 0. -1.
</event>
<event>
 5   0  0.4487186E-06  0.2701128E+04  0.7818609E-02  0.8334639E-01
       -2   -1    0    0    0  501  0.00000000000E+00  0.00000000000E+00  0.12669710927E+04  0.12669710927E+04  0.25500000920E-02 0.  1.
        2   -1    0    0  501    0  0.00000000000E+00  0.00000000000E+00 -0.14396726916E+04  0.14396726916E+04  0.25500000920E-02 0. -1.
    10030    2    1    2    0    0  0.00000000000E+00  0.00000000000E+00 -0.17270159885E+03  0.27066437843E+04  0.27011284185E+04 0.  0.
        3    1    3    3  502    0  0.32032223969E+03  0.12790938565E+04  0.20636935671E+03  0.13346444292E+04  0.10100000352E+00 0. -1.
       -3    1    3    3    0  502 -0.32032223969E+03 -0.12790938565E+04 -0.37907095557E+03  0.13719993551E+04  0.10100000352E+00 0.  1.
</event>
<event>
 5   0  0.4439357E-06  0.2709484E+04  0.7818609E-02  0.8331934E-01
        2   -1    0    0  501    0  0.00000000000E+00  0.00000000000E+00  0.11458119093E+04  0.11458119093E+04  0.25500000920E-02 0. -1.
       -2   -1    0    0    0  501  0.00000000000E+00  0.00000000000E+00 -0.16017688866E+04  0.16017688866E+04  0.25500000920E-02 0.  1.
    10030    2    1    2    0    0  0.00000000000E+00  0.00000000000E+00 -0.45595697733E+03  0.27475807958E+04  0.27094839849E+04 0.  0.
        4    1    3    3  502    0  0.11543524597E+04 -0.13729718009E+03 -0.93342079268E+03  0.14908575070E+04  0.12699999809E+01 0.  1.
       -4    1    3    3    0  502 -0.11543524597E+04  0.13729718009E+03  0.47746381535E+03  0.12567232889E+04  0.12699999809E+01 0. -1.
</event>
<event>
 5   0  0.4401659E-06  0.2702680E+04  0.7818609E-02  0.8334136E-01
       -2   -1    0    0    0  501  0.00000000000E+00  0.00000000000E+00  0.10245297081E+04  0.10245297081E+04  0.25500000920E-02 0. -1.
        2   -1    0    0  501    0  0.00000000000E+00  0.00000000000E+00 -0.17823979214E+04  0.17823979214E+04  0.25500000920E-02 0.  1.
    10030    2    1    2    0    0  0.00000000000E+00  0.00000000000E+00 -0.75786821332E+03  0.28069276295E+04  0.27026798717E+04 0.  0.
        5    1    3    3  502    0 -0.39989965821E+03 -0.12440269275E+04 -0.73656317142E+03  0.15000233760E+04  0.46999998093E+01 0. -1.
       -5    1    3    3    0  502  0.39989965821E+03  0.12440269275E+04 -0.21305041898E+02  0.13069042535E+04  0.46999998093E+01 0.  1.
</event>
<event>
 5   0  0.1732312E-06  0.2696427E+04  0.7818609E-02  0.8336165E-01
        1   -1    0    0  501    0  0.00000000000E+00  0.00000000000E+00  0.25958985496E+04  0.25958985496E+04  0.50400001928E-02 0. -1.
       -1   -1    0    0    0  501  0.00000000000E+00  0.00000000000E+00 -0.70021232212E+03  0.70021232213E+03  0.50400001928E-02 0.  1.
    10030    2    1    2    0    0  0.00000000000E+00  0.00000000000E+00  0.18956862275E+04  0.32961108717E+04  0.26964273782E+04 0.  0.
        5    1    3    3  502    0  0.31020487108E+03 -0.42675945632E+03  0.24644595467E+04  0.25203042759E+04  0.46999998093E+01 0. -1.
       -5    1    3    3    0  502 -0.31020487108E+03  0.42675945632E+03 -0.56877331920E+03  0.77580659589E+03  0.46999998093E+01 0.  1.
</event>
<event>
 5   0  0.4487186E-06  0.2696483E+04  0.7818609E-02  0.8336147E-01
       -2   -1    0    0    0  501  0.00000000000E+00  0.00000000000E+00  0.84760886543E+03  0.84760886543E+03  0.25500000920E-02 0. -1.
        2   -1    0    0  501    0  0.00000000000E+00  0.00000000000E+00 -0.21445690022E+04  0.21445690022E+04  0.25500000920E-02 0.  1.
    10030    2    1    2    0    0  0.00000000000E+00  0.00000000000E+00 -0.12969601368E+04  0.29921778677E+04  0.26964834128E+04 0.  0.
        3    1    3    3  502    0  0.14765006951E+03  0.29639429059E+03 -0.20987438715E+04  0.21247060895E+04  0.10100000352E+00 0.  1.
       -3    1    3    3    0  502 -0.14765006951E+03 -0.29639429059E+03  0.80178373467E+03  0.86747177816E+03  0.10100000352E+00 0. -1.
</event>
<event>
 5   0  0.4655882E-06  0.2692005E+04  0.7818609E-02  0.8337604E-01
        2   -1    0    0  501    0  0.00000000000E+00  0.00000000000E+00  0.14971706429E+04  0.14971706429E+04  0.25500000920E-02 0. -1.
       -2   -1    0    0    0  501  0.00000000000E+00  0.00000000000E+00 -0.12100979191E+04  0.12100979191E+04  0.25500000920E-02 0.  1.
    10030    2    1    2    0    0  0.00000000000E+00  0.00000000000E+00  0.28707272378E+03  0.27072685620E+04  0.26920052597E+04 0.  0.
        1    1    3    3  502    0 -0.67096606450E+03  0.11662790227E+04  0.10698664680E+03  0.13497586307E+04  0.50400001928E-02 0. -1.
       -1    1    3    3    0  502  0.67096606450E+03 -0.11662790227E+04  0.18008607698E+03  0.13575099313E+04  0.50400001928E-02 0.  1.
</event>
<event>
 5   0  0.4439357E-06  0.2702611E+04  0.7818609E-02  0.8334158E-01
        2   -1    0    0  501    0  0.00000000000E+00  0.00000000000E+00  0.15718700761E+04  0.15718700761E+04  0.25500000920E-02 0. -1.
       -2   -1    0    0    0  501  0.00000000000E+00  0.00000000000E+00 -0.11616905127E+04  0.11616905127E+04  0.25500000920E-02 0.  1.
    10030    2    1    2    0    0  0.00000000000E+00  0.00000000000E+00  0.41017956345E+03  0.27335605888E+04  0.27026110002E+04 0.  0.
        4    1    3    3  502    0 -0.43706297943E+03  0.83604394676E+03 -0.77347679036E+03  0.12199432311E+04  0.12699999809E+01 0.  1.
       -4    1    3    3    0  502  0.43706297943E+03 -0.83604394676E+03  0.11836563538E+04  0.15136173578E+04  0.12699999809E+01 0. -1.
</event>
<event>
 5   0  0.4655882E-06  0.2711853E+04  0.7818609E-02  0.8331169E-01
       -2   -1    0    0    0  501  0.00000000000E+00  0.00000000000E+00  0.81324100148E+03  0.81324100148E+03  0.25500000920E-02 0. -1.
        2   -1    0    0  501    0  0.00000000000E+00  0.00000000000E+00 -0.22607526886E+04  0.22607526886E+04  0.25500000920E-02 0.  1.
    10030    2    1    2    0    0  0.00000000000E+00  0.00000000000E+00 -0.14475116871E+04  0.30739936900E+04  0.27118530790E+04 0.  0.
        1    1    3    3  502    0 -0.11178936242E+03 -0.66837623991E+03 -0.20550322906E+04  0.21638810908E+04  0.50400001928E-02 0.  1.
       -1    1    3    3    0  502  0.11178936242E+03  0.66837623991E+03  0.60752060351E+03  0.91011259926E+03  0.50400001928E-02 0. -1.
</event>
<event>
 5   0  0.4487186E-06  0.2701215E+04  0.7818609E-02  0.8334611E-01
        2   -1    0    0  501    0  0.00000000000E+00  0.00000000000E+00  0.21797249247E+04  0.21797249247E+04  0.25500000920E-02 0. -1.
       -2   -1    0    0    0  501  0.00000000000E+00  0.00000000000E+00 -0.83686733867E+03  0.83686733867E+03  0.25500000920E-02 0.  1.
    10030    2    1    2    0    0  0.00000000000E+00  0.00000000000E+00  0.13428575860E+04  0.30165922634E+04  0.27012149835E+04 0.  0.
        3    1    3    3  502    0  0.22224816750E+03 -0.54034096177E+03 -0.68843536530E+03  0.90294289150E+03  0.10100000352E+00 0.  1.
       -3    1    3    3    0  502 -0.22224816750E+03  0.54034096177E+03  0.20312929513E+04  0.21136493719E+04  0.10100000352E+00 0. -1.
</event>
<event>
 5   0  0.4448804E-06  0.2694314E+04  0.7818609E-02  0.8336852E-01
       -2   -1    0    0    0  501  0.00000000000E+00  0.00000000000E+00  0.14386694253E+04  0.14386694253E+04  0.25500000920E-02 0.  1.
        2   -1    0    0  501    0  0.00000000000E+00  0.00000000000E+00 -0.12614657172E+04  0.12614657172E+04  0.25500000920E-02 0. -1.
    10030    2    1    2    0    0  0.00000000000E+00  0.00000000000E+00  0.17720370807E+03  0.27001351425E+04  0.26943141304E+04 0.  0.
        2    1    3    3  502    0  0.16522352835E+03 -0.11169469463E+04 -0.64780736746E+03  0.13017387144E+04  0.25500000920E-02 0. -1.
       -2    1    3    3    0  502 -0.16522352835E+03  0.11169469463E+04  0.82501107553E+03  0.13983964281E+04  0.25500000920E-02 0.  1.
</event>
<event>
 5   0  0.4655882E-06  0.2695282E+04  0.7818609E-02  0.8336537E-01
       -2   -1    0    0    0  501  0.00000000000E+00  0.00000000000E+00  0.94342154991E+03  0.94342154992E+03  0.25500000920E-02 0.  1.
        2   -1    0    0  501    0  0.00000000000E+00  0.00000000000E+00 -0.19250524874E+04  0.19250524874E+04  0.25500000920E-02 0. -1.
    10030    2    1    2    0    0  0.00000000000E+00  0.00000000000E+00 -0.98163093750E+03  0.28684740373E+04  0.26952818044E+04 0.  0.
        1    1    3    3  502    0 -0.10447475083E+03 -0.10525977338E+04 -0.13794922233E+04  0.17383543244E+04  0.50400001928E-02 0. -1.
       -1    1    3    3    0  502  0.10447475083E+03  0.10525977338E+04  0.39786128583E+03  0.11301197130E+04  0.50400001928E-02 0.  1.
</event>
<event>
 5   0  0.4448804E-06  0.2710125E+04  0.7818609E-02  0.8331727E-01
       -2   -1    0    0    0  501  0.00000000000E+00  0.00000000000E+00  0.88062698897E+03  0.88062698898E+03  0.25500000920E-02 0.  1.
        2   -1    0    0  501    0  0.00000000000E+00  0.00000000000E+00 -0.20850991992E+04  0.20850991992E+04  0.25500000920E-02 0. -1.
    10030    2    1    2    0    0  0.00000000000E+00  0.00000000000E+00 -0.12044722102E+04  0.29657261881E+04  0.27101251849E+04 0.  0.
        2    1    3    3  502    0  0.10768778328E+04 -0.60785023151E+02 -0.14998625660E+04  0.18474166835E+04  0.25500000920E-02 0. -1.
       -2    1    3    3    0  502 -0.10768778328E+04  0.60785023151E+02  0.29539035582E+03  0.11183095046E+04  0.25500000920E-02 0.  1.
</event>
<event>
 5   0  0.1723605E-06  0.2720961E+04  0.7818609E-02  0.8328236E-01
       -1   -1    0    0    0  501  0.00000000000E+00  0.00000000000E+00  0.10172277674E+04  0.10172277674E+04  0.50400001928E-02 0. -1.
        1   -1    0    0  501    0  0.00000000000E+00  0.00000000000E+00 -0.18195605488E+04  0.18195605488E+04  0.50400001928E-02 0.  1.
    10030    2    1    2    0    0  0.00000000000E+00  0.00000000000E+00 -0.80233278135E+03  0.28367883162E+04  0.27209612380E+04 0.  0.
        1    1    3    3  502    0 -0.13457938659E+03  0.40141580985E+03  0.94679890888E+03  0.10371472593E+04  0.50400001928E-02 0. -1.
       -1    1    3    3    0  502  0.13457938659E+03 -0.40141580985E+03 -0.17491316902E+04  0.17996410568E+04  0.50400001928E-02 0.  1.
</event>
<event>
 5   0  0.1771016E-06  0.2689889E+04  0.7818609E-02  0.8338293E-01
       -1   -1    0    0    0  501  0.00000000000E+00  0.00000000000E+00  0.11834058852E+04  0.11834058852E+04  0.50400001928E-02 0.  1.
        1   -1    0    0  501    0  0.00000000000E+00  0.00000000000E+00 -0.15285333356E+04  0.15285333356E+04  0.50400001928E-02 0. -1.
    10030    2    1    2    0    0  0.00000000000E+00  0.00000000000E+00 -0.34512745040E+03  0.27119392209E+04  0.26898887302E+04 0.  0.
        2    1    3    3  502    0 -0.73243134076E+03  0.60745791692E+03  0.78570911288E+03  0.12340176659E+04  0.25500000920E-02 0.  1.
       -2    1    3    3    0  502  0.73243134076E+03 -0.60745791692E+03 -0.11308365633E+04  0.14779215550E+04  0.25500000920E-02 0. -1.
</event>
<event>
 5   0  0.1828511E-06  0.2690234E+04  0.7818609E-02  0.8338181E-01
        1   -1    0    0  501    0  0.00000000000E+00  0.00000000000E+00  0.11373740832E+04  0.11373740832E+04  0.50400001928E-02 0. -1.
       -1   -1    0    0    0  501  0.00000000000E+00  0.00000000000E+00 -0.15908045818E+04  0.15908045818E+04  0.50400001928E-02 0.  1.
    10030    2    1    2    0    0  0.00000000000E+00  0.00000000000E+00 -0.45343049859E+03  0.27281786651E+04  0.26902341183E+04 0.  0.
        4    1    3    3  502    0 -0.30086598041E+03  0.61542632046E+03 -0.14006560976E+04  0.15592014016E+04  0.12699999809E+01 0.  1.
       -4    1    3    3    0  502  0.30086598041E+03 -0.61542632046E+03  0.94722559904E+03  0.11689772635E+04  0.12699999809E+01 0. -1.
</event>
<event>
 5   0  0.1482875E-06  0.2721174E+04  0.7818609E-02  0.8328167E-01
       -3   -1    0    0    0  501  0.00000000000E+00  0.00000000000E+00  0.18901351834E+04  0.18901351861E+04  0.10100000352E+00 0.  1.
        3   -1    0    0  501    0  0.00000000000E+00  0.00000000000E+00 -0.97939920951E+03  0.97939921472E+03  0.10100000352E+00 0. -1.
    10030    2    1    2    0    0  0.00000000000E+00  0.00000000000E+00  0.91073597387E+03  0.28695344008E+04  0.27211739495E+04 0.  0.
        4    1    3    3  502    0 -0.14071072918E+03  0.33882919949E+03  0.18369876064E+04  0.18732671498E+04  0.12699999809E+01 0.  1.
       -4    1    3    3    0  502  0.14071072918E+03 -0.33882919949E+03 -0.92625163250E+03  0.99626725097E+03  0.12699999809E+01 0. -1.
</event>
<event>
 5   0  0.4487186E-06  0.2666498E+04  0.7818609E-02  0.8345958E-01
        2   -1    0    0  501    0  0.00000000000E+00  0.00000000000E+00  0.16943943066E+04  0.16943943067E+04  0.25500000920E-02 0.  1.
       -2   -1    0    0    0  501  0.00000000000E+00  0.00000000000E+00 -0.10490785277E+04  0.10490785277E+04  0.25500000920E-02 0. -1.
    10030    2    1    2    0    0  0.00000000000E+00  0.00000000000E+00  0.64531577896E+03  0.27434728343E+04  0.26664978414E+04 0.  0.
        3    1    3    3  502    0 -0.10670499075E+04  0.68880316628E+03  0.73996146315E+03  0.14698939704E+04  0.10100000352E+00 0.  1.
       -3    1    3    3    0  502  0.10670499075E+04 -0.68880316628E+03 -0.94645684191E+02  0.12735788640E+04  0.10100000352E+00 0. -1.
</event>
<event>
 5   0  0.4487186E-06  0.2703064E+04  0.7818609E-02  0.8334012E-01
        2   -1    0    0  501    0  0.00000000000E+00  0.00000000000E+00  0.11372319722E+04  0.11372319722E+04  0.25500000920E-02 0.  1.
       -2   -1    0    0    0  501  0.00000000000E+00  0.00000000000E+00 -0.16062144872E+04  0.16062144872E+04  0.25500000920E-02 0. -1.
    10030    2    1    2    0    0  0.00000000000E+00  0.00000000000E+00 -0.46898251507E+03  0.27434464594E+04  0.27030637943E+04 0.  0.
        3    1    3    3  502    0  0.26875395051E+03 -0.13023279635E+04 -0.47966093645E+03  0.14136341233E+04  0.10100000352E+00 0. -1.
       -3    1    3    3    0  502 -0.26875395051E+03  0.13023279635E+04  0.10678421378E+02  0.13298123361E+04  0.10100000352E+00 0.  1.
</event>
<event>
 5   0  0.1753474E-06  0.2708734E+04  0.7818609E-02  0.8332177E-01
        1   -1    0    0  501    0  0.00000000000E+00  0.00000000000E+00  0.21144223646E+04  0.21144223646E+04  0.50400001928E-02 0.  1.
       -1   -1    0    0    0  501  0.00000000000E+00  0.00000000000E+00 -0.86752272834E+03  0.86752272835E+03  0.50400001928E-02 0. -1.
    10030    2    1    2    0    0  0.00000000000E+00  0.00000000000E+00  0.12468996362E+04  0.29819450929E+04  0.27087336219E+04 0.  0.
        3    1    3    3  502    0 -0.47482424298E+03 -0.14337087907E+03  0.20108415098E+04  0.20711100546E+04  0.10100000352E+00 0.  1.
       -3    1    3    3    0  502  0.47482424298E+03  0.14337087907E+03 -0.76394187353E+03  0.91083503832E+03  0.10100000352E+00 0. -1.
</event>
<event>
 5   0  0.1828511E-06  0.2699131E+04  0.7818609E-02  0.8335287E-01
        1   -1    0    0  501    0  0.00000000000E+00  0.00000000000E+00  0.11597407917E+04  0.11597407917E+04  0.50400001928E-02 0.  1.
       -1   -1    0    0    0  501  0.00000000000E+00  0.00000000000E+00 -0.15704602887E+04  0.15704602887E+04  0.50400001928E-02 0. -1.
    10030    2    1    2    0    0  0.00000000000E+00  0.00000000000E+00 -0.41071949700E+03  0.27302010804E+04  0.26991308664E+04 0.  0.
        4    1    3    3  502    0  0.10840738103E+04  0.56061583901E+03 -0.78802803816E+03  0.14527546066E+04  0.12699999809E+01 0. -1.
       -4    1    3    3    0  502 -0.10840738103E+04 -0.56061583901E+03  0.37730854117E+03  0.12774464738E+04  0.12699999809E+01 0.  1.
</event>
<event>
 5   0  0.1482875E-06  0.2705739E+04  0.7818609E-02  0.8333145E-01
        3   -1    0    0  501    0  0.00000000000E+00  0.00000000000E+00  0.21835589078E+04  0.21835589101E+04  0.10100000352E+00 0. -1.
       -3   -1    0    0    0  501  0.00000000000E+00  0.00000000000E+00 -0.83819875248E+03  0.83819875857E+03  0.10100000352E+00 0.  1.
    10030    2    1    2    0    0  0.00000000000E+00  0.00000000000E+00  0.13453601553E+04  0.30217576687E+04  0.27057393557E+04 0.  0.
        2    1    3    3  502    0 -0.44771066747E+03  0.12645536810E+04  0.86840789297E+03  0.15980216277E+04  0.25500000920E-02 0.  1.
       -2    1    3    3    0  502  0.44771066747E+03 -0.12645536810E+04  0.47695226236E+03  0.14237360410E+04  0.25500000920E-02 0. -1.
</event>
<event>
 5   0  0.4439357E-06  0.2704830E+04  0.7818609E-02  0.8333439E-01
       -2   -1    0    0    0  501  0.00000000000E+00  0.00000000000E+00  0.16490193106E+04  0.16490193106E+04  0.25500000920E-02 0.  1.
        2   -1    0    0  501    0  0.00000000000E+00  0.00000000000E+00 -0.11091601449E+04  0.11091601449E+04  0.25500000920E-02 0. -1.
    10030    2    1    2    0    0  0.00000000000E+00  0.00000000000E+00  0.53985916564E+03  0.27581794555E+04  0.27048301222E+04 0.  0.
        4    1    3    3  502    0 -0.95134778748E+03 -0.23856302056E+03  0.12194506075E+04  0.15649397192E+04  0.12699999809E+01 0.  1.
       -4    1    3    3    0  502  0.95134778748E+03  0.23856302056E+03 -0.67959144190E+03  0.11932397363E+04  0.12699999809E+01 0. -1.
</event>
<event>
 5   0  0.4439357E-06  0.2696453E+04  0.7818609E-02  0.8336157E-01
        2   -1    0    0  501    0  0.00000000000E+00  0.00000000000E+00  0.97350666111E+03  0.97350666112E+03  0.25500000920E-02 0.  1.
       -2   -1    0    0    0  501  0.00000000000E+00  0.00000000000E+00 -0.18671830905E+04  0.18671830905E+04  0.25500000920E-02 0. -1.
    10030    2    1    2    0    0  0.00000000000E+00  0.00000000000E+00 -0.89367642936E+03  0.28406897516E+04  0.26964533566E+04 0.  0.
        4    1    3    3  502    0  0.61586473981E+03 -0.64350490593E+03 -0.15130657897E+04  0.17557783569E+04  0.12699999809E+01 0. -1.
       -4    1    3    3    0  502 -0.61586473981E+03  0.64350490593E+03  0.61938936035E+03  0.10849113947E+04  0.12699999809E+01 0.  1.
</event>
<event>
 5   0  0.4487186E-06  0.2702574E+04  0.7818609E-02  0.8334170E-01
        2   -1    0    0  501    0  0.00000000000E+00  0.00000000000E+00  0.12711461474E+04  0.12711461474E+04  0.25500000920E-02 0.  1.
       -2   -1    0    0    0  501  0.00000000000E+00  0.00000000000E+00 -0.14364808813E+04  0.14364808813E+04  0.25500000920E-02 0. -1.
    10030    2    1    2    0    0  0.00000000000E+00  0.00000000000E+00 -0.16533473382E+03  0.27076270287E+04  0.27025744305E+04 0.  0.
        3    1    3    3  502    0  0.10611689956E+04  0.38211304748E+03 -0.82829467658E+03  0.13993434531E+04  0.10100000352E+00 0. -1.
       -3    1    3    3    0  502 -0.10611689956E+04 -0.38211304748E+03  0.66295994276E+03  0.13082835756E+04  0.10100000352E+00 0.  1.
</event>
<event>
 5   0  0.1723605E-06  0.2701069E+04  0.7818609E-02  0.8334658E-01
        1   -1    0    0  501    0  0.00000000000E+00  0.00000000000E+00  0.15081155427E+04  0.15081155427E+04  0.50400001928E-02 0.  1.
       -1   -1    0    0    0  501  0.00000000000E+00  0.00000000000E+00 -0.12094193034E+04  0.12094193034E+04  0.50400001928E-02 0. -1.
    10030    2    1    2    0    0  0.00000000000E+00  0.00000000000E+00  0.29869623927E+03  0.27175348460E+04  0.27010694541E+04 0.  0.
        1    1    3    3  502    0  0.17441834495E+02  0.12212841418E+04  0.72914649782E+03  0.14224956197E+04  0.50400001928E-02 0. -1.
       -1    1    3    3    0  502 -0.17441834495E+02 -0.12212841418E+04 -0.43045025854E+03  0.12950392264E+04  0.50400001928E-02 0.  1.
</event>
<event>
 5   0  0.4439357E-06  0.2701778E+04  0.7818609E-02  0.8334428E-01
       -2   -1    0    0    0  501  0.00000000000E+00  0.00000000000E+00  0.10215705368E+04  0.10215705368E+04  0.25500000920E-02 0.  1.
        2   -1    0    0  501    0  0.00000000000E+00  0.00000000000E+00 -0.17863677354E+04  0.17863677354E+04  0.25500000920E-02 0. -1.
    10030    2    1    2    0    0  0.00000000000E+00  0.00000000000E+00 -0.76479719864E+03  0.28079382722E+04  0.27017776714E+04 0.  0.
        4    1    3    3  502    0 -0.10230402840E+04  0.10636644457E+03 -0.12925805305E+04  0.16518750812E+04  0.12699999809E+01 0. -1.
       -4    1    3    3    0  502  0.10230402840E+04 -0.10636644457E+03  0.52778333185E+03  0.11560631910E+04  0.12699999809E+01 0.  1.
</event>
<event>
 5   0  0.1828511E-06  0.2627983E+04  0.7818609E-02  0.8358758E-01
       -1   -1    0    0    0  501  0.00000000000E+00  0.00000000000E+00  0.10409964591E+04  0.10409964591E+04  0.50400001928E-02 0. -1.
        1   -1    0    0  501    0  0.00000000000E+00  0.00000000000E+00 -0.16585782758E+04  0.16585782758E+04  0.50400001928E-02 0.  1.
    10030    2    1    2    0    0  0.00000000000E+00  0.00000000000E+00 -0.61758181668E+03  0.26995747349E+04  0.26279833426E+04 0.  0.
        4    1    3    3  502    0 -0.14774234877E+02  0.77631102961E+03 -0.13977136041E+04  0.15989002547E+04  0.12699999809E+01 0.  1.
       -4    1    3    3    0  502  0.14774234877E+02 -0.77631102961E+03  0.78013178738E+03  0.11006744802E+04  0.12699999809E+01 0. -1.
</event>
<event>
 5   0  0.4655882E-06  0.2702510E+04  0.7818609E-02  0.8334191E-01
       -2   -1    0    0    0  501  0.00000000000E+00  0.00000000000E+00  0.81384566816E+03  0.81384566816E+03  0.25500000920E-02 0. -1.
        2   -1    0    0  501    0  0.00000000000E+00  0.00000000000E+00 -0.22435337531E+04  0.22435337531E+04  0.25500000920E-02 0.  1.
    10030    2    1    2    0    0  0.00000000000E+00  0.00000000000E+00 -0.14296880850E+04  0.30573794213E+04  0.27025101120E+04 0.  0.
        1    1    3    3  502    0  0.94759229830E+03 -0.20511288003E+03 -0.17796521844E+04  0.20266140123E+04  0.50400001928E-02 0.  1.
       -1    1    3    3    0  502 -0.94759229830E+03  0.20511288003E+03  0.34996409947E+03  0.10307654090E+04  0.50400001928E-02 0. -1.
</event>
<event>
 5   0  0.4401659E-06  0.2671446E+04  0.7818609E-02  0.8344330E-01
       -2   -1    0    0    0  501  0.00000000000E+00  0.00000000000E+00  0.13393265937E+04  0.13393265937E+04  0.25500000920E-02 0.  1.
        2   -1    0    0  501    0  0.00000000000E+00  0.00000000000E+00 -0.13321292712E+04  0.13321292712E+04  0.25500000920E-02 0. -1.
    10030    2    1    2    0    0  0.00000000000E+00  0.00000000000E+00  0.71973224679E+01  0.26714558649E+04  0.26714461695E+04 0.  0.
        5    1    3    3  502    0  0.24854597632E+03  0.11412619300E+04  0.65158262842E+03  0.13374737032E+04  0.46999998093E+01 0.  1.
       -5    1    3    3    0  502 -0.24854597632E+03 -0.11412619300E+04 -0.64438530595E+03  0.13339821617E+04  0.46999998093E+01 0. -1.
</event>
<event>
 5   0  0.1723605E-06  0.2730999E+04  0.7818609E-02  0.8325016E-01
        1   -1    0    0  501    0  0.00000000000E+00  0.00000000000E+00  0.14765439244E+04  0.14765439245E+04  0.50400001928E-02 0.  1.
       -1   -1    0    0    0  501  0.00000000000E+00  0.00000000000E+00 -0.12628061728E+04  0.12628061728E+04  0.50400001928E-02 0. -1.
    10030    2    1    2    0    0  0.00000000000E+00  0.00000000000E+00  0.21373775164E+03  0.27393500973E+04  0.27309989251E+04 0.  0.
        1    1    3    3  502    0 -0.12537819722E+04  0.53963663620E+03  0.69179393085E+02  0.13667343273E+04  0.50400001928E-02 0.  1.
       -1    1    3    3    0  502  0.12537819722E+04 -0.53963663620E+03  0.14455835856E+03  0.13726157700E+04  0.50400001928E-02 0. -1.
</event>
<event>
 5   0  0.1723605E-06  0.2703996E+04  0.7818609E-02  0.8333710E-01
        1   -1    0    0  501    0  0.00000000000E+00  0.00000000000E+00  0.62709623568E+03  0.62709623570E+03  0.50400001928E-02 0.  1.
       -1   -1    0    0    0  501  0.00000000000E+00  0.00000000000E+00 -0.29148608576E+04  0.29148608576E+04  0.50400001928E-02 0. -1.
    10030    2    1    2    0    0  0.00000000000E+00  0.00000000000E+00 -0.22877646219E+04  0.35419570933E+04  0.27039957628E+04 0.  0.
        1    1    3    3  502    0 -0.41847205105E+03 -0.11682307900E+04 -0.18468668503E+04  0.22250391455E+04  0.50400001928E-02 0. -1.
       -1    1    3    3    0  502  0.41847205105E+03  0.11682307900E+04 -0.44089777161E+03  0.13169179478E+04  0.50400001928E-02 0.  1.
</event>
<event>
 5   0  0.1828511E-06  0.2704916E+04  0.7818609E-02  0.8333412E-01
        1   -1    0    0  501    0  0.00000000000E+00  0.00000000000E+00  0.80544263118E+03  0.80544263119E+03  0.50400001928E-02 0.  1.
       -1   -1    0    0    0  501  0.00000000000E+00  0.00000000000E+00 -0.22709778092E+04  0.22709778092E+04  0.50400001928E-02 0. -1.
    10030    2    1    2    0    0  0.00000000000E+00  0.00000000000E+00 -0.14655351780E+04  0.30764204404E+04  0.27049157784E+04 0.  0.
        4    1    3    3  502    0  0.61325778120E+03 -0.13033202098E+03  0.63018146633E+03  0.88893297571E+03  0.12699999809E+01 0.  1.
       -4    1    3    3    0  502 -0.61325778120E+03  0.13033202098E+03 -0.20957166444E+04  0.21874874647E+04  0.12699999809E+01 0. -1.
</event>
<event>
 5   0  0.4439357E-06  0.2722531E+04  0.7818609E-02  0.8327731E-01
        2   -1    0    0  501    0  0.00000000000E+00  0.00000000000E+00  0.11796993351E+04  0.11796993351E+04  0.25500000920E-02 0.  1.
       -2   -1    0    0    0  501  0.00000000000E+00  0.00000000000E+00 -0.15707768185E+04  0.15707768185E+04  0.25500000920E-02 0. -1.
    10030    2    1    2    0    0  0.00000000000E+00  0.00000000000E+00 -0.39107748345E+03  0.27504761536E+04  0.27225314458E+04 0.  0.
        4    1    3    3  502    0 -0.38241528144E+03 -0.70381552495E+03 -0.13074927711E+04  0.15333416775E+04  0.12699999809E+01 0. -1.
       -4    1    3    3    0  502  0.38241528144E+03  0.70381552495E+03  0.91641528761E+03  0.12171344761E+04  0.12699999809E+01 0.  1.
</event>
<event>
 5   0  0.1723605E-06  0.2698776E+04  0.7818609E-02  0.8335402E-01
        1   -1    0    0  501    0  0.00000000000E+00  0.00000000000E+00  0.20135694628E+04  0.20135694628E+04  0.50400001928E-02 0. -1.
       -1   -1    0    0    0  501  0.00000000000E+00  0.00000000000E+00 -0.90428876716E+03  0.90428876717E+03  0.50400001928E-02 0.  1.
    10030    2    1    2    0    0  0.00000000000E+00  0.00000000000E+00  0.11092806956E+04  0.29178582300E+04  0.26987762020E+04 0.  0.
        1    1    3    3  502    0 -0.61120519850E+03  0.98097575561E+03 -0.19828449437E+03  0.11726900564E+04  0.50400001928E-02 0.  1.
       -1    1    3    3    0  502  0.61120519850E+03 -0.98097575561E+03  0.13075651900E+04  0.17451681735E+04  0.50400001928E-02 0. -1.
</event>
<event>
 5   0  0.4655882E-06  0.2691652E+04  0.7818609E-02  0.8337719E-01
       -2   -1    0    0    0  501  0.00000000000E+00  0.00000000000E+00  0.95362083548E+03  0.95362083549E+03  0.25500000920E-02 0.  1.
        2   -1    0    0  501    0  0.00000000000E+00  0.00000000000E+00 -0.18993367165E+04  0.18993367165E+04  0.25500000920E-02 0. -1.
    10030    2    1    2    0    0  0.00000000000E+00  0.00000000000E+00 -0.94571588101E+03  0.28529575520E+04  0.26916515870E+04 0.  0.
        1    1    3    3  502    0 -0.68147689148E+03 -0.93200557740E+03  0.26010517928E+03  0.11835116621E+04  0.50400001928E-02 0.  1.
       -1    1    3    3    0  502  0.68147689148E+03  0.93200557740E+03 -0.12058210603E+04  0.16694458899E+04  0.50400001928E-02 0. -1.
</event>
<event>
 5   0  0.1482875E-06  0.2713793E+04  0.7818609E-02  0.8330543E-01
       -3   -1    0    0    0  501  0.00000000000E+00  0.00000000000E+00  0.11834831176E+04  0.11834831219E+04  0.10100000352E+00 0.  1.
        3   -1    0    0  501    0  0.00000000000E+00  0.00000000000E+00 -0.15557203130E+04  0.15557203163E+04  0.10100000352E+00 0. -1.
    10030    2    1    2    0    0  0.00000000000E+00  0.00000000000E+00 -0.37223719545E+03  0.27392034382E+04  0.27137934605E+04 0.  0.
        1    1    3    3  502    0 -0.12900964555E+04 -0.35930478944E+03 -0.40661293601E+03  0.13995652454E+04  0.50400001928E-02 0.  1.
       -1    1    3    3    0  502  0.12900964555E+04  0.35930478944E+03  0.34375740557E+02  0.13396381929E+04  0.50400001928E-02 0. -1.
</event>
<event>
 5   0  0.4487186E-06  0.2701746E+04  0.7818609E-02  0.8334439E-01
        2   -1    0    0  501    0  0.00000000000E+00  0.00000000000E+00  0.23053155050E+04  0.23053155050E+04  0.25500000920E-02 0. -1.
       -2   -1    0    0    0  501  0.00000000000E+00  0.00000000000E+00 -0.79158709039E+03  0.79158709039E+03  0.25500000920E-02 0.  1.
    10030    2    1    2    0    0  0.00000000000E+00  0.00000000000E+00  0.15137284146E+04  0.30969025954E+04  0.27017460969E+04 0.  0.
        3    1    3    3  502    0 -0.10712040683E+04 -0.81978846489E+03  0.84052310195E+03  0.15893427504E+04  0.10100000352E+00 0. -1.
       -3    1    3    3    0  502  0.10712040683E+04  0.81978846489E+03  0.67320531269E+03  0.15075598450E+04  0.10100000352E+00 0.  1.
</event>
<event>
 5   0  0.1723605E-06  0.2695615E+04  0.7818609E-02  0.8336429E-01
        1   -1    0    0  501    0  0.00000000000E+00  0.00000000000E+00  0.16085007368E+04  0.16085007368E+04  0.50400001928E-02 0.  1.
       -1   -1    0    0    0  501  0.00000000000E+00  0.00000000000E+00 -0.11293653756E+04  0.11293653756E+04  0.50400001928E-02 0. -1.
    10030    2    1    2    0    0  0.00000000000E+00  0.00000000000E+00  0.47913536121E+03  0.27378661124E+04  0.26956149864E+04 0.  0.
        1    1    3    3  502    0  0.88474326107E+02  0.34689834976E+03 -0.10801907424E+04  0.11379710943E+04  0.50400001928E-02 0. -1.
       -1    1    3    3    0  502 -0.88474326107E+02 -0.34689834976E+03  0.15593261036E+04  0.15998950181E+04  0.50400001928E-02 0.  1.
</event>
<event>
 5   0  0.1482875E-06  0.2696757E+04  0.7818609E-02  0.8336058E-01
       -3   -1    0    0    0  501  0.00000000000E+00  0.00000000000E+00  0.11425386441E+04  0.11425386485E+04  0.10100000352E+00 0.  1.
        3   -1    0    0  501    0  0.00000000000E+00  0.00000000000E+00 -0.15913021873E+04  0.15913021905E+04  0.10100000352E+00 0. -1.
    10030    2    1    2    0    0  0.00000000000E+00  0.00000000000E+00 -0.44876354319E+03  0.27338408390E+04  0.26967567587E+04 0.  0.
        1    1    3    3  502    0 -0.22738492214E+03 -0.11159204020E+03  0.11182045874E+04  0.11465331157E+04  0.50400001928E-02 0.  1.
       -1    1    3    3    0  502  0.22738492214E+03  0.11159204020E+03 -0.15669681305E+04  0.15873077233E+04  0.50400001928E-02 0. -1.
</event>
<event>
 5   0  0.4401659E-06  0.2700396E+04  0.7818609E-02  0.8334876E-01
        2   -1    0    0  501    0  0.00000000000E+00  0.00000000000E+00  0.21276468557E+04  0.21276468557E+04  0.25500000920E-02 0.  1.
       -2   -1    0    0    0  501  0.00000000000E+00  0.00000000000E+00 -0.85683150610E+03  0.85683150610E+03  0.25500000920E-02 0. -1.
    10030    2    1    2    0    0  0.00000000000E+00  0.00000000000E+00  0.12708153496E+04  0.29844783618E+04  0.27003961634E+04 0.  0.
        5    1    3    3  502    0 -0.11865240168E+03 -0.11616170261E+04  0.13846488501E+04  0.18112722147E+04  0.46999998093E+01 0.  1.
       -5    1    3    3    0  502  0.11865240168E+03  0.11616170261E+04 -0.11383350045E+03  0.11732061471E+04  0.46999998093E+01 0. -1.
</event>
<event>
 5   0  0.1723605E-06  0.2706275E+04  0.7818609E-02  0.8332972E-01
       -1   -1    0    0    0  501  0.00000000000E+00  0.00000000000E+00  0.67975307963E+03  0.67975307965E+03  0.50400001928E-02 0. -1.
        1   -1    0    0  501    0  0.00000000000E+00  0.00000000000E+00 -0.26935979676E+04  0.26935979676E+04  0.50400001928E-02 0.  1.
    10030    2    1    2    0    0  0.00000000000E+00  0.00000000000E+00 -0.20138448879E+04  0.33733510472E+04  0.27062753103E+04 0.  0.
        1    1    3    3  502    0  0.75082150107E+03  0.50578592107E+02 -0.24087082970E+04  0.25235226926E+04  0.50400001928E-02 0.  1.
       -1    1    3    3    0  502 -0.75082150107E+03 -0.50578592107E+02  0.39486340902E+03  0.84982835459E+03  0.50400001928E-02 0. -1.
</event>
<event>
 5   0  0.1732312E-06  0.2702422E+04  0.7818609E-02  0.8334219E-01
       -1   -1    0    0    0  501  0.00000000000E+00  0.00000000000E+00  0.11076183803E+04  0.11076183803E+04  0.50400001928E-02 0. -1.
        1   -1    0    0  501    0  0.00000000000E+00  0.00000000000E+00 -0.16483760320E+04  0.16483760320E+04  0.50400001928E-02 0.  1.
    10030    2    1    2    0    0  0.00000000000E+00  0.00000000000E+00 -0.54075765169E+03  0.27559944124E+04  0.27024223140E+04 0.  0.
        5    1    3    3  502    0 -0.11866507807E+03 -0.85959622925E+03  0.78589590591E+03  0.11707440126E+04  0.46999998093E+01 0. -1.
       -5    1    3    3    0  502  0.11866507807E+03  0.85959622925E+03 -0.13266535576E+04  0.15852503998E+04  0.46999998093E+01 0.  1.
</event>
<event>
 5   0  0.1753474E-06  0.2701123E+04  0.7818609E-02  0.8334641E-01
       -1   -1    0    0    0  501  0.00000000000E+00  0.00000000000E+00  0.10333813899E+04  0.10333813899E+04  0.50400001928E-02 0. -1.
        1   -1    0    0  501    0  0.00000000000E+00  0.00000000000E+00 -0.17650956078E+04  0.17650956078E+04  0.50400001928E-02 0.  1.
    10030    2    1    2    0    0  0.00000000000E+00  0.00000000000E+00 -0.73171421795E+03  0.27984769977E+04  0.27011234348E+04 0.  0.
        3    1    3    3  502    0 -0.45369344628E+03 -0.68880023468E+03  0.74214278647E+03  0.11095311768E+04  0.10100000352E+00 0. -1.
       -3    1    3    3    0  502  0.45369344628E+03  0.68880023468E+03 -0.14738570044E+04  0.16889458210E+04  0.10100000352E+00 0.  1.
</event>
<event>
 5   0  0.4439357E-06  0.2701662E+04  0.7818609E-02  0.8334466E-01
       -2   -1    0    0    0  501  0.00000000000E+00  0.00000000000E+00  0.66663496807E+03  0.66663496807E+03  0.25500000920E-02 0. -1.
        2   -1    0    0  501    0  0.00000000000E+00  0.00000000000E+00 -0.27372460643E+04  0.27372460643E+04  0.25500000920E-02 0.  1.
    10030    2    1    2    0    0  0.00000000000E+00  0.00000000000E+00 -0.20706110962E+04  0.34038810324E+04  0.27016616684E+04 0.  0.
        4    1    3    3  502    0 -0.58663152642E+02 -0.11752724896E+04 -0.18710765308E+04  0.22103474359E+04  0.12699999809E+01 0.  1.
       -4    1    3    3    0  502  0.58663152642E+02  0.11752724896E+04 -0.19953456541E+03  0.11935335965E+04  0.12699999809E+01 0. -1.
</event>
<event>
 5   0  0.1771016E-06  0.2700471E+04  0.7818609E-02  0.8334852E-01
        1   -1    0    0  501    0  0.00000000000E+00  0.00000000000E+00  0.19757723226E+04  0.19757723226E+04  0.50400001928E-02 0. -1.
       -1   -1    0    0    0  501  0.00000000000E+00  0.00000000000E+00 -0.92274615863E+03  0.92274615864E+03  0.50400001928E-02 0.  1.
    10030    2    1    2    0    0  0.00000000000E+00  0.00000000000E+00  0.10530261640E+04  0.28985184813E+04  0.27004713078E+04 0.  0.
        2    1    3    3  502    0  0.11779572288E+04  0.21262455199E+03 -0.14408174416E+03  0.12056334360E+04  0.25500000920E-02 0.  1.
       -2    1    3    3    0  502 -0.11779572288E+04 -0.21262455199E+03  0.11971079081E+04  0.16928850453E+04  0.25500000920E-02 0. -1.
</event>
<event>
 5   0  0.4655882E-06  0.2703841E+04  0.7818609E-02  0.8333760E-01
       -2   -1    0    0    0  501  0.00000000000E+00  0.00000000000E+00  0.10709757549E+04  0.10709757549E+04  0.25500000920E-02 0. -1.
        2   -1    0    0  501    0  0.00000000000E+00  0.00000000000E+00 -0.17065647170E+04  0.17065647170E+04  0.25500000920E-02 0.  1.
    10030    2    1    2    0    0  0.00000000000E+00  0.00000000000E+00 -0.63558896210E+03  0.27775404718E+04  0.27038412942E+04 0.  0.
        1    1    3    3  502    0 -0.35026143144E+02  0.12623169003E+04  0.17808317394E+03  0.12752977709E+04  0.50400001928E-02 0. -1.
       -1    1    3    3    0  502  0.35026143144E+02 -0.12623169003E+04 -0.81367213605E+03  0.15022427010E+04  0.50400001928E-02 0.  1.
</event>
<event>
 5   0  0.4439357E-06  0.2685110E+04  0.7818609E-02  0.8339852E-01
        2   -1    0    0  501    0  0.00000000000E+00  0.00000000000E+00  0.20733870762E+04  0.20733870762E+04  0.25500000920E-02 0.  1.
       -2   -1    0    0    0  501  0.00000000000E+00  0.00000000000E+00 -0.86932844755E+03  0.86932844756E+03  0.25500000920E-02 0. -1.
    10030    2    1    2    0    0  0.00000000000E+00  0.00000000000E+00  0.12040586286E+04  0.29427155237E+04  0.26851103278E+04 0.  0.
        4    1    3    3  502    0 -0.65989025457E+03 -0.88789470741E+03  0.14356924449E+04  0.18124642255E+04  0.12699999809E+01 0.  1.
       -4    1    3    3    0  502  0.65989025457E+03  0.88789470741E+03 -0.23163381622E+03  0.11302512983E+04  0.12699999809E+01 0. -1.
</event>
<event>
 5   0  0.4439357E-06  0.2698653E+04  0.7818609E-02  0.8335442E-01
       -2   -1    0    0    0  501  0.00000000000E+00  0.00000000000E+00  0.10960904449E+04  0.10960904449E+04  0.25500000920E-02 0.  1.
        2   -1    0    0  501    0  0.00000000000E+00  0.00000000000E+00 -0.16610690154E+04  0.16610690154E+04  0.25500000920E-02 0. -1.
    10030    2    1    2    0    0  0.00000000000E+00  0.00000000000E+00 -0.56497857052E+03  0.27571594603E+04  0.26986529055E+04 0.  0.
        4    1    3    3  502    0 -0.13287690765E+04  0.22620001056E+03 -0.21879543182E+03  0.13655280141E+04  0.12699999809E+01 0.  1.
       -4    1    3    3    0  502  0.13287690765E+04 -0.22620001056E+03 -0.34618313870E+03  0.13916314462E+04  0.12699999809E+01 0. -1.
</event>
<event>
 5   0  0.4448804E-06  0.2708344E+04  0.7818609E-02  0.8332303E-01
       -2   -1    0    0    0  501  0.00000000000E+00  0.00000000000E+00  0.14963275087E+04  0.14963275087E+04  0.25500000920E-02 0. -1.
        2   -1    0    0  501    0  0.00000000000E+00  0.00000000000E+00 -0.12255216967E+04  0.12255216967E+04  0.25500000920E-02 0.  1.
    10030    2    1    2    0    0  0.00000000000E+00  0.00000000000E+00  0.27080581208E+03  0.27218492054E+04  0.27083440160E+04 0.  0.
        2    1    3    3  502    0 -0.46230508527E+03  0.10025206629E+04  0.92353800810E+03  0.14393387801E+04  0.25500000920E-02 0. -1.
       -2    1    3    3    0  502  0.46230508527E+03 -0.10025206629E+04 -0.65273219602E+03  0.12825104253E+04  0.25500000920E-02 0.  1.
</event>
<event>
 5   0  0.4487186E-06  0.2795357E+04  0.7818609E-02  0.8304711E-01
       -2   -1    0    0    0  501  0.00000000000E+00  0.00000000000E+00  0.21832542599E+04  0.21832542599E+04  0.25500000920E-02 0. -1.
        2   -1    0    0  501    0  0.00000000000E+00  0.00000000000E+00 -0.89476733446E+03  0.89476733446E+03  0.25500000920E-02 0.  1.
    10030    2    1    2    0    0  0.00000000000E+00  0.00000000000E+00  0.12884869254E+04  0.30780215943E+04  0.27953565744E+04 0.  0.
        3    1    3    3  502    0 -0.27736865013E+03  0.18299787527E+03 -0.85063847400E+03  0.91324006378E+03  0.10100000352E+00 0.  1.
       -3    1    3    3    0  502  0.27736865013E+03 -0.18299787527E+03  0.21391253994E+04  0.21647815306E+04  0.10100000352E+00 0. -1.
</event>
<event>
 5   0  0.1753474E-06  0.2713118E+04  0.7818609E-02  0.8330761E-01
       -1   -1    0    0    0  501  0.00000000000E+00  0.00000000000E+00  0.17388158119E+04  0.17388158120E+04  0.50400001928E-02 0. -1.
        1   -1    0    0  501    0  0.00000000000E+00  0.00000000000E+00 -0.10583365791E+04  0.10583365791E+04  0.50400001928E-02 0.  1.
    10030    2    1    2    0    0  0.00000000000E+00  0.00000000000E+00  0.68047923287E+03  0.27971523910E+04  0.27131180425E+04 0.  0.
        3    1    3    3  502    0  0.73561866243E+03 -0.79646153692E+03 -0.50034613565E+03  0.11940821002E+04  0.10100000352E+00 0.  1.
       -3    1    3    3    0  502 -0.73561866243E+03  0.79646153692E+03  0.11808253685E+04  0.16030702909E+04  0.10100000352E+00 0. -1.
</event>
<event>
 5   0  0.1828511E-06  0.2705867E+04  0.7818609E-02  0.8333104E-01
       -1   -1    0    0    0  501  0.00000000000E+00  0.00000000000E+00  0.10130605412E+04  0.10130605412E+04  0.50400001928E-02 0. -1.
        1   -1    0    0  501    0  0.00000000000E+00  0.00000000000E+00 -0.18068304987E+04  0.18068304987E+04  0.50400001928E-02 0.  1.
    10030    2    1    2    0    0  0.00000000000E+00  0.00000000000E+00 -0.79376995755E+03  0.28198910399E+04  0.27058667246E+04 0.  0.
        4    1    3    3  502    0 -0.85719110089E+03  0.39672658302E+03  0.61257052560E+03  0.11257943093E+04  0.12699999809E+01 0. -1.
       -4    1    3    3    0  502  0.85719110089E+03 -0.39672658302E+03 -0.14063404831E+04  0.16940967306E+04  0.12699999809E+01 0.  1.
</event>
<event>
 5   0  0.4487186E-06  0.2683590E+04  0.7818609E-02  0.8340349E-01
        2   -1    0    0  501    0  0.00000000000E+00  0.00000000000E+00  0.13004432553E+04  0.13004432553E+04  0.25500000920E-02 0.  1.
       -2   -1    0    0    0  501  0.00000000000E+00  0.00000000000E+00 -0.13844618958E+04  0.13844618958E+04  0.25500000920E-02 0. -1.
    10030    2    1    2    0    0  0.00000000000E+00  0.00000000000E+00 -0.84018640530E+02  0.26849051511E+04  0.26835902330E+04 0.  0.
        3    1    3    3  502    0  0.86904451519E+02  0.42388463290E+03 -0.13127432879E+04  0.13822176080E+04  0.10100000352E+00 0. -1.
       -3    1    3    3    0  502 -0.86904451519E+02 -0.42388463290E+03  0.12287246474E+04  0.13026875431E+04  0.10100000352E+00 0.  1.
</event>
<event>
 5   0  0.4448804E-06  0.2622464E+04  0.7818609E-02  0.8360611E-01
       -2   -1    0    0    0  501  0.00000000000E+00  0.00000000000E+00  0.22300476803E+04  0.22300476803E+04  0.25500000920E-02 0.  1.
        2   -1    0    0  501    0  0.00000000000E+00  0.00000000000E+00 -0.77098301767E+03  0.77098301768E+03  0.25500000920E-02 0. -1.
    10030    2    1    2    0    0  0.00000000000E+00  0.00000000000E+00  0.14590646627E+04  0.30010306980E+04  0.26224636433E+04 0.  0.
        2    1    3    3  502    0  0.54918813662E+03 -0.81537627448E+03 -0.26341143357E+03  0.10177581548E+04  0.25500000920E-02 0. -1.
       -2    1    3    3    0  502 -0.54918813662E+03  0.81537627448E+03  0.17224760962E+04  0.19832725432E+04  0.25500000920E-02 0.  1.
</event>
<event>
 5   0  0.1723605E-06  0.2705842E+04  0.7818609E-02  0.8333112E-01
        1   -1    0    0  501    0  0.00000000000E+00  0.00000000000E+00  0.17562724128E+04  0.17562724128E+04  0.50400001928E-02 0. -1.
       -1   -1    0    0    0  501  0.00000000000E+00  0.00000000000E+00 -0.10422044070E+04  0.10422044070E+04  0.50400001928E-02 0.  1.
    10030    2    1    2    0    0  0.00000000000E+00  0.00000000000E+00  0.71406800584E+03  0.27984768198E+04  0.27058417163E+04 0.  0.
        1    1    3    3  502    0  0.44638251610E+03 -0.15451467593E+03 -0.95414733901E+03  0.10646733209E+04  0.50400001928E-02 0.  1.
       -1    1    3    3    0  502 -0.44638251610E+03  0.15451467593E+03  0.16682153449E+04  0.17338034988E+04  0.50400001928E-02 0. -1.
</event>
<event>
 5   0  0.4655882E-06  0.2705052E+04  0.7818609E-02  0.8333368E-01
       -2   -1    0    0    0  501  0.00000000000E+00  0.00000000000E+00  0.11772924462E+04  0.11772924462E+04  0.25500000920E-02 0. -1.
        2   -1    0    0  501    0  0.00000000000E+00  0.00000000000E+00 -0.15538422505E+04  0.15538422505E+04  0.25500000920E-02 0.  1.
    10030    2    1    2    0    0  0.00000000000E+00  0.00000000000E+00 -0.37654980429E+03  0.27311346968E+04  0.27050521209E+04 0.  0.
        1    1    3    3  502    0 -0.54328236441E+03  0.28607436727E+03 -0.14050225241E+04  0.15333240246E+04  0.50400001928E-02 0.  1.
       -1    1    3    3    0  502  0.54328236441E+03 -0.28607436727E+03  0.10284727198E+04  0.11978106722E+04  0.50400001928E-02 0. -1.
</event>
<event>
 5   0  0.1771016E-06  0.2734313E+04  0.7818609E-02  0.8323957E-01
       -1   -1    0    0    0  501  0.00000000000E+00  0.00000000000E+00  0.11604494394E+04  0.11604494395E+04  0.50400001928E-02 0.  1.
        1   -1    0    0  501    0  0.00000000000E+00  0.00000000000E+00 -0.16106838435E+04  0.16106838435E+04  0.50400001928E-02 0. -1.
    10030    2    1    2    0    0  0.00000000000E+00  0.00000000000E+00 -0.45023440403E+03  0.27711332829E+04  0.27343131959E+04 0.  0.
        2    1    3    3  502    0 -0.29757341330E+03 -0.54737057544E+03 -0.14584484844E+04  0.15859497043E+04  0.25500000920E-02 0. -1.
       -2    1    3    3    0  502  0.29757341330E+03  0.54737057544E+03  0.10082140803E+04  0.11851835786E+04  0.25500000920E-02 0.  1.
</event>
<event>
 5   0  0.4401659E-06  0.2692775E+04  0.7818609E-02  0.8337353E-01
       -2   -1    0    0    0  501  0.00000000000E+00  0.00000000000E+00  0.92715094030E+03  0.92715094030E+03  0.25500000920E-02 0. -1.
        2   -1    0    0  501    0  0.00000000000E+00  0.00000000000E+00 -0.19551926589E+04  0.19551926589E+04  0.25500000920E-02 0.  1.
    10030    2    1    2    0    0  0.00000000000E+00  0.00000000000E+00 -0.10280417186E+04  0.28823435992E+04  0.26927745633E+04 0.  0.
        5    1    3    3  502    0  0.45846053388E+03 -0.93287034845E+03  0.40197034219E+03  0.11144664168E+04  0.46999998093E+01 0. -1.
       -5    1    3    3    0  502 -0.45846053388E+03  0.93287034845E+03 -0.14300120608E+04  0.17678771825E+04  0.46999998093E+01 0.  1.
</event>
<event>
 5   0  0.1771016E-06  0.2705878E+04  0.7818609E-02  0.8333100E-01
       -1   -1    0    0    0  501  0.00000000000E+00  0.00000000000E+00  0.10220193981E+04  0.10220193981E+04  0.50400001928E-02 0.  1.
        1   -1    0    0  501    0  0.00000000000E+00  0.00000000000E+00 -0.17910075648E+04  0.17910075648E+04  0.50400001928E-02 0. -1.
    10030    2    1    2    0    0  0.00000000000E+00  0.00000000000E+00 -0.76898816668E+03  0.28130269629E+04  0.27058783959E+04 0.  0.
        2    1    3    3  502    0  0.88416709331E+03 -0.74901486912E+03 -0.11104805559E+04  0.16049740771E+04  0.25500000920E-02 0. -1.
       -2    1    3    3    0  502 -0.88416709331E+03  0.74901486912E+03  0.34149238923E+03  0.12080528858E+04  0.25500000920E-02 0.  1.
</event>
<event>
 5   0  0.1753474E-06  0.2791927E+04  0.7818609E-02  0.8305779E-01
        1   -1    0    0  501    0  0.00000000000E+00  0.00000000000E+00  0.20982262476E+04  0.20982262476E+04  0.50400001928E-02 0. -1.
       -1   -1    0    0    0  501  0.00000000000E+00  0.00000000000E+00 -0.92874348166E+03  0.92874348167E+03  0.50400001928E-02 0.  1.
    10030    2    1    2    0    0  0.00000000000E+00  0.00000000000E+00  0.11694827660E+04  0.30269697293E+04  0.27919268977E+04 0.  0.
        3    1    3    3  502    0  0.16739280538E+03  0.49951119223E+03 -0.81683228717E+03  0.97198085270E+03  0.10100000352E+00 0.  1.
       -3    1    3    3    0  502 -0.16739280538E+03 -0.49951119223E+03  0.19863150531E+04  0.20549888766E+04  0.10100000352E+00 0. -1.
</event>
<event>
 5   0  0.1482875E-06  0.2678253E+04  0.7818609E-02  0.8342096E-01
       -3   -1    0    0    0  501  0.00000000000E+00  0.00000000000E+00  0.91819969956E+03  0.91819970511E+03  0.10100000352E+00 0.  1.
        3   -1    0    0  501    0  0.00000000000E+00  0.00000000000E+00 -0.19530167833E+04  0.19530167860E+04  0.10100000352E+00 0. -1.
    10030    2    1    2    0    0  0.00000000000E+00  0.00000000000E+00 -0.10348170838E+04  0.28712164911E+04  0.26782527404E+04 0.  0.
        2    1    3    3  502    0 -0.40317403772E+03  0.81321697046E+03 -0.15729207636E+04  0.18160261216E+04  0.25500000920E-02 0. -1.
       -2    1    3    3    0  502  0.40317403772E+03 -0.81321697046E+03  0.53810367977E+03  0.10551903695E+04  0.25500000920E-02 0.  1.
</event>
<event>
 5   0  0.4655882E-06  0.2693404E+04  0.7818609E-02  0.8337148E-01
        2   -1    0    0  501    0  0.00000000000E+00  0.00000000000E+00  0.22438389110E+04  0.22438389110E+04  0.25500000920E-02 0.  1.
       -2   -1    0    0    0  501  0.00000000000E+00  0.00000000000E+00 -0.80826037558E+03  0.80826037558E+03  0.25500000920E-02 0. -1.
    10030    2    1    2    0    0  0.00000000000E+00  0.00000000000E+00  0.14355785354E+04  0.30520992866E+04  0.26934038546E+04 0.  0.
        1    1    3    3  502    0 -0.10735903350E+04 -0.28390587703E+03 -0.14551447364E+03  0.11199880430E+04  0.50400001928E-02 0. -1.
       -1    1    3    3    0  502  0.10735903350E+04  0.28390587703E+03  0.15810930091E+04  0.19321112436E+04  0.50400001928E-02 0.  1.
</event>
<event>
 5   0  0.1753474E-06  0.2687879E+04  0.7818609E-02  0.8338948E-01
       -1   -1    0    0    0  501  0.00000000000E+00  0.00000000000E+00  0.10598322576E+04  0.10598322576E+04  0.50400001928E-02 0.  1.
        1   -1    0    0  501    0  0.00000000000E+00  0.00000000000E+00 -0.17042071002E+04  0.17042071003E+04  0.50400001928E-02 0. -1.
    10030    2    1    2    0    0  0.00000000000E+00  0.00000000000E+00 -0.64437484268E+03  0.27640393578E+04  0.26878792074E+04 0.  0.
        3    1    3    3  502    0  0.66629162093E+02 -0.11730264803E+04 -0.99316541032E+03  0.15384434053E+04  0.10100000352E+00 0. -1.
       -3    1    3    3    0  502 -0.66629162093E+02  0.11730264803E+04  0.34879056765E+03  0.12255959526E+04  0.10100000352E+00 0.  1.
</event>
<event>
 5   0  0.4448804E-06  0.2653184E+04  0.7818609E-02  0.8350357E-01
        2   -1    0    0  501    0  0.00000000000E+00  0.00000000000E+00  0.82776237737E+03  0.82776237737E+03  0.25500000920E-02 0. -1.
       -2   -1    0    0    0  501  0.00000000000E+00  0.00000000000E+00 -0.21260276327E+04  0.21260276327E+04  0.25500000920E-02 0.  1.
    10030    2    1    2    0    0  0.00000000000E+00  0.00000000000E+00 -0.12982652553E+04  0.29537900101E+04  0.26531835124E+04 0.  0.
        2    1    3    3  502    0  0.62043312282E+02  0.23229384873E+03 -0.21015675530E+04  0.21152768103E+04  0.25500000920E-02 0.  1.
       -2    1    3    3    0  502 -0.62043312282E+02 -0.23229384873E+03  0.80330229762E+03  0.83851319973E+03  0.25500000920E-02 0. -1.
</event>
<event>
 5   0  0.1828511E-06  0.2707182E+04  0.7818609E-02  0.8332678E-01
        1   -1    0    0  501    0  0.00000000000E+00  0.00000000000E+00  0.19207249861E+04  0.19207249861E+04  0.50400001928E-02 0.  1.
       -1   -1    0    0    0  501  0.00000000000E+00  0.00000000000E+00 -0.95391514184E+03  0.95391514186E+03  0.50400001928E-02 0. -1.
    10030    2    1    2    0    0  0.00000000000E+00  0.00000000000E+00  0.96680984426E+03  0.28746401280E+04  0.27071820386E+04 0.  0.
        4    1    3    3  502    0  0.90839690443E+02 -0.17517541141E+03  0.19053692948E+04  0.19155605019E+04  0.12699999809E+01 0.  1.
       -4    1    3    3    0  502 -0.90839690443E+02  0.17517541141E+03 -0.93855945050E+03  0.95907962607E+03  0.12699999809E+01 0. -1.
</event>
<event>
 5   0  0.1732312E-06  0.2696425E+04  0.7818609E-02  0.8336166E-01
       -1   -1    0    0    0  501  0.00000000000E+00  0.00000000000E+00  0.15306975580E+04  0.15306975580E+04  0.50400001928E-02 0.  1.
        1   -1    0    0  501    0  0.00000000000E+00  0.00000000000E+00 -0.11874825285E+04  0.11874825285E+04  0.50400001928E-02 0. -1.
    10030    2    1    2    0    0  0.00000000000E+00  0.00000000000E+00  0.34321502951E+03  0.27181800866E+04  0.26964247489E+04 0.  0.
        5    1    3    3  502    0 -0.38831990719E+03  0.11461864174E+04 -0.42742497858E+03  0.12834523194E+04  0.46999998093E+01 0. -1.
       -5    1    3    3    0  502  0.38831990719E+03 -0.11461864174E+04  0.77064000809E+03  0.14347277672E+04  0.46999998093E+01 0.  1.
</event>
<event>
 5   0  0.4401659E-06  0.2694235E+04  0.7818609E-02  0.8336878E-01
        2   -1    0    0  501    0  0.00000000000E+00  0.00000000000E+00  0.16173691284E+04  0.16173691284E+04  0.25500000920E-02 0.  1.
       -2   -1    0    0    0  501  0.00000000000E+00  0.00000000000E+00 -0.11220228002E+04  0.11220228002E+04  0.25500000920E-02 0. -1.
    10030    2    1    2    0    0  0.00000000000E+00  0.00000000000E+00  0.49534632824E+03  0.27393919286E+04  0.26942346136E+04 0.  0.
        5    1    3    3  502    0 -0.75731675805E+03  0.77824616997E+03  0.10582216328E+04  0.15162621433E+04  0.46999998093E+01 0.  1.
       -5    1    3    3    0  502  0.75731675805E+03 -0.77824616997E+03 -0.56287530456E+03  0.12231297853E+04  0.46999998093E+01 0. -1.
</event>
<event>
 5   0  0.1732312E-06  0.2667631E+04  0.7818609E-02  0.8345585E-01
        1   -1    0    0  501    0  0.00000000000E+00  0.00000000000E+00  0.17584616410E+04  0.17584616410E+04  0.50400001928E-02 0. -1.
       -1   -1    0    0    0  501  0.00000000000E+00  0.00000000000E+00 -0.10117160490E+04  0.10117160490E+04  0.50400001928E-02 0.  1.
    10030    2    1    2    0    0  0.00000000000E+00  0.00000000000E+00  0.74674559198E+03  0.27701776900E+04  0.26676310568E+04 0.  0.
        5    1    3    3  502    0 -0.86299151248E+03  0.64607337254E+03  0.11889799338E+04  0.16049487613E+04  0.46999998093E+01 0. -1.
       -5    1    3    3    0  502  0.86299151248E+03 -0.64607337254E+03 -0.44223434180E+03  0.11652289287E+04  0.46999998093E+01 0.  1.
</event>
<event>
 5   0  0.1771016E-06  0.2698274E+04  0.7818609E-02  0.8335565E-01
       -1   -1    0    0    0  501  0.00000000000E+00  0.00000000000E+00  0.14184905746E+04  0.14184905747E+04  0.50400001928E-02 0.  1.
        1   -1    0    0  501    0  0.00000000000E+00  0.00000000000E+00 -0.12831743463E+04  0.12831743463E+04  0.50400001928E-02 0. -1.
    10030    2    1    2    0    0  0.00000000000E+00  0.00000000000E+00  0.13531622838E+03  0.27016649209E+04  0.26982740527E+04 0.  0.
        2    1    3    3  502    0 -0.27347517577E+03  0.18641970905E+03 -0.12418959578E+04  0.12852418254E+04  0.25500000920E-02 0. -1.
       -2    1    3    3    0  502  0.27347517577E+03 -0.18641970905E+03  0.13772121862E+04  0.14164230955E+04  0.25500000920E-02 0.  1.
</event>
<event>
 5   0  0.4655882E-06  0.2695974E+04  0.7818609E-02  0.8336313E-01
        2   -1    0    0  501    0  0.00000000000E+00  0.00000000000E+00  0.14127766573E+04  0.14127766573E+04  0.25500000920E-02 0.  1.
       -2   -1    0    0    0  501  0.00000000000E+00  0.00000000000E+00 -0.12861681450E+04  0.12861681450E+04  0.25500000920E-02 0. -1.
    10030    2    1    2    0    0  0.00000000000E+00  0.00000000000E+00  0.12660851235E+03  0.26989448023E+04  0.26959735404E+04 0.  0.
        1    1    3    3  502    0  0.81303475821E+03 -0.18635292350E+03  0.11233931168E+04  0.13992015670E+04  0.50400001928E-02 0.  1.
       -1    1    3    3    0  502 -0.81303475821E+03  0.18635292350E+03 -0.99678460443E+03  0.12997432353E+04  0.50400001928E-02 0. -1.
</event>
<event>
 5   0  0.1723605E-06  0.2698075E+04  0.7818609E-02  0.8335630E-01
       -1   -1    0    0    0  501  0.00000000000E+00  0.00000000000E+00  0.22663361841E+04  0.22663361841E+04  0.50400001928E-02 0.  1.
        1   -1    0    0  501    0  0.00000000000E+00  0.00000000000E+00 -0.80301518898E+03  0.80301518899E+03  0.50400001928E-02 0. -1.
    10030    2    1    2    0    0  0.00000000000E+00  0.00000000000E+00  0.14633209951E+04  0.30693513731E+04  0.26980751503E+04 0.  0.
        1    1    3    3  502    0 -0.10458691861E+04 -0.84724424225E+03  0.62841220816E+03  0.14854518046E+04  0.50400001928E-02 0. -1.
       -1    1    3    3    0  502  0.10458691861E+04  0.84724424225E+03  0.83490878696E+03  0.15838995685E+04  0.50400001928E-02 0.  1.
</event>
<event>
 5   0  0.4655882E-06  0.2700364E+04  0.7818609E-02  0.8334887E-01
        2   -1    0    0  501    0  0.00000000000E+00  0.00000000000E+00  0.32419410336E+04  0.32419410336E+04  0.25500000920E-02 0. -1.
       -2   -1    0    0    0  501  0.00000000000E+00  0.00000000000E+00 -0.56231488683E+03  0.56231488684E+03  0.25500000920E-02 0.  1.
    10030    2    1    2    0    0  0.00000000000E+00  0.00000000000E+00  0.26796261468E+04  0.38042559205E+04  0.27003642017E+04 0.  0.
        1    1    3    3  502    0 -0.32319088415E+03  0.36289314120E+03  0.31144725701E+04  0.31521553213E+04  0.50400001928E-02 0. -1.
       -1    1    3    3    0  502  0.32319088415E+03 -0.36289314120E+03 -0.43484642332E+03  0.65210059917E+03  0.50400001928E-02 0.  1.
</event>
<event>
 5   0  0.4655882E-06  0.2711911E+04  0.7818609E-02  0.8331151E-01
       -2   -1    0    0    0  501  0.00000000000E+00  0.00000000000E+00  0.12467758052E+04  0.12467758052E+04  0.25500000920E-02 0. -1.
        2   -1    0    0  501    0  0.00000000000E+00  0.00000000000E+00 -0.14746954863E+04  0.14746954863E+04  0.25500000920E-02 0.  1.
    10030    2    1    2    0    0  0.00000000000E+00  0.00000000000E+00 -0.22791968113E+03  0.27214712916E+04  0.27119105092E+04 0.  0.
        1    1    3    3  502    0  0.19098640024E+03 -0.28121856451E+03  0.12033197687E+04  0.12504151918E+04  0.50400001928E-02 0. -1.
       -1    1    3    3    0  502 -0.19098640024E+03  0.28121856451E+03 -0.14312394498E+04  0.14710560998E+04  0.50400001928E-02 0.  1.
</event>
<event>
 5   0  0.1828511E-06  0.2682214E+04  0.7818609E-02  0.8340799E-01
        1   -1    0    0  501    0  0.00000000000E+00  0.00000000000E+00  0.15674869484E+04  0.15674869484E+04  0.50400001928E-02 0.  1.
       -1   -1    0    0    0  501  0.00000000000E+00  0.00000000000E+00 -0.11474215598E+04  0.11474215598E+04  0.50400001928E-02 0. -1.
    10030    2    1    2    0    0  0.00000000000E+00  0.00000000000E+00  0.42006538862E+03  0.27149085082E+04  0.26822142489E+04 0.  0.
        4    1    3    3  502    0 -0.11439564456E+04 -0.52458665003E+02 -0.49645689379E+03  0.12481423482E+04  0.12699999809E+01 0. -1.
       -4    1    3    3    0  502  0.11439564456E+04  0.52458665003E+02  0.91652228242E+03  0.14667661600E+04  0.12699999809E+01 0.  1.
</event>
<event>
 5   0  0.1732312E-06  0.2618666E+04  0.7818609E-02  0.8361888E-01
       -1   -1    0    0    0  501  0.00000000000E+00  0.00000000000E+00  0.93057226209E+03  0.93057226210E+03  0.50400001928E-02 0. -1.
        1   -1    0    0  501    0  0.00000000000E+00  0.00000000000E+00 -0.18422560151E+04  0.18422560151E+04  0.50400001928E-02 0.  1.
    10030    2    1    2    0    0  0.00000000000E+00  0.00000000000E+00 -0.91168375299E+03  0.27728282772E+04  0.26186655742E+04 0.  0.
        5    1    3    3  502    0  0.37053714766E+03  0.29174562223E+03  0.83750572674E+03  0.96117179433E+03  0.46999998093E+01 0. -1.
       -5    1    3    3    0  502 -0.37053714766E+03 -0.29174562223E+03 -0.17491894797E+04  0.18116564829E+04  0.46999998093E+01 0.  1.
</event>
<event>
 5   0  0.4439357E-06  0.2677450E+04  0.7818609E-02  0.8342359E-01
       -2   -1    0    0    0  501  0.00000000000E+00  0.00000000000E+00  0.13580540981E+04  0.13580540982E+04  0.25500000920E-02 0.  1.
        2   -1    0    0  501    0  0.00000000000E+00  0.00000000000E+00 -0.13196709825E+04  0.13196709825E+04  0.25500000920E-02 0. -1.
    10030    2    1    2    0    0  0.00000000000E+00  0.00000000000E+00  0.38383115627E+02  0.26777250807E+04  0.26774499704E+04 0.  0.
        4    1    3    3  502    0  0.36033791605E+03  0.10190113092E+04  0.80918126767E+03  0.13501864311E+04  0.12699999809E+01 0.  1.
       -4    1    3    3    0  502 -0.36033791605E+03 -0.10190113092E+04 -0.77079815204E+03  0.13275386495E+04  0.12699999809E+01 0. -1.
</event>
<event>
 5   0  0.1828511E-06  0.2692447E+04  0.7818609E-02  0.8337460E-01
        1   -1    0    0  501    0  0.00000000000E+00  0.00000000000E+00  0.15154157596E+04  0.15154157596E+04  0.50400001928E-02 0. -1.
       -1   -1    0    0    0  501  0.00000000000E+00  0.00000000000E+00 -0.11959209513E+04  0.11959209513E+04  0.50400001928E-02 0.  1.
    10030    2    1    2    0    0  0.00000000000E+00  0.00000000000E+00  0.31949480833E+03  0.27113367109E+04  0.26924468105E+04 0.  0.
        4    1    3    3  502    0 -0.96497853404E+03  0.91897448201E+03  0.35244871320E+03  0.13783756303E+04  0.12699999809E+01 0.  1.
       -4    1    3    3    0  502  0.96497853404E+03 -0.91897448201E+03 -0.32953904866E+02  0.13329610806E+04  0.12699999809E+01 0. -1.
</event>
<event>
 5   0  0.1723605E-06  0.2560371E+04  0.7818609E-02  0.8381788E-01
       -1   -1    0    0    0  501  0.00000000000E+00  0.00000000000E+00  0.94784851344E+03  0.94784851345E+03  0.50400001928E-02 0. -1.
        1   -1    0    0  501    0  0.00000000000E+00  0.00000000000E+00 -0.17290474840E+04  0.17290474840E+04  0.50400001928E-02 0.  1.
    10030    2    1    2    0    0  0.00000000000E+00  0.00000000000E+00 -0.78119897054E+03  0.26768959974E+04  0.25603711351E+04 0.  0.
        1    1    3    3  502    0  0.34547675330E+03 -0.78035713234E+03  0.60706320140E+03  0.10472999435E+04  0.50400001928E-02 0. -1.
       -1    1    3    3    0  502 -0.34547675330E+03  0.78035713234E+03 -0.13882621719E+04  0.16295960540E+04  0.50400001928E-02 0.  1.
</event>
<event>
 5   0  0.1732312E-06  0.2799901E+04  0.7818609E-02  0.8303299E-01
       -1   -1    0    0    0  501  0.00000000000E+00  0.00000000000E+00  0.13920944174E+04  0.13920944174E+04  0.50400001928E-02 0.  1.
        1   -1    0    0  501    0  0.00000000000E+00  0.00000000000E+00 -0.14078507025E+04  0.14078507025E+04  0.50400001928E-02 0. -1.
    10030    2    1    2    0    0  0.00000000000E+00  0.00000000000E+00 -0.15756285120E+02  0.27999451199E+04  0.27999007864E+04 0.  0.
        5    1    3    3  502    0 -0.13154509007E+04 -0.42756789243E+03 -0.22378347999E+03  0.14011875359E+04  0.46999998093E+01 0. -1.
       -5    1    3    3    0  502  0.13154509007E+04  0.42756789243E+03  0.20802719487E+03  0.13987575840E+04  0.46999998093E+01 0.  1.
</event>
<event>
 5   0  0.4439357E-06  0.2704990E+04  0.7818609E-02  0.8333388E-01
       -2   -1    0    0    0  501  0.00000000000E+00  0.00000000000E+00  0.72972910620E+03  0.72972910620E+03  0.25500000920E-02 0.  1.
        2   -1    0    0  501    0  0.00000000000E+00  0.00000000000E+00 -0.25067430201E+04  0.25067430201E+04  0.25500000920E-02 0. -1.
    10030    2    1    2    0    0  0.00000000000E+00  0.00000000000E+00 -0.17770139139E+04  0.32364721263E+04  0.27049904573E+04 0.  0.
        4    1    3    3  502    0 -0.10599868763E+04  0.58748133358E+02 -0.18911403787E+04  0.21687408942E+04  0.12699999809E+01 0. -1.
       -4    1    3    3    0  502  0.10599868763E+04 -0.58748133358E+02  0.11412646485E+03  0.10677312321E+04  0.12699999809E+01 0.  1.
</event>
<event>
 5   0  0.4448804E-06  0.2682626E+04  0.7818609E-02  0.8340664E-01
        2   -1    0    0  501    0  0.00000000000E+00  0.00000000000E+00  0.23784402712E+04  0.23784402712E+04  0.25500000920E-02 0.  1.
       -2   -1    0    0    0  501  0.00000000000E+00  0.00000000000E+00 -0.75642862915E+03  0.75642862916E+03  0.25500000920E-02 0. -1.
    10030    2    1    2    0    0  0.00000000000E+00  0.00000000000E+00  0.16220116421E+04  0.31348689004E+04  0.26826258135E+04 0.  0.
        2    1    3    3  502    0 -0.53403398760E+03  0.12201230598E+04  0.99661455010E+03  0.16634702108E+04  0.25500000920E-02 0.  1.
       -2    1    3    3    0  502  0.53403398760E+03 -0.12201230598E+04  0.62539709196E+03  0.14713986895E+04  0.25500000920E-02 0. -1.
</event>
<event>
 5   0  0.1732312E-06  0.2711010E+04  0.7818609E-02  0.8331441E-01
        1   -1    0    0  501    0  0.00000000000E+00  0.00000000000E+00  0.11671542031E+04  0.11671542031E+04  0.50400001928E-02 0.  1.
       -1   -1    0    0    0  501  0.00000000000E+00  0.00000000000E+00 -0.15742513638E+04  0.15742513638E+04  0.50400001928E-02 0. -1.
    10030    2    1    2    0    0  0.00000000000E+00  0.00000000000E+00 -0.40709716066E+03  0.27414055669E+04  0.27110102147E+04 0.  0.
        5    1    3    3  502    0 -0.10839713225E+04  0.32063348058E+03 -0.95998121873E+03  0.14830325981E+04  0.46999998093E+01 0. -1.
       -5    1    3    3    0  502  0.10839713225E+04 -0.32063348058E+03  0.55288405807E+03  0.12583729688E+04  0.46999998093E+01 0.  1.
</event>
<event>
 5   0  0.1723605E-06  0.2701367E+04  0.7818609E-02  0.8334562E-01
       -1   -1    0    0    0  501  0.00000000000E+00  0.00000000000E+00  0.75035211684E+03  0.75035211685E+03  0.50400001928E-02 0.  1.
        1   -1    0    0  501    0  0.00000000000E+00  0.00000000000E+00 -0.24313190274E+04  0.24313190274E+04  0.50400001928E-02 0. -1.
    10030    2    1    2    0    0  0.00000000000E+00  0.00000000000E+00 -0.16809669106E+04  0.31816711443E+04  0.27013666015E+04 0.  0.
        1    1    3    3  502    0  0.14995604393E+03  0.70296892412E+03  0.50638352215E+03  0.87924763003E+03  0.50400001928E-02 0.  1.
       -1    1    3    3    0  502 -0.14995604393E+03 -0.70296892412E+03 -0.21873504328E+04  0.23024235143E+04  0.50400001928E-02 0. -1.
</event>
<event>
 5   0  0.4487186E-06  0.2695913E+04  0.7818609E-02  0.8336332E-01
        2   -1    0    0  501    0  0.00000000000E+00  0.00000000000E+00  0.23162802865E+04  0.23162802865E+04  0.25500000920E-02 0.  1.
       -2   -1    0    0    0  501  0.00000000000E+00  0.00000000000E+00 -0.78444184649E+03  0.78444184649E+03  0.25500000920E-02 0. -1.
    10030    2    1    2    0    0  0.00000000000E+00  0.00000000000E+00  0.15318384400E+04  0.31007221330E+04  0.26959133406E+04 0.  0.
        3    1    3    3  502    0  0.70360753878E+02  0.12373862310E+04  0.15632343584E+03  0.12492046858E+04  0.10100000352E+00 0. -1.
       -3    1    3    3    0  502 -0.70360753878E+02 -0.12373862310E+04  0.13755150042E+04  0.18515174472E+04  0.10100000352E+00 0.  1.
</event>
<event>
 5   0  0.4439357E-06  0.2707817E+04  0.7818609E-02  0.8332473E-01
        2   -1    0    0  501    0  0.00000000000E+00  0.00000000000E+00  0.12100903791E+04  0.12100903791E+04  0.25500000920E-02 0.  1.
       -2   -1    0    0    0  501  0.00000000000E+00  0.00000000000E+00 -0.15148197306E+04  0.15148197306E+04  0.25500000920E-02 0. -1.
    10030    2    1    2    0    0  0.00000000000E+00  0.00000000000E+00 -0.30472935145E+03  0.27249101097E+04  0.27078174105E+04 0.  0.
        4    1    3    3  502    0 -0.13324049733E+04 -0.32120539706E+02 -0.39205388697E+03  0.13892597328E+04  0.12699999809E+01 0.  1.
       -4    1    3    3    0  502  0.13324049733E+04  0.32120539706E+02  0.87324535525E+02  0.13356503769E+04  0.12699999809E+01 0. -1.
</event>
<event>
 5   0  0.4439357E-06  0.2709852E+04  0.7818609E-02  0.8331815E-01
        2   -1    0    0  501    0  0.00000000000E+00  0.00000000000E+00  0.77460935542E+03  0.77460935543E+03  0.25500000920E-02 0.  1.
       -2   -1    0    0    0  501  0.00000000000E+00  0.00000000000E+00 -0.23700009289E+04  0.23700009289E+04  0.25500000920E-02 0. -1.
    10030    2    1    2    0    0  0.00000000000E+00  0.00000000000E+00 -0.15953915735E+04  0.31446102843E+04  0.27098523147E+04 0.  0.
        4    1    3    3  502    0 -0.22586949112E+03  0.11016360198E+04 -0.16747308447E+04  0.20172615007E+04  0.12699999809E+01 0. -1.
       -4    1    3    3    0  502  0.22586949112E+03 -0.11016360198E+04  0.79339271266E+02  0.11273487836E+04  0.12699999809E+01 0.  1.
</event>
<event>
 5   0  0.1753474E-06  0.2549755E+04  0.7818609E-02  0.8385472E-01
        1   -1    0    0  501    0  0.00000000000E+00  0.00000000000E+00  0.86084561823E+03  0.86084561825E+03  0.50400001928E-02 0. -1.
       -1   -1    0    0    0  501  0.00000000000E+00  0.00000000000E+00 -0.18880412862E+04  0.18880412862E+04  0.50400001928E-02 0.  1.
    10030    2    1    2    0    0  0.00000000000E+00  0.00000000000E+00 -0.10271956680E+04  0.27488869045E+04  0.25497545516E+04 0.  0.
        3    1    3    3  502    0 -0.51328047983E+03 -0.10576620685E+03 -0.17665454588E+04  0.18426410963E+04  0.10100000352E+00 0.  1.
       -3    1    3    3    0  502  0.51328047983E+03  0.10576620685E+03  0.73934979082E+03  0.90624580819E+03  0.10100000352E+00 0. -1.
</event>
<event>
 5   0  0.1732312E-06  0.2853261E+04  0.7818609E-02  0.8286921E-01
        1   -1    0    0  501    0  0.00000000000E+00  0.00000000000E+00  0.19976341140E+04  0.19976341140E+04  0.50400001928E-02 0. -1.
       -1   -1    0    0    0  501  0.00000000000E+00  0.00000000000E+00 -0.10188422233E+04  0.10188422233E+04  0.50400001928E-02 0.  1.
    10030    2    1    2    0    0  0.00000000000E+00  0.00000000000E+00  0.97879189066E+03  0.30164763373E+04  0.28532605784E+04 0.  0.
        5    1    3    3  502    0  0.60188700512E+03 -0.91877746014E+03 -0.47308406110E+03  0.11959308538E+04  0.46999998093E+01 0.  1.
       -5    1    3    3    0  502 -0.60188700512E+03  0.91877746014E+03  0.14518759518E+04  0.18205454835E+04  0.46999998093E+01 0. -1.
</event>
<event>
 5   0  0.1753474E-06  0.2701915E+04  0.7818609E-02  0.8334384E-01
       -1   -1    0    0    0  501  0.00000000000E+00  0.00000000000E+00  0.74107982763E+03  0.74107982765E+03  0.50400001928E-02 0. -1.
        1   -1    0    0  501    0  0.00000000000E+00  0.00000000000E+00 -0.24627381677E+04  0.24627381677E+04  0.50400001928E-02 0.  1.
    10030    2    1    2    0    0  0.00000000000E+00  0.00000000000E+00 -0.17216583400E+04  0.32038179953E+04  0.27019145633E+04 0.  0.
        3    1    3    3  502    0 -0.19839605471E+03 -0.72602444942E+03 -0.21911069687E+04  0.23167697887E+04  0.10100000352E+00 0.  1.
       -3    1    3    3    0  502  0.19839605471E+03  0.72602444942E+03  0.46944862863E+03  0.88704820658E+03  0.10100000352E+00 0. -1.
</event>
<event>
 5   0  0.1771016E-06  0.2698200E+04  0.7818609E-02  0.8335589E-01
       -1   -1    0    0    0  501  0.00000000000E+00  0.00000000000E+00  0.78787380479E+03  0.78787380481E+03  0.50400001928E-02 0.  1.
        1   -1    0    0  501    0  0.00000000000E+00  0.00000000000E+00 -0.23101048111E+04  0.23101048111E+04  0.50400001928E-02 0. -1.
    10030    2    1    2    0    0  0.00000000000E+00  0.00000000000E+00 -0.15222310063E+04  0.30979786159E+04  0.26982001905E+04 0.  0.
        2    1    3    3  502    0  0.19316221967E+03 -0.50195162682E+03  0.65945907851E+03  0.85097200601E+03  0.25500000920E-02 0.  1.
       -2    1    3    3    0  502 -0.19316221967E+03  0.50195162682E+03 -0.21816900848E+04  0.22470066099E+04  0.25500000920E-02 0. -1.
</event>
<event>
 5   0  0.4487186E-06  0.2696977E+04  0.7818609E-02  0.8335987E-01
        2   -1    0    0  501    0  0.00000000000E+00  0.00000000000E+00  0.15230737921E+04  0.15230737921E+04  0.25500000920E-02 0.  1.
       -2   -1    0    0    0  501  0.00000000000E+00  0.00000000000E+00 -0.11939149500E+04  0.11939149500E+04  0.25500000920E-02 0. -1.
    10030    2    1    2    0    0  0.00000000000E+00  0.00000000000E+00  0.32915884208E+03  0.27169887421E+04  0.26969765074E+04 0.  0.
        3    1    3    3  502    0 -0.27147855601E+03 -0.15165398403E+03 -0.11573006852E+04  0.11983507097E+04  0.10100000352E+00 0. -1.
       -3    1    3    3    0  502  0.27147855601E+03  0.15165398403E+03  0.14864595273E+04  0.15186380325E+04  0.10100000352E+00 0.  1.
</event>
<event>
 5   0  0.4487186E-06  0.2711036E+04  0.7818609E-02  0.8331433E-01
        2   -1    0    0  501    0  0.00000000000E+00  0.00000000000E+00  0.14258700337E+04  0.14258700337E+04  0.25500000920E-02 0.  1.
       -2   -1    0    0    0  501  0.00000000000E+00  0.00000000000E+00 -0.12886370535E+04  0.12886370535E+04  0.25500000920E-02 0. -1.
    10030    2    1    2    0    0  0.00000000000E+00  0.00000000000E+00  0.13723298024E+03  0.27145070872E+04  0.27110359340E+04 0.  0.
        3    1    3    3  502    0  0.96014974689E+03  0.64777983831E+03  0.77373594396E+03  0.13929011367E+04  0.10100000352E+00 0.  1.
       -3    1    3    3    0  502 -0.96014974689E+03 -0.64777983831E+03 -0.63650296373E+03  0.13216059505E+04  0.10100000352E+00 0. -1.
</event>
<event>
 5   0  0.1732312E-06  0.2700425E+04  0.7818609E-02  0.8334867E-01
        1   -1    0    0  501    0  0.00000000000E+00  0.00000000000E+00  0.97245452499E+03  0.97245452500E+03  0.50400001928E-02 0. -1.
       -1   -1    0    0    0  501  0.00000000000E+00  0.00000000000E+00 -0.18747134180E+04  0.18747134180E+04  0.50400001928E-02 0.  1.
    10030    2    1    2    0    0  0.00000000000E+00  0.00000000000E+00 -0.90225889300E+03  0.28471679430E+04  0.27004248158E+04 0.  0.
        5    1    3    3  502    0 -0.79172438376E+03 -0.45577172315E+03 -0.14993881415E+04  0.17557739753E+04  0.46999998093E+01 0.  1.
       -5    1    3    3    0  502  0.79172438376E+03  0.45577172315E+03  0.59712924845E+03  0.10913939677E+04  0.46999998093E+01 0. -1.
</event>
<event>
 5   0  0.4448804E-06  0.2704950E+04  0.7818609E-02  0.8333401E-01
        2   -1    0    0  501    0  0.00000000000E+00  0.00000000000E+00  0.20473988774E+04  0.20473988774E+04  0.25500000920E-02 0. -1.
       -2   -1    0    0    0  501  0.00000000000E+00  0.00000000000E+00 -0.89342095435E+03  0.89342095435E+03  0.25500000920E-02 0.  1.
    10030    2    1    2    0    0  0.00000000000E+00  0.00000000000E+00  0.11539779231E+04  0.29408198318E+04  0.27049503204E+04 0.  0.
        2    1    3    3  502    0 -0.18001504008E+03  0.51623243496E+03  0.19219065447E+04  0.19981556766E+04  0.25500000920E-02 0. -1.
       -2    1    3    3    0  502  0.18001504008E+03 -0.51623243496E+03 -0.76792862159E+03  0.94266415516E+03  0.25500000920E-02 0.  1.
</event>
<event>
 5   0  0.4655882E-06  0.2676960E+04  0.7818609E-02  0.8342519E-01
        2   -1    0    0  501    0  0.00000000000E+00  0.00000000000E+00  0.11148743055E+04  0.11148743055E+04  0.25500000920E-02 0. -1.
       -2   -1    0    0    0  501  0.00000000000E+00  0.00000000000E+00 -0.16069339355E+04  0.16069339355E+04  0.25500000920E-02 0.  1.
    10030    2    1    2    0    0  0.00000000000E+00  0.00000000000E+00 -0.49205963005E+03  0.27218082410E+04  0.26769604818E+04 0.  0.
        1    1    3    3  502    0 -0.34732807490E+03  0.84566365166E+02 -0.15575000443E+04  0.15979970744E+04  0.50400001928E-02 0.  1.
       -1    1    3    3    0  502  0.34732807490E+03 -0.84566365166E+02  0.10654404143E+04  0.11238111666E+04  0.50400001928E-02 0. -1.
</event>
<event>
 5   0  0.4439357E-06  0.2680131E+04  0.7818609E-02  0.8341481E-01
        2   -1    0    0  501    0  0.00000000000E+00  0.00000000000E+00  0.16694285897E+04  0.16694285897E+04  0.25500000920E-02 0. -1.
       -2   -1    0    0    0  501  0.00000000000E+00  0.00000000000E+00 -0.10756828506E+04  0.10756828506E+04  0.25500000920E-02 0.  1.
    10030    2    1    2    0    0  0.00000000000E+00  0.00000000000E+00  0.59374573905E+03  0.27451114403E+04  0.26801311193E+04 0.  0.
        4    1    3    3  502    0 -0.10132194246E+04 -0.78512702003E+03 -0.10341710926E+03  0.12859761861E+04  0.12699999809E+01 0. -1.
       -4    1    3    3    0  502  0.10132194246E+04  0.78512702003E+03  0.69716284830E+03  0.14591352541E+04  0.12699999809E+01 0.  1.
</event>
<event>
 5   0  0.1732312E-06  0.2698700E+04  0.7818609E-02  0.8335427E-01
       -1   -1    0    0    0  501  0.00000000000E+00  0.00000000000E+00  0.12241074374E+04  0.12241074374E+04  0.50400001928E-02 0. -1.
        1   -1    0    0  501    0  0.00000000000E+00  0.00000000000E+00 -0.14874065608E+04  0.14874065608E+04  0.50400001928E-02 0.  1.
    10030    2    1    2    0    0  0.00000000000E+00  0.00000000000E+00 -0.26329912337E+03  0.27115139982E+04  0.26987000082E+04 0.  0.
        5    1    3    3  502    0  0.10216847778E+04  0.35381082015E+03 -0.94276298380E+03  0.14345194371E+04  0.46999998093E+01 0.  1.
       -5    1    3    3    0  502 -0.10216847778E+04 -0.35381082015E+03  0.67946386044E+03  0.12769945612E+04  0.46999998093E+01 0. -1.
</event>
<event>
 5   0  0.4655882E-06  0.2669211E+04  0.7818609E-02  0.8345065E-01
       -2   -1    0    0    0  501  0.00000000000E+00  0.00000000000E+00  0.11683008395E+04  0.11683008395E+04  0.25500000920E-02 0. -1.
        2   -1    0    0  501    0  0.00000000000E+00  0.00000000000E+00 -0.15245833942E+04  0.15245833942E+04  0.25500000920E-02 0.  1.
    10030    2    1    2    0    0  0.00000000000E+00  0.00000000000E+00 -0.35628255474E+03  0.26928842337E+04  0.26692111639E+04 0.  0.
        1    1    3    3  502    0  0.53051532519E+03  0.10723745704E+04  0.41849048099E+03  0.12675046399E+04  0.50400001928E-02 0. -1.
       -1    1    3    3    0  502 -0.53051532519E+03 -0.10723745704E+04 -0.77477303573E+03  0.14253795938E+04  0.50400001928E-02 0.  1.
</event>
<event>
 5   0  0.4401659E-06  0.2666596E+04  0.7818609E-02  0.8345925E-01
       -2   -1    0    0    0  501  0.00000000000E+00  0.00000000000E+00  0.17328044248E+04  0.17328044248E+04  0.25500000920E-02 0. -1.
        2   -1    0    0  501    0  0.00000000000E+00  0.00000000000E+00 -0.10258996706E+04  0.10258996706E+04  0.25500000920E-02 0.  1.
    10030    2    1    2    0    0  0.00000000000E+00  0.00000000000E+00  0.70690475421E+03  0.27587040953E+04  0.26665959488E+04 0.  0.
        5    1    3    3  502    0  0.17211329511E+03  0.13151736985E+04  0.49361863966E+03  0.14152689833E+04  0.46999998093E+01 0. -1.
       -5    1    3    3    0  502 -0.17211329511E+03 -0.13151736985E+04  0.21328611454E+03  0.13434351120E+04  0.46999998093E+01 0.  1.
</event>
<event>
 5   0  0.1828511E-06  0.2698747E+04  0.7818609E-02  0.8335411E-01
       -1   -1    0    0    0  501  0.00000000000E+00  0.00000000000E+00  0.84972680036E+03  0.84972680038E+03  0.50400001928E-02 0. -1.
        1   -1    0    0  501    0  0.00000000000E+00  0.00000000000E+00 -0.21428175388E+04  0.21428175388E+04  0.50400001928E-02 0.  1.
    10030    2    1    2    0    0  0.00000000000E+00  0.00000000000E+00 -0.12930907384E+04  0.29925443392E+04  0.26987474806E+04 0.  0.
        4    1    3    3  502    0  0.92752306420E+03 -0.72750676877E+03  0.81635466224E+02  0.11816222304E+04  0.12699999809E+01 0. -1.
       -4    1    3    3    0  502 -0.92752306420E+03  0.72750676877E+03 -0.13747262046E+04  0.18109221087E+04  0.12699999809E+01 0.  1.
</event>
<event>
 5   0  0.4401659E-06  0.2700929E+04  0.7818609E-02  0.8334703E-01
        2   -1    0    0  501    0  0.00000000000E+00  0.00000000000E+00  0.18657505860E+04  0.18657505860E+04  0.25500000920E-02 0.  1.
       -2   -1    0    0    0  501  0.00000000000E+00  0.00000000000E+00 -0.97749133215E+03  0.97749133216E+03  0.25500000920E-02 0. -1.
    10030    2    1    2    0    0  0.00000000000E+00  0.00000000000E+00  0.88825925383E+03  0.28432419181E+04  0.27009294887E+04 0.  0.
        5    1    3    3  502    0 -0.85788358355E+03 -0.57664538591E+03  0.13589705563E+04  0.17074270722E+04  0.46999998093E+01 0.  1.
       -5    1    3    3    0  502  0.85788358355E+03  0.57664538591E+03 -0.47071130246E+03  0.11358148459E+04  0.46999998093E+01 0. -1.
</event>
<event>
 5   0  0.4448804E-06  0.2711170E+04  0.7818609E-02  0.8331390E-01
        2   -1    0    0  501    0  0.00000000000E+00  0.00000000000E+00  0.22712602078E+04  0.22712602078E+04  0.25500000920E-02 0.  1.
       -2   -1    0    0    0  501  0.00000000000E+00  0.00000000000E+00 -0.80907079745E+03  0.80907079746E+03  0.25500000920E-02 0. -1.
    10030    2    1    2    0    0  0.00000000000E+00  0.00000000000E+00  0.14621894103E+04  0.30803310052E+04  0.27111697162E+04 0.  0.
        2    1    3    3  502    0  0.30059823331E+03 -0.53341453781E+02  0.22316929389E+04  0.22524781868E+04  0.25500000920E-02 0.  1.
       -2    1    3    3    0  502 -0.30059823331E+03  0.53341453781E+02 -0.76950352854E+03  0.82785281845E+03  0.25500000920E-02 0. -1.
</event>
<event>
 5   0  0.4448804E-06  0.2697250E+04  0.7818609E-02  0.8335898E-01
       -2   -1    0    0    0  501  0.00000000000E+00  0.00000000000E+00  0.11172900711E+04  0.11172900712E+04  0.25500000920E-02 0. -1.
        2   -1    0    0  501    0  0.00000000000E+00  0.00000000000E+00 -0.16278574325E+04  0.16278574325E+04  0.25500000920E-02 0.  1.
    10030    2    1    2    0    0  0.00000000000E+00  0.00000000000E+00 -0.51056736133E+03  0.27451475036E+04  0.26972496707E+04 0.  0.
        2    1    3    3  502    0 -0.38778303681E+03 -0.85367931608E+03 -0.12418502936E+04  0.15560643335E+04  0.25500000920E-02 0.  1.
       -2    1    3    3    0  502  0.38778303681E+03  0.85367931608E+03  0.73128293229E+03  0.11890831701E+04  0.25500000920E-02 0. -1.
</event>
<event>
 5   0  0.1753474E-06  0.2697868E+04  0.7818609E-02  0.8335697E-01
       -1   -1    0    0    0  501  0.00000000000E+00  0.00000000000E+00  0.10988256631E+04  0.10988256631E+04  0.50400001928E-02 0. -1.
        1   -1    0    0  501    0  0.00000000000E+00  0.00000000000E+00 -0.16559703028E+04  0.16559703028E+04  0.50400001928E-02 0.  1.
    10030    2    1    2    0    0  0.00000000000E+00  0.00000000000E+00 -0.55714463969E+03  0.27547959659E+04  0.26978677997E+04 0.  0.
        3    1    3    3  502    0  0.68605453373E+03  0.10405223566E+03 -0.14597551091E+04  0.16162866947E+04  0.10100000352E+00 0.  1.
       -3    1    3    3    0  502 -0.68605453373E+03 -0.10405223566E+03  0.90261046936E+03  0.11385092712E+04  0.10100000352E+00 0. -1.
</event>
<event>
 5   0  0.1771016E-06  0.2697639E+04  0.7818609E-02  0.8335772E-01
       -1   -1    0    0    0  501  0.00000000000E+00  0.00000000000E+00  0.10901341749E+04  0.10901341749E+04  0.50400001928E-02 0.  1.
        1   -1    0    0  501    0  0.00000000000E+00  0.00000000000E+00 -0.16688896357E+04  0.16688896357E+04  0.50400001928E-02 0. -1.
    10030    2    1    2    0    0  0.00000000000E+00  0.00000000000E+00 -0.57875546074E+03  0.27590238106E+04  0.26976386905E+04 0.  0.
        2    1    3    3  502    0  0.80265468039E+02 -0.10965725973E+04 -0.10884366318E+04  0.15471290534E+04  0.25500000920E-02 0. -1.
       -2    1    3    3    0  502 -0.80265468039E+02  0.10965725973E+04  0.50968117107E+03  0.12118947572E+04  0.25500000920E-02 0.  1.
</event>
<event>
 5   0  0.4655882E-06  0.2691590E+04  0.7818609E-02  0.8337739E-01
        2   -1    0    0  501    0  0.00000000000E+00  0.00000000000E+00  0.13284913352E+04  0.13284913352E+04  0.25500000920E-02 0. -1.
       -2   -1    0    0    0  501  0.00000000000E+00  0.00000000000E+00 -0.13633243085E+04  0.13633243085E+04  0.25500000920E-02 0.  1.
    10030    2    1    2    0    0  0.00000000000E+00  0.00000000000E+00 -0.34832973302E+02  0.26918156437E+04  0.26915902592E+04 0.  0.
        1    1    3    3  502    0  0.89335838189E+03 -0.38756931816E+03  0.91156675795E+03  0.13338864753E+04  0.50400001928E-02 0. -1.
       -1    1    3    3    0  502 -0.89335838189E+03  0.38756931816E+03 -0.94639973125E+03  0.13579291683E+04  0.50400001928E-02 0.  1.
</event>
<event>
 5   0  0.1771016E-06  0.2715361E+04  0.7818609E-02  0.8330038E-01
       -1   -1    0    0    0  501  0.00000000000E+00  0.00000000000E+00  0.11716714628E+04  0.11716714628E+04  0.50400001928E-02 0. -1.
        1   -1    0    0  501    0  0.00000000000E+00  0.00000000000E+00 -0.15732200131E+04  0.15732200131E+04  0.50400001928E-02 0.  1.
    10030    2    1    2    0    0  0.00000000000E+00  0.00000000000E+00 -0.40154855028E+03  0.27448914758E+04  0.27153614816E+04 0.  0.
        2    1    3    3  502    0 -0.10018014253E+04  0.41859982186E+03  0.62323786262E+03  0.12519014897E+04  0.25500000920E-02 0. -1.
       -2    1    3    3    0  502  0.10018014253E+04 -0.41859982186E+03 -0.10247864129E+04  0.14929899861E+04  0.25500000920E-02 0.  1.
</event>
<event>
 5   0  0.1732312E-06  0.2732008E+04  0.7818609E-02  0.8324694E-01
        1   -1    0    0  501    0  0.00000000000E+00  0.00000000000E+00  0.68432252560E+03  0.68432252562E+03  0.50400001928E-02 0.  1.
       -1   -1    0    0    0  501  0.00000000000E+00  0.00000000000E+00 -0.27267364323E+04  0.27267364323E+04  0.50400001928E-02 0. -1.
    10030    2    1    2    0    0  0.00000000000E+00  0.00000000000E+00 -0.20424139067E+04  0.34110589579E+04  0.27320081713E+04 0.  0.
        5    1    3    3  502    0 -0.12980589079E+04  0.35978322437E+03 -0.13046703775E+04  0.18752567240E+04  0.46999998093E+01 0. -1.
       -5    1    3    3    0  502  0.12980589079E+04 -0.35978322437E+03 -0.73774352916E+03  0.15358022339E+04  0.46999998093E+01 0.  1.
</event>
<event>
 5   0  0.4401659E-06  0.2673607E+04  0.7818609E-02  0.8343620E-01
       -2   -1    0    0    0  501  0.00000000000E+00  0.00000000000E+00  0.10026346041E+04  0.10026346041E+04  0.25500000920E-02 0.  1.
        2   -1    0    0  501    0  0.00000000000E+00  0.00000000000E+00 -0.17823474291E+04  0.17823474291E+04  0.25500000920E-02 0. -1.
    10030    2    1    2    0    0  0.00000000000E+00  0.00000000000E+00 -0.77971282503E+03  0.27849820332E+04  0.26736067093E+04 0.  0.
        5    1    3    3  502    0 -0.14916841698E+03 -0.32875780979E+03  0.95088574553E+03  0.10171227582E+04  0.46999998093E+01 0.  1.
       -5    1    3    3    0  502  0.14916841698E+03  0.32875780979E+03 -0.17305985706E+04  0.17678592751E+04  0.46999998093E+01 0. -1.
</event>
<event>
 5   0  0.1771016E-06  0.2698549E+04  0.7818609E-02  0.8335476E-01
        1   -1    0    0  501    0  0.00000000000E+00  0.00000000000E+00  0.16150008263E+04  0.16150008263E+04  0.50400001928E-02 0. -1.
       -1   -1    0    0    0  501  0.00000000000E+00  0.00000000000E+00 -0.11272695653E+04  0.11272695653E+04  0.50400001928E-02 0.  1.
    10030    2    1    2    0    0  0.00000000000E+00  0.00000000000E+00  0.48773126106E+03  0.27422703916E+04  0.26985487058E+04 0.  0.
        2    1    3    3  502    0  0.61202320315E+03 -0.51282598958E+02  0.14647209025E+04  0.15882725296E+04  0.25500000920E-02 0. -1.
       -2    1    3    3    0  502 -0.61202320315E+03  0.51282598958E+02 -0.97698964141E+03  0.11539978620E+04  0.25500000920E-02 0.  1.
</event>
<event>
 5   0  0.1753474E-06  0.2756661E+04  0.7818609E-02  0.8316851E-01
       -1   -1    0    0    0  501  0.00000000000E+00  0.00000000000E+00  0.11567973287E+04  0.11567973287E+04  0.50400001928E-02 0. -1.
        1   -1    0    0  501    0  0.00000000000E+00  0.00000000000E+00 -0.16422885993E+04  0.16422885993E+04  0.50400001928E-02 0.  1.
    10030    2    1    2    0    0  0.00000000000E+00  0.00000000000E+00 -0.48549127057E+03  0.27990859280E+04  0.27566610707E+04 0.  0.
        3    1    3    3  502    0  0.19913913957E+03 -0.21697627738E+03 -0.16099673276E+04  0.16366825923E+04  0.10100000352E+00 0.  1.
       -3    1    3    3    0  502 -0.19913913957E+03  0.21697627738E+03  0.11244760570E+04  0.11624033357E+04  0.10100000352E+00 0. -1.
</event>
<event>
 5   0  0.1732312E-06  0.2733940E+04  0.7818609E-02  0.8324076E-01
        1   -1    0    0  501    0  0.00000000000E+00  0.00000000000E+00  0.10363797682E+04  0.10363797682E+04  0.50400001928E-02 0.  1.
       -1   -1    0    0    0  501  0.00000000000E+00  0.00000000000E+00 -0.18030140265E+04  0.18030140265E+04  0.50400001928E-02 0. -1.
    10030    2    1    2    0    0  0.00000000000E+00  0.00000000000E+00 -0.76663425822E+03  0.28393937947E+04  0.27339402034E+04 0.  0.
        5    1    3    3  502    0  0.46183520130E+03  0.11066911594E+03  0.94793846962E+03  0.10602588545E+04  0.46999998093E+01 0.  1.
       -5    1    3    3    0  502 -0.46183520130E+03 -0.11066911594E+03 -0.17145727278E+04  0.17791349402E+04  0.46999998093E+01 0. -1.
</event>
<event>
 5   0  0.4448804E-06  0.2703343E+04  0.7818609E-02  0.8333921E-01
        2   -1    0    0  501    0  0.00000000000E+00  0.00000000000E+00  0.23444226282E+04  0.23444226282E+04  0.25500000920E-02 0.  1.
       -2   -1    0    0    0  501  0.00000000000E+00  0.00000000000E+00 -0.77930320045E+03  0.77930320046E+03  0.25500000920E-02 0. -1.
    10030    2    1    2    0    0  0.00000000000E+00  0.00000000000E+00  0.15651194278E+04  0.31237258287E+04  0.27033431579E+04 0.  0.
        2    1    3    3  502    0  0.11351660860E+04 -0.29170899756E+03  0.15605498864E+04  0.19516690626E+04  0.25500000920E-02 0.  1.
       -2    1    3    3    0  502 -0.11351660860E+04  0.29170899756E+03  0.45695413669E+01  0.11720567660E+04  0.25500000920E-02 0. -1.
</event>
<event>
 5   0  0.4487186E-06  0.2704454E+04  0.7818609E-02  0.8333561E-01
       -2   -1    0    0    0  501  0.00000000000E+00  0.00000000000E+00  0.12980029228E+04  0.12980029228E+04  0.25500000920E-02 0. -1.
        2   -1    0    0  501    0  0.00000000000E+00  0.00000000000E+00 -0.14087164596E+04  0.14087164596E+04  0.25500000920E-02 0.  1.
    10030    2    1    2    0    0  0.00000000000E+00  0.00000000000E+00 -0.11071353678E+03  0.27067193824E+04  0.27044541645E+04 0.  0.
        3    1    3    3  502    0  0.88197934117E+03 -0.71049336328E+03 -0.79477845980E+03  0.13836044189E+04  0.10100000352E+00 0.  1.
       -3    1    3    3    0  502 -0.88197934117E+03  0.71049336328E+03  0.68406492302E+03  0.13231149635E+04  0.10100000352E+00 0. -1.
</event>
<event>
 5   0  0.1753474E-06  0.2693223E+04  0.7818609E-02  0.8337207E-01
        1   -1    0    0  501    0  0.00000000000E+00  0.00000000000E+00  0.11111129344E+04  0.11111129344E+04  0.50400001928E-02 0.  1.
       -1   -1    0    0    0  501  0.00000000000E+00  0.00000000000E+00 -0.16320234640E+04  0.16320234640E+04  0.50400001928E-02 0. -1.
    10030    2    1    2    0    0  0.00000000000E+00  0.00000000000E+00 -0.52091052968E+03  0.27431363984E+04  0.26932228872E+04 0.  0.
        3    1    3    3  502    0  0.85053989619E+03  0.84079566362E+03 -0.89080040554E+03  0.14912681971E+04  0.10100000352E+00 0. -1.
       -3    1    3    3    0  502 -0.85053989619E+03 -0.84079566362E+03  0.36988987586E+03  0.12518682013E+04  0.10100000352E+00 0.  1.
</event>
<event>
 5   0  0.4655882E-06  0.2701252E+04  0.7818609E-02  0.8334599E-01
       -2   -1    0    0    0  501  0.00000000000E+00  0.00000000000E+00  0.10412017044E+04  0.10412017045E+04  0.25500000920E-02 0. -1.
        2   -1    0    0  501    0  0.00000000000E+00  0.00000000000E+00 -0.17520050224E+04  0.17520050224E+04  0.25500000920E-02 0.  1.
    10030    2    1    2    0    0  0.00000000000E+00  0.00000000000E+00 -0.71080331796E+03  0.27932067269E+04  0.27012520175E+04 0.  0.
        1    1    3    3  502    0  0.82330043714E+03  0.10585055541E+04 -0.18888245159E+03  0.13542282667E+04  0.50400001928E-02 0. -1.
       -1    1    3    3    0  502 -0.82330043714E+03 -0.10585055541E+04 -0.52192086636E+03  0.14389784601E+04  0.50400001928E-02 0.  1.
</event>
<event>
 5   0  0.4655882E-06  0.2736414E+04  0.7818609E-02  0.8323286E-01
        2   -1    0    0  501    0  0.00000000000E+00  0.00000000000E+00  0.18925242100E+04  0.18925242100E+04  0.25500000920E-02 0. -1.
       -2   -1    0    0    0  501  0.00000000000E+00  0.00000000000E+00 -0.98915009259E+03  0.98915009259E+03  0.25500000920E-02 0.  1.
    10030    2    1    2    0    0  0.00000000000E+00  0.00000000000E+00  0.90337411738E+03  0.28816743026E+04  0.27364140750E+04 0.  0.
        1    1    3    3  502    0 -0.11336960329E+04  0.22384932148E+03  0.12231136359E+04  0.16826711444E+04  0.50400001928E-02 0. -1.
       -1    1    3    3    0  502  0.11336960329E+04 -0.22384932148E+03 -0.31973951854E+03  0.11990031582E+04  0.50400001928E-02 0.  1.
</event>
<event>
 5   0  0.4401659E-06  0.2602725E+04  0.7818609E-02  0.8367276E-01
        2   -1    0    0  501    0  0.00000000000E+00  0.00000000000E+00  0.16279389722E+04  0.16279389722E+04  0.25500000920E-02 0. -1.
       -2   -1    0    0    0  501  0.00000000000E+00  0.00000000000E+00 -0.10403000111E+04  0.10403000111E+04  0.25500000920E-02 0.  1.
    10030    2    1    2    0    0  0.00000000000E+00  0.00000000000E+00  0.58763896113E+03  0.26682389833E+04  0.26027254414E+04 0.  0.
        5    1    3    3  502    0  0.67576815169E+03 -0.76006430440E+03 -0.53850489484E+03  0.11508127360E+04  0.46999998093E+01 0.  1.
       -5    1    3    3    0  502 -0.67576815169E+03  0.76006430440E+03  0.11261438560E+04  0.15174262473E+04  0.46999998093E+01 0. -1.
</event>
<event>
 5   0  0.4487186E-06  0.2701248E+04  0.7818609E-02  0.8334600E-01
       -2   -1    0    0    0  501  0.00000000000E+00  0.00000000000E+00  0.10585068116E+04  0.10585068116E+04  0.25500000920E-02 0.  1.
        2   -1    0    0  501    0  0.00000000000E+00  0.00000000000E+00 -0.17233569775E+04  0.17233569775E+04  0.25500000920E-02 0. -1.
    10030    2    1    2    0    0  0.00000000000E+00  0.00000000000E+00 -0.66485016588E+03  0.27818637891E+04  0.27012479335E+04 0.  0.
        3    1    3    3  502    0  0.11395676903E+03  0.13329674782E+04 -0.52342336599E+03  0.14365794351E+04  0.10100000352E+00 0. -1.
       -3    1    3    3    0  502 -0.11395676903E+03 -0.13329674782E+04 -0.14142679990E+03  0.13452843540E+04  0.10100000352E+00 0.  1.
</event>
<event>
 5   0  0.1723605E-06  0.2694495E+04  0.7818609E-02  0.8336793E-01
       -1   -1    0    0    0  501  0.00000000000E+00  0.00000000000E+00  0.12240723716E+04  0.12240723716E+04  0.50400001928E-02 0.  1.
        1   -1    0    0  501    0  0.00000000000E+00  0.00000000000E+00 -0.14828172884E+04  0.14828172884E+04  0.50400001928E-02 0. -1.
    10030    2    1    2    0    0  0.00000000000E+00  0.00000000000E+00 -0.25874491683E+03  0.27068896601E+04  0.26944948877E+04 0.  0.
        1    1    3    3  502    0 -0.89822406811E+03 -0.95240593893E+03  0.19019794365E+03  0.13228978822E+04  0.50400001928E-02 0.  1.
       -1    1    3    3    0  502  0.89822406811E+03  0.95240593893E+03 -0.44894286048E+03  0.13839917778E+04  0.50400001928E-02 0. -1.
</event>
<event>
 5   0  0.1723605E-06  0.2698926E+04  0.7818609E-02  0.8335353E-01
        1   -1    0    0  501    0  0.00000000000E+00  0.00000000000E+00  0.13498951434E+04  0.13498951434E+04  0.50400001928E-02 0.  1.
       -1   -1    0    0    0  501  0.00000000000E+00  0.00000000000E+00 -0.13490311442E+04  0.13490311442E+04  0.50400001928E-02 0. -1.
    10030    2    1    2    0    0  0.00000000000E+00  0.00000000000E+00  0.86399917965E+00  0.26989262876E+04  0.26989261493E+04 0.  0.
        1    1    3    3  502    0  0.13540296629E+03  0.99343948002E+03 -0.90278154639E+03  0.13491740007E+04  0.50400001928E-02 0. -1.
       -1    1    3    3    0  502 -0.13540296629E+03 -0.99343948002E+03  0.90364554557E+03  0.13497522868E+04  0.50400001928E-02 0.  1.
</event>
<event>
 5   0  0.1753474E-06  0.2697555E+04  0.7818609E-02  0.8335799E-01
        1   -1    0    0  501    0  0.00000000000E+00  0.00000000000E+00  0.14580784028E+04  0.14580784028E+04  0.50400001928E-02 0.  1.
       -1   -1    0    0    0  501  0.00000000000E+00  0.00000000000E+00 -0.12476697419E+04  0.12476697419E+04  0.50400001928E-02 0. -1.
    10030    2    1    2    0    0  0.00000000000E+00  0.00000000000E+00  0.21040866092E+03  0.27057481448E+04  0.26975546738E+04 0.  0.
        3    1    3    3  502    0 -0.69786197443E+03 -0.54771893804E+03 -0.91385050106E+03  0.12736287210E+04  0.10100000352E+00 0. -1.
       -3    1    3    3    0  502  0.69786197443E+03  0.54771893804E+03  0.11242591620E+04  0.14321194238E+04  0.10100000352E+00 0.  1.
</event>
<event>
 5   0  0.4401659E-06  0.2700269E+04  0.7818609E-02  0.8334918E-01
        2   -1    0    0  501    0  0.00000000000E+00  0.00000000000E+00  0.23650829424E+04  0.23650829424E+04  0.25500000920E-02 0.  1.
       -2   -1    0    0    0  501  0.00000000000E+00  0.00000000000E+00 -0.77073977607E+03  0.77073977607E+03  0.25500000920E-02 0. -1.
    10030    2    1    2    0    0  0.00000000000E+00  0.00000000000E+00  0.15943431663E+04  0.31358227184E+04  0.27002692439E+04 0.  0.
        5    1    3    3  502    0  0.81930508801E+03  0.43643829653E+03  0.19356615733E+04  0.21467526709E+04  0.46999998093E+01 0.  1.
       -5    1    3    3    0  502 -0.81930508801E+03 -0.43643829653E+03 -0.34131840698E+03  0.98907004750E+03  0.46999998093E+01 0. -1.
</event>
<event>
 5   0  0.4655882E-06  0.2695813E+04  0.7818609E-02  0.8336365E-01
        2   -1    0    0  501    0  0.00000000000E+00  0.00000000000E+00  0.12051995602E+04  0.12051995602E+04  0.25500000920E-02 0. -1.
       -2   -1    0    0    0  501  0.00000000000E+00  0.00000000000E+00 -0.15075117187E+04  0.15075117187E+04  0.25500000920E-02 0.  1.
    10030    2    1    2    0    0  0.00000000000E+00  0.00000000000E+00 -0.30231215857E+03  0.27127112789E+04  0.26958133915E+04 0.  0.
        1    1    3    3  502    0  0.13046479375E+04 -0.12466701906E+03 -0.46809758247E+03  0.13916764901E+04  0.50400001928E-02 0.  1.
       -1    1    3    3    0  502 -0.13046479375E+04  0.12466701906E+03  0.16578542390E+03  0.13210347888E+04  0.50400001928E-02 0. -1.
</event>
<event>
 5   0  0.1732312E-06  0.2697983E+04  0.7818609E-02  0.8335660E-01
       -1   -1    0    0    0  501  0.00000000000E+00  0.00000000000E+00  0.16429890206E+04  0.16429890207E+04  0.50400001928E-02 0.  1.
        1   -1    0    0  501    0  0.00000000000E+00  0.00000000000E+00 -0.11076019299E+04  0.11076019299E+04  0.50400001928E-02 0. -1.
    10030    2    1    2    0    0  0.00000000000E+00  0.00000000000E+00  0.53538709076E+03  0.27505909506E+04  0.26979828095E+04 0.  0.
        5    1    3    3  502    0  0.73064617200E+03 -0.73783002670E+03 -0.61021221397E+03  0.12044160465E+04  0.46999998093E+01 0. -1.
       -5    1    3    3    0  502 -0.73064617200E+03  0.73783002670E+03  0.11455993047E+04  0.15461749041E+04  0.46999998093E+01 0.  1.
</event>
<event>
 5   0  0.1732312E-06  0.2695244E+04  0.7818609E-02  0.8336550E-01
        1   -1    0    0  501    0  0.00000000000E+00  0.00000000000E+00  0.14575585943E+04  0.14575585944E+04  0.50400001928E-02 0.  1.
       -1   -1    0    0    0  501  0.00000000000E+00  0.00000000000E+00 -0.12459773723E+04  0.12459773723E+04  0.50400001928E-02 0. -1.
    10030    2    1    2    0    0  0.00000000000E+00  0.00000000000E+00  0.21158122204E+03  0.27035359667E+04  0.26952439796E+04 0.  0.
        5    1    3    3  502    0  0.58860538580E+02  0.42393697986E+03  0.13875622112E+04  0.14520806128E+04  0.46999998093E+01 0.  1.
       -5    1    3    3    0  502 -0.58860538580E+02 -0.42393697986E+03 -0.11759809892E+04  0.12514553539E+04  0.46999998093E+01 0. -1.
</event>
<event>
 5   0  0.4655882E-06  0.2691673E+04  0.7818609E-02  0.8337712E-01
       -2   -1    0    0    0  501  0.00000000000E+00  0.00000000000E+00  0.10136223452E+04  0.10136223452E+04  0.25500000920E-02 0. -1.
        2   -1    0    0  501    0  0.00000000000E+00  0.00000000000E+00 -0.17869339625E+04  0.17869339625E+04  0.25500000920E-02 0.  1.
    10030    2    1    2    0    0  0.00000000000E+00  0.00000000000E+00 -0.77331161730E+03  0.28005563076E+04  0.26916732296E+04 0.  0.
        1    1    3    3  502    0 -0.77371413637E+03  0.10224507327E+04  0.38833178793E+02  0.12827887907E+04  0.50400001928E-02 0. -1.
       -1    1    3    3    0  502  0.77371413637E+03 -0.10224507327E+04 -0.81214479609E+03  0.15177675170E+04  0.50400001928E-02 0.  1.
</event>
<event>
 5   0  0.1753474E-06  0.2697003E+04  0.7818609E-02  0.8335978E-01
       -1   -1    0    0    0  501  0.00000000000E+00  0.00000000000E+00  0.12119903888E+04  0.12119903889E+04  0.50400001928E-02 0.  1.
        1   -1    0    0  501    0  0.00000000000E+00  0.00000000000E+00 -0.15003879389E+04  0.15003879389E+04  0.50400001928E-02 0. -1.
    10030    2    1    2    0    0  0.00000000000E+00  0.00000000000E+00 -0.28839755004E+03  0.27123783277E+04  0.26970026040E+04 0.  0.
        3    1    3    3  502    0  0.38929992231E+03  0.12909311582E+04 -0.16426412634E+03  0.13583226414E+04  0.10100000352E+00 0. -1.
       -3    1    3    3    0  502 -0.38929992231E+03 -0.12909311582E+04 -0.12413342370E+03  0.13540556864E+04  0.10100000352E+00 0.  1.
</event>
<event>
 5   0  0.1771016E-06  0.2695843E+04  0.7818609E-02  0.8336355E-01
       -1   -1    0    0    0  501  0.00000000000E+00  0.00000000000E+00  0.11914844621E+04  0.11914844621E+04  0.50400001928E-02 0.  1.
        1   -1    0    0  501    0  0.00000000000E+00  0.00000000000E+00 -0.15248975312E+04  0.15248975312E+04  0.50400001928E-02 0. -1.
    10030    2    1    2    0    0  0.00000000000E+00  0.00000000000E+00 -0.33341306912E+03  0.27163819933E+04  0.26958425137E+04 0.  0.
        2    1    3    3  502    0  0.26440726272E+03 -0.22594457617E+02  0.11649029829E+04  0.11947471153E+04  0.25500000920E-02 0.  1.
       -2    1    3    3    0  502 -0.26440726272E+03  0.22594457617E+02 -0.14983160520E+04  0.15216348779E+04  0.25500000920E-02 0. -1.
</event>
<event>
 5   0  0.1828511E-06  0.2697292E+04  0.7818609E-02  0.8335884E-01
        1   -1    0    0  501    0  0.00000000000E+00  0.00000000000E+00  0.15562992042E+04  0.15562992042E+04  0.50400001928E-02 0. -1.
       -1   -1    0    0    0  501  0.00000000000E+00  0.00000000000E+00 -0.11686993269E+04  0.11686993269E+04  0.50400001928E-02 0.  1.
    10030    2    1    2    0    0  0.00000000000E+00  0.00000000000E+00  0.38759987732E+03  0.27249985312E+04  0.26972918511E+04 0.  0.
        4    1    3    3  502    0  0.70386933834E+03 -0.85154270895E+03  0.97523552312E+03  0.14736495408E+04  0.12699999809E+01 0. -1.
       -4    1    3    3    0  502 -0.70386933834E+03  0.85154270895E+03 -0.58763564580E+03  0.12513489904E+04  0.12699999809E+01 0.  1.
</event>
<event>
 5   0  0.1828511E-06  0.2702095E+04  0.7818609E-02  0.8334325E-01
       -1   -1    0    0    0  501  0.00000000000E+00  0.00000000000E+00  0.10438841938E+04  0.10438841938E+04  0.50400001928E-02 0.  1.
        1   -1    0    0  501    0  0.00000000000E+00  0.00000000000E+00 -0.17485938726E+04  0.17485938727E+04  0.50400001928E-02 0. -1.
    10030    2    1    2    0    0  0.00000000000E+00  0.00000000000E+00 -0.70470967881E+03  0.27924780665E+04  0.27020951168E+04 0.  0.
        4    1    3    3  502    0  0.45876874923E+03 -0.35519703925E+03 -0.16132874734E+04  0.17144479539E+04  0.12699999809E+01 0. -1.
       -4    1    3    3    0  502 -0.45876874923E+03  0.35519703925E+03  0.90857779458E+03  0.10780301126E+04  0.12699999809E+01 0.  1.
</event>
<event>
 5   0  0.1723605E-06  0.2699001E+04  0.7818609E-02  0.8335329E-01
       -1   -1    0    0    0  501  0.00000000000E+00  0.00000000000E+00  0.96184284283E+03  0.96184284285E+03  0.50400001928E-02 0. -1.
        1   -1    0    0  501    0  0.00000000000E+00  0.00000000000E+00 -0.18933980947E+04  0.18933980947E+04  0.50400001928E-02 0.  1.
    10030    2    1    2    0    0  0.00000000000E+00  0.00000000000E+00 -0.93155525187E+03  0.28552409376E+04  0.26990008567E+04 0.  0.
        1    1    3    3  502    0  0.10157697032E+04 -0.87931958037E+03 -0.60026009663E+03  0.14714969242E+04  0.50400001928E-02 0. -1.
       -1    1    3    3    0  502 -0.10157697032E+04  0.87931958037E+03 -0.33129515524E+03  0.13837440133E+04  0.50400001928E-02 0.  1.
</event>
<event>
 5   0  0.1753474E-06  0.2697408E+04  0.7818609E-02  0.8335846E-01
        1   -1    0    0  501    0  0.00000000000E+00  0.00000000000E+00  0.12520542299E+04  0.12520542299E+04  0.50400001928E-02 0. -1.
       -1   -1    0    0    0  501  0.00000000000E+00  0.00000000000E+00 -0.14528147817E+04  0.14528147817E+04  0.50400001928E-02 0.  1.
    10030    2    1    2    0    0  0.00000000000E+00  0.00000000000E+00 -0.20076055180E+03  0.27048690115E+04  0.26974083062E+04 0.  0.
        3    1    3    3  502    0 -0.85604523455E+03  0.57199219984E+02  0.94313130109E+03  0.12749830805E+04  0.10100000352E+00 0. -1.
       -3    1    3    3    0  502  0.85604523455E+03 -0.57199219984E+02 -0.11438918529E+04  0.14298859310E+04  0.10100000352E+00 0.  1.
</event>
<event>
 5   0  0.1828511E-06  0.2697110E+04  0.7818609E-02  0.8335943E-01
        1   -1    0    0  501    0  0.00000000000E+00  0.00000000000E+00  0.92507391618E+03  0.92507391620E+03  0.50400001928E-02 0. -1.
       -1   -1    0    0    0  501  0.00000000000E+00  0.00000000000E+00 -0.19658974693E+04  0.19658974693E+04  0.50400001928E-02 0.  1.
    10030    2    1    2    0    0  0.00000000000E+00  0.00000000000E+00 -0.10408235532E+04  0.28909713855E+04  0.26971099131E+04 0.  0.
        4    1    3    3  502    0  0.11470669082E+04 -0.62712082165E+03 -0.87519487024E+03  0.15732166700E+04  0.12699999809E+01 0. -1.
       -4    1    3    3    0  502 -0.11470669082E+04  0.62712082165E+03 -0.16562868292E+03  0.13177547156E+04  0.12699999809E+01 0.  1.
</event>
<event>
 5   0  0.4401659E-06  0.2695140E+04  0.7818609E-02  0.8336584E-01
        2   -1    0    0  501    0  0.00000000000E+00  0.00000000000E+00  0.13326763717E+04  0.13326763718E+04  0.25500000920E-02 0.  1.
       -2   -1    0    0    0  501  0.00000000000E+00  0.00000000000E+00 -0.13626298614E+04  0.13626298614E+04  0.25500000920E-02 0. -1.
    10030    2    1    2    0    0  0.00000000000E+00  0.00000000000E+00 -0.29953489606E+02  0.26953062331E+04  0.26951397883E+04 0.  0.
        5    1    3    3  502    0 -0.21771091401E+03  0.10778608952E+04 -0.79396026319E+03  0.13563101198E+04  0.46999998093E+01 0. -1.
       -5    1    3    3    0  502  0.21771091401E+03 -0.10778608952E+04  0.76400677359E+03  0.13389961133E+04  0.46999998093E+01 0.  1.
</event>
<event>
 5   0  0.1771016E-06  0.2693628E+04  0.7818609E-02  0.8337075E-01
       -1   -1    0    0    0  501  0.00000000000E+00  0.00000000000E+00  0.13441046380E+04  0.13441046380E+04  0.50400001928E-02 0. -1.
        1   -1    0    0  501    0  0.00000000000E+00  0.00000000000E+00 -0.13495292682E+04  0.13495292682E+04  0.50400001928E-02 0.  1.
    10030    2    1    2    0    0  0.00000000000E+00  0.00000000000E+00 -0.54246302109E+01  0.26936339063E+04  0.26936284440E+04 0.  0.
        2    1    3    3  502    0  0.41024166675E+03 -0.59921285541E+03 -0.11369783753E+04  0.13491012182E+04  0.25500000920E-02 0.  1.
       -2    1    3    3    0  502 -0.41024166675E+03  0.59921285541E+03  0.11315537451E+04  0.13445326880E+04  0.25500000920E-02 0. -1.
</event>
<event>
 5   0  0.1753474E-06  0.2697530E+04  0.7818609E-02  0.8335807E-01
       -1   -1    0    0    0  501  0.00000000000E+00  0.00000000000E+00  0.30532113150E+04  0.30532113150E+04  0.50400001928E-02 0. -1.
        1   -1    0    0  501    0  0.00000000000E+00  0.00000000000E+00 -0.59582105843E+03  0.59582105846E+03  0.50400001928E-02 0.  1.
    10030    2    1    2    0    0  0.00000000000E+00  0.00000000000E+00  0.24573902565E+04  0.36490323734E+04  0.26975304242E+04 0.  0.
        3    1    3    3  502    0 -0.31567528091E+03 -0.14653390145E+03  0.29914255552E+04  0.30116025517E+04  0.10100000352E+00 0. -1.
       -3    1    3    3    0  502  0.31567528091E+03  0.14653390145E+03 -0.53403529862E+03  0.63742982172E+03  0.10100000352E+00 0.  1.
</event>
<event>
 5   0  0.1771016E-06  0.2701336E+04  0.7818609E-02  0.8334572E-01
       -1   -1    0    0    0  501  0.00000000000E+00  0.00000000000E+00  0.13511346724E+04  0.13511346724E+04  0.50400001928E-02 0. -1.
        1   -1    0    0  501    0  0.00000000000E+00  0.00000000000E+00 -0.13502011590E+04  0.13502011590E+04  0.50400001928E-02 0.  1.
    10030    2    1    2    0    0  0.00000000000E+00  0.00000000000E+00  0.93351347623E+00  0.27013358314E+04  0.27013356701E+04 0.  0.
        2    1    3    3  502    0 -0.12503340495E+04  0.49476803904E+01 -0.51035994280E+03  0.13504913869E+04  0.25500000920E-02 0.  1.
       -2    1    3    3    0  502  0.12503340495E+04 -0.49476803904E+01  0.51129345628E+03  0.13508444445E+04  0.25500000920E-02 0. -1.
</event>
<event>
 5   0  0.4655882E-06  0.2708099E+04  0.7818609E-02  0.8332382E-01
        2   -1    0    0  501    0  0.00000000000E+00  0.00000000000E+00  0.17893343431E+04  0.17893343431E+04  0.25500000920E-02 0. -1.
       -2   -1    0    0    0  501  0.00000000000E+00  0.00000000000E+00 -0.10246547930E+04  0.10246547930E+04  0.25500000920E-02 0.  1.
    10030    2    1    2    0    0  0.00000000000E+00  0.00000000000E+00  0.76467955005E+03  0.28139891361E+04  0.27080989723E+04 0.  0.
        1    1    3    3  502    0  0.10824324397E+04  0.66930271246E+03  0.86283160877E+03  0.15375644678E+04  0.50400001928E-02 0. -1.
       -1    1    3    3    0  502 -0.10824324397E+04 -0.66930271246E+03 -0.98152058715E+02  0.12764246684E+04  0.50400001928E-02 0.  1.
</event>
<event>
 5   0  0.1723605E-06  0.2698974E+04  0.7818609E-02  0.8335338E-01
        1   -1    0    0  501    0  0.00000000000E+00  0.00000000000E+00  0.12701504512E+04  0.12701504513E+04  0.50400001928E-02 0. -1.
       -1   -1    0    0    0  501  0.00000000000E+00  0.00000000000E+00 -0.14337794705E+04  0.14337794705E+04  0.50400001928E-02 0.  1.
    10030    2    1    2    0    0  0.00000000000E+00  0.00000000000E+00 -0.16362901921E+03  0.27039299217E+04  0.26989743544E+04 0.  0.
        1    1    3    3  502    0  0.86846505955E+03  0.10295749712E+04 -0.16478843749E+03  0.13569861496E+04  0.50400001928E-02 0.  1.
       -1    1    3    3    0  502 -0.86846505955E+03 -0.10295749712E+04  0.11594182784E+01  0.13469437721E+04  0.50400001928E-02 0. -1.
</event>
<event>
 5   0  0.4448804E-06  0.2756122E+04  0.7818609E-02  0.8317022E-01
       -2   -1    0    0    0  501  0.00000000000E+00  0.00000000000E+00  0.10695732861E+04  0.10695732861E+04  0.25500000920E-02 0. -1.
        2   -1    0    0  501    0  0.00000000000E+00  0.00000000000E+00 -0.17755227676E+04  0.17755227676E+04  0.25500000920E-02 0.  1.
    10030    2    1    2    0    0  0.00000000000E+00  0.00000000000E+00 -0.70594948145E+03  0.28450960537E+04  0.27561217107E+04 0.  0.
        2    1    3    3  502    0 -0.71757580994E+03  0.14243190062E+03  0.85256579616E+03  0.11234190341E+04  0.25500000920E-02 0. -1.
       -2    1    3    3    0  502  0.71757580994E+03 -0.14243190062E+03 -0.15585152776E+04  0.17216770196E+04  0.25500000920E-02 0.  1.
</event>
<event>
 5   0  0.1482875E-06  0.2683054E+04  0.7818609E-02  0.8340524E-01
        3   -1    0    0  501    0  0.00000000000E+00  0.00000000000E+00  0.11865194803E+04  0.11865194846E+04  0.10100000352E+00 0. -1.
       -3   -1    0    0    0  501  0.00000000000E+00  0.00000000000E+00 -0.15167844748E+04  0.15167844781E+04  0.10100000352E+00 0.  1.
    10030    2    1    2    0    0  0.00000000000E+00  0.00000000000E+00 -0.33026499447E+03  0.27033039627E+04  0.26830537356E+04 0.  0.
        5    1    3    3  502    0 -0.40328605022E+03  0.55643115234E+03 -0.13259640251E+04  0.14934717780E+04  0.46999998093E+01 0.  1.
       -5    1    3    3    0  502  0.40328605022E+03 -0.55643115234E+03  0.99569903068E+03  0.12098321848E+04  0.46999998093E+01 0. -1.
</event>
<event>
 5   0  0.1723605E-06  0.2701348E+04  0.7818609E-02  0.8334568E-01
        1   -1    0    0  501    0  0.00000000000E+00  0.00000000000E+00  0.14853014578E+04  0.14853014578E+04  0.50400001928E-02 0.  1.
       -1   -1    0    0    0  501  0.00000000000E+00  0.00000000000E+00 -0.12282494043E+04  0.12282494043E+04  0.50400001928E-02 0. -1.
    10030    2    1    2    0    0  0.00000000000E+00  0.00000000000E+00  0.25705205349E+03  0.27135508622E+04  0.27013482788E+04 0.  0.
        1    1    3    3  502    0 -0.85930702214E+03  0.73089226236E+03  0.87465216131E+03  0.14274552395E+04  0.50400001928E-02 0.  1.
       -1    1    3    3    0  502  0.85930702214E+03 -0.73089226236E+03 -0.61760010782E+03  0.12860956227E+04  0.50400001928E-02 0. -1.
</event>
<event>
 5   0  0.1753474E-06  0.2697426E+04  0.7818609E-02  0.8335841E-01
       -1   -1    0    0    0  501  0.00000000000E+00  0.00000000000E+00  0.11321040903E+04  0.11321040903E+04  0.50400001928E-02 0.  1.
        1   -1    0    0  501    0  0.00000000000E+00  0.00000000000E+00 -0.16067661749E+04  0.16067661749E+04  0.50400001928E-02 0. -1.
    10030    2    1    2    0    0  0.00000000000E+00  0.00000000000E+00 -0.47466208462E+03  0.27388702652E+04  0.26974258535E+04 0.  0.
        3    1    3    3  502    0  0.73164488834E+03 -0.10629872745E+04 -0.63550456956E+03  0.14384409117E+04  0.10100000352E+00 0. -1.
       -3    1    3    3    0  502 -0.73164488834E+03  0.10629872745E+04  0.16084248494E+03  0.13004293535E+04  0.10100000352E+00 0.  1.
</event>
<event>
 5   0  0.4487186E-06  0.2699472E+04  0.7818609E-02  0.8335176E-01
       -2   -1    0    0    0  501  0.00000000000E+00  0.00000000000E+00  0.82820782857E+03  0.82820782858E+03  0.25500000920E-02 0. -1.
        2   -1    0    0  501    0  0.00000000000E+00  0.00000000000E+00 -0.21996744740E+04  0.21996744740E+04  0.25500000920E-02 0.  1.
    10030    2    1    2    0    0  0.00000000000E+00  0.00000000000E+00 -0.13714666455E+04  0.30278823026E+04  0.26994722593E+04 0.  0.
        3    1    3    3  502    0 -0.81219785874E+03 -0.79044294011E+03  0.13646675852E+03  0.11415290578E+04  0.10100000352E+00 0. -1.
       -3    1    3    3    0  502  0.81219785874E+03  0.79044294011E+03 -0.15079334040E+04  0.18863532449E+04  0.10100000352E+00 0.  1.
</event>
<event>
 5   0  0.4439357E-06  0.2700603E+04  0.7818609E-02  0.8334809E-01
       -2   -1    0    0    0  501  0.00000000000E+00  0.00000000000E+00  0.15166653530E+04  0.15166653530E+04  0.25500000920E-02 0.  1.
        2   -1    0    0  501    0  0.00000000000E+00  0.00000000000E+00 -0.12021864807E+04  0.12021864807E+04  0.25500000920E-02 0. -1.
    10030    2    1    2    0    0  0.00000000000E+00  0.00000000000E+00  0.31447887229E+03  0.27188518338E+04  0.27006033276E+04 0.  0.
        4    1    3    3  502    0  0.11392894007E+04  0.64241137540E+03 -0.18064762223E+03  0.13203438530E+04  0.12699999809E+01 0. -1.
       -4    1    3    3    0  502 -0.11392894007E+04 -0.64241137540E+03  0.49512649452E+03  0.13985079808E+04  0.12699999809E+01 0.  1.
</event>
<event>
 5   0  0.1723605E-06  0.2685972E+04  0.7818609E-02  0.8339571E-01
       -1   -1    0    0    0  501  0.00000000000E+00  0.00000000000E+00  0.17040838521E+04  0.17040838521E+04  0.50400001928E-02 0. -1.
        1   -1    0    0  501    0  0.00000000000E+00  0.00000000000E+00 -0.10584049889E+04  0.10584049889E+04  0.50400001928E-02 0.  1.
    10030    2    1    2    0    0  0.00000000000E+00  0.00000000000E+00  0.64567886324E+03  0.27624888410E+04  0.26859715938E+04 0.  0.
        1    1    3    3  502    0  0.97942690801E+03  0.72295725336E+03 -0.26047416028E+03  0.12449060392E+04  0.50400001928E-02 0.  1.
       -1    1    3    3    0  502 -0.97942690801E+03 -0.72295725336E+03  0.90615302352E+03  0.15175828018E+04  0.50400001928E-02 0. -1.
</event>
<event>
 5   0  0.1732312E-06  0.2716923E+04  0.7818609E-02  0.8329535E-01
        1   -1    0    0  501    0  0.00000000000E+00  0.00000000000E+00  0.20282731952E+04  0.20282731952E+04  0.50400001928E-02 0. -1.
       -1   -1    0    0    0  501  0.00000000000E+00  0.00000000000E+00 -0.90984683999E+03  0.90984684000E+03  0.50400001928E-02 0.  1.
    10030    2    1    2    0    0  0.00000000000E+00  0.00000000000E+00  0.11184263552E+04  0.29381200352E+04  0.27169232285E+04 0.  0.
        5    1    3    3  502    0  0.88796069416E+03  0.81089926968E+03 -0.12418945961E+03  0.12089156016E+04  0.46999998093E+01 0.  1.
       -5    1    3    3    0  502 -0.88796069416E+03 -0.81089926968E+03  0.12426158149E+04  0.17292044336E+04  0.46999998093E+01 0. -1.
</event>
<event>
 5   0  0.4487186E-06  0.2677906E+04  0.7818609E-02  0.8342209E-01
        2   -1    0    0  501    0  0.00000000000E+00  0.00000000000E+00  0.23752469588E+04  0.23752469588E+04  0.25500000920E-02 0. -1.
       -2   -1    0    0    0  501  0.00000000000E+00  0.00000000000E+00 -0.75478277230E+03  0.75478277230E+03  0.25500000920E-02 0.  1.
    10030    2    1    2    0    0  0.00000000000E+00  0.00000000000E+00  0.16204641865E+04  0.31300297311E+04  0.26779062601E+04 0.  0.
        3    1    3    3  502    0 -0.12189159371E+04 -0.24821341596E+03  0.23118153465E+03  0.12652315494E+04  0.10100000352E+00 0.  1.
       -3    1    3    3    0  502  0.12189159371E+04  0.24821341596E+03  0.13892826519E+04  0.18647981817E+04  0.10100000352E+00 0. -1.
</event>
<event>
 5   0  0.1828511E-06  0.2696289E+04  0.7818609E-02  0.8336210E-01
       -1   -1    0    0    0  501  0.00000000000E+00  0.00000000000E+00  0.88216673426E+03  0.88216673428E+03  0.50400001928E-02 0. -1.
        1   -1    0    0  501    0  0.00000000000E+00  0.00000000000E+00 -0.20602608566E+04  0.20602608566E+04  0.50400001928E-02 0.  1.
    10030    2    1    2    0    0  0.00000000000E+00  0.00000000000E+00 -0.11780941224E+04  0.29424275909E+04  0.26962889991E+04 0.  0.
        4    1    3    3  502    0 -0.11170452744E+04 -0.43600483946E+03 -0.12614093848E+04  0.17404153568E+04  0.12699999809E+01 0.  1.
       -4    1    3    3    0  502  0.11170452744E+04  0.43600483946E+03  0.83315262473E+02  0.12020122341E+04  0.12699999809E+01 0. -1.
</event>
<event>
 5   0  0.4487186E-06  0.2693163E+04  0.7818609E-02  0.8337227E-01
       -2   -1    0    0    0  501  0.00000000000E+00  0.00000000000E+00  0.80980929597E+03  0.80980929597E+03  0.25500000920E-02 0. -1.
        2   -1    0    0  501    0  0.00000000000E+00  0.00000000000E+00 -0.22391468778E+04  0.22391468778E+04  0.25500000920E-02 0.  1.
    10030    2    1    2    0    0  0.00000000000E+00  0.00000000000E+00 -0.14293375818E+04  0.30489561738E+04  0.26931631638E+04 0.  0.
        3    1    3    3  502    0  0.72981225516E+03 -0.41814418108E+03 -0.19051678590E+04  0.20825789457E+04  0.10100000352E+00 0.  1.
       -3    1    3    3    0  502 -0.72981225516E+03  0.41814418108E+03  0.47583027720E+03  0.96637722803E+03  0.10100000352E+00 0. -1.
</event>
<event>
 5   0  0.1482875E-06  0.2701136E+04  0.7818609E-02  0.8334636E-01
       -3   -1    0    0    0  501  0.00000000000E+00  0.00000000000E+00  0.87911536608E+03  0.87911537188E+03  0.10100000352E+00 0.  1.
        3   -1    0    0  501    0  0.00000000000E+00  0.00000000000E+00 -0.20748520288E+04  0.20748520312E+04  0.10100000352E+00 0. -1.
    10030    2    1    2    0    0  0.00000000000E+00  0.00000000000E+00 -0.11957366627E+04  0.29539674031E+04  0.27011362891E+04 0.  0.
        3    1    3    3  502    0 -0.19837288449E+03  0.11641288334E+04 -0.13145626971E+04  0.17670944618E+04  0.10100000352E+00 0. -1.
       -3    1    3    3    0  502  0.19837288449E+03 -0.11641288334E+04  0.11882603447E+03  0.11868729413E+04  0.10100000352E+00 0.  1.
</event>
<event>
 5   0  0.1771016E-06  0.2700795E+04  0.7818609E-02  0.8334747E-01
       -1   -1    0    0    0  501  0.00000000000E+00  0.00000000000E+00  0.10579755442E+04  0.10579755442E+04  0.50400001928E-02 0.  1.
        1   -1    0    0  501    0  0.00000000000E+00  0.00000000000E+00 -0.17236447073E+04  0.17236447073E+04  0.50400001928E-02 0. -1.
    10030    2    1    2    0    0  0.00000000000E+00  0.00000000000E+00 -0.66566916315E+03  0.27816202515E+04  0.27007953993E+04 0.  0.
        2    1    3    3  502    0  0.83255094240E+03  0.48378501246E+02  0.76106760483E+03  0.11290285427E+04  0.25500000920E-02 0.  1.
       -2    1    3    3    0  502 -0.83255094240E+03 -0.48378501246E+02 -0.14267367680E+04  0.16525917089E+04  0.25500000920E-02 0. -1.
</event>
<event>
 5   0  0.4401659E-06  0.2709075E+04  0.7818609E-02  0.8332066E-01
       -2   -1    0    0    0  501  0.00000000000E+00  0.00000000000E+00  0.18260835766E+04  0.18260835766E+04  0.25500000920E-02 0.  1.
        2   -1    0    0  501    0  0.00000000000E+00  0.00000000000E+00 -0.10047582154E+04  0.10047582154E+04  0.25500000920E-02 0. -1.
    10030    2    1    2    0    0  0.00000000000E+00  0.00000000000E+00  0.82132536120E+03  0.28308417920E+04  0.27090754701E+04 0.  0.
        5    1    3    3  502    0 -0.21857041106E+03  0.12989566536E+04  0.80735530258E+02  0.13196975897E+04  0.46999998093E+01 0. -1.
       -5    1    3    3    0  502  0.21857041106E+03 -0.12989566536E+04  0.74058983094E+03  0.15111442023E+04  0.46999998093E+01 0.  1.
</event>
<event>
 5   0  0.1723605E-06  0.2695048E+04  0.7818609E-02  0.8336613E-01
        1   -1    0    0  501    0  0.00000000000E+00  0.00000000000E+00  0.10207678802E+04  0.10207678802E+04  0.50400001928E-02 0. -1.
       -1   -1    0    0    0  501  0.00000000000E+00  0.00000000000E+00 -0.17788775391E+04  0.17788775391E+04  0.50400001928E-02 0.  1.
    10030    2    1    2    0    0  0.00000000000E+00  0.00000000000E+00 -0.75810965893E+03  0.27996454193E+04  0.26950480921E+04 0.  0.
        1    1    3    3  502    0  0.43028199621E+03  0.12735697149E+04 -0.47594108760E+03  0.14260583206E+04  0.50400001928E-02 0.  1.
       -1    1    3    3    0  502 -0.43028199621E+03 -0.12735697149E+04 -0.28216857133E+03  0.13735870987E+04  0.50400001928E-02 0. -1.
</event>
<event>
 5   0  0.1723605E-06  0.2633899E+04  0.7818609E-02  0.8356777E-01
        1   -1    0    0  501    0  0.00000000000E+00  0.00000000000E+00  0.12343877527E+04  0.12343877528E+04  0.50400001928E-02 0.  1.
       -1   -1    0    0    0  501  0.00000000000E+00  0.00000000000E+00 -0.14050333535E+04  0.14050333535E+04  0.50400001928E-02 0. -1.
    10030    2    1    2    0    0  0.00000000000E+00  0.00000000000E+00 -0.17064560074E+03  0.26394211063E+04  0.26338989835E+04 0.  0.
        1    1    3    3  502    0  0.19636878916E+03 -0.11968987196E+04 -0.59945665754E+03  0.13529506756E+04  0.50400001928E-02 0. -1.
       -1    1    3    3    0  502 -0.19636878916E+03  0.11968987196E+04  0.42881105680E+03  0.12864704306E+04  0.50400001928E-02 0.  1.
</event>
<event>
 5   0  0.4401659E-06  0.2711457E+04  0.7818609E-02  0.8331297E-01
       -2   -1    0    0    0  501  0.00000000000E+00  0.00000000000E+00  0.80890705458E+03  0.80890705458E+03  0.25500000920E-02 0.  1.
        2   -1    0    0  501    0  0.00000000000E+00  0.00000000000E+00 -0.22722011352E+04  0.22722011352E+04  0.25500000920E-02 0. -1.
    10030    2    1    2    0    0  0.00000000000E+00  0.00000000000E+00 -0.14632940806E+04  0.30811081898E+04  0.27114568244E+04 0.  0.
        5    1    3    3  502    0 -0.79509949873E+03 -0.91885439108E+03 -0.14148644210E+04  0.18650308375E+04  0.46999998093E+01 0. -1.
       -5    1    3    3    0  502  0.79509949873E+03  0.91885439108E+03 -0.48429659630E+02  0.12160773523E+04  0.46999998093E+01 0.  1.
</event>
<event>
 5   0  0.1828511E-06  0.2706594E+04  0.7818609E-02  0.8332869E-01
        1   -1    0    0  501    0  0.00000000000E+00  0.00000000000E+00  0.22227131001E+04  0.22227131001E+04  0.50400001928E-02 0. -1.
       -1   -1    0    0    0  501  0.00000000000E+00  0.00000000000E+00 -0.82395393703E+03  0.82395393704E+03  0.50400001928E-02 0.  1.
    10030    2    1    2    0    0  0.00000000000E+00  0.00000000000E+00  0.13987591631E+04  0.30466670372E+04  0.27065943248E+04 0.  0.
        4    1    3    3  502    0  0.52760401308E+03  0.11787932512E+04  0.24423416107E+03  0.13143711280E+04  0.12699999809E+01 0.  1.
       -4    1    3    3    0  502 -0.52760401308E+03 -0.11787932512E+04  0.11545250020E+04  0.17322959092E+04  0.12699999809E+01 0. -1.
</event>
<event>
 5   0  0.1723605E-06  0.2698441E+04  0.7818609E-02  0.8335511E-01
        1   -1    0    0  501    0  0.00000000000E+00  0.00000000000E+00  0.19332386101E+04  0.19332386101E+04  0.50400001928E-02 0. -1.
       -1   -1    0    0    0  501  0.00000000000E+00  0.00000000000E+00 -0.94163054559E+03  0.94163054560E+03  0.50400001928E-02 0.  1.
    10030    2    1    2    0    0  0.00000000000E+00  0.00000000000E+00  0.99160806451E+03  0.28748691557E+04  0.26984414222E+04 0.  0.
        1    1    3    3  502    0 -0.32685228450E+03 -0.12477713916E+04  0.74162400753E+02  0.12920007444E+04  0.50400001928E-02 0.  1.
       -1    1    3    3    0  502  0.32685228450E+03  0.12477713916E+04  0.91744566376E+03  0.15828684114E+04  0.50400001928E-02 0. -1.
</event>
<event>
 5   0  0.4401659E-06  0.2747174E+04  0.7818609E-02  0.8319859E-01
        2   -1    0    0  501    0  0.00000000000E+00  0.00000000000E+00  0.20142186127E+04  0.20142186127E+04  0.25500000920E-02 0.  1.
       -2   -1    0    0    0  501  0.00000000000E+00  0.00000000000E+00 -0.93671137165E+03  0.93671137166E+03  0.25500000920E-02 0. -1.
    10030    2    1    2    0    0  0.00000000000E+00  0.00000000000E+00  0.10775072411E+04  0.29509299844E+04  0.27471741696E+04 0.  0.
        5    1    3    3  502    0  0.39845565757E+03 -0.46267865360E+03 -0.78290280518E+03  0.99287327485E+03  0.46999998093E+01 0. -1.
       -5    1    3    3    0  502 -0.39845565757E+03  0.46267865360E+03  0.18604100462E+04  0.19580567095E+04  0.46999998093E+01 0.  1.
</event>
<event>
 5   0  0.1732312E-06  0.2702139E+04  0.7818609E-02  0.8334311E-01
        1   -1    0    0  501    0  0.00000000000E+00  0.00000000000E+00  0.98123586936E+03  0.98123586937E+03  0.50400001928E-02 0. -1.
       -1   -1    0    0    0  501  0.00000000000E+00  0.00000000000E+00 -0.18602951920E+04  0.18602951921E+04  0.50400001928E-02 0.  1.
    10030    2    1    2    0    0  0.00000000000E+00  0.00000000000E+00 -0.87905932269E+03  0.28415310614E+04  0.27021386863E+04 0.  0.
        5    1    3    3  502    0  0.13326271928E+04 -0.21654020933E+03 -0.38610140742E+03  0.14042369045E+04  0.46999998093E+01 0. -1.
       -5    1    3    3    0  502 -0.13326271928E+04  0.21654020933E+03 -0.49295791527E+03  0.14372941569E+04  0.46999998093E+01 0.  1.
</event>
<event>
 5   0  0.4487186E-06  0.2695830E+04  0.7818609E-02  0.8336359E-01
       -2   -1    0    0    0  501  0.00000000000E+00  0.00000000000E+00  0.83099769496E+03  0.83099769496E+03  0.25500000920E-02 0. -1.
        2   -1    0    0  501    0  0.00000000000E+00  0.00000000000E+00 -0.21863777033E+04  0.21863777033E+04  0.25500000920E-02 0.  1.
    10030    2    1    2    0    0  0.00000000000E+00  0.00000000000E+00 -0.13553800083E+04  0.30173753983E+04  0.26958299885E+04 0.  0.
        3    1    3    3  502    0  0.24566453410E+03 -0.12782952707E+04 -0.10694122410E+04  0.16846460797E+04  0.10100000352E+00 0. -1.
       -3    1    3    3    0  502 -0.24566453410E+03  0.12782952707E+04 -0.28596776737E+03  0.13327293186E+04  0.10100000352E+00 0.  1.
</event>
<event>
 5   0  0.1771016E-06  0.2697908E+04  0.7818609E-02  0.8335684E-01
       -1   -1    0    0    0  501  0.00000000000E+00  0.00000000000E+00  0.12236767739E+04  0.12236767739E+04  0.50400001928E-02 0. -1.
        1   -1    0    0  501    0  0.00000000000E+00  0.00000000000E+00 -0.14870568238E+04  0.14870568238E+04  0.50400001928E-02 0.  1.
    10030    2    1    2    0    0  0.00000000000E+00  0.00000000000E+00 -0.26338004985E+03  0.27107335977E+04  0.26979080019E+04 0.  0.
        2    1    3    3  502    0  0.79663971072E+02  0.11171298017E+04  0.62378306219E+03  0.12819635919E+04  0.25500000920E-02 0. -1.
       -2    1    3    3    0  502 -0.79663971072E+02 -0.11171298017E+04 -0.88716311204E+03  0.14287700058E+04  0.25500000920E-02 0.  1.
</event>
<event>
 5   0  0.1828511E-06  0.2748465E+04  0.7818609E-02  0.8319449E-01
        1   -1    0    0  501    0  0.00000000000E+00  0.00000000000E+00  0.18663395078E+04  0.18663395078E+04  0.50400001928E-02 0.  1.
       -1   -1    0    0    0  501  0.00000000000E+00  0.00000000000E+00 -0.10118819050E+04  0.10118819050E+04  0.50400001928E-02 0. -1.
    10030    2    1    2    0    0  0.00000000000E+00  0.00000000000E+00  0.85445760282E+03  0.28782214128E+04  0.27484651546E+04 0.  0.
        4    1    3    3  502    0  0.58746360281E+03 -0.67950247377E+03  0.15163661603E+04  0.17624429187E+04  0.12699999809E+01 0.  1.
       -4    1    3    3    0  502 -0.58746360281E+03  0.67950247377E+03 -0.66190855749E+03  0.11157784941E+04  0.12699999809E+01 0. -1.
</event>
<event>
 5   0  0.1723605E-06  0.2685827E+04  0.7818609E-02  0.8339618E-01
       -1   -1    0    0    0  501  0.00000000000E+00  0.00000000000E+00  0.12033640490E+04  0.12033640490E+04  0.50400001928E-02 0. -1.
        1   -1    0    0  501    0  0.00000000000E+00  0.00000000000E+00 -0.14986457626E+04  0.14986457626E+04  0.50400001928E-02 0.  1.
    10030    2    1    2    0    0  0.00000000000E+00  0.00000000000E+00 -0.29528171360E+03  0.27020098116E+04  0.26858268246E+04 0.  0.
        1    1    3    3  502    0 -0.97695945391E+03  0.23379430693E+03 -0.10442498217E+04  0.14489883515E+04  0.50400001928E-02 0.  1.
       -1    1    3    3    0  502  0.97695945391E+03 -0.23379430693E+03  0.74896810814E+03  0.12530214601E+04  0.50400001928E-02 0. -1.
</event>
<event>
 5   0  0.1828511E-06  0.2728230E+04  0.7818609E-02  0.8325903E-01
       -1   -1    0    0    0  501  0.00000000000E+00  0.00000000000E+00  0.12906817052E+04  0.12906817052E+04  0.50400001928E-02 0.  1.
        1   -1    0    0  501    0  0.00000000000E+00  0.00000000000E+00 -0.14417267962E+04  0.14417267962E+04  0.50400001928E-02 0. -1.
    10030    2    1    2    0    0  0.00000000000E+00  0.00000000000E+00 -0.15104509094E+03  0.27324085014E+04  0.27282304886E+04 0.  0.
        4    1    3    3  502    0  0.26870396762E+03 -0.99833783987E+03 -0.96678900303E+03  0.14154726610E+04  0.12699999809E+01 0. -1.
       -4    1    3    3    0  502 -0.26870396762E+03  0.99833783987E+03  0.81574391209E+03  0.13169358404E+04  0.12699999809E+01 0.  1.
</event>
<event>
 5   0  0.4448804E-06  0.2697786E+04  0.7818609E-02  0.8335724E-01
        2   -1    0    0  501    0  0.00000000000E+00  0.00000000000E+00  0.31265950657E+04  0.31265950657E+04  0.25500000920E-02 0. -1.
       -2   -1    0    0    0  501  0.00000000000E+00  0.00000000000E+00 -0.58194701611E+03  0.58194701611E+03  0.25500000920E-02 0.  1.
    10030    2    1    2    0    0  0.00000000000E+00  0.00000000000E+00  0.25446480496E+04  0.37085420818E+04  0.26977862547E+04 0.  0.
        2    1    3    3  502    0  0.66229776045E+03  0.10519425549E+04  0.55237521780E+03  0.13602719741E+04  0.25500000920E-02 0. -1.
       -2    1    3    3    0  502 -0.66229776045E+03 -0.10519425549E+04  0.19922728318E+04  0.23482701077E+04  0.25500000920E-02 0.  1.
</event>
<event>
 5   0  0.4655882E-06  0.2667770E+04  0.7818609E-02  0.8345539E-01
       -2   -1    0    0    0  501  0.00000000000E+00  0.00000000000E+00  0.94238739804E+03  0.94238739805E+03  0.25500000920E-02 0. -1.
        2   -1    0    0  501    0  0.00000000000E+00  0.00000000000E+00 -0.18880226748E+04  0.18880226748E+04  0.25500000920E-02 0.  1.
    10030    2    1    2    0    0  0.00000000000E+00  0.00000000000E+00 -0.94563527672E+03  0.28304100728E+04  0.26677696872E+04 0.  0.
        1    1    3    3  502    0 -0.38905082489E+03 -0.23156096798E+03 -0.18040084979E+04  0.18599536786E+04  0.50400001928E-02 0.  1.
       -1    1    3    3    0  502  0.38905082489E+03  0.23156096798E+03  0.85837322114E+03  0.97045639419E+03  0.50400001928E-02 0. -1.
</event>
<event>
 5   0  0.4487186E-06  0.2691945E+04  0.7818609E-02  0.8337623E-01
       -2   -1    0    0    0  501  0.00000000000E+00  0.00000000000E+00  0.10811299012E+04  0.10811299012E+04  0.25500000920E-02 0.  1.
        2   -1    0    0  501    0  0.00000000000E+00  0.00000000000E+00 -0.16756925481E+04  0.16756925481E+04  0.25500000920E-02 0. -1.
    10030    2    1    2    0    0  0.00000000000E+00  0.00000000000E+00 -0.59456264694E+03  0.27568224493E+04  0.26919445157E+04 0.  0.
        3    1    3    3  502    0  0.10587798021E+03 -0.84353958766E+03 -0.13659206012E+04  0.16088841729E+04  0.10100000352E+00 0. -1.
       -3    1    3    3    0  502 -0.10587798021E+03  0.84353958766E+03  0.77135795427E+03  0.11479382764E+04  0.10100000352E+00 0.  1.
</event>
<event>
 5   0  0.4655882E-06  0.2696072E+04  0.7818609E-02  0.8336281E-01
        2   -1    0    0  501    0  0.00000000000E+00  0.00000000000E+00  0.16764441937E+04  0.16764441937E+04  0.25500000920E-02 0.  1.
       -2   -1    0    0    0  501  0.00000000000E+00  0.00000000000E+00 -0.10839615261E+04  0.10839615261E+04  0.25500000920E-02 0. -1.
    10030    2    1    2    0    0  0.00000000000E+00  0.00000000000E+00  0.59248266761E+03  0.27604057198E+04  0.26960719624E+04 0.  0.
        1    1    3    3  502    0  0.93574994979E+03 -0.92527037944E+03  0.59553104518E+03  0.14444412309E+04  0.50400001928E-02 0.  1.
       -1    1    3    3    0  502 -0.93574994979E+03  0.92527037944E+03 -0.30483775706E+01  0.13159644890E+04  0.50400001928E-02 0. -1.
</event>
<event>
 5   0  0.4439357E-06  0.2698658E+04  0.7818609E-02  0.8335440E-01
       -2   -1    0    0    0  501  0.00000000000E+00  0.00000000000E+00  0.79615783346E+03  0.79615783346E+03  0.25500000920E-02 0. -1.
        2   -1    0    0  501    0  0.00000000000E+00  0.00000000000E+00 -0.22868443617E+04  0.22868443617E+04  0.25500000920E-02 0.  1.
    10030    2    1    2    0    0  0.00000000000E+00  0.00000000000E+00 -0.14906865282E+04  0.30830021952E+04  0.26986582240E+04 0.  0.
        4    1    3    3  502    0  0.12641695306E+04 -0.45200844482E+03 -0.59100567968E+03  0.14668761238E+04  0.12699999809E+01 0. -1.
       -4    1    3    3    0  502 -0.12641695306E+04  0.45200844482E+03 -0.89968084856E+03  0.16161260713E+04  0.12699999809E+01 0.  1.
</event>
<event>
 5   0  0.1753474E-06  0.2705493E+04  0.7818609E-02  0.8333225E-01
       -1   -1    0    0    0  501  0.00000000000E+00  0.00000000000E+00  0.89981919980E+03  0.89981919982E+03  0.50400001928E-02 0. -1.
        1   -1    0    0  501    0  0.00000000000E+00  0.00000000000E+00 -0.20336568759E+04  0.20336568759E+04  0.50400001928E-02 0.  1.
    10030    2    1    2    0    0  0.00000000000E+00  0.00000000000E+00 -0.11338376761E+04  0.29334760757E+04  0.27054933027E+04 0.  0.
        3    1    3    3  502    0 -0.90746102892E+02  0.12831720290E+04 -0.10207050552E+04  0.16421340174E+04  0.10100000352E+00 0.  1.
       -3    1    3    3    0  502  0.90746102892E+02 -0.12831720290E+04 -0.11313262085E+03  0.12913420583E+04  0.10100000352E+00 0. -1.
</event>
<event>
 5   0  0.1723605E-06  0.2699040E+04  0.7818609E-02  0.8335316E-01
        1   -1    0    0  501    0  0.00000000000E+00  0.00000000000E+00  0.20059854396E+04  0.20059854396E+04  0.50400001928E-02 0.  1.
       -1   -1    0    0    0  501  0.00000000000E+00  0.00000000000E+00 -0.90788531692E+03  0.90788531693E+03  0.50400001928E-02 0. -1.
    10030    2    1    2    0    0  0.00000000000E+00  0.00000000000E+00  0.10981001226E+04  0.29138707565E+04  0.26990403677E+04 0.  0.
        1    1    3    3  502    0 -0.62211303613E+03 -0.20708403765E+03 -0.72436716244E+03  0.97704463277E+03  0.50400001928E-02 0. -1.
       -1    1    3    3    0  502  0.62211303613E+03  0.20708403765E+03  0.18224672851E+04  0.19368261237E+04  0.50400001928E-02 0.  1.
</event>
<event>
 5   0  0.1482875E-06  0.2715097E+04  0.7818609E-02  0.8330123E-01
        3   -1    0    0  501    0  0.00000000000E+00  0.00000000000E+00  0.13541670586E+04  0.13541670624E+04  0.10100000352E+00 0.  1.
       -3   -1    0    0    0  501  0.00000000000E+00  0.00000000000E+00 -0.13609386321E+04  0.13609386358E+04  0.10100000352E+00 0. -1.
    10030    2    1    2    0    0  0.00000000000E+00  0.00000000000E+00 -0.67715734896E+01  0.27151056982E+04  0.27150972539E+04 0.  0.
        5    1    3    3  502    0 -0.28338165959E+03 -0.22735191984E+03  0.13046404999E+04  0.13542905834E+04  0.46999998093E+01 0.  1.
       -5    1    3    3    0  502  0.28338165959E+03  0.22735191984E+03 -0.13114120734E+04  0.13608151148E+04  0.46999998093E+01 0. -1.
</event>
<event>
 5   0  0.1723605E-06  0.2692898E+04  0.7818609E-02  0.8337313E-01
       -1   -1    0    0    0  501  0.00000000000E+00  0.00000000000E+00  0.13085793071E+04  0.13085793071E+04  0.50400001928E-02 0. -1.
        1   -1    0    0  501    0  0.00000000000E+00  0.00000000000E+00 -0.13854148637E+04  0.13854148637E+04  0.50400001928E-02 0.  1.
    10030    2    1    2    0    0  0.00000000000E+00  0.00000000000E+00 -0.76835556599E+02  0.26939941708E+04  0.26928982323E+04 0.  0.
        1    1    3    3  502    0  0.95742705528E+03 -0.62329981101E+03 -0.75127777330E+03  0.13673286047E+04  0.50400001928E-02 0.  1.
       -1    1    3    3    0  502 -0.95742705528E+03  0.62329981101E+03  0.67444221671E+03  0.13266655661E+04  0.50400001928E-02 0. -1.
</event>
<event>
 5   0  0.1828511E-06  0.2750218E+04  0.7818609E-02  0.8318892E-01
        1   -1    0    0  501    0  0.00000000000E+00  0.00000000000E+00  0.14060384517E+04  0.14060384517E+04  0.50400001928E-02 0.  1.
       -1   -1    0    0    0  501  0.00000000000E+00  0.00000000000E+00 -0.13448600008E+04  0.13448600008E+04  0.50400001928E-02 0. -1.
    10030    2    1    2    0    0  0.00000000000E+00  0.00000000000E+00  0.61178450946E+02  0.27508984525E+04  0.27502180810E+04 0.  0.
        4    1    3    3  502    0 -0.94439935161E+03  0.98959900846E+02 -0.96426230929E+03  0.13533242817E+04  0.12699999809E+01 0. -1.
       -4    1    3    3    0  502  0.94439935161E+03 -0.98959900846E+02  0.10254407602E+04  0.13975741708E+04  0.12699999809E+01 0.  1.
</event>
<event>
 5   0  0.1753474E-06  0.2701903E+04  0.7818609E-02  0.8334388E-01
        1   -1    0    0  501    0  0.00000000000E+00  0.00000000000E+00  0.25438464450E+04  0.25438464450E+04  0.50400001928E-02 0.  1.
       -1   -1    0    0    0  501  0.00000000000E+00  0.00000000000E+00 -0.71744511614E+03  0.71744511616E+03  0.50400001928E-02 0. -1.
    10030    2    1    2    0    0  0.00000000000E+00  0.00000000000E+00  0.18264013289E+04  0.32612915612E+04  0.27019031872E+04 0.  0.
        3    1    3    3  502    0  0.54188130591E+03 -0.82767335700E+03 -0.19726601426E+03  0.10087578630E+04  0.10100000352E+00 0. -1.
       -3    1    3    3    0  502 -0.54188130591E+03  0.82767335700E+03  0.20236673431E+04  0.22525336982E+04  0.10100000352E+00 0.  1.
</event>
<event>
 5   0  0.4439357E-06  0.2687556E+04  0.7818609E-02  0.8339054E-01
        2   -1    0    0  501    0  0.00000000000E+00  0.00000000000E+00  0.11213334172E+04  0.11213334172E+04  0.25500000920E-02 0. -1.
       -2   -1    0    0    0  501  0.00000000000E+00  0.00000000000E+00 -0.16103499445E+04  0.16103499445E+04  0.25500000920E-02 0.  1.
    10030    2    1    2    0    0  0.00000000000E+00  0.00000000000E+00 -0.48901652729E+03  0.27316833617E+04  0.26875559203E+04 0.  0.
        4    1    3    3  502    0  0.13179708419E+04 -0.22628168082E+03 -0.37891813822E+03  0.13899032727E+04  0.12699999809E+01 0.  1.
       -4    1    3    3    0  502 -0.13179708419E+04  0.22628168082E+03 -0.11009838908E+03  0.13417800890E+04  0.12699999809E+01 0. -1.
</event>
<event>
 5   0  0.1771016E-06  0.2676158E+04  0.7818609E-02  0.8342782E-01
       -1   -1    0    0    0  501  0.00000000000E+00  0.00000000000E+00  0.11754802844E+04  0.11754802844E+04  0.50400001928E-02 0. -1.
        1   -1    0    0  501    0  0.00000000000E+00  0.00000000000E+00 -0.15231697313E+04  0.15231697314E+04  0.50400001928E-02 0.  1.
    10030    2    1    2    0    0  0.00000000000E+00  0.00000000000E+00 -0.34768944691E+03  0.26986500158E+04  0.26761584326E+04 0.  0.
        2    1    3    3  502    0 -0.12067623333E+04 -0.38054152452E+03  0.26497785736E+03  0.12927878580E+04  0.25500000920E-02 0. -1.
       -2    1    3    3    0  502  0.12067623333E+04  0.38054152452E+03 -0.61266730427E+03  0.14058621578E+04  0.25500000920E-02 0.  1.
</event>
<event>
 5   0  0.1753474E-06  0.2686235E+04  0.7818609E-02  0.8339485E-01
       -1   -1    0    0    0  501  0.00000000000E+00  0.00000000000E+00  0.16061046645E+04  0.16061046645E+04  0.50400001928E-02 0.  1.
        1   -1    0    0  501    0  0.00000000000E+00  0.00000000000E+00 -0.11231921696E+04  0.11231921696E+04  0.50400001928E-02 0. -1.
    10030    2    1    2    0    0  0.00000000000E+00  0.00000000000E+00  0.48291249491E+03  0.27292968342E+04  0.26862346754E+04 0.  0.
        3    1    3    3  502    0  0.10836526048E+04 -0.52923212269E+03 -0.35927017371E+03  0.12583579282E+04  0.10100000352E+00 0. -1.
       -3    1    3    3    0  502 -0.10836526048E+04  0.52923212269E+03  0.84218266862E+03  0.14709389060E+04  0.10100000352E+00 0.  1.
</event>
<event>
 5   0  0.4401659E-06  0.2697997E+04  0.7818609E-02  0.8335655E-01
        2   -1    0    0  501    0  0.00000000000E+00  0.00000000000E+00  0.12670794246E+04  0.12670794246E+04  0.25500000920E-02 0. -1.
       -2   -1    0    0    0  501  0.00000000000E+00  0.00000000000E+00 -0.14362137621E+04  0.14362137621E+04  0.25500000920E-02 0.  1.
    10030    2    1    2    0    0  0.00000000000E+00  0.00000000000E+00 -0.16913433749E+03  0.27032931867E+04  0.26979969661E+04 0.  0.
        5    1    3    3  502    0 -0.41872434127E+03 -0.94132316445E+03  0.78797835941E+03  0.12970548789E+04  0.46999998093E+01 0. -1.
       -5    1    3    3    0  502  0.41872434127E+03  0.94132316445E+03 -0.95711269690E+03  0.14062383078E+04  0.46999998093E+01 0.  1.
</event>
<event>
 5   0  0.1771016E-06  0.2703587E+04  0.7818609E-02  0.8333842E-01
       -1   -1    0    0    0  501  0.00000000000E+00  0.00000000000E+00  0.11646288797E+04  0.11646288797E+04  0.50400001928E-02 0.  1.
        1   -1    0    0  501    0  0.00000000000E+00  0.00000000000E+00 -0.15690371858E+04  0.15690371858E+04  0.50400001928E-02 0. -1.
    10030    2    1    2    0    0  0.00000000000E+00  0.00000000000E+00 -0.40440830606E+03  0.27336660655E+04  0.27035872613E+04 0.  0.
        2    1    3    3  502    0 -0.66068685897E+03  0.96531425995E+03 -0.88724245433E+03  0.14681750300E+04  0.25500000920E-02 0. -1.
       -2    1    3    3    0  502  0.66068685897E+03 -0.96531425995E+03  0.48283414826E+03  0.12654910355E+04  0.25500000920E-02 0.  1.
</event>
<event>
 5   0  0.1732312E-06  0.2700127E+04  0.7818609E-02  0.8334964E-01
       -1   -1    0    0    0  501  0.00000000000E+00  0.00000000000E+00  0.14622034390E+04  0.14622034390E+04  0.50400001928E-02 0.  1.
        1   -1    0    0  501    0  0.00000000000E+00  0.00000000000E+00 -0.12465236085E+04  0.12465236085E+04  0.50400001928E-02 0. -1.
    10030    2    1    2    0    0  0.00000000000E+00  0.00000000000E+00  0.21567983049E+03  0.27087270476E+04  0.27001267431E+04 0.  0.
        5    1    3    3  502    0  0.97358050709E+03  0.13725171660E+03 -0.82028363888E+03  0.12804625632E+04  0.46999998093E+01 0. -1.
       -5    1    3    3    0  502 -0.97358050709E+03 -0.13725171660E+03  0.10359634694E+04  0.14282644844E+04  0.46999998093E+01 0.  1.
</event>
<event>
 5   0  0.1732312E-06  0.2689338E+04  0.7818609E-02  0.8338473E-01
       -1   -1    0    0    0  501  0.00000000000E+00  0.00000000000E+00  0.20130069109E+04  0.20130069109E+04  0.50400001928E-02 0.  1.
        1   -1    0    0  501    0  0.00000000000E+00  0.00000000000E+00 -0.89822609704E+03  0.89822609705E+03  0.50400001928E-02 0. -1.
    10030    2    1    2    0    0  0.00000000000E+00  0.00000000000E+00  0.11147808139E+04  0.29112330080E+04  0.26893384621E+04 0.  0.
        5    1    3    3  502    0  0.35683620107E+03 -0.57446238277E+03  0.18155127459E+04  0.19373816671E+04  0.46999998093E+01 0.  1.
       -5    1    3    3    0  502 -0.35683620107E+03  0.57446238277E+03 -0.70073193199E+03  0.97385134088E+03  0.46999998093E+01 0. -1.
</event>
<event>
 5   0  0.4448804E-06  0.2703838E+04  0.7818609E-02  0.8333761E-01
       -2   -1    0    0    0  501  0.00000000000E+00  0.00000000000E+00  0.15985810119E+04  0.15985810119E+04  0.25500000920E-02 0. -1.
        2   -1    0    0  501    0  0.00000000000E+00  0.00000000000E+00 -0.11433170661E+04  0.11433170661E+04  0.25500000920E-02 0.  1.
    10030    2    1    2    0    0  0.00000000000E+00  0.00000000000E+00  0.45526394581E+03  0.27418980780E+04  0.27038379778E+04 0.  0.
        2    1    3    3  502    0  0.56136675770E+03 -0.78757021051E+03 -0.73027328283E+03  0.12118987337E+04  0.25500000920E-02 0.  1.
       -2    1    3    3    0  502 -0.56136675770E+03  0.78757021051E+03  0.11855372286E+04  0.15299993443E+04  0.25500000920E-02 0. -1.
</event>
<event>
 5   0  0.4448804E-06  0.2702067E+04  0.7818609E-02  0.8334335E-01
       -2   -1    0    0    0  501  0.00000000000E+00  0.00000000000E+00  0.14779415574E+04  0.14779415574E+04  0.25500000920E-02 0. -1.
        2   -1    0    0  501    0  0.00000000000E+00  0.00000000000E+00 -0.12350226303E+04  0.12350226303E+04  0.25500000920E-02 0.  1.
    10030    2    1    2    0    0  0.00000000000E+00  0.00000000000E+00  0.24291892702E+03  0.27129641877E+04  0.27020668161E+04 0.  0.
        2    1    3    3  502    0  0.27903988819E+03  0.63294859769E+03  0.12866586940E+04  0.14608140818E+04  0.25500000920E-02 0. -1.
       -2    1    3    3    0  502 -0.27903988819E+03 -0.63294859769E+03 -0.10437397670E+04  0.12521501059E+04  0.25500000920E-02 0.  1.
</event>
<event>
 5   0  0.4401659E-06  0.2694220E+04  0.7818609E-02  0.8336883E-01
       -2   -1    0    0    0  501  0.00000000000E+00  0.00000000000E+00  0.12276957142E+04  0.12276957142E+04  0.25500000920E-02 0. -1.
        2   -1    0    0  501    0  0.00000000000E+00  0.00000000000E+00 -0.14781390586E+04  0.14781390586E+04  0.25500000920E-02 0.  1.
    10030    2    1    2    0    0  0.00000000000E+00  0.00000000000E+00 -0.25044334433E+03  0.27058347728E+04  0.26942197292E+04 0.  0.
        5    1    3    3  502    0 -0.19027861631E+03 -0.94142381980E+03  0.82341283336E+03  0.12651148345E+04  0.46999998093E+01 0. -1.
       -5    1    3    3    0  502  0.19027861631E+03  0.94142381980E+03 -0.10738561777E+04  0.14407199383E+04  0.46999998093E+01 0.  1.
</event>
<event>
 5   0  0.4439357E-06  0.2708984E+04  0.7818609E-02  0.8332096E-01
        2   -1    0    0  501    0  0.00000000000E+00  0.00000000000E+00  0.16370511286E+04  0.16370511286E+04  0.25500000920E-02 0.  1.
       -2   -1    0    0    0  501  0.00000000000E+00  0.00000000000E+00 -0.11207030306E+04  0.11207030306E+04  0.25500000920E-02 0. -1.
    10030    2    1    2    0    0  0.00000000000E+00  0.00000000000E+00  0.51634809798E+03  0.27577541592E+04  0.27089836922E+04 0.  0.
        4    1    3    3  502    0 -0.78281528621E+03 -0.13458600594E+03  0.13750740982E+04  0.15879998595E+04  0.12699999809E+01 0.  1.
       -4    1    3    3    0  502  0.78281528621E+03  0.13458600594E+03 -0.85872600024E+03  0.11697542997E+04  0.12699999809E+01 0. -1.
</event>
<event>
 5   0  0.1723605E-06  0.2707996E+04  0.7818609E-02  0.8332415E-01
        1   -1    0    0  501    0  0.00000000000E+00  0.00000000000E+00  0.10052323262E+04  0.10052323262E+04  0.50400001928E-02 0.  1.
       -1   -1    0    0    0  501  0.00000000000E+00  0.00000000000E+00 -0.18237684015E+04  0.18237684015E+04  0.50400001928E-02 0. -1.
    10030    2    1    2    0    0  0.00000000000E+00  0.00000000000E+00 -0.81853607525E+03  0.28290007277E+04  0.27079962723E+04 0.  0.
        1    1    3    3  502    0 -0.47545292487E+03  0.95654193596E+03  0.45994619418E+03  0.11630040673E+04  0.50400001928E-02 0.  1.
       -1    1    3    3    0  502  0.47545292487E+03 -0.95654193596E+03 -0.12784822694E+04  0.16659966604E+04  0.50400001928E-02 0. -1.
</event>
<event>
 5   0  0.4439357E-06  0.2693486E+04  0.7818609E-02  0.8337122E-01
       -2   -1    0    0    0  501  0.00000000000E+00  0.00000000000E+00  0.10854806327E+04  0.10854806327E+04  0.25500000920E-02 0. -1.
        2   -1    0    0  501    0  0.00000000000E+00  0.00000000000E+00 -0.16708882183E+04  0.16708882183E+04  0.25500000920E-02 0.  1.
    10030    2    1    2    0    0  0.00000000000E+00  0.00000000000E+00 -0.58540758559E+03  0.27563688511E+04  0.26934860686E+04 0.  0.
        4    1    3    3  502    0 -0.63408686182E+02  0.18290078954E+03  0.10711683098E+04  0.10885203356E+04  0.12699999809E+01 0. -1.
       -4    1    3    3    0  502  0.63408686182E+02 -0.18290078954E+03 -0.16565758954E+04  0.16678485154E+04  0.12699999809E+01 0.  1.
</event>
<event>
 5   0  0.1828511E-06  0.2534265E+04  0.7818609E-02  0.8390879E-01
       -1   -1    0    0    0  501  0.00000000000E+00  0.00000000000E+00  0.93817098877E+03  0.93817098878E+03  0.50400001928E-02 0. -1.
        1   -1    0    0  501    0  0.00000000000E+00  0.00000000000E+00 -0.17114413340E+04  0.17114413341E+04  0.50400001928E-02 0.  1.
    10030    2    1    2    0    0  0.00000000000E+00  0.00000000000E+00 -0.77327034528E+03  0.26496123228E+04  0.25342648706E+04 0.  0.
        4    1    3    3  502    0 -0.68529380580E+03  0.42168509798E+02  0.72683464218E+03  0.99984798518E+03  0.12699999809E+01 0. -1.
       -4    1    3    3    0  502  0.68529380580E+03 -0.42168509798E+02 -0.15001049875E+04  0.16497643377E+04  0.12699999809E+01 0.  1.
</event>
<event>
 5   0  0.4655882E-06  0.2697452E+04  0.7818609E-02  0.8335832E-01
       -2   -1    0    0    0  501  0.00000000000E+00  0.00000000000E+00  0.13909425015E+04  0.13909425015E+04  0.25500000920E-02 0. -1.
        2   -1    0    0  501    0  0.00000000000E+00  0.00000000000E+00 -0.13077907318E+04  0.13077907318E+04  0.25500000920E-02 0.  1.
    10030    2    1    2    0    0  0.00000000000E+00  0.00000000000E+00  0.83151769660E+02  0.26987332333E+04  0.26974519176E+04 0.  0.
        1    1    3    3  502    0  0.61860609135E+03 -0.38680869959E+03 -0.10933205816E+04  0.13143988590E+04  0.50400001928E-02 0.  1.
       -1    1    3    3    0  502 -0.61860609135E+03  0.38680869959E+03  0.11764723513E+04  0.13843343743E+04  0.50400001928E-02 0. -1.
</event>
<event>
 5   0  0.1753474E-06  0.2576381E+04  0.7818609E-02  0.8376269E-01
       -1   -1    0    0    0  501  0.00000000000E+00  0.00000000000E+00  0.12731868246E+04  0.12731868246E+04  0.50400001928E-02 0.  1.
        1   -1    0    0  501    0  0.00000000000E+00  0.00000000000E+00 -0.13033705019E+04  0.13033705019E+04  0.50400001928E-02 0. -1.
    10030    2    1    2    0    0  0.00000000000E+00  0.00000000000E+00 -0.30183677287E+02  0.25765573266E+04  0.25763805237E+04 0.  0.
        3    1    3    3  502    0 -0.62291283990E+03  0.10257320561E+04 -0.48340538915E+03  0.12937648308E+04  0.10100000352E+00 0. -1.
       -3    1    3    3    0  502  0.62291283990E+03 -0.10257320561E+04  0.45322171186E+03  0.12827924958E+04  0.10100000352E+00 0.  1.
</event>
<event>
 5   0  0.4487186E-06  0.2757209E+04  0.7818609E-02  0.8316678E-01
       -2   -1    0    0    0  501  0.00000000000E+00  0.00000000000E+00  0.10359732273E+04  0.10359732273E+04  0.25500000920E-02 0.  1.
        2   -1    0    0  501    0  0.00000000000E+00  0.00000000000E+00 -0.18345549874E+04  0.18345549874E+04  0.25500000920E-02 0. -1.
    10030    2    1    2    0    0  0.00000000000E+00  0.00000000000E+00 -0.79858176006E+03  0.28705282147E+04  0.27572086254E+04 0.  0.
        3    1    3    3  502    0  0.88689085118E+03 -0.10255785468E+04 -0.13971846675E+03  0.13630509887E+04  0.10100000352E+00 0.  1.
       -3    1    3    3    0  502 -0.88689085118E+03  0.10255785468E+04 -0.65886329331E+03  0.15074772260E+04  0.10100000352E+00 0. -1.
</event>
<event>
 5   0  0.1732312E-06  0.2699662E+04  0.7818609E-02  0.8335115E-01
       -1   -1    0    0    0  501  0.00000000000E+00  0.00000000000E+00  0.85796490626E+03  0.85796490627E+03  0.50400001928E-02 0.  1.
        1   -1    0    0  501    0  0.00000000000E+00  0.00000000000E+00 -0.21236803744E+04  0.21236803744E+04  0.50400001928E-02 0. -1.
    10030    2    1    2    0    0  0.00000000000E+00  0.00000000000E+00 -0.12657154681E+04  0.29816452807E+04  0.26996616331E+04 0.  0.
        5    1    3    3  502    0  0.87980097824E+03  0.20597282710E+03  0.47465247071E+03  0.10206819410E+04  0.46999998093E+01 0.  1.
       -5    1    3    3    0  502 -0.87980097824E+03 -0.20597282710E+03 -0.17403679389E+04  0.19609633396E+04  0.46999998093E+01 0. -1.
</event>
<event>
 5   0  0.4655882E-06  0.2699632E+04  0.7818609E-02  0.8335124E-01
        2   -1    0    0  501    0  0.00000000000E+00  0.00000000000E+00  0.15115962220E+04  0.15115962220E+04  0.25500000920E-02 0.  1.
       -2   -1    0    0    0  501  0.00000000000E+00  0.00000000000E+00 -0.12053506332E+04  0.12053506332E+04  0.25500000920E-02 0. -1.
    10030    2    1    2    0    0  0.00000000000E+00  0.00000000000E+00  0.30624558878E+03  0.27169468552E+04  0.26996321700E+04 0.  0.
        1    1    3    3  502    0  0.70325975909E+03  0.70022302563E+03 -0.76768630163E+03  0.12546827615E+04  0.50400001928E-02 0. -1.
       -1    1    3    3    0  502 -0.70325975909E+03 -0.70022302563E+03  0.10739318904E+04  0.14622640937E+04  0.50400001928E-02 0.  1.
</event>
<event>
 5   0  0.4487186E-06  0.2697853E+04  0.7818609E-02  0.8335702E-01
       -2   -1    0    0    0  501  0.00000000000E+00  0.00000000000E+00  0.78738348472E+03  0.78738348472E+03  0.25500000920E-02 0.  1.
        2   -1    0    0  501    0  0.00000000000E+00  0.00000000000E+00 -0.23109488598E+04  0.23109488598E+04  0.25500000920E-02 0. -1.
    10030    2    1    2    0    0  0.00000000000E+00  0.00000000000E+00 -0.15235653751E+04  0.30983323445E+04  0.26978531956E+04 0.  0.
        3    1    3    3  502    0 -0.88451270243E+03 -0.77947065219E+03 -0.15145747806E+04  0.19193420734E+04  0.10100000352E+00 0. -1.
       -3    1    3    3    0  502  0.88451270243E+03  0.77947065219E+03 -0.89905944321E+01  0.11789902711E+04  0.10100000352E+00 0.  1.
</event>
<event>
 5   0  0.1482875E-06  0.2700063E+04  0.7818609E-02  0.8334984E-01
       -3   -1    0    0    0  501  0.00000000000E+00  0.00000000000E+00  0.16822277293E+04  0.16822277323E+04  0.10100000352E+00 0. -1.
        3   -1    0    0  501    0  0.00000000000E+00  0.00000000000E+00 -0.10834356224E+04  0.10834356271E+04  0.10100000352E+00 0.  1.
    10030    2    1    2    0    0  0.00000000000E+00  0.00000000000E+00  0.59879210690E+03  0.27656633594E+04  0.27000633012E+04 0.  0.
        5    1    3    3  502    0  0.86650691122E+03 -0.44603014810E+03  0.12563241743E+04  0.15900156104E+04  0.46999998093E+01 0. -1.
       -5    1    3    3    0  502 -0.86650691122E+03  0.44603014810E+03 -0.65753206743E+03  0.11756477491E+04  0.46999998093E+01 0.  1.
</event>
<event>
 5   0  0.1828511E-06  0.2717159E+04  0.7818609E-02  0.8329459E-01
        1   -1    0    0  501    0  0.00000000000E+00  0.00000000000E+00  0.14924448803E+04  0.14924448803E+04  0.50400001928E-02 0. -1.
       -1   -1    0    0    0  501  0.00000000000E+00  0.00000000000E+00 -0.12367214450E+04  0.12367214451E+04  0.50400001928E-02 0.  1.
    10030    2    1    2    0    0  0.00000000000E+00  0.00000000000E+00  0.25572343528E+03  0.27291663254E+04  0.27171592438E+04 0.  0.
        4    1    3    3  502    0  0.96776469220E+03  0.59928346123E+03  0.87277760413E+03  0.14343819315E+04  0.12699999809E+01 0. -1.
       -4    1    3    3    0  502 -0.96776469220E+03 -0.59928346123E+03 -0.61705416884E+03  0.12947843938E+04  0.12699999809E+01 0.  1.
</event>
<event>
 5   0  0.1771016E-06  0.2702007E+04  0.7818609E-02  0.8334354E-01
        1   -1    0    0  501    0  0.00000000000E+00  0.00000000000E+00  0.23067129909E+04  0.23067129909E+04  0.50400001928E-02 0.  1.
       -1   -1    0    0    0  501  0.00000000000E+00  0.00000000000E+00 -0.79126032566E+03  0.79126032567E+03  0.50400001928E-02 0. -1.
    10030    2    1    2    0    0  0.00000000000E+00  0.00000000000E+00  0.15154526653E+04  0.30979733166E+04  0.27020070114E+04 0.  0.
        2    1    3    3  502    0 -0.12254880780E+04 -0.40897875860E+03  0.12107580042E+04  0.17705986556E+04  0.25500000920E-02 0.  1.
       -2    1    3    3    0  502  0.12254880780E+04  0.40897875860E+03  0.30469466107E+03  0.13273746610E+04  0.25500000920E-02 0. -1.
</event>
<event>
 5   0  0.4439357E-06  0.2700637E+04  0.7818609E-02  0.8334798E-01
       -2   -1    0    0    0  501  0.00000000000E+00  0.00000000000E+00  0.80135718060E+03  0.80135718060E+03  0.25500000920E-02 0. -1.
        2   -1    0    0  501    0  0.00000000000E+00  0.00000000000E+00 -0.22753399803E+04  0.22753399803E+04  0.25500000920E-02 0.  1.
    10030    2    1    2    0    0  0.00000000000E+00  0.00000000000E+00 -0.14739827997E+04  0.30766971609E+04  0.27006369853E+04 0.  0.
        4    1    3    3  502    0  0.13418444020E+03 -0.48245384349E+03 -0.21656434420E+04  0.22227866082E+04  0.12699999809E+01 0.  1.
       -4    1    3    3    0  502 -0.13418444020E+03  0.48245384349E+03  0.69166064224E+03  0.85391055270E+03  0.12699999809E+01 0. -1.
</event>
<event>
 5   0  0.4655882E-06  0.2699082E+04  0.7818609E-02  0.8335303E-01
        2   -1    0    0  501    0  0.00000000000E+00  0.00000000000E+00  0.26412247652E+04  0.26412247652E+04  0.25500000920E-02 0.  1.
       -2   -1    0    0    0  501  0.00000000000E+00  0.00000000000E+00 -0.68955175068E+03  0.68955175069E+03  0.25500000920E-02 0. -1.
    10030    2    1    2    0    0  0.00000000000E+00  0.00000000000E+00  0.19516730145E+04  0.33307765159E+04  0.26990821853E+04 0.  0.
        1    1    3    3  502    0 -0.68547112544E+03  0.79372434847E+03 -0.72293350908E+02  0.10512351468E+04  0.50400001928E-02 0.  1.
       -1    1    3    3    0  502  0.68547112544E+03 -0.79372434847E+03  0.20239663654E+04  0.22795413691E+04  0.50400001928E-02 0. -1.
</event>
<event>
 5   0  0.1723605E-06  0.2700781E+04  0.7818609E-02  0.8334752E-01
        1   -1    0    0  501    0  0.00000000000E+00  0.00000000000E+00  0.14830340130E+04  0.14830340130E+04  0.50400001928E-02 0. -1.
       -1   -1    0    0    0  501  0.00000000000E+00  0.00000000000E+00 -0.12296107846E+04  0.12296107846E+04  0.50400001928E-02 0.  1.
    10030    2    1    2    0    0  0.00000000000E+00  0.00000000000E+00  0.25342322832E+03  0.27126447976E+04  0.27007810843E+04 0.  0.
        1    1    3    3  502    0 -0.68355337725E+03 -0.49507171582E+03  0.11854832054E+04  0.14552359443E+04  0.50400001928E-02 0. -1.
       -1    1    3    3    0  502  0.68355337725E+03  0.49507171582E+03 -0.93205997709E+03  0.12574088533E+04  0.50400001928E-02 0.  1.
</event>
<event>
 5   0  0.4401659E-06  0.2699053E+04  0.7818609E-02  0.8335312E-01
       -2   -1    0    0    0  501  0.00000000000E+00  0.00000000000E+00  0.17719164450E+04  0.17719164450E+04  0.25500000920E-02 0. -1.
        2   -1    0    0  501    0  0.00000000000E+00  0.00000000000E+00 -0.10278259397E+04  0.10278259397E+04  0.25500000920E-02 0.  1.
    10030    2    1    2    0    0  0.00000000000E+00  0.00000000000E+00  0.74409050524E+03  0.27997423847E+04  0.26990529340E+04 0.  0.
        5    1    3    3  502    0 -0.10727396234E+04 -0.49287374711E+03 -0.30618498781E+03  0.12196172215E+04  0.46999998093E+01 0.  1.
       -5    1    3    3    0  502  0.10727396234E+04  0.49287374711E+03  0.10502754930E+04  0.15801251632E+04  0.46999998093E+01 0. -1.
</event>
<event>
 5   0  0.1828511E-06  0.2701745E+04  0.7818609E-02  0.8334439E-01
       -1   -1    0    0    0  501  0.00000000000E+00  0.00000000000E+00  0.11784735142E+04  0.11784735142E+04  0.50400001928E-02 0.  1.
        1   -1    0    0  501    0  0.00000000000E+00  0.00000000000E+00 -0.15484917154E+04  0.15484917155E+04  0.50400001928E-02 0. -1.
    10030    2    1    2    0    0  0.00000000000E+00  0.00000000000E+00 -0.37001820121E+03  0.27269652297E+04  0.27017449722E+04 0.  0.
        4    1    3    3  502    0  0.11818446426E+03  0.86977973395E+03 -0.12214197655E+04  0.15041117676E+04  0.12699999809E+01 0. -1.
       -4    1    3    3    0  502 -0.11818446426E+03 -0.86977973395E+03  0.85140156425E+03  0.12228534621E+04  0.12699999809E+01 0.  1.
</event>
<event>
 5   0  0.1732312E-06  0.2701441E+04  0.7818609E-02  0.8334538E-01
        1   -1    0    0  501    0  0.00000000000E+00  0.00000000000E+00  0.16271918959E+04  0.16271918959E+04  0.50400001928E-02 0. -1.
       -1   -1    0    0    0  501  0.00000000000E+00  0.00000000000E+00 -0.11212231486E+04  0.11212231486E+04  0.50400001928E-02 0.  1.
    10030    2    1    2    0    0  0.00000000000E+00  0.00000000000E+00  0.50596874732E+03  0.27484150445E+04  0.27014405201E+04 0.  0.
        5    1    3    3  502    0  0.71733454788E+03  0.11443812141E+04  0.23703004014E+03  0.13712704134E+04  0.46999998093E+01 0.  1.
       -5    1    3    3    0  502 -0.71733454788E+03 -0.11443812141E+04  0.26893870718E+03  0.13771446311E+04  0.46999998093E+01 0. -1.
</event>
<event>
 5   0  0.1771016E-06  0.2522596E+04  0.7818609E-02  0.8394979E-01
       -1   -1    0    0    0  501  0.00000000000E+00  0.00000000000E+00  0.12814863907E+04  0.12814863907E+04  0.50400001928E-02 0. -1.
        1   -1    0    0  501    0  0.00000000000E+00  0.00000000000E+00 -0.12414280664E+04  0.12414280665E+04  0.50400001928E-02 0.  1.
    10030    2    1    2    0    0  0.00000000000E+00  0.00000000000E+00  0.40058324290E+02  0.25229144572E+04  0.25225964182E+04 0.  0.
        2    1    3    3  502    0  0.10131598315E+04 -0.12372639016E+03  0.76111658397E+03  0.12732240644E+04  0.25500000920E-02 0. -1.
       -2    1    3    3    0  502 -0.10131598315E+04  0.12372639016E+03 -0.72105825968E+03  0.12496903928E+04  0.25500000920E-02 0.  1.
</event>
<event>
 5   0  0.4439357E-06  0.2708443E+04  0.7818609E-02  0.8332271E-01
        2   -1    0    0  501    0  0.00000000000E+00  0.00000000000E+00  0.18459812883E+04  0.18459812883E+04  0.25500000920E-02 0.  1.
       -2   -1    0    0    0  501  0.00000000000E+00  0.00000000000E+00 -0.99346431989E+03  0.99346431990E+03  0.25500000920E-02 0. -1.
    10030    2    1    2    0    0  0.00000000000E+00  0.00000000000E+00  0.85251696837E+03  0.28394456082E+04  0.27084434977E+04 0.  0.
        4    1    3    3  502    0 -0.12836892184E+04  0.36976883668E+03  0.19341707428E+03  0.13498143500E+04  0.12699999809E+01 0. -1.
       -4    1    3    3    0  502  0.12836892184E+04 -0.36976883668E+03  0.65909989409E+03  0.14896312581E+04  0.12699999809E+01 0.  1.
</event>
<event>
 5   0  0.1723605E-06  0.2703260E+04  0.7818609E-02  0.8333948E-01
        1   -1    0    0  501    0  0.00000000000E+00  0.00000000000E+00  0.13588540407E+04  0.13588540407E+04  0.50400001928E-02 0.  1.
       -1   -1    0    0    0  501  0.00000000000E+00  0.00000000000E+00 -0.13444441932E+04  0.13444441932E+04  0.50400001928E-02 0. -1.
    10030    2    1    2    0    0  0.00000000000E+00  0.00000000000E+00  0.14409847522E+02  0.27032982339E+04  0.27032598280E+04 0.  0.
        1    1    3    3  502    0  0.54851214600E+03  0.84008986322E+03 -0.89850484210E+03  0.13468212591E+04  0.50400001928E-02 0. -1.
       -1    1    3    3    0  502 -0.54851214600E+03 -0.84008986322E+03  0.91291468962E+03  0.13564769748E+04  0.50400001928E-02 0.  1.
</event>
<event>
 5   0  0.1753474E-06  0.2701386E+04  0.7818609E-02  0.8334555E-01
       -1   -1    0    0    0  501  0.00000000000E+00  0.00000000000E+00  0.10378927991E+04  0.10378927991E+04  0.50400001928E-02 0. -1.
        1   -1    0    0  501    0  0.00000000000E+00  0.00000000000E+00 -0.17577654413E+04  0.17577654413E+04  0.50400001928E-02 0.  1.
    10030    2    1    2    0    0  0.00000000000E+00  0.00000000000E+00 -0.71987264217E+03  0.27956582405E+04  0.27013863805E+04 0.  0.
        3    1    3    3  502    0 -0.91086714609E+02  0.34499910328E+03 -0.17081067880E+04  0.17449785043E+04  0.10100000352E+00 0.  1.
       -3    1    3    3    0  502  0.91086714609E+02 -0.34499910328E+03  0.98823414585E+03  0.10506797362E+04  0.10100000352E+00 0. -1.
</event>
<event>
 5   0  0.4448804E-06  0.2725491E+04  0.7818609E-02  0.8326781E-01
       -2   -1    0    0    0  501  0.00000000000E+00  0.00000000000E+00  0.21366699652E+04  0.21366699652E+04  0.25500000920E-02 0. -1.
        2   -1    0    0  501    0  0.00000000000E+00  0.00000000000E+00 -0.86914477830E+03  0.86914477830E+03  0.25500000920E-02 0.  1.
    10030    2    1    2    0    0  0.00000000000E+00  0.00000000000E+00  0.12675251869E+04  0.30058147435E+04  0.27254911801E+04 0.  0.
        2    1    3    3  502    0  0.89455469730E+03 -0.90830747786E+02  0.17630949693E+04  0.19791367315E+04  0.25500000920E-02 0. -1.
       -2    1    3    3    0  502 -0.89455469730E+03  0.90830747786E+02 -0.49556978236E+03  0.10266780120E+04  0.25500000920E-02 0.  1.
</event>
<event>
 5   0  0.4439357E-06  0.2644986E+04  0.7818609E-02  0.8353079E-01
       -2   -1    0    0    0  501  0.00000000000E+00  0.00000000000E+00  0.87171295727E+03  0.87171295727E+03  0.25500000920E-02 0.  1.
        2   -1    0    0  501    0  0.00000000000E+00  0.00000000000E+00 -0.20063805128E+04  0.20063805128E+04  0.25500000920E-02 0. -1.
    10030    2    1    2    0    0  0.00000000000E+00  0.00000000000E+00 -0.11346675556E+04  0.28780934701E+04  0.26449861174E+04 0.  0.
        4    1    3    3  502    0  0.10591437390E+04  0.57095365679E+03  0.29863975431E+02  0.12036058358E+04  0.12699999809E+01 0.  1.
       -4    1    3    3    0  502 -0.10591437390E+04 -0.57095365679E+03 -0.11645315310E+04  0.16744876343E+04  0.12699999809E+01 0. -1.
</event>
<event>
 5   0  0.1732312E-06  0.2706758E+04  0.7818609E-02  0.8332815E-01
       -1   -1    0    0    0  501  0.00000000000E+00  0.00000000000E+00  0.13649438659E+04  0.13649438659E+04  0.50400001928E-02 0.  1.
        1   -1    0    0  501    0  0.00000000000E+00  0.00000000000E+00 -0.13419125671E+04  0.13419125671E+04  0.50400001928E-02 0. -1.
    10030    2    1    2    0    0  0.00000000000E+00  0.00000000000E+00  0.23031298857E+02  0.27068564330E+04  0.27067584503E+04 0.  0.
        5    1    3    3  502    0 -0.12802613262E+04 -0.13853347477E+03  0.42788711919E+03  0.13569709148E+04  0.46999998093E+01 0.  1.
       -5    1    3    3    0  502  0.12802613262E+04  0.13853347477E+03 -0.40485582034E+03  0.13498855182E+04  0.46999998093E+01 0. -1.
</event>
<event>
 5   0  0.4439357E-06  0.2690452E+04  0.7818609E-02  0.8338109E-01
       -2   -1    0    0    0  501  0.00000000000E+00  0.00000000000E+00  0.18961236766E+04  0.18961236766E+04  0.25500000920E-02 0. -1.
        2   -1    0    0  501    0  0.00000000000E+00  0.00000000000E+00 -0.95438585942E+03  0.95438585942E+03  0.25500000920E-02 0.  1.
    10030    2    1    2    0    0  0.00000000000E+00  0.00000000000E+00  0.94173781722E+03  0.28505095361E+04  0.26904524710E+04 0.  0.
        4    1    3    3  502    0 -0.16209737176E+03  0.62021240138E+03  0.17238899947E+04  0.18392219299E+04  0.12699999809E+01 0. -1.
       -4    1    3    3    0  502  0.16209737176E+03 -0.62021240138E+03 -0.78215217747E+03  0.10112876062E+04  0.12699999809E+01 0.  1.
</event>
<event>
 5   0  0.1771016E-06  0.2697087E+04  0.7818609E-02  0.8335951E-01
       -1   -1    0    0    0  501  0.00000000000E+00  0.00000000000E+00  0.89391985298E+03  0.89391985299E+03  0.50400001928E-02 0. -1.
        1   -1    0    0  501    0  0.00000000000E+00  0.00000000000E+00 -0.20343771718E+04  0.20343771718E+04  0.50400001928E-02 0.  1.
    10030    2    1    2    0    0  0.00000000000E+00  0.00000000000E+00 -0.11404573188E+04  0.29282970248E+04  0.26970874234E+04 0.  0.
        2    1    3    3  502    0  0.97481101603E+03 -0.19754463251E+03  0.41849118166E+03  0.10790807514E+04  0.25500000920E-02 0. -1.
       -2    1    3    3    0  502 -0.97481101603E+03  0.19754463251E+03 -0.15589485005E+04  0.18492162734E+04  0.25500000920E-02 0.  1.
</event>
<event>
 5   0  0.4401659E-06  0.2710138E+04  0.7818609E-02  0.8331723E-01
        2   -1    0    0  501    0  0.00000000000E+00  0.00000000000E+00  0.23842601500E+04  0.23842601500E+04  0.25500000920E-02 0.  1.
       -2   -1    0    0    0  501  0.00000000000E+00  0.00000000000E+00 -0.77013882943E+03  0.77013882944E+03  0.25500000920E-02 0. -1.
    10030    2    1    2    0    0  0.00000000000E+00  0.00000000000E+00  0.16141213206E+04  0.31543989795E+04  0.27101375028E+04 0.  0.
        5    1    3    3  502    0 -0.16430101511E+03 -0.84057502326E+03 -0.41513239973E+03  0.95179734849E+03  0.46999998093E+01 0. -1.
       -5    1    3    3    0  502  0.16430101511E+03  0.84057502326E+03  0.20292537203E+04  0.22026016310E+04  0.46999998093E+01 0.  1.
</event>
<event>
 5   0  0.1828511E-06  0.2655617E+04  0.7818609E-02  0.8349551E-01
        1   -1    0    0  501    0  0.00000000000E+00  0.00000000000E+00  0.14304174119E+04  0.14304174120E+04  0.50400001928E-02 0.  1.
       -1   -1    0    0    0  501  0.00000000000E+00  0.00000000000E+00 -0.12325597859E+04  0.12325597859E+04  0.50400001928E-02 0. -1.
    10030    2    1    2    0    0  0.00000000000E+00  0.00000000000E+00  0.19785762609E+03  0.26629771978E+04  0.26556166734E+04 0.  0.
        4    1    3    3  502    0 -0.44196166206E+03 -0.26322388212E+03  0.13264362239E+04  0.14226916714E+04  0.12699999809E+01 0.  1.
       -4    1    3    3    0  502  0.44196166206E+03  0.26322388212E+03 -0.11285785978E+04  0.12402855265E+04  0.12699999809E+01 0. -1.
</event>
<event>
 5   0  0.4487186E-06  0.2701651E+04  0.7818609E-02  0.8334469E-01
       -2   -1    0    0    0  501  0.00000000000E+00  0.00000000000E+00  0.85757541972E+03  0.85757541973E+03  0.25500000920E-02 0. -1.
        2   -1    0    0  501    0  0.00000000000E+00  0.00000000000E+00 -0.21277780273E+04  0.21277780273E+04  0.25500000920E-02 0.  1.
    10030    2    1    2    0    0  0.00000000000E+00  0.00000000000E+00 -0.12702026075E+04  0.29853534470E+04  0.27016514467E+04 0.  0.
        3    1    3    3  502    0 -0.74061093171E+02 -0.17562032303E+03 -0.21128448877E+04  0.21214243030E+04  0.10100000352E+00 0.  1.
       -3    1    3    3    0  502  0.74061093171E+02  0.17562032303E+03  0.84264228018E+03  0.86392914404E+03  0.10100000352E+00 0. -1.
</event>
<event>
 5   0  0.1771016E-06  0.2698735E+04  0.7818609E-02  0.8335416E-01
        1   -1    0    0  501    0  0.00000000000E+00  0.00000000000E+00  0.23570524600E+04  0.23570524600E+04  0.50400001928E-02 0. -1.
       -1   -1    0    0    0  501  0.00000000000E+00  0.00000000000E+00 -0.77248685693E+03  0.77248685694E+03  0.50400001928E-02 0.  1.
    10030    2    1    2    0    0  0.00000000000E+00  0.00000000000E+00  0.15845656031E+04  0.31295393169E+04  0.26987345527E+04 0.  0.
        2    1    3    3  502    0 -0.27764187539E+03  0.55704146999E+03  0.21806544474E+04  0.22677376456E+04  0.25500000920E-02 0. -1.
       -2    1    3    3    0  502  0.27764187539E+03 -0.55704146999E+03 -0.59608884438E+03  0.86180167130E+03  0.25500000920E-02 0.  1.
</event>
<event>
 5   0  0.4448804E-06  0.2692590E+04  0.7818609E-02  0.8337413E-01
        2   -1    0    0  501    0  0.00000000000E+00  0.00000000000E+00  0.15414665004E+04  0.15414665004E+04  0.25500000920E-02 0. -1.
       -2   -1    0    0    0  501  0.00000000000E+00  0.00000000000E+00 -0.11758353116E+04  0.11758353116E+04  0.25500000920E-02 0.  1.
    10030    2    1    2    0    0  0.00000000000E+00  0.00000000000E+00  0.36563118882E+03  0.27173018121E+04  0.26925903832E+04 0.  0.
        2    1    3    3  502    0 -0.60895121196E+03 -0.49921496663E+03  0.12848419250E+04  0.15069359422E+04  0.25500000920E-02 0. -1.
       -2    1    3    3    0  502  0.60895121196E+03  0.49921496663E+03 -0.91921073620E+03  0.12103658699E+04  0.25500000920E-02 0.  1.
</event>
<event>
 5   0  0.4439357E-06  0.2643172E+04  0.7818609E-02  0.8353683E-01
        2   -1    0    0  501    0  0.00000000000E+00  0.00000000000E+00  0.11639743864E+04  0.11639743864E+04  0.25500000920E-02 0.  1.
       -2   -1    0    0    0  501  0.00000000000E+00  0.00000000000E+00 -0.15005389726E+04  0.15005389726E+04  0.25500000920E-02 0. -1.
    10030    2    1    2    0    0  0.00000000000E+00  0.00000000000E+00 -0.33656458611E+03  0.26645133590E+04  0.26431715267E+04 0.  0.
        4    1    3    3  502    0 -0.47820775031E+02  0.12612331001E+04 -0.56335427162E+03  0.13821596896E+04  0.12699999809E+01 0. -1.
       -4    1    3    3    0  502  0.47820775031E+02 -0.12612331001E+04  0.22678968551E+03  0.12823536694E+04  0.12699999809E+01 0.  1.
</event>
<event>
 5   0  0.4401659E-06  0.2709038E+04  0.7818609E-02  0.8332079E-01
       -2   -1    0    0    0  501  0.00000000000E+00  0.00000000000E+00  0.15780736309E+04  0.15780736309E+04  0.25500000920E-02 0.  1.
        2   -1    0    0  501    0  0.00000000000E+00  0.00000000000E+00 -0.11626335053E+04  0.11626335053E+04  0.25500000920E-02 0. -1.
    10030    2    1    2    0    0  0.00000000000E+00  0.00000000000E+00  0.41544012560E+03  0.27407071362E+04  0.27090376720E+04 0.  0.
        5    1    3    3  502    0  0.20679364749E+03  0.56564750113E+03  0.14351545357E+04  0.15564097595E+04  0.46999998093E+01 0.  1.
       -5    1    3    3    0  502 -0.20679364749E+03 -0.56564750113E+03 -0.10197144101E+04  0.11842973767E+04  0.46999998093E+01 0. -1.
</event>
<event>
 5   0  0.1723605E-06  0.2703574E+04  0.7818609E-02  0.8333846E-01
       -1   -1    0    0    0  501  0.00000000000E+00  0.00000000000E+00  0.10933214591E+04  0.10933214591E+04  0.50400001928E-02 0.  1.
        1   -1    0    0  501    0  0.00000000000E+00  0.00000000000E+00 -0.16713552320E+04  0.16713552321E+04  0.50400001928E-02 0. -1.
    10030    2    1    2    0    0  0.00000000000E+00  0.00000000000E+00 -0.57803377293E+03  0.27646766912E+04  0.27035743312E+04 0.  0.
        1    1    3    3  502    0  0.11592943642E+04 -0.28753285251E+03 -0.93632384552E+03  0.15176761538E+04  0.50400001928E-02 0. -1.
       -1    1    3    3    0  502 -0.11592943642E+04  0.28753285251E+03  0.35829007259E+03  0.12470005374E+04  0.50400001928E-02 0.  1.
</event>
<event>
 5   0  0.1771016E-06  0.2634099E+04  0.7818609E-02  0.8356710E-01
        1   -1    0    0  501    0  0.00000000000E+00  0.00000000000E+00  0.20574481910E+04  0.20574481911E+04  0.50400001928E-02 0. -1.
       -1   -1    0    0    0  501  0.00000000000E+00  0.00000000000E+00 -0.84309242741E+03  0.84309242742E+03  0.50400001928E-02 0.  1.
    10030    2    1    2    0    0  0.00000000000E+00  0.00000000000E+00  0.12143557636E+04  0.29005406185E+04  0.26340986995E+04 0.  0.
        2    1    3    3  502    0  0.30770215707E+02  0.13105974680E+04  0.74649181685E+03  0.15085962223E+04  0.25500000920E-02 0. -1.
       -2    1    3    3    0  502 -0.30770215707E+02 -0.13105974680E+04  0.46786394679E+03  0.13919443962E+04  0.25500000920E-02 0.  1.
</event>
<event>
 5   0  0.4401659E-06  0.2686324E+04  0.7818609E-02  0.8339456E-01
       -2   -1    0    0    0  501  0.00000000000E+00  0.00000000000E+00  0.74615692450E+03  0.74615692450E+03  0.25500000920E-02 0.  1.
        2   -1    0    0  501    0  0.00000000000E+00  0.00000000000E+00 -0.24178347393E+04  0.24178347393E+04  0.25500000920E-02 0. -1.
    10030    2    1    2    0    0  0.00000000000E+00  0.00000000000E+00 -0.16716778148E+04  0.31639916638E+04  0.26863239812E+04 0.  0.
        5    1    3    3  502    0  0.80950565091E+03  0.53794715512E+03 -0.19277026036E+04  0.21588760869E+04  0.46999998093E+01 0. -1.
       -5    1    3    3    0  502 -0.80950565091E+03 -0.53794715512E+03  0.25602478878E+03  0.10051155769E+04  0.46999998093E+01 0.  1.
</event>
<event>
 5   0  0.1753474E-06  0.2699973E+04  0.7818609E-02  0.8335014E-01
       -1   -1    0    0    0  501  0.00000000000E+00  0.00000000000E+00  0.10732869564E+04  0.10732869564E+04  0.50400001928E-02 0.  1.
        1   -1    0    0  501    0  0.00000000000E+00  0.00000000000E+00 -0.16980206997E+04  0.16980206997E+04  0.50400001928E-02 0. -1.
    10030    2    1    2    0    0  0.00000000000E+00  0.00000000000E+00 -0.62473374329E+03  0.27713076562E+04  0.26999729397E+04 0.  0.
        3    1    3    3  502    0 -0.10690602260E+03 -0.66663455289E+03 -0.15122840511E+04  0.16561502306E+04  0.10100000352E+00 0. -1.
       -3    1    3    3    0  502  0.10690602260E+03  0.66663455289E+03  0.88755030782E+03  0.11151574256E+04  0.10100000352E+00 0.  1.
</event>
<event>
 5   0  0.4655882E-06  0.2712627E+04  0.7818609E-02  0.8330920E-01
       -2   -1    0    0    0  501  0.00000000000E+00  0.00000000000E+00  0.21283239828E+04  0.21283239828E+04  0.25500000920E-02 0. -1.
        2   -1    0    0  501    0  0.00000000000E+00  0.00000000000E+00 -0.86433545734E+03  0.86433545735E+03  0.25500000920E-02 0.  1.
    10030    2    1    2    0    0  0.00000000000E+00  0.00000000000E+00  0.12639885255E+04  0.29926594402E+04  0.27126266850E+04 0.  0.
        1    1    3    3  502    0 -0.26487501407E+03  0.92352065123E+03 -0.42419610309E+03  0.10502340217E+04  0.50400001928E-02 0.  1.
       -1    1    3    3    0  502  0.26487501407E+03 -0.92352065123E+03  0.16881846286E+04  0.19424254185E+04  0.50400001928E-02 0. -1.
</event>
<event>
 5   0  0.1723605E-06  0.2681007E+04  0.7818609E-02  0.8341194E-01
       -1   -1    0    0    0  501  0.00000000000E+00  0.00000000000E+00  0.12931433437E+04  0.12931433437E+04  0.50400001928E-02 0. -1.
        1   -1    0    0  501    0  0.00000000000E+00  0.00000000000E+00 -0.13895982186E+04  0.13895982186E+04  0.50400001928E-02 0.  1.
    10030    2    1    2    0    0  0.00000000000E+00  0.00000000000E+00 -0.96454874896E+02  0.26827415623E+04  0.26810070397E+04 0.  0.
        1    1    3    3  502    0 -0.10192187763E+04  0.59699788493E+02  0.82099945968E+03  0.13101187318E+04  0.50400001928E-02 0. -1.
       -1    1    3    3    0  502  0.10192187763E+04 -0.59699788493E+02 -0.91745433458E+03  0.13726228305E+04  0.50400001928E-02 0.  1.
</event>
<event>
 5   0  0.4655882E-06  0.2684198E+04  0.7818609E-02  0.8340150E-01
        2   -1    0    0  501    0  0.00000000000E+00  0.00000000000E+00  0.19441467951E+04  0.19441467951E+04  0.25500000920E-02 0. -1.
       -2   -1    0    0    0  501  0.00000000000E+00  0.00000000000E+00 -0.92648878148E+03  0.92648878148E+03  0.25500000920E-02 0.  1.
    10030    2    1    2    0    0  0.00000000000E+00  0.00000000000E+00  0.10176580136E+04  0.28706355766E+04  0.26841983498E+04 0.  0.
        1    1    3    3  502    0 -0.50232400459E+03 -0.73502591327E+03 -0.56523720703E+03  0.10545546923E+04  0.50400001928E-02 0.  1.
       -1    1    3    3    0  502  0.50232400459E+03  0.73502591327E+03  0.15828952207E+04  0.18160808843E+04  0.50400001928E-02 0. -1.
</event>
<event>
 5   0  0.4655882E-06  0.2701778E+04  0.7818609E-02  0.8334428E-01
        2   -1    0    0  501    0  0.00000000000E+00  0.00000000000E+00  0.17581015094E+04  0.17581015094E+04  0.25500000920E-02 0.  1.
       -2   -1    0    0    0  501  0.00000000000E+00  0.00000000000E+00 -0.10379954817E+04  0.10379954817E+04  0.25500000920E-02 0. -1.
    10030    2    1    2    0    0  0.00000000000E+00  0.00000000000E+00  0.72010602767E+03  0.27960969911E+04  0.27017782463E+04 0.  0.
        1    1    3    3  502    0  0.38614433857E+03 -0.73617394890E+03 -0.74193984588E+03  0.11142415663E+04  0.50400001928E-02 0. -1.
       -1    1    3    3    0  502 -0.38614433857E+03  0.73617394890E+03  0.14620458735E+04  0.16818554247E+04  0.50400001928E-02 0.  1.
</event>
<event>
 5   0  0.4401659E-06  0.2715765E+04  0.7818609E-02  0.8329908E-01
       -2   -1    0    0    0  501  0.00000000000E+00  0.00000000000E+00  0.99504676082E+03  0.99504676082E+03  0.25500000920E-02 0. -1.
        2   -1    0    0  501    0  0.00000000000E+00  0.00000000000E+00 -0.18530227095E+04  0.18530227095E+04  0.25500000920E-02 0.  1.
    10030    2    1    2    0    0  0.00000000000E+00  0.00000000000E+00 -0.85797594867E+03  0.28480694703E+04  0.27157645294E+04 0.  0.
        5    1    3    3  502    0  0.12466652166E+04 -0.11330288995E+03 -0.98074732962E+03  0.15902512763E+04  0.46999998093E+01 0.  1.
       -5    1    3    3    0  502 -0.12466652166E+04  0.11330288995E+03  0.12277138095E+03  0.12578181940E+04  0.46999998093E+01 0. -1.
</event>
<event>
 5   0  0.4487186E-06  0.2694325E+04  0.7818609E-02  0.8336849E-01
       -2   -1    0    0    0  501  0.00000000000E+00  0.00000000000E+00  0.91731413818E+03  0.91731413818E+03  0.25500000920E-02 0.  1.
        2   -1    0    0  501    0  0.00000000000E+00  0.00000000000E+00 -0.19784349259E+04  0.19784349259E+04  0.25500000920E-02 0. -1.
    10030    2    1    2    0    0  0.00000000000E+00  0.00000000000E+00 -0.10611207878E+04  0.28957490641E+04  0.26943246494E+04 0.  0.
        3    1    3    3  502    0 -0.12799861131E+03 -0.66465373343E+02  0.90899264252E+03  0.92036347424E+03  0.10100000352E+00 0.  1.
       -3    1    3    3    0  502  0.12799861131E+03  0.66465373343E+02 -0.19701134303E+04  0.19753855899E+04  0.10100000352E+00 0. -1.
</event>
<event>
 5   0  0.1828511E-06  0.2700581E+04  0.7818609E-02  0.8334816E-01
        1   -1    0    0  501    0  0.00000000000E+00  0.00000000000E+00  0.14120712185E+04  0.14120712185E+04  0.50400001928E-02 0.  1.
       -1   -1    0    0    0  501  0.00000000000E+00  0.00000000000E+00 -0.12912131863E+04  0.12912131863E+04  0.50400001928E-02 0. -1.
    10030    2    1    2    0    0  0.00000000000E+00  0.00000000000E+00  0.12085803219E+03  0.27032844049E+04  0.27005814022E+04 0.  0.
        4    1    3    3  502    0 -0.92883163784E+03  0.65025769936E+03  0.79445695874E+03  0.13844590132E+04  0.12699999809E+01 0.  1.
       -4    1    3    3    0  502  0.92883163784E+03 -0.65025769936E+03 -0.67359892655E+03  0.13188253917E+04  0.12699999809E+01 0. -1.
</event>
<event>
 5   0  0.1753474E-06  0.2739722E+04  0.7818609E-02  0.8322231E-01
        1   -1    0    0  501    0  0.00000000000E+00  0.00000000000E+00  0.15347994406E+04  0.15347994406E+04  0.50400001928E-02 0. -1.
       -1   -1    0    0    0  501  0.00000000000E+00  0.00000000000E+00 -0.12226474300E+04  0.12226474301E+04  0.50400001928E-02 0.  1.
    10030    2    1    2    0    0  0.00000000000E+00  0.00000000000E+00  0.31215201053E+03  0.27574468706E+04  0.27397215856E+04 0.  0.
        3    1    3    3  502    0  0.31826813334E+03  0.13185918032E+04  0.34846614662E+03  0.14005026290E+04  0.10100000352E+00 0. -1.
       -3    1    3    3    0  502 -0.31826813334E+03 -0.13185918032E+04 -0.36314136095E+02  0.13569442416E+04  0.10100000352E+00 0.  1.
</event>
<event>
 5   0  0.1771016E-06  0.2698311E+04  0.7818609E-02  0.8335553E-01
        1   -1    0    0  501    0  0.00000000000E+00  0.00000000000E+00  0.10471520783E+04  0.10471520783E+04  0.50400001928E-02 0. -1.
       -1   -1    0    0    0  501  0.00000000000E+00  0.00000000000E+00 -0.17382581217E+04  0.17382581217E+04  0.50400001928E-02 0.  1.
    10030    2    1    2    0    0  0.00000000000E+00  0.00000000000E+00 -0.69110604341E+03  0.27854102001E+04  0.26983110309E+04 0.  0.
        2    1    3    3  502    0  0.86786022282E+03 -0.75807774796E+03  0.37877847919E+03  0.12129865517E+04  0.25500000920E-02 0. -1.
       -2    1    3    3    0  502 -0.86786022282E+03  0.75807774796E+03 -0.10698845226E+04  0.15724236484E+04  0.25500000920E-02 0.  1.
</event>
<event>
 5   0  0.1723605E-06  0.2692355E+04  0.7818609E-02  0.8337490E-01
       -1   -1    0    0    0  501  0.00000000000E+00  0.00000000000E+00  0.11630713531E+04  0.11630713531E+04  0.50400001928E-02 0. -1.
        1   -1    0    0  501    0  0.00000000000E+00  0.00000000000E+00 -0.15581109113E+04  0.15581109113E+04  0.50400001928E-02 0.  1.
    10030    2    1    2    0    0  0.00000000000E+00  0.00000000000E+00 -0.39503955815E+03  0.27211822644E+04  0.26923552261E+04 0.  0.
        1    1    3    3  502    0  0.12750037349E+04  0.14479726067E+03 -0.60880847894E+03  0.14202987484E+04  0.50400001928E-02 0.  1.
       -1    1    3    3    0  502 -0.12750037349E+04 -0.14479726067E+03  0.21376892079E+03  0.13008835160E+04  0.50400001928E-02 0. -1.
</event>
<event>
 5   0  0.4655882E-06  0.2739320E+04  0.7818609E-02  0.8322359E-01
        2   -1    0    0  501    0  0.00000000000E+00  0.00000000000E+00  0.21283866232E+04  0.21283866232E+04  0.25500000920E-02 0.  1.
       -2   -1    0    0    0  501  0.00000000000E+00  0.00000000000E+00 -0.88140380241E+03  0.88140380241E+03  0.25500000920E-02 0. -1.
    10030    2    1    2    0    0  0.00000000000E+00  0.00000000000E+00  0.12469828208E+04  0.30097904256E+04  0.27393196693E+04 0.  0.
        1    1    3    3  502    0 -0.98545771572E+03  0.85593283611E+03  0.10794606031E+04  0.16938072863E+04  0.50400001928E-02 0.  1.
       -1    1    3    3    0  502  0.98545771572E+03 -0.85593283611E+03  0.16752221761E+03  0.13159831393E+04  0.50400001928E-02 0. -1.
</event>
<event>
 5   0  0.1753474E-06  0.2702133E+04  0.7818609E-02  0.8334313E-01
        1   -1    0    0  501    0  0.00000000000E+00  0.00000000000E+00  0.24882866693E+04  0.24882866693E+04  0.50400001928E-02 0.  1.
       -1   -1    0    0    0  501  0.00000000000E+00  0.00000000000E+00 -0.73358920075E+03  0.73358920076E+03  0.50400001928E-02 0. -1.
    10030    2    1    2    0    0  0.00000000000E+00  0.00000000000E+00  0.17546974685E+04  0.32218758701E+04  0.27021326607E+04 0.  0.
        3    1    3    3  502    0 -0.53350770630E+03  0.10350603516E+04  0.16942575716E+04  0.20558426821E+04  0.10100000352E+00 0.  1.
       -3    1    3    3    0  502  0.53350770630E+03 -0.10350603516E+04  0.60439896926E+02  0.11660331880E+04  0.10100000352E+00 0. -1.
</event>
<event>
 5   0  0.4448804E-06  0.2711693E+04  0.7818609E-02  0.8331221E-01
        2   -1    0    0  501    0  0.00000000000E+00  0.00000000000E+00  0.30207418642E+04  0.30207418642E+04  0.25500000920E-02 0.  1.
       -2   -1    0    0    0  501  0.00000000000E+00  0.00000000000E+00 -0.60856553663E+03  0.60856553663E+03  0.25500000920E-02 0. -1.
    10030    2    1    2    0    0  0.00000000000E+00  0.00000000000E+00  0.24121763275E+04  0.36293074008E+04  0.27116927507E+04 0.  0.
        2    1    3    3  502    0  0.66610155576E+03 -0.78586228516E+03  0.23858853600E+04  0.25987919818E+04  0.25500000920E-02 0.  1.
       -2    1    3    3    0  502 -0.66610155576E+03  0.78586228516E+03  0.26290967589E+02  0.10305154190E+04  0.25500000920E-02 0. -1.
</event>
<event>
 5   0  0.1732312E-06  0.2699848E+04  0.7818609E-02  0.8335054E-01
        1   -1    0    0  501    0  0.00000000000E+00  0.00000000000E+00  0.15158176059E+04  0.15158176059E+04  0.50400001928E-02 0. -1.
       -1   -1    0    0    0  501  0.00000000000E+00  0.00000000000E+00 -0.12021865064E+04  0.12021865064E+04  0.50400001928E-02 0.  1.
    10030    2    1    2    0    0  0.00000000000E+00  0.00000000000E+00  0.31363109952E+03  0.27180041123E+04  0.26998484935E+04 0.  0.
        5    1    3    3  502    0  0.29668904536E+03 -0.51182825287E+03  0.13783509144E+04  0.14999552938E+04  0.46999998093E+01 0. -1.
       -5    1    3    3    0  502 -0.29668904536E+03  0.51182825287E+03 -0.10647198149E+04  0.12180488185E+04  0.46999998093E+01 0.  1.
</event>
<event>
 5   0  0.4439357E-06  0.2696055E+04  0.7818609E-02  0.8336286E-01
        2   -1    0    0  501    0  0.00000000000E+00  0.00000000000E+00  0.11929397887E+04  0.11929397887E+04  0.25500000920E-02 0.  1.
       -2   -1    0    0    0  501  0.00000000000E+00  0.00000000000E+00 -0.15232768193E+04  0.15232768193E+04  0.25500000920E-02 0. -1.
    10030    2    1    2    0    0  0.00000000000E+00  0.00000000000E+00 -0.33033703064E+03  0.27162166080E+04  0.26960545447E+04 0.  0.
        4    1    3    3  502    0 -0.22312438132E+03 -0.30505298328E+03 -0.14688058433E+04  0.15166522444E+04  0.12699999809E+01 0. -1.
       -4    1    3    3    0  502  0.22312438132E+03  0.30505298328E+03  0.11384688127E+04  0.11995643636E+04  0.12699999809E+01 0.  1.
</event>
<event>
 5   0  0.4655882E-06  0.2700734E+04  0.7818609E-02  0.8334767E-01
       -2   -1    0    0    0  501  0.00000000000E+00  0.00000000000E+00  0.93212517189E+03  0.93212517189E+03  0.25500000920E-02 0. -1.
        2   -1    0    0  501    0  0.00000000000E+00  0.00000000000E+00 -0.19562730626E+04  0.19562730626E+04  0.25500000920E-02 0.  1.
    10030    2    1    2    0    0  0.00000000000E+00  0.00000000000E+00 -0.10241478907E+04  0.28883982345E+04  0.27007342444E+04 0.  0.
        1    1    3    3  502    0  0.82897494415E+03 -0.88345407283E+03  0.12586436624E+03  0.12180034464E+04  0.50400001928E-02 0. -1.
       -1    1    3    3    0  502 -0.82897494415E+03  0.88345407283E+03 -0.11500122570E+04  0.16703947881E+04  0.50400001928E-02 0.  1.
</event>
<event>
 5   0  0.4487186E-06  0.2718700E+04  0.7818609E-02  0.8328963E-01
       -2   -1    0    0    0  501  0.00000000000E+00  0.00000000000E+00  0.14720521995E+04  0.14720521995E+04  0.25500000920E-02 0.  1.
        2   -1    0    0  501    0  0.00000000000E+00  0.00000000000E+00 -0.12552766491E+04  0.12552766491E+04  0.25500000920E-02 0. -1.
    10030    2    1    2    0    0  0.00000000000E+00  0.00000000000E+00  0.21677555040E+03  0.27273288486E+04  0.27187002426E+04 0.  0.
        3    1    3    3  502    0  0.26000595638E+03  0.50558305419E+03  0.13470598145E+04  0.14621174632E+04  0.10100000352E+00 0.  1.
       -3    1    3    3    0  502 -0.26000595638E+03 -0.50558305419E+03 -0.11302842641E+04  0.12652113855E+04  0.10100000352E+00 0. -1.
</event>
<event>
 5   0  0.1828511E-06  0.2699472E+04  0.7818609E-02  0.8335176E-01
        1   -1    0    0  501    0  0.00000000000E+00  0.00000000000E+00  0.15646966843E+04  0.15646966844E+04  0.50400001928E-02 0.  1.
       -1   -1    0    0    0  501  0.00000000000E+00  0.00000000000E+00 -0.11643072142E+04  0.11643072142E+04  0.50400001928E-02 0. -1.
    10030    2    1    2    0    0  0.00000000000E+00  0.00000000000E+00  0.40038947016E+03  0.27290038985E+04  0.26994722726E+04 0.  0.
        4    1    3    3  502    0 -0.61515688957E+03 -0.10399113953E+04  0.80840110589E+03  0.14537357634E+04  0.12699999809E+01 0.  1.
       -4    1    3    3    0  502  0.61515688957E+03  0.10399113953E+04 -0.40801163573E+03  0.12752681352E+04  0.12699999809E+01 0. -1.
</event>
<event>
 5   0  0.4439357E-06  0.2701157E+04  0.7818609E-02  0.8334630E-01
        2   -1    0    0  501    0  0.00000000000E+00  0.00000000000E+00  0.29474359656E+04  0.29474359656E+04  0.25500000920E-02 0. -1.
       -2   -1    0    0    0  501  0.00000000000E+00  0.00000000000E+00 -0.61886388374E+03  0.61886388375E+03  0.25500000920E-02 0.  1.
    10030    2    1    2    0    0  0.00000000000E+00  0.00000000000E+00  0.23285720819E+04  0.35662998494E+04  0.27011565440E+04 0.  0.
        4    1    3    3  502    0  0.45347913535E+03 -0.52996942294E+03 -0.36265748278E+03  0.78615073502E+03  0.12699999809E+01 0.  1.
       -4    1    3    3    0  502 -0.45347913535E+03  0.52996942294E+03  0.26912295646E+04  0.27801491143E+04  0.12699999809E+01 0. -1.
</event>
<event>
 5   0  0.4439357E-06  0.2707617E+04  0.7818609E-02  0.8332538E-01
       -2   -1    0    0    0  501  0.00000000000E+00  0.00000000000E+00  0.10460991207E+04  0.10460991207E+04  0.25500000920E-02 0. -1.
        2   -1    0    0  501    0  0.00000000000E+00  0.00000000000E+00 -0.17520297782E+04  0.17520297782E+04  0.25500000920E-02 0.  1.
    10030    2    1    2    0    0  0.00000000000E+00  0.00000000000E+00 -0.70593065749E+03  0.27981288988E+04  0.27076165241E+04 0.  0.
        4    1    3    3  502    0 -0.12399254574E+04 -0.20002071566E+03 -0.87520156768E+03  0.15308176977E+04  0.12699999809E+01 0.  1.
       -4    1    3    3    0  502  0.12399254574E+04  0.20002071566E+03  0.16927091019E+03  0.12673112011E+04  0.12699999809E+01 0. -1.
</event>
<event>
 5   0  0.1771016E-06  0.2688026E+04  0.7818609E-02  0.8338901E-01
        1   -1    0    0  501    0  0.00000000000E+00  0.00000000000E+00  0.21601049033E+04  0.21601049033E+04  0.50400001928E-02 0.  1.
       -1   -1    0    0    0  501  0.00000000000E+00  0.00000000000E+00 -0.83624210420E+03  0.83624210421E+03  0.50400001928E-02 0. -1.
    10030    2    1    2    0    0  0.00000000000E+00  0.00000000000E+00  0.13238627991E+04  0.29963470075E+04  0.26880257958E+04 0.  0.
        2    1    3    3  502    0  0.15942186365E+02  0.10049528608E+04 -0.33270881854E+03  0.10587159977E+04  0.25500000920E-02 0. -1.
       -2    1    3    3    0  502 -0.15942186365E+02 -0.10049528608E+04  0.16565716177E+04  0.19376310098E+04  0.25500000920E-02 0.  1.
</event>
<event>
 5   0  0.4655882E-06  0.2706921E+04  0.7818609E-02  0.8332763E-01
       -2   -1    0    0    0  501  0.00000000000E+00  0.00000000000E+00  0.98222109151E+03  0.98222109151E+03  0.25500000920E-02 0.  1.
        2   -1    0    0  501    0  0.00000000000E+00  0.00000000000E+00 -0.18650138875E+04  0.18650138875E+04  0.25500000920E-02 0. -1.
    10030    2    1    2    0    0  0.00000000000E+00  0.00000000000E+00 -0.88279279594E+03  0.28472349790E+04  0.27069214811E+04 0.  0.
        1    1    3    3  502    0 -0.99679307258E+03  0.23792799846E+03  0.48854111342E+03  0.11352878849E+04  0.50400001928E-02 0.  1.
       -1    1    3    3    0  502  0.99679307258E+03 -0.23792799846E+03 -0.13713339094E+04  0.17119470941E+04  0.50400001928E-02 0. -1.
</event>
<event>
 5   0  0.1732312E-06  0.2688567E+04  0.7818609E-02  0.8338724E-01
        1   -1    0    0  501    0  0.00000000000E+00  0.00000000000E+00  0.18882983731E+04  0.18882983731E+04  0.50400001928E-02 0.  1.
       -1   -1    0    0    0  501  0.00000000000E+00  0.00000000000E+00 -0.95699828834E+03  0.95699828835E+03  0.50400001928E-02 0. -1.
    10030    2    1    2    0    0  0.00000000000E+00  0.00000000000E+00  0.93130008475E+03  0.28452966614E+04  0.26885671358E+04 0.  0.
        5    1    3    3  502    0  0.12620193773E+03 -0.50270121885E+03 -0.84699426606E+03  0.99300393819E+03  0.46999998093E+01 0. -1.
       -5    1    3    3    0  502 -0.12620193773E+03  0.50270121885E+03  0.17782943508E+04  0.18522927233E+04  0.46999998093E+01 0.  1.
</event>
<event>
 5   0  0.1732312E-06  0.2676123E+04  0.7818609E-02  0.8342794E-01
        1   -1    0    0  501    0  0.00000000000E+00  0.00000000000E+00  0.19350160458E+04  0.19350160458E+04  0.50400001928E-02 0.  1.
       -1   -1    0    0    0  501  0.00000000000E+00  0.00000000000E+00 -0.92526812502E+03  0.92526812503E+03  0.50400001928E-02 0. -1.
    10030    2    1    2    0    0  0.00000000000E+00  0.00000000000E+00  0.10097479208E+04  0.28602841709E+04  0.26761230679E+04 0.  0.
        5    1    3    3  502    0 -0.80194752769E+03 -0.29893526991E+03  0.16041995115E+04  0.18182299897E+04  0.46999998093E+01 0.  1.
       -5    1    3    3    0  502  0.80194752769E+03  0.29893526991E+03 -0.59445159070E+03  0.10420541811E+04  0.46999998093E+01 0. -1.
</event>
<event>
 5   0  0.1732312E-06  0.2697572E+04  0.7818609E-02  0.8335793E-01
        1   -1    0    0  501    0  0.00000000000E+00  0.00000000000E+00  0.17700013812E+04  0.17700013812E+04  0.50400001928E-02 0. -1.
       -1   -1    0    0    0  501  0.00000000000E+00  0.00000000000E+00 -0.10278093834E+04  0.10278093834E+04  0.50400001928E-02 0.  1.
    10030    2    1    2    0    0  0.00000000000E+00  0.00000000000E+00  0.74219199780E+03  0.27978107646E+04  0.26975722628E+04 0.  0.
        5    1    3    3  502    0 -0.61972093866E+03  0.12500365833E+03 -0.86461328751E+03  0.10711013880E+04  0.46999998093E+01 0.  1.
       -5    1    3    3    0  502  0.61972093866E+03 -0.12500365833E+03  0.16068052853E+04  0.17267093766E+04  0.46999998093E+01 0. -1.
</event>
<event>
 5   0  0.1771016E-06  0.2684973E+04  0.7818609E-02  0.8339897E-01
       -1   -1    0    0    0  501  0.00000000000E+00  0.00000000000E+00  0.19972211232E+04  0.19972211232E+04  0.50400001928E-02 0.  1.
        1   -1    0    0  501    0  0.00000000000E+00  0.00000000000E+00 -0.90238914080E+03  0.90238914081E+03  0.50400001928E-02 0. -1.
    10030    2    1    2    0    0  0.00000000000E+00  0.00000000000E+00  0.10948319824E+04  0.28996102640E+04  0.26849734847E+04 0.  0.
        2    1    3    3  502    0  0.66846234357E+03  0.74415060830E+03 -0.41951853876E+03  0.10847109463E+04  0.25500000920E-02 0. -1.
       -2    1    3    3    0  502 -0.66846234357E+03 -0.74415060830E+03  0.15143505212E+04  0.18148993177E+04  0.25500000920E-02 0.  1.
</event>
<event>
 5   0  0.4487186E-06  0.2695913E+04  0.7818609E-02  0.8336332E-01
        2   -1    0    0  501    0  0.00000000000E+00  0.00000000000E+00  0.16210218175E+04  0.16210218175E+04  0.25500000920E-02 0. -1.
       -2   -1    0    0    0  501  0.00000000000E+00  0.00000000000E+00 -0.11208894468E+04  0.11208894468E+04  0.25500000920E-02 0.  1.
    10030    2    1    2    0    0  0.00000000000E+00  0.00000000000E+00  0.50013237071E+03  0.27419112644E+04  0.26959126457E+04 0.  0.
        3    1    3    3  502    0  0.48482476366E+02  0.48922527515E+03  0.15265885649E+04  0.16037969251E+04  0.10100000352E+00 0. -1.
       -3    1    3    3    0  502 -0.48482476366E+02 -0.48922527515E+03 -0.10264561942E+04  0.11381143392E+04  0.10100000352E+00 0.  1.
</event>
<event>
 5   0  0.4401659E-06  0.2704728E+04  0.7818609E-02  0.8333473E-01
        2   -1    0    0  501    0  0.00000000000E+00  0.00000000000E+00  0.24684427953E+04  0.24684427953E+04  0.25500000920E-02 0.  1.
       -2   -1    0    0    0  501  0.00000000000E+00  0.00000000000E+00 -0.74090767174E+03  0.74090767174E+03  0.25500000920E-02 0. -1.
    10030    2    1    2    0    0  0.00000000000E+00  0.00000000000E+00  0.17275351235E+04  0.32093504670E+04  0.27047278638E+04 0.  0.
        5    1    3    3  502    0  0.65449949600E+03  0.11590714510E+04  0.11471813644E+04  0.17572317410E+04  0.46999998093E+01 0.  1.
       -5    1    3    3    0  502 -0.65449949600E+03 -0.11590714510E+04  0.58035375909E+03  0.14521187260E+04  0.46999998093E+01 0. -1.
</event>
<event>
 5   0  0.4448804E-06  0.2697191E+04  0.7818609E-02  0.8335917E-01
       -2   -1    0    0    0  501  0.00000000000E+00  0.00000000000E+00  0.69110329334E+03  0.69110329335E+03  0.25500000920E-02 0. -1.
        2   -1    0    0  501    0  0.00000000000E+00  0.00000000000E+00 -0.26316038045E+04  0.26316038045E+04  0.25500000920E-02 0.  1.
    10030    2    1    2    0    0  0.00000000000E+00  0.00000000000E+00 -0.19405005112E+04  0.33227070979E+04  0.26971911731E+04 0.  0.
        2    1    3    3  502    0  0.87083423905E+03 -0.10208157853E+04 -0.11368682138E+04  0.17586604206E+04  0.25500000920E-02 0. -1.
       -2    1    3    3    0  502 -0.87083423905E+03  0.10208157853E+04 -0.80363229736E+03  0.15640466773E+04  0.25500000920E-02 0.  1.
</event>
<event>
 5   0  0.1828511E-06  0.2717590E+04  0.7818609E-02  0.8329320E-01
       -1   -1    0    0    0  501  0.00000000000E+00  0.00000000000E+00  0.11796313114E+04  0.11796313114E+04  0.50400001928E-02 0.  1.
        1   -1    0    0  501    0  0.00000000000E+00  0.00000000000E+00 -0.15651697910E+04  0.15651697910E+04  0.50400001928E-02 0. -1.
    10030    2    1    2    0    0  0.00000000000E+00  0.00000000000E+00 -0.38553847964E+03  0.27448011024E+04  0.27175895886E+04 0.  0.
        4    1    3    3  502    0  0.12310839210E+03  0.54761068100E+03  0.10570739451E+04  0.11968458850E+04  0.12699999809E+01 0.  1.
       -4    1    3    3    0  502 -0.12310839210E+03 -0.54761068100E+03 -0.14426124247E+04  0.15479552174E+04  0.12699999809E+01 0. -1.
</event>
<event>
 5   0  0.4655882E-06  0.2702577E+04  0.7818609E-02  0.8334169E-01
        2   -1    0    0  501    0  0.00000000000E+00  0.00000000000E+00  0.17342905314E+04  0.17342905314E+04  0.25500000920E-02 0.  1.
       -2   -1    0    0    0  501  0.00000000000E+00  0.00000000000E+00 -0.10528690457E+04  0.10528690457E+04  0.25500000920E-02 0. -1.
    10030    2    1    2    0    0  0.00000000000E+00  0.00000000000E+00  0.68142148570E+03  0.27871595771E+04  0.27025771529E+04 0.  0.
        1    1    3    3  502    0  0.14361500679E+03 -0.13337906756E+04  0.17327822863E+03  0.13526448835E+04  0.50400001928E-02 0. -1.
       -1    1    3    3    0  502 -0.14361500679E+03  0.13337906756E+04  0.50814325707E+03  0.14345146936E+04  0.50400001928E-02 0.  1.
</event>
<event>
 5   0  0.1771016E-06  0.2701791E+04  0.7818609E-02  0.8334424E-01
        1   -1    0    0  501    0  0.00000000000E+00  0.00000000000E+00  0.16067424728E+04  0.16067424728E+04  0.50400001928E-02 0. -1.
       -1   -1    0    0    0  501  0.00000000000E+00  0.00000000000E+00 -0.11357883092E+04  0.11357883092E+04  0.50400001928E-02 0.  1.
    10030    2    1    2    0    0  0.00000000000E+00  0.00000000000E+00  0.47095416361E+03  0.27425307820E+04  0.27017914919E+04 0.  0.
        2    1    3    3  502    0  0.64860669512E+03  0.47593080226E+03  0.13370682301E+04  0.15604333454E+04  0.25500000920E-02 0.  1.
       -2    1    3    3    0  502 -0.64860669512E+03 -0.47593080226E+03 -0.86611406647E+03  0.11820974366E+04  0.25500000920E-02 0. -1.
</event>
<event>
 5   0  0.1723605E-06  0.2705212E+04  0.7818609E-02  0.8333316E-01
       -1   -1    0    0    0  501  0.00000000000E+00  0.00000000000E+00  0.12816752916E+04  0.12816752917E+04  0.50400001928E-02 0. -1.
        1   -1    0    0  501    0  0.00000000000E+00  0.00000000000E+00 -0.14274621235E+04  0.14274621235E+04  0.50400001928E-02 0.  1.
    10030    2    1    2    0    0  0.00000000000E+00  0.00000000000E+00 -0.14578683182E+03  0.27091374151E+04  0.27052119573E+04 0.  0.
        1    1    3    3  502    0 -0.50060779010E+03 -0.50012402276E+03  0.10815198265E+04  0.12924462592E+04  0.50400001928E-02 0. -1.
       -1    1    3    3    0  502  0.50060779010E+03  0.50012402276E+03 -0.12273066584E+04  0.14166911560E+04  0.50400001928E-02 0.  1.
</event>
<event>
 5   0  0.1753474E-06  0.2713932E+04  0.7818609E-02  0.8330499E-01
        1   -1    0    0  501    0  0.00000000000E+00  0.00000000000E+00  0.18575011423E+04  0.18575011423E+04  0.50400001928E-02 0. -1.
       -1   -1    0    0    0  501  0.00000000000E+00  0.00000000000E+00 -0.99130882401E+03  0.99130882402E+03  0.50400001928E-02 0.  1.
    10030    2    1    2    0    0  0.00000000000E+00  0.00000000000E+00  0.86619231828E+03  0.28488099663E+04  0.27139324037E+04 0.  0.
        3    1    3    3  502    0 -0.95260496852E+03  0.88709338746E+03  0.30681844913E+02  0.13020492656E+04  0.10100000352E+00 0.  1.
       -3    1    3    3    0  502  0.95260496852E+03 -0.88709338746E+03  0.83551047337E+03  0.15467607008E+04  0.10100000352E+00 0. -1.
</event>
<event>
 5   0  0.1771016E-06  0.2630712E+04  0.7818609E-02  0.8357843E-01
       -1   -1    0    0    0  501  0.00000000000E+00  0.00000000000E+00  0.81830275416E+03  0.81830275418E+03  0.50400001928E-02 0.  1.
        1   -1    0    0  501    0  0.00000000000E+00  0.00000000000E+00 -0.21143290115E+04  0.21143290116E+04  0.50400001928E-02 0. -1.
    10030    2    1    2    0    0  0.00000000000E+00  0.00000000000E+00 -0.12960262574E+04  0.29326317657E+04  0.26307118834E+04 0.  0.
        2    1    3    3  502    0  0.10389189616E+04  0.57835834294E+03 -0.21051595834E+02  0.11892409980E+04  0.25500000920E-02 0. -1.
       -2    1    3    3    0  502 -0.10389189616E+04 -0.57835834294E+03 -0.12749746616E+04  0.17433907678E+04  0.25500000920E-02 0.  1.
</event>
<event>
 5   0  0.1753474E-06  0.2692326E+04  0.7818609E-02  0.8337499E-01
       -1   -1    0    0    0  501  0.00000000000E+00  0.00000000000E+00  0.11922170069E+04  0.11922170070E+04  0.50400001928E-02 0.  1.
        1   -1    0    0  501    0  0.00000000000E+00  0.00000000000E+00 -0.15199871938E+04  0.15199871938E+04  0.50400001928E-02 0. -1.
    10030    2    1    2    0    0  0.00000000000E+00  0.00000000000E+00 -0.32777018683E+03  0.27122042007E+04  0.26923258219E+04 0.  0.
        3    1    3    3  502    0  0.51012962028E+03 -0.44106977144E+03  0.10097834335E+04  0.12142641251E+04  0.10100000352E+00 0.  1.
       -3    1    3    3    0  502 -0.51012962028E+03  0.44106977144E+03 -0.13375536203E+04  0.14979400756E+04  0.10100000352E+00 0. -1.
</event>
<event>
 5   0  0.1723605E-06  0.2630270E+04  0.7818609E-02  0.8357991E-01
        1   -1    0    0  501    0  0.00000000000E+00  0.00000000000E+00  0.15901006746E+04  0.15901006746E+04  0.50400001928E-02 0. -1.
       -1   -1    0    0    0  501  0.00000000000E+00  0.00000000000E+00 -0.10877171392E+04  0.10877171392E+04  0.50400001928E-02 0.  1.
    10030    2    1    2    0    0  0.00000000000E+00  0.00000000000E+00  0.50238353541E+03  0.26778178139E+04  0.26302697633E+04 0.  0.
        1    1    3    3  502    0  0.11051898227E+04 -0.71148106423E+03  0.20646690252E+03  0.13305181061E+04  0.50400001928E-02 0.  1.
       -1    1    3    3    0  502 -0.11051898227E+04  0.71148106423E+03  0.29591663289E+03  0.13472997078E+04  0.50400001928E-02 0. -1.
</event>
<event>
 5   0  0.1771016E-06  0.2701083E+04  0.7818609E-02  0.8334654E-01
       -1   -1    0    0    0  501  0.00000000000E+00  0.00000000000E+00  0.15410876839E+04  0.15410876839E+04  0.50400001928E-02 0. -1.
        1   -1    0    0  501    0  0.00000000000E+00  0.00000000000E+00 -0.11835555403E+04  0.11835555404E+04  0.50400001928E-02 0.  1.
    10030    2    1    2    0    0  0.00000000000E+00  0.00000000000E+00  0.35753214352E+03  0.27246432242E+04  0.27010833874E+04 0.  0.
        2    1    3    3  502    0  0.98094398160E+03 -0.54895430429E+03  0.93386799950E+03  0.14614073230E+04  0.25500000920E-02 0. -1.
       -2    1    3    3    0  502 -0.98094398160E+03  0.54895430429E+03 -0.57633585598E+03  0.12632359012E+04  0.25500000920E-02 0.  1.
</event>
<event>
 5   0  0.4448804E-06  0.2695960E+04  0.7818609E-02  0.8336317E-01
        2   -1    0    0  501    0  0.00000000000E+00  0.00000000000E+00  0.12184044197E+04  0.12184044197E+04  0.25500000920E-02 0.  1.
       -2   -1    0    0    0  501  0.00000000000E+00  0.00000000000E+00 -0.14913358268E+04  0.14913358268E+04  0.25500000920E-02 0. -1.
    10030    2    1    2    0    0  0.00000000000E+00  0.00000000000E+00 -0.27293140713E+03  0.27097402465E+04  0.26959600610E+04 0.  0.
        2    1    3    3  502    0  0.10212513095E+04 -0.75438772865E+03 -0.59154379387E+03  0.14007066582E+04  0.25500000920E-02 0. -1.
       -2    1    3    3    0  502 -0.10212513095E+04  0.75438772865E+03  0.31861238674E+03  0.13090335883E+04  0.25500000920E-02 0.  1.
</event>
<event>
 5   0  0.1771016E-06  0.2687141E+04  0.7818609E-02  0.8339189E-01
       -1   -1    0    0    0  501  0.00000000000E+00  0.00000000000E+00  0.99718954159E+03  0.99718954161E+03  0.50400001928E-02 0.  1.
        1   -1    0    0  501    0  0.00000000000E+00  0.00000000000E+00 -0.18102687159E+04  0.18102687159E+04  0.50400001928E-02 0. -1.
    10030    2    1    2    0    0  0.00000000000E+00  0.00000000000E+00 -0.81307917427E+03  0.28074582575E+04  0.26871405106E+04 0.  0.
        2    1    3    3  502    0 -0.85471157214E+03 -0.85987985146E+03  0.19839871310E+03  0.12285305368E+04  0.25500000920E-02 0.  1.
       -2    1    3    3    0  502  0.85471157214E+03  0.85987985146E+03 -0.10114778874E+04  0.15789277207E+04  0.25500000920E-02 0. -1.
</event>
<event>
 5   0  0.1732312E-06  0.2707329E+04  0.7818609E-02  0.8332631E-01
        1   -1    0    0  501    0  0.00000000000E+00  0.00000000000E+00  0.17917039807E+04  0.17917039807E+04  0.50400001928E-02 0. -1.
       -1   -1    0    0    0  501  0.00000000000E+00  0.00000000000E+00 -0.10227180534E+04  0.10227180534E+04  0.50400001928E-02 0.  1.
    10030    2    1    2    0    0  0.00000000000E+00  0.00000000000E+00  0.76898592727E+03  0.28144220341E+04  0.27073293168E+04 0.  0.
        5    1    3    3  502    0  0.79646323284E+03 -0.10631368274E+03 -0.74797005913E+03  0.10977875841E+04  0.46999998093E+01 0.  1.
       -5    1    3    3    0  502 -0.79646323284E+03  0.10631368274E+03  0.15169559864E+04  0.17166344500E+04  0.46999998093E+01 0. -1.
</event>
<event>
 5   0  0.4487186E-06  0.2722383E+04  0.7818609E-02  0.8327779E-01
       -2   -1    0    0    0  501  0.00000000000E+00  0.00000000000E+00  0.76326593447E+03  0.76326593448E+03  0.25500000920E-02 0.  1.
        2   -1    0    0  501    0  0.00000000000E+00  0.00000000000E+00 -0.24275195372E+04  0.24275195372E+04  0.25500000920E-02 0. -1.
    10030    2    1    2    0    0  0.00000000000E+00  0.00000000000E+00 -0.16642536027E+04  0.31907854717E+04  0.27223834910E+04 0.  0.
        3    1    3    3  502    0 -0.17668671288E+03  0.93939041989E+03 -0.19679755456E+04  0.21878300468E+04  0.10100000352E+00 0. -1.
       -3    1    3    3    0  502  0.17668671288E+03 -0.93939041989E+03  0.30372194286E+03  0.10029554249E+04  0.10100000352E+00 0.  1.
</event>
<event>
 5   0  0.4487186E-06  0.2709525E+04  0.7818609E-02  0.8331921E-01
       -2   -1    0    0    0  501  0.00000000000E+00  0.00000000000E+00  0.12926963398E+04  0.12926963398E+04  0.25500000920E-02 0. -1.
        2   -1    0    0  501    0  0.00000000000E+00  0.00000000000E+00 -0.14198083742E+04  0.14198083742E+04  0.25500000920E-02 0.  1.
    10030    2    1    2    0    0  0.00000000000E+00  0.00000000000E+00 -0.12711203440E+03  0.27125047140E+04  0.27095247469E+04 0.  0.
        3    1    3    3  502    0 -0.31325225977E+03  0.45897856068E+03  0.11733564925E+04  0.12982887838E+04  0.10100000352E+00 0. -1.
       -3    1    3    3    0  502  0.31325225977E+03 -0.45897856068E+03 -0.13004685269E+04  0.14142159302E+04  0.10100000352E+00 0.  1.
</event>
<event>
 5   0  0.4439357E-06  0.2694974E+04  0.7818609E-02  0.8336638E-01
       -2   -1    0    0    0  501  0.00000000000E+00  0.00000000000E+00  0.63048188144E+03  0.63048188145E+03  0.25500000920E-02 0. -1.
        2   -1    0    0  501    0  0.00000000000E+00  0.00000000000E+00 -0.28798934293E+04  0.28798934293E+04  0.25500000920E-02 0.  1.
    10030    2    1    2    0    0  0.00000000000E+00  0.00000000000E+00 -0.22494115478E+04  0.35103753107E+04  0.26949735640E+04 0.  0.
        4    1    3    3  502    0  0.53327838336E+03 -0.46224310168E+03 -0.26199132644E+04  0.27133008762E+04  0.12699999809E+01 0.  1.
       -4    1    3    3    0  502 -0.53327838336E+03  0.46224310168E+03  0.37050171657E+03  0.79707443447E+03  0.12699999809E+01 0. -1.
</event>
<event>
 5   0  0.4487186E-06  0.2696341E+04  0.7818609E-02  0.8336193E-01
       -2   -1    0    0    0  501  0.00000000000E+00  0.00000000000E+00  0.14509178083E+04  0.14509178083E+04  0.25500000920E-02 0. -1.
        2   -1    0    0  501    0  0.00000000000E+00  0.00000000000E+00 -0.12526990693E+04  0.12526990693E+04  0.25500000920E-02 0.  1.
    10030    2    1    2    0    0  0.00000000000E+00  0.00000000000E+00  0.19821873902E+03  0.27036168776E+04  0.26963407708E+04 0.  0.
        3    1    3    3  502    0 -0.25671769614E+03  0.50500472889E+03 -0.11275600519E+04  0.12618737784E+04  0.10100000352E+00 0.  1.
       -3    1    3    3    0  502  0.25671769614E+03 -0.50500472889E+03  0.13257787909E+04  0.14417430993E+04  0.10100000352E+00 0. -1.
</event>
<event>
 5   0  0.4655882E-06  0.2748429E+04  0.7818609E-02  0.8319460E-01
        2   -1    0    0  501    0  0.00000000000E+00  0.00000000000E+00  0.32237543810E+04  0.32237543810E+04  0.25500000920E-02 0.  1.
       -2   -1    0    0    0  501  0.00000000000E+00  0.00000000000E+00 -0.58579713722E+03  0.58579713722E+03  0.25500000920E-02 0. -1.
    10030    2    1    2    0    0  0.00000000000E+00  0.00000000000E+00  0.26379572438E+04  0.38095515182E+04  0.27484294333E+04 0.  0.
        1    1    3    3  502    0  0.10942040270E+04  0.21827969249E+03  0.20705174702E+03  0.11348122765E+04  0.50400001928E-02 0. -1.
       -1    1    3    3    0  502 -0.10942040270E+04 -0.21827969249E+03  0.24309054967E+04  0.26747392417E+04  0.50400001928E-02 0.  1.
</event>
<event>
 5   0  0.4401659E-06  0.2695403E+04  0.7818609E-02  0.8336498E-01
       -2   -1    0    0    0  501  0.00000000000E+00  0.00000000000E+00  0.15936363435E+04  0.15936363435E+04  0.25500000920E-02 0. -1.
        2   -1    0    0  501    0  0.00000000000E+00  0.00000000000E+00 -0.11397198698E+04  0.11397198698E+04  0.25500000920E-02 0.  1.
    10030    2    1    2    0    0  0.00000000000E+00  0.00000000000E+00  0.45391647366E+03  0.27333562133E+04  0.26954027572E+04 0.  0.
        5    1    3    3  502    0  0.53672733121E+03  0.10556197091E+04  0.87934229616E+03  0.14750166650E+04  0.46999998093E+01 0. -1.
       -5    1    3    3    0  502 -0.53672733121E+03 -0.10556197091E+04 -0.42542582250E+03  0.12583395482E+04  0.46999998093E+01 0.  1.
</event>
<event>
 5   0  0.4401659E-06  0.2710995E+04  0.7818609E-02  0.8331446E-01
        2   -1    0    0  501    0  0.00000000000E+00  0.00000000000E+00  0.13910836027E+04  0.13910836027E+04  0.25500000920E-02 0. -1.
       -2   -1    0    0    0  501  0.00000000000E+00  0.00000000000E+00 -0.13208220628E+04  0.13208220628E+04  0.25500000920E-02 0.  1.
    10030    2    1    2    0    0  0.00000000000E+00  0.00000000000E+00  0.70261539874E+02  0.27119056655E+04  0.27109953254E+04 0.  0.
        5    1    3    3  502    0 -0.53740515050E+03 -0.17293818920E+03 -0.11976141293E+04  0.13240142015E+04  0.46999998093E+01 0.  1.
       -5    1    3    3    0  502  0.53740515050E+03  0.17293818920E+03  0.12678756692E+04  0.13878914639E+04  0.46999998093E+01 0. -1.
</event>
<event>
 5   0  0.1732312E-06  0.2704866E+04  0.7818609E-02  0.8333428E-01
       -1   -1    0    0    0  501  0.00000000000E+00  0.00000000000E+00  0.21879129708E+04  0.21879129708E+04  0.50400001928E-02 0.  1.
        1   -1    0    0  501    0  0.00000000000E+00  0.00000000000E+00 -0.83599095594E+03  0.83599095595E+03  0.50400001928E-02 0. -1.
    10030    2    1    2    0    0  0.00000000000E+00  0.00000000000E+00  0.13519220148E+04  0.30239039267E+04  0.27048663227E+04 0.  0.
        5    1    3    3  502    0 -0.21276905741E+02  0.65738281209E+03  0.19970578172E+04  0.21025857613E+04  0.46999998093E+01 0.  1.
       -5    1    3    3    0  502  0.21276905741E+02 -0.65738281209E+03 -0.64513580240E+03  0.92131816540E+03  0.46999998093E+01 0. -1.
</event>
<event>
 5   0  0.1723605E-06  0.2686894E+04  0.7818609E-02  0.8339270E-01
        1   -1    0    0  501    0  0.00000000000E+00  0.00000000000E+00  0.18184987548E+04  0.18184987548E+04  0.50400001928E-02 0. -1.
       -1   -1    0    0    0  501  0.00000000000E+00  0.00000000000E+00 -0.99249445719E+03  0.99249445720E+03  0.50400001928E-02 0.  1.
    10030    2    1    2    0    0  0.00000000000E+00  0.00000000000E+00  0.82600429758E+03  0.28109932120E+04  0.26868940690E+04 0.  0.
        1    1    3    3  502    0 -0.95640272891E+03 -0.85256885529E+02 -0.57000995716E+03  0.11166406171E+04  0.50400001928E-02 0.  1.
       -1    1    3    3    0  502  0.95640272891E+03  0.85256885529E+02  0.13960142547E+04  0.16943525949E+04  0.50400001928E-02 0. -1.
</event>
<event>
 5   0  0.1753474E-06  0.2675909E+04  0.7818609E-02  0.8342864E-01
       -1   -1    0    0    0  501  0.00000000000E+00  0.00000000000E+00  0.18958129917E+04  0.18958129917E+04  0.50400001928E-02 0.  1.
        1   -1    0    0  501    0  0.00000000000E+00  0.00000000000E+00 -0.94425075799E+03  0.94425075800E+03  0.50400001928E-02 0. -1.
    10030    2    1    2    0    0  0.00000000000E+00  0.00000000000E+00  0.95156223368E+03  0.28400637497E+04  0.26759094562E+04 0.  0.
        3    1    3    3  502    0  0.79537893037E+03 -0.49201432660E+03 -0.53968675074E+03  0.10797997683E+04  0.10100000352E+00 0. -1.
       -3    1    3    3    0  502 -0.79537893037E+03  0.49201432660E+03  0.14912489844E+04  0.17602639814E+04  0.10100000352E+00 0.  1.
</event>
<event>
 5   0  0.1723605E-06  0.2597464E+04  0.7818609E-02  0.8369063E-01
       -1   -1    0    0    0  501  0.00000000000E+00  0.00000000000E+00  0.12033354121E+04  0.12033354121E+04  0.50400001928E-02 0. -1.
        1   -1    0    0  501    0  0.00000000000E+00  0.00000000000E+00 -0.14016909680E+04  0.14016909680E+04  0.50400001928E-02 0.  1.
    10030    2    1    2    0    0  0.00000000000E+00  0.00000000000E+00 -0.19835555594E+03  0.26050263801E+04  0.25974636695E+04 0.  0.
        1    1    3    3  502    0 -0.12312137123E+04 -0.33636645828E+02 -0.51230644240E+03  0.13339702097E+04  0.50400001928E-02 0.  1.
       -1    1    3    3    0  502  0.12312137123E+04  0.33636645828E+02  0.31395088646E+03  0.12710561705E+04  0.50400001928E-02 0. -1.
</event>
<event>
 5   0  0.1828511E-06  0.2691024E+04  0.7818609E-02  0.8337923E-01
        1   -1    0    0  501    0  0.00000000000E+00  0.00000000000E+00  0.12562423438E+04  0.12562423438E+04  0.50400001928E-02 0.  1.
       -1   -1    0    0    0  501  0.00000000000E+00  0.00000000000E+00 -0.14411255745E+04  0.14411255745E+04  0.50400001928E-02 0. -1.
    10030    2    1    2    0    0  0.00000000000E+00  0.00000000000E+00 -0.18488323074E+03  0.26973679183E+04  0.26910243176E+04 0.  0.
        4    1    3    3  502    0  0.44648283373E+03  0.39438010309E+03 -0.13017344253E+04  0.14315714140E+04  0.12699999809E+01 0. -1.
       -4    1    3    3    0  502 -0.44648283373E+03 -0.39438010309E+03  0.11168511946E+04  0.12657965043E+04  0.12699999809E+01 0.  1.
</event>
<event>
 5   0  0.4439357E-06  0.2704474E+04  0.7818609E-02  0.8333555E-01
       -2   -1    0    0    0  501  0.00000000000E+00  0.00000000000E+00  0.98605292338E+03  0.98605292338E+03  0.25500000920E-02 0. -1.
        2   -1    0    0  501    0  0.00000000000E+00  0.00000000000E+00 -0.18544084615E+04  0.18544084615E+04  0.25500000920E-02 0.  1.
    10030    2    1    2    0    0  0.00000000000E+00  0.00000000000E+00 -0.86835553815E+03  0.28404613849E+04  0.27044739856E+04 0.  0.
        4    1    3    3  502    0 -0.76896759515E+03 -0.94255655886E+03 -0.10544842215E+04  0.16098641605E+04  0.12699999809E+01 0.  1.
       -4    1    3    3    0  502  0.76896759515E+03  0.94255655886E+03  0.18612868333E+03  0.12305972244E+04  0.12699999809E+01 0. -1.
</event>
<event>
 5   0  0.4401659E-06  0.2688525E+04  0.7818609E-02  0.8338738E-01
       -2   -1    0    0    0  501  0.00000000000E+00  0.00000000000E+00  0.10916333385E+04  0.10916333385E+04  0.25500000920E-02 0.  1.
        2   -1    0    0  501    0  0.00000000000E+00  0.00000000000E+00 -0.16553559454E+04  0.16553559454E+04  0.25500000920E-02 0. -1.
    10030    2    1    2    0    0  0.00000000000E+00  0.00000000000E+00 -0.56372260693E+03  0.27469892838E+04  0.26885250507E+04 0.  0.
        5    1    3    3  502    0  0.48864350839E+03 -0.12511329441E+04 -0.33701215805E+03  0.13848124085E+04  0.46999998093E+01 0. -1.
       -5    1    3    3    0  502 -0.48864350839E+03  0.12511329441E+04 -0.22671044887E+03  0.13621768753E+04  0.46999998093E+01 0.  1.
</event>
<event>
 5   0  0.1723605E-06  0.2705462E+04  0.7818609E-02  0.8333235E-01
        1   -1    0    0  501    0  0.00000000000E+00  0.00000000000E+00  0.95955606346E+03  0.95955606348E+03  0.50400001928E-02 0.  1.
       -1   -1    0    0    0  501  0.00000000000E+00  0.00000000000E+00 -0.19070077461E+04  0.19070077461E+04  0.50400001928E-02 0. -1.
    10030    2    1    2    0    0  0.00000000000E+00  0.00000000000E+00 -0.94745168263E+03  0.28665638096E+04  0.27054617690E+04 0.  0.
        1    1    3    3  502    0 -0.78878433164E+03 -0.80366069782E+03 -0.12679123827E+04  0.16957750586E+04  0.50400001928E-02 0. -1.
       -1    1    3    3    0  502  0.78878433164E+03  0.80366069782E+03  0.32046070011E+03  0.11707887510E+04  0.50400001928E-02 0.  1.
</event>
<event>
 5   0  0.4487186E-06  0.2702968E+04  0.7818609E-02  0.8334043E-01
       -2   -1    0    0    0  501  0.00000000000E+00  0.00000000000E+00  0.12071305175E+04  0.12071305175E+04  0.25500000920E-02 0.  1.
        2   -1    0    0  501    0  0.00000000000E+00  0.00000000000E+00 -0.15130999769E+04  0.15130999769E+04  0.25500000920E-02 0. -1.
    10030    2    1    2    0    0  0.00000000000E+00  0.00000000000E+00 -0.30596945938E+03  0.27202304944E+04  0.27029681153E+04 0.  0.
        3    1    3    3  502    0  0.62127463013E+03 -0.92437527736E+03 -0.92341765160E+03  0.14467729569E+04  0.10100000352E+00 0. -1.
       -3    1    3    3    0  502 -0.62127463013E+03  0.92437527736E+03  0.61744819222E+03  0.12734575375E+04  0.10100000352E+00 0.  1.
</event>
<event>
 5   0  0.4655882E-06  0.2700809E+04  0.7818609E-02  0.8334742E-01
       -2   -1    0    0    0  501  0.00000000000E+00  0.00000000000E+00  0.11626865259E+04  0.11626865259E+04  0.25500000920E-02 0. -1.
        2   -1    0    0  501    0  0.00000000000E+00  0.00000000000E+00 -0.15684300883E+04  0.15684300883E+04  0.25500000920E-02 0.  1.
    10030    2    1    2    0    0  0.00000000000E+00  0.00000000000E+00 -0.40574356239E+03  0.27311166141E+04  0.27008091605E+04 0.  0.
        1    1    3    3  502    0 -0.10975969048E+03 -0.44461046592E+03 -0.14875081115E+04  0.15564080563E+04  0.50400001928E-02 0.  1.
       -1    1    3    3    0  502  0.10975969048E+03  0.44461046592E+03  0.10817645491E+04  0.11747085578E+04  0.50400001928E-02 0. -1.
</event>
<event>
 5   0  0.4448804E-06  0.2663400E+04  0.7818609E-02  0.8346979E-01
       -2   -1    0    0    0  501  0.00000000000E+00  0.00000000000E+00  0.74617798703E+03  0.74617798703E+03  0.25500000920E-02 0.  1.
        2   -1    0    0  501    0  0.00000000000E+00  0.00000000000E+00 -0.23766780843E+04  0.23766780843E+04  0.25500000920E-02 0. -1.
    10030    2    1    2    0    0  0.00000000000E+00  0.00000000000E+00 -0.16305000972E+04  0.31228560713E+04  0.26633999840E+04 0.  0.
        2    1    3    3  502    0  0.10293608942E+04  0.65603699135E+03 -0.14395003690E+04  0.18873605106E+04  0.25500000920E-02 0.  1.
       -2    1    3    3    0  502 -0.10293608942E+04 -0.65603699135E+03 -0.19099972824E+03  0.12354955607E+04  0.25500000920E-02 0. -1.
</event>
<event>
 5   0  0.1771016E-06  0.2697626E+04  0.7818609E-02  0.8335776E-01
       -1   -1    0    0    0  501  0.00000000000E+00  0.00000000000E+00  0.12636106504E+04  0.12636106504E+04  0.50400001928E-02 0.  1.
        1   -1    0    0  501    0  0.00000000000E+00  0.00000000000E+00 -0.14397606672E+04  0.14397606672E+04  0.50400001928E-02 0. -1.
    10030    2    1    2    0    0  0.00000000000E+00  0.00000000000E+00 -0.17615001682E+03  0.27033713176E+04  0.26976262996E+04 0.  0.
        2    1    3    3  502    0  0.22674637517E+03 -0.11891470795E+04  0.50801292107E+03  0.13128449350E+04  0.25500000920E-02 0.  1.
       -2    1    3    3    0  502 -0.22674637517E+03  0.11891470795E+04 -0.68416293789E+03  0.13905263826E+04  0.25500000920E-02 0. -1.
</event>
<event>
 5   0  0.1828511E-06  0.2700946E+04  0.7818609E-02  0.8334698E-01
        1   -1    0    0  501    0  0.00000000000E+00  0.00000000000E+00  0.19778145168E+04  0.19778145168E+04  0.50400001928E-02 0. -1.
       -1   -1    0    0    0  501  0.00000000000E+00  0.00000000000E+00 -0.92211770732E+03  0.92211770734E+03  0.50400001928E-02 0.  1.
    10030    2    1    2    0    0  0.00000000000E+00  0.00000000000E+00  0.10556968095E+04  0.28999322242E+04  0.27009463436E+04 0.  0.
        4    1    3    3  502    0 -0.10092045465E+04  0.64771727492E+03 -0.13899194326E+03  0.12072082911E+04  0.12699999809E+01 0.  1.
       -4    1    3    3    0  502  0.10092045465E+04 -0.64771727492E+03  0.11946887528E+04  0.16927239331E+04  0.12699999809E+01 0. -1.
</event>
<event>
 5   0  0.4401659E-06  0.2699238E+04  0.7818609E-02  0.8335252E-01
       -2   -1    0    0    0  501  0.00000000000E+00  0.00000000000E+00  0.11276560447E+04  0.11276560447E+04  0.25500000920E-02 0. -1.
        2   -1    0    0  501    0  0.00000000000E+00  0.00000000000E+00 -0.16152721190E+04  0.16152721190E+04  0.25500000920E-02 0.  1.
    10030    2    1    2    0    0  0.00000000000E+00  0.00000000000E+00 -0.48761607426E+03  0.27429281637E+04  0.26992379434E+04 0.  0.
        5    1    3    3  502    0 -0.42198280970E+03 -0.15893332456E+03 -0.15364511138E+04  0.16012599441E+04  0.46999998093E+01 0.  1.
       -5    1    3    3    0  502  0.42198280970E+03  0.15893332456E+03  0.10488350396E+04  0.11416682196E+04  0.46999998093E+01 0. -1.
</event>
<event>
 5   0  0.1771016E-06  0.2703026E+04  0.7818609E-02  0.8334024E-01
       -1   -1    0    0    0  501  0.00000000000E+00  0.00000000000E+00  0.10902338400E+04  0.10902338400E+04  0.50400001928E-02 0. -1.
        1   -1    0    0  501    0  0.00000000000E+00  0.00000000000E+00 -0.16754085497E+04  0.16754085497E+04  0.50400001928E-02 0.  1.
    10030    2    1    2    0    0  0.00000000000E+00  0.00000000000E+00 -0.58517470976E+03  0.27656423897E+04  0.27030257836E+04 0.  0.
        2    1    3    3  502    0  0.88770861751E+03  0.47562518063E+03  0.62959131649E+03  0.11876999317E+04  0.25500000920E-02 0. -1.
       -2    1    3    3    0  502 -0.88770861751E+03 -0.47562518063E+03 -0.12147660263E+04  0.15779424579E+04  0.25500000920E-02 0.  1.
</event>
<event>
 5   0  0.1732312E-06  0.2686599E+04  0.7818609E-02  0.8339366E-01
        1   -1    0    0  501    0  0.00000000000E+00  0.00000000000E+00  0.15541684849E+04  0.15541684849E+04  0.50400001928E-02 0.  1.
       -1   -1    0    0    0  501  0.00000000000E+00  0.00000000000E+00 -0.11610409517E+04  0.11610409517E+04  0.50400001928E-02 0. -1.
    10030    2    1    2    0    0  0.00000000000E+00  0.00000000000E+00  0.39312753319E+03  0.27152094367E+04  0.26865987843E+04 0.  0.
        5    1    3    3  502    0 -0.11883065950E+04  0.62551861302E+03  0.16327260101E+03  0.13527845842E+04  0.46999998093E+01 0.  1.
       -5    1    3    3    0  502  0.11883065950E+04 -0.62551861302E+03  0.22985493218E+03  0.13624248525E+04  0.46999998093E+01 0. -1.
</event>
<event>
 5   0  0.1828511E-06  0.2625792E+04  0.7818609E-02  0.8359493E-01
       -1   -1    0    0    0  501  0.00000000000E+00  0.00000000000E+00  0.96595736655E+03  0.96595736656E+03  0.50400001928E-02 0. -1.
        1   -1    0    0  501    0  0.00000000000E+00  0.00000000000E+00 -0.17844431574E+04  0.17844431574E+04  0.50400001928E-02 0.  1.
    10030    2    1    2    0    0  0.00000000000E+00  0.00000000000E+00 -0.81848579083E+03  0.27504005239E+04  0.26257920809E+04 0.  0.
        4    1    3    3  502    0  0.18698273022E+03 -0.90118851412E+03 -0.13899383028E+04  0.16670433041E+04  0.12699999809E+01 0.  1.
       -4    1    3    3    0  502 -0.18698273022E+03  0.90118851412E+03  0.57145251196E+03  0.10833572198E+04  0.12699999809E+01 0. -1.
</event>
<event>
 5   0  0.1753474E-06  0.2697350E+04  0.7818609E-02  0.8335865E-01
       -1   -1    0    0    0  501  0.00000000000E+00  0.00000000000E+00  0.11712268131E+04  0.11712268132E+04  0.50400001928E-02 0. -1.
        1   -1    0    0  501    0  0.00000000000E+00  0.00000000000E+00 -0.15530071929E+04  0.15530071929E+04  0.50400001928E-02 0.  1.
    10030    2    1    2    0    0  0.00000000000E+00  0.00000000000E+00 -0.38178037970E+03  0.27242340060E+04  0.26973495623E+04 0.  0.
        3    1    3    3  502    0  0.34312029371E+03 -0.46148160996E+03  0.10411978569E+04  0.11894493683E+04  0.10100000352E+00 0. -1.
       -3    1    3    3    0  502 -0.34312029371E+03  0.46148160996E+03 -0.14229782366E+04  0.15347846378E+04  0.10100000352E+00 0.  1.
</event>
<event>
 5   0  0.1732312E-06  0.2667631E+04  0.7818609E-02  0.8345585E-01
        1   -1    0    0  501    0  0.00000000000E+00  0.00000000000E+00  0.16786560436E+04  0.16786560436E+04  0.50400001928E-02 0.  1.
       -1   -1    0    0    0  501  0.00000000000E+00  0.00000000000E+00 -0.10598145856E+04  0.10598145856E+04  0.50400001928E-02 0. -1.
    10030    2    1    2    0    0  0.00000000000E+00  0.00000000000E+00  0.61884145796E+03  0.27384706292E+04  0.26676312783E+04 0.  0.
        5    1    3    3  502    0 -0.80484962833E+03  0.10474326500E+04  0.49910853533E+03  0.14121010943E+04  0.46999998093E+01 0. -1.
       -5    1    3    3    0  502  0.80484962833E+03 -0.10474326500E+04  0.11973292264E+03  0.13263695349E+04  0.46999998093E+01 0.  1.
</event>
<event>
 5   0  0.1723605E-06  0.2691257E+04  0.7818609E-02  0.8337847E-01
        1   -1    0    0  501    0  0.00000000000E+00  0.00000000000E+00  0.15851372739E+04  0.15851372739E+04  0.50400001928E-02 0.  1.
       -1   -1    0    0    0  501  0.00000000000E+00  0.00000000000E+00 -0.11423082917E+04  0.11423082917E+04  0.50400001928E-02 0. -1.
    10030    2    1    2    0    0  0.00000000000E+00  0.00000000000E+00  0.44282898225E+03  0.27274455656E+04  0.26912565478E+04 0.  0.
        1    1    3    3  502    0  0.10827320806E+04  0.53516323830E+03 -0.37986534925E+03  0.12660987851E+04  0.50400001928E-02 0. -1.
       -1    1    3    3    0  502 -0.10827320806E+04 -0.53516323830E+03  0.82269433150E+03  0.14613467806E+04  0.50400001928E-02 0.  1.
</event>
<event>
 5   0  0.4655882E-06  0.2700623E+04  0.7818609E-02  0.8334803E-01
       -2   -1    0    0    0  501  0.00000000000E+00  0.00000000000E+00  0.22363585935E+04  0.22363585935E+04  0.25500000920E-02 0.  1.
        2   -1    0    0  501    0  0.00000000000E+00  0.00000000000E+00 -0.81531674928E+03  0.81531674929E+03  0.25500000920E-02 0. -1.
    10030    2    1    2    0    0  0.00000000000E+00  0.00000000000E+00  0.14210418442E+04  0.30516753428E+04  0.27006226087E+04 0.  0.
        1    1    3    3  502    0  0.23461836850E+03 -0.10286715131E+04  0.16627540483E+04  0.19692541446E+04  0.50400001928E-02 0.  1.
       -1    1    3    3    0  502 -0.23461836850E+03  0.10286715131E+04 -0.24171220405E+03  0.10824211982E+04  0.50400001928E-02 0. -1.
</event>
<event>
 5   0  0.1723605E-06  0.2704922E+04  0.7818609E-02  0.8333410E-01
       -1   -1    0    0    0  501  0.00000000000E+00  0.00000000000E+00  0.17390708120E+04  0.17390708120E+04  0.50400001928E-02 0. -1.
        1   -1    0    0  501    0  0.00000000000E+00  0.00000000000E+00 -0.10517975503E+04  0.10517975503E+04  0.50400001928E-02 0.  1.
    10030    2    1    2    0    0  0.00000000000E+00  0.00000000000E+00  0.68727326174E+03  0.27908683623E+04  0.27049217511E+04 0.  0.
        1    1    3    3  502    0  0.10192698851E+04  0.50266604130E+03  0.11001221380E+04  0.15817246809E+04  0.50400001928E-02 0. -1.
       -1    1    3    3    0  502 -0.10192698851E+04 -0.50266604130E+03 -0.41284887622E+03  0.12091436814E+04  0.50400001928E-02 0.  1.
</event>
<event>
 5   0  0.4439357E-06  0.2695351E+04  0.7818609E-02  0.8336515E-01
       -2   -1    0    0    0  501  0.00000000000E+00  0.00000000000E+00  0.10566590447E+04  0.10566590447E+04  0.25500000920E-02 0.  1.
        2   -1    0    0  501    0  0.00000000000E+00  0.00000000000E+00 -0.17188416504E+04  0.17188416504E+04  0.25500000920E-02 0. -1.
    10030    2    1    2    0    0  0.00000000000E+00  0.00000000000E+00 -0.66218260569E+03  0.27755006951E+04  0.26953512397E+04 0.  0.
        4    1    3    3  502    0 -0.10113781839E+04 -0.85459116374E+03 -0.58958600628E+03  0.14494223538E+04  0.12699999809E+01 0. -1.
       -4    1    3    3    0  502  0.10113781839E+04  0.85459116374E+03 -0.72596599405E+02  0.13260783413E+04  0.12699999809E+01 0.  1.
</event>
<event>
 5   0  0.4401659E-06  0.2700105E+04  0.7818609E-02  0.8334971E-01
        2   -1    0    0  501    0  0.00000000000E+00  0.00000000000E+00  0.19421192529E+04  0.19421192529E+04  0.25500000920E-02 0.  1.
       -2   -1    0    0    0  501  0.00000000000E+00  0.00000000000E+00 -0.93848108371E+03  0.93848108372E+03  0.25500000920E-02 0. -1.
    10030    2    1    2    0    0  0.00000000000E+00  0.00000000000E+00  0.10036381692E+04  0.28806003366E+04  0.27001053173E+04 0.  0.
        5    1    3    3  502    0  0.64012098539E+03 -0.71843724495E+03 -0.50843140584E+03  0.10883159171E+04  0.46999998093E+01 0. -1.
       -5    1    3    3    0  502 -0.64012098539E+03  0.71843724495E+03  0.15120695750E+04  0.17922844196E+04  0.46999998093E+01 0.  1.
</event>
<event>
 5   0  0.1771016E-06  0.2698530E+04  0.7818609E-02  0.8335482E-01
       -1   -1    0    0    0  501  0.00000000000E+00  0.00000000000E+00  0.18346809709E+04  0.18346809709E+04  0.50400001928E-02 0.  1.
        1   -1    0    0  501    0  0.00000000000E+00  0.00000000000E+00 -0.99227965176E+03  0.99227965177E+03  0.50400001928E-02 0. -1.
    10030    2    1    2    0    0  0.00000000000E+00  0.00000000000E+00  0.84240131909E+03  0.28269606226E+04  0.26985304111E+04 0.  0.
        2    1    3    3  502    0 -0.13454121144E+04 -0.93845926683E+02  0.46278598720E+03  0.14258722543E+04  0.25500000920E-02 0.  1.
       -2    1    3    3    0  502  0.13454121144E+04  0.93845926683E+02  0.37961533189E+03  0.14010883683E+04  0.25500000920E-02 0. -1.
</event>
<event>
 5   0  0.1723605E-06  0.2651570E+04  0.7818609E-02  0.8350892E-01
       -1   -1    0    0    0  501  0.00000000000E+00  0.00000000000E+00  0.94618565087E+03  0.94618565089E+03  0.50400001928E-02 0. -1.
        1   -1    0    0  501    0  0.00000000000E+00  0.00000000000E+00 -0.18576749222E+04  0.18576749222E+04  0.50400001928E-02 0.  1.
    10030    2    1    2    0    0  0.00000000000E+00  0.00000000000E+00 -0.91148927128E+03  0.28038605731E+04  0.26515696147E+04 0.  0.
        1    1    3    3  502    0  0.12038900333E+04 -0.43548708707E+03 -0.91420332938E+02  0.12834944069E+04  0.50400001928E-02 0. -1.
       -1    1    3    3    0  502 -0.12038900333E+04  0.43548708707E+03 -0.82006893835E+03  0.15203661661E+04  0.50400001928E-02 0.  1.
</event>
<event>
 5   0  0.4448804E-06  0.2704309E+04  0.7818609E-02  0.8333608E-01
        2   -1    0    0  501    0  0.00000000000E+00  0.00000000000E+00  0.22263836833E+04  0.22263836833E+04  0.25500000920E-02 0. -1.
       -2   -1    0    0    0  501  0.00000000000E+00  0.00000000000E+00 -0.82120705121E+03  0.82120705121E+03  0.25500000920E-02 0.  1.
    10030    2    1    2    0    0  0.00000000000E+00  0.00000000000E+00  0.14051766321E+04  0.30475907346E+04  0.27043091387E+04 0.  0.
        2    1    3    3  502    0  0.55986036972E+03 -0.92549292642E+03 -0.21178979796E+03  0.11021958578E+04  0.25500000920E-02 0.  1.
       -2    1    3    3    0  502 -0.55986036972E+03  0.92549292642E+03  0.16169664301E+04  0.19453948768E+04  0.25500000920E-02 0. -1.
</event>
<event>
 5   0  0.1753474E-06  0.2688574E+04  0.7818609E-02  0.8338722E-01
        1   -1    0    0  501    0  0.00000000000E+00  0.00000000000E+00  0.11178139565E+04  0.11178139566E+04  0.50400001928E-02 0. -1.
       -1   -1    0    0    0  501  0.00000000000E+00  0.00000000000E+00 -0.16166442356E+04  0.16166442356E+04  0.50400001928E-02 0.  1.
    10030    2    1    2    0    0  0.00000000000E+00  0.00000000000E+00 -0.49883027903E+03  0.27344581921E+04  0.26885739635E+04 0.  0.
        3    1    3    3  502    0 -0.92040649646E+03 -0.68106836166E+03 -0.96578319165E+03  0.14979116848E+04  0.10100000352E+00 0.  1.
       -3    1    3    3    0  502  0.92040649646E+03  0.68106836166E+03  0.46695291262E+03  0.12365465073E+04  0.10100000352E+00 0. -1.
</event>
<event>
 5   0  0.1753474E-06  0.2702210E+04  0.7818609E-02  0.8334288E-01
       -1   -1    0    0    0  501  0.00000000000E+00  0.00000000000E+00  0.10874131385E+04  0.10874131386E+04  0.50400001928E-02 0. -1.
        1   -1    0    0  501    0  0.00000000000E+00  0.00000000000E+00 -0.16787409016E+04  0.16787409016E+04  0.50400001928E-02 0.  1.
    10030    2    1    2    0    0  0.00000000000E+00  0.00000000000E+00 -0.59132776308E+03  0.27661540402E+04  0.27022101418E+04 0.  0.
        3    1    3    3  502    0 -0.11431162616E+04  0.68113151500E+03 -0.55964859301E+02  0.13318359523E+04  0.10100000352E+00 0.  1.
       -3    1    3    3    0  502  0.11431162616E+04 -0.68113151500E+03 -0.53536290378E+03  0.14343180879E+04  0.10100000352E+00 0. -1.
</event>
<event>
 5   0  0.4448804E-06  0.2612170E+04  0.7818609E-02  0.8364079E-01
        2   -1    0    0  501    0  0.00000000000E+00  0.00000000000E+00  0.83997374346E+03  0.83997374347E+03  0.25500000920E-02 0.  1.
       -2   -1    0    0    0  501  0.00000000000E+00  0.00000000000E+00 -0.20308474486E+04  0.20308474486E+04  0.25500000920E-02 0. -1.
    10030    2    1    2    0    0  0.00000000000E+00  0.00000000000E+00 -0.11908737051E+04  0.28708211921E+04  0.26121703879E+04 0.  0.
        2    1    3    3  502    0 -0.12991493097E+04 -0.12196981005E+03 -0.65753835180E+03  0.14611715326E+04  0.25500000920E-02 0. -1.
       -2    1    3    3    0  502  0.12991493097E+04  0.12196981005E+03 -0.53333535332E+03  0.14096496595E+04  0.25500000920E-02 0.  1.
</event>
<event>
 5   0  0.1732312E-06  0.2708067E+04  0.7818609E-02  0.8332392E-01
       -1   -1    0    0    0  501  0.00000000000E+00  0.00000000000E+00  0.11123896627E+04  0.11123896627E+04  0.50400001928E-02 0.  1.
        1   -1    0    0  501    0  0.00000000000E+00  0.00000000000E+00 -0.16481699105E+04  0.16481699105E+04  0.50400001928E-02 0. -1.
    10030    2    1    2    0    0  0.00000000000E+00  0.00000000000E+00 -0.53578024783E+03  0.27605595732E+04  0.27080673335E+04 0.  0.
        5    1    3    3  502    0  0.75362966824E+03 -0.10337210858E+04 -0.72016587307E+03  0.14680592409E+04  0.46999998093E+01 0. -1.
       -5    1    3    3    0  502 -0.75362966824E+03  0.10337210858E+04  0.18438562524E+03  0.12925003322E+04  0.46999998093E+01 0.  1.
</event>
<event>
 5   0  0.4487186E-06  0.2698844E+04  0.7818609E-02  0.8335380E-01
        2   -1    0    0  501    0  0.00000000000E+00  0.00000000000E+00  0.14245576694E+04  0.14245576694E+04  0.25500000920E-02 0. -1.
       -2   -1    0    0    0  501  0.00000000000E+00  0.00000000000E+00 -0.12782495267E+04  0.12782495267E+04  0.25500000920E-02 0.  1.
    10030    2    1    2    0    0  0.00000000000E+00  0.00000000000E+00  0.14630814266E+03  0.27028071961E+04  0.26988443206E+04 0.  0.
        3    1    3    3  502    0 -0.80677344280E+03  0.90113978266E+03 -0.52605873698E+03  0.13189670583E+04  0.10100000352E+00 0.  1.
       -3    1    3    3    0  502  0.80677344280E+03 -0.90113978266E+03  0.67236687964E+03  0.13838401378E+04  0.10100000352E+00 0. -1.
</event>
<event>
 5   0  0.4487186E-06  0.2695718E+04  0.7818609E-02  0.8336396E-01
       -2   -1    0    0    0  501  0.00000000000E+00  0.00000000000E+00  0.10632557784E+04  0.10632557785E+04  0.25500000920E-02 0. -1.
        2   -1    0    0  501    0  0.00000000000E+00  0.00000000000E+00 -0.17086419579E+04  0.17086419579E+04  0.25500000920E-02 0.  1.
    10030    2    1    2    0    0  0.00000000000E+00  0.00000000000E+00 -0.64538617944E+03  0.27718977363E+04  0.26957176670E+04 0.  0.
        3    1    3    3  502    0 -0.60850075322E+03 -0.84437347431E+03 -0.12033323249E+04  0.15909897627E+04  0.10100000352E+00 0.  1.
       -3    1    3    3    0  502  0.60850075322E+03  0.84437347431E+03  0.55794614542E+03  0.11809079736E+04  0.10100000352E+00 0. -1.
</event>
<event>
 5   0  0.4448804E-06  0.2693847E+04  0.7818609E-02  0.8337004E-01
       -2   -1    0    0    0  501  0.00000000000E+00  0.00000000000E+00  0.14993424265E+04  0.14993424265E+04  0.25500000920E-02 0. -1.
        2   -1    0    0  501    0  0.00000000000E+00  0.00000000000E+00 -0.12099991038E+04  0.12099991038E+04  0.25500000920E-02 0.  1.
    10030    2    1    2    0    0  0.00000000000E+00  0.00000000000E+00  0.28934332273E+03  0.27093415303E+04  0.26938470576E+04 0.  0.
        2    1    3    3  502    0  0.77054868338E+03 -0.46375853252E+03 -0.86378486307E+03  0.12469729506E+04  0.25500000920E-02 0.  1.
       -2    1    3    3    0  502 -0.77054868338E+03  0.46375853252E+03  0.11531281858E+04  0.14623685797E+04  0.25500000920E-02 0. -1.
</event>
<event>
 5   0  0.1828511E-06  0.2663255E+04  0.7818609E-02  0.8347027E-01
        1   -1    0    0  501    0  0.00000000000E+00  0.00000000000E+00  0.19831344230E+04  0.19831344230E+04  0.50400001928E-02 0. -1.
       -1   -1    0    0    0  501  0.00000000000E+00  0.00000000000E+00 -0.89415621785E+03  0.89415621786E+03  0.50400001928E-02 0.  1.
    10030    2    1    2    0    0  0.00000000000E+00  0.00000000000E+00  0.10889782051E+04  0.28772906408E+04  0.26632551325E+04 0.  0.
        4    1    3    3  502    0 -0.93202067832E+03  0.93278403935E+03  0.34387307293E+03  0.13627174733E+04  0.12699999809E+01 0. -1.
       -4    1    3    3    0  502  0.93202067832E+03 -0.93278403935E+03  0.74510513220E+03  0.15145731675E+04  0.12699999809E+01 0.  1.
</event>
<event>
 5   0  0.4655882E-06  0.2642357E+04  0.7818609E-02  0.8353954E-01
        2   -1    0    0  501    0  0.00000000000E+00  0.00000000000E+00  0.21101781077E+04  0.21101781077E+04  0.25500000920E-02 0. -1.
       -2   -1    0    0    0  501  0.00000000000E+00  0.00000000000E+00 -0.82718761110E+03  0.82718761110E+03  0.25500000920E-02 0.  1.
    10030    2    1    2    0    0  0.00000000000E+00  0.00000000000E+00  0.12829904966E+04  0.29373657188E+04  0.26423574231E+04 0.  0.
        1    1    3    3  502    0  0.53862206761E+03 -0.25103190638E+03 -0.67023860702E+03  0.89574021910E+03  0.50400001928E-02 0.  1.
       -1    1    3    3    0  502 -0.53862206761E+03  0.25103190638E+03  0.19532291036E+04  0.20416254997E+04  0.50400001928E-02 0. -1.
</event>
<event>
 5   0  0.4448804E-06  0.2702564E+04  0.7818609E-02  0.8334174E-01
        2   -1    0    0  501    0  0.00000000000E+00  0.00000000000E+00  0.19413955113E+04  0.19413955113E+04  0.25500000920E-02 0. -1.
       -2   -1    0    0    0  501  0.00000000000E+00  0.00000000000E+00 -0.94054134158E+03  0.94054134158E+03  0.25500000920E-02 0.  1.
    10030    2    1    2    0    0  0.00000000000E+00  0.00000000000E+00  0.10008541698E+04  0.28819368529E+04  0.27025637745E+04 0.  0.
        2    1    3    3  502    0 -0.42113519678E+03 -0.28529649838E+03  0.18354005458E+04  0.19045850229E+04  0.25500000920E-02 0. -1.
       -2    1    3    3    0  502  0.42113519678E+03  0.28529649838E+03 -0.83454637602E+03  0.97735183004E+03  0.25500000920E-02 0.  1.
</event>
<event>
 5   0  0.4655882E-06  0.2704973E+04  0.7818609E-02  0.8333393E-01
        2   -1    0    0  501    0  0.00000000000E+00  0.00000000000E+00  0.20498293752E+04  0.20498293752E+04  0.25500000920E-02 0.  1.
       -2   -1    0    0    0  501  0.00000000000E+00  0.00000000000E+00 -0.89237672268E+03  0.89237672268E+03  0.25500000920E-02 0. -1.
    10030    2    1    2    0    0  0.00000000000E+00  0.00000000000E+00  0.11574526525E+04  0.29422060979E+04  0.27049732124E+04 0.  0.
        1    1    3    3  502    0 -0.67935492278E+03  0.36392343261E+03 -0.63016906495E+03  0.99552821474E+03  0.50400001928E-02 0. -1.
       -1    1    3    3    0  502  0.67935492278E+03 -0.36392343261E+03  0.17876217175E+04  0.19466778831E+04  0.50400001928E-02 0.  1.
</event>
<event>
 5   0  0.4487186E-06  0.2703354E+04  0.7818609E-02  0.8333917E-01
       -2   -1    0    0    0  501  0.00000000000E+00  0.00000000000E+00  0.94595062761E+03  0.94595062761E+03  0.25500000920E-02 0. -1.
        2   -1    0    0  501    0  0.00000000000E+00  0.00000000000E+00 -0.19314235629E+04  0.19314235629E+04  0.25500000920E-02 0.  1.
    10030    2    1    2    0    0  0.00000000000E+00  0.00000000000E+00 -0.98547293531E+03  0.28773741905E+04  0.27033544581E+04 0.  0.
        3    1    3    3  502    0 -0.13847875616E+03 -0.86050191997E+02 -0.19209196730E+04  0.19278260818E+04  0.10100000352E+00 0.  1.
       -3    1    3    3    0  502  0.13847875616E+03  0.86050191997E+02  0.93544673770E+03  0.94954810870E+03  0.10100000352E+00 0. -1.
</event>
<event>
 5   0  0.1771016E-06  0.2639673E+04  0.7818609E-02  0.8354849E-01
        1   -1    0    0  501    0  0.00000000000E+00  0.00000000000E+00  0.14093979657E+04  0.14093979657E+04  0.50400001928E-02 0. -1.
       -1   -1    0    0    0  501  0.00000000000E+00  0.00000000000E+00 -0.12359665227E+04  0.12359665227E+04  0.50400001928E-02 0.  1.
    10030    2    1    2    0    0  0.00000000000E+00  0.00000000000E+00  0.17343144298E+03  0.26453644885E+04  0.26396732395E+04 0.  0.
        2    1    3    3  502    0 -0.13631306003E+03 -0.11787732995E+04 -0.49235442664E+03  0.12847181104E+04  0.25500000920E-02 0.  1.
       -2    1    3    3    0  502  0.13631306003E+03  0.11787732995E+04  0.66578586961E+03  0.13606463780E+04  0.25500000920E-02 0. -1.
</event>
<event>
 5   0  0.4487186E-06  0.2612625E+04  0.7818609E-02  0.8363925E-01
        2   -1    0    0  501    0  0.00000000000E+00  0.00000000000E+00  0.20908636561E+04  0.20908636561E+04  0.25500000920E-02 0. -1.
       -2   -1    0    0    0  501  0.00000000000E+00  0.00000000000E+00 -0.81614696951E+03  0.81614696951E+03  0.25500000920E-02 0.  1.
    10030    2    1    2    0    0  0.00000000000E+00  0.00000000000E+00  0.12747166866E+04  0.29070106256E+04  0.26126247619E+04 0.  0.
        3    1    3    3  502    0  0.38429859169E+03  0.11344346779E+04  0.12174731411E+04  0.17078841604E+04  0.10100000352E+00 0. -1.
       -3    1    3    3    0  502 -0.38429859169E+03 -0.11344346779E+04  0.57243545564E+02  0.11991264652E+04  0.10100000352E+00 0.  1.
</event>
<event>
 5   0  0.4439357E-06  0.2698101E+04  0.7818609E-02  0.8335622E-01
       -2   -1    0    0    0  501  0.00000000000E+00  0.00000000000E+00  0.86559007172E+03  0.86559007172E+03  0.25500000920E-02 0. -1.
        2   -1    0    0  501    0  0.00000000000E+00  0.00000000000E+00 -0.21025387630E+04  0.21025387630E+04  0.25500000920E-02 0.  1.
    10030    2    1    2    0    0  0.00000000000E+00  0.00000000000E+00 -0.12369486913E+04  0.29681288348E+04  0.26981005754E+04 0.  0.
        4    1    3    3  502    0  0.48029205459E+03  0.28435912928E+03 -0.19695575110E+04  0.20471196775E+04  0.12699999809E+01 0.  1.
       -4    1    3    3    0  502 -0.48029205459E+03 -0.28435912928E+03  0.73260881969E+03  0.92100915722E+03  0.12699999809E+01 0. -1.
</event>
<event>
 5   0  0.1723605E-06  0.2693169E+04  0.7818609E-02  0.8337225E-01
       -1   -1    0    0    0  501  0.00000000000E+00  0.00000000000E+00  0.15886745073E+04  0.15886745073E+04  0.50400001928E-02 0. -1.
        1   -1    0    0  501    0  0.00000000000E+00  0.00000000000E+00 -0.11413852969E+04  0.11413852969E+04  0.50400001928E-02 0.  1.
    10030    2    1    2    0    0  0.00000000000E+00  0.00000000000E+00  0.44728921043E+03  0.27300598042E+04  0.26931689321E+04 0.  0.
        1    1    3    3  502    0 -0.11555479105E+04  0.68978487051E+03  0.27114350149E+03  0.13728120554E+04  0.50400001928E-02 0. -1.
       -1    1    3    3    0  502  0.11555479105E+04 -0.68978487051E+03  0.17614570894E+03  0.13572477489E+04  0.50400001928E-02 0.  1.
</event>
<event>
 5   0  0.1771016E-06  0.2688200E+04  0.7818609E-02  0.8338844E-01
        1   -1    0    0  501    0  0.00000000000E+00  0.00000000000E+00  0.12149662524E+04  0.12149662524E+04  0.50400001928E-02 0.  1.
       -1   -1    0    0    0  501  0.00000000000E+00  0.00000000000E+00 -0.14869583973E+04  0.14869583973E+04  0.50400001928E-02 0. -1.
    10030    2    1    2    0    0  0.00000000000E+00  0.00000000000E+00 -0.27199214491E+03  0.27019246497E+04  0.26881995993E+04 0.  0.
        2    1    3    3  502    0 -0.75232001954E+03 -0.10669948256E+04 -0.45722271986E+03  0.13832989501E+04  0.25500000920E-02 0. -1.
       -2    1    3    3    0  502  0.75232001954E+03  0.10669948256E+04  0.18523057495E+03  0.13186256996E+04  0.25500000920E-02 0.  1.
</event>
<event>
 5   0  0.1732312E-06  0.2670641E+04  0.7818609E-02  0.8344594E-01
       -1   -1    0    0    0  501  0.00000000000E+00  0.00000000000E+00  0.10239213525E+04  0.10239213525E+04  0.50400001928E-02 0. -1.
        1   -1    0    0  501    0  0.00000000000E+00  0.00000000000E+00 -0.17414241231E+04  0.17414241231E+04  0.50400001928E-02 0.  1.
    10030    2    1    2    0    0  0.00000000000E+00  0.00000000000E+00 -0.71750277065E+03  0.27653454756E+04  0.26706413787E+04 0.  0.
        5    1    3    3  502    0 -0.22263845366E+03 -0.65952614372E+03  0.82118224986E+03  0.10765244971E+04  0.46999998093E+01 0. -1.
       -5    1    3    3    0  502  0.22263845366E+03  0.65952614372E+03 -0.15386850205E+04  0.16888209786E+04  0.46999998093E+01 0.  1.
</event>
<event>
 5   0  0.1753474E-06  0.2686362E+04  0.7818609E-02  0.8339444E-01
       -1   -1    0    0    0  501  0.00000000000E+00  0.00000000000E+00  0.92029824941E+03  0.92029824943E+03  0.50400001928E-02 0.  1.
        1   -1    0    0  501    0  0.00000000000E+00  0.00000000000E+00 -0.19603812142E+04  0.19603812142E+04  0.50400001928E-02 0. -1.
    10030    2    1    2    0    0  0.00000000000E+00  0.00000000000E+00 -0.10400829648E+04  0.28806794636E+04  0.26863621495E+04 0.  0.
        3    1    3    3  502    0 -0.90502592428E+03 -0.88312807243E+03 -0.34345724826E+02  0.12649769780E+04  0.10100000352E+00 0.  1.
       -3    1    3    3    0  502  0.90502592428E+03  0.88312807243E+03 -0.10057372399E+04  0.16157024856E+04  0.10100000352E+00 0. -1.
</event>
<event>
 5   0  0.4439357E-06  0.2694195E+04  0.7818609E-02  0.8336891E-01
       -2   -1    0    0    0  501  0.00000000000E+00  0.00000000000E+00  0.15748423808E+04  0.15748423808E+04  0.25500000920E-02 0. -1.
        2   -1    0    0  501    0  0.00000000000E+00  0.00000000000E+00 -0.11522880300E+04  0.11522880300E+04  0.25500000920E-02 0.  1.
    10030    2    1    2    0    0  0.00000000000E+00  0.00000000000E+00  0.42255435082E+03  0.27271304109E+04  0.26941952599E+04 0.  0.
        4    1    3    3  502    0  0.60713972759E+03  0.14886910019E+03  0.14191327862E+04  0.15507160074E+04  0.12699999809E+01 0. -1.
       -4    1    3    3    0  502 -0.60713972759E+03 -0.14886910019E+03 -0.99657843542E+03  0.11764144035E+04  0.12699999809E+01 0.  1.
</event>
<event>
 5   0  0.1723605E-06  0.2697316E+04  0.7818609E-02  0.8335876E-01
        1   -1    0    0  501    0  0.00000000000E+00  0.00000000000E+00  0.61812497545E+03  0.61812497547E+03  0.50400001928E-02 0. -1.
       -1   -1    0    0    0  501  0.00000000000E+00  0.00000000000E+00 -0.29425742079E+04  0.29425742079E+04  0.50400001928E-02 0.  1.
    10030    2    1    2    0    0  0.00000000000E+00  0.00000000000E+00 -0.23244492324E+04  0.35606991834E+04  0.26973161550E+04 0.  0.
        1    1    3    3  502    0 -0.83265495641E+03  0.97335192398E+03 -0.60504298496E+03  0.14166175412E+04  0.50400001928E-02 0. -1.
       -1    1    3    3    0  502  0.83265495641E+03 -0.97335192398E+03 -0.17194062475E+04  0.21440816422E+04  0.50400001928E-02 0.  1.
</event>
<event>
 5   0  0.4401659E-06  0.2800609E+04  0.7818609E-02  0.8303079E-01
        2   -1    0    0  501    0  0.00000000000E+00  0.00000000000E+00  0.11679670893E+04  0.11679670893E+04  0.25500000920E-02 0. -1.
       -2   -1    0    0    0  501  0.00000000000E+00  0.00000000000E+00 -0.16788592895E+04  0.16788592895E+04  0.25500000920E-02 0.  1.
    10030    2    1    2    0    0  0.00000000000E+00  0.00000000000E+00 -0.51089220021E+03  0.28468263789E+04  0.28006087894E+04 0.  0.
        5    1    3    3  502    0 -0.12699370356E+04 -0.19076774204E+03  0.31206645437E+03  0.13215672392E+04  0.46999998093E+01 0. -1.
       -5    1    3    3    0  502  0.12699370356E+04  0.19076774204E+03 -0.82295865458E+03  0.15252591396E+04  0.46999998093E+01 0.  1.
</event>
<event>
 5   0  0.4401659E-06  0.2738968E+04  0.7818609E-02  0.8322471E-01
       -2   -1    0    0    0  501  0.00000000000E+00  0.00000000000E+00  0.89259302791E+03  0.89259302792E+03  0.25500000920E-02 0.  1.
        2   -1    0    0  501    0  0.00000000000E+00  0.00000000000E+00 -0.21011666781E+04  0.21011666781E+04  0.25500000920E-02 0. -1.
    10030    2    1    2    0    0  0.00000000000E+00  0.00000000000E+00 -0.12085736502E+04  0.29937597060E+04  0.27389682199E+04 0.  0.
        5    1    3    3  502    0 -0.10002911689E+04 -0.39086238382E+03  0.32453255374E+03  0.11219176859E+04  0.46999998093E+01 0.  1.
       -5    1    3    3    0  502  0.10002911689E+04  0.39086238382E+03 -0.15331062039E+04  0.18718420201E+04  0.46999998093E+01 0. -1.
</event>
<event>
 5   0  0.4401659E-06  0.2696980E+04  0.7818609E-02  0.8335986E-01
        2   -1    0    0  501    0  0.00000000000E+00  0.00000000000E+00  0.16980428727E+04  0.16980428727E+04  0.25500000920E-02 0.  1.
       -2   -1    0    0    0  501  0.00000000000E+00  0.00000000000E+00 -0.10708945065E+04  0.10708945065E+04  0.25500000920E-02 0. -1.
    10030    2    1    2    0    0  0.00000000000E+00  0.00000000000E+00  0.62714836621E+03  0.27689373793E+04  0.26969796323E+04 0.  0.
        5    1    3    3  502    0 -0.37688350428E+03 -0.68676119292E+03 -0.81330831174E+03  0.11292362958E+04  0.46999998093E+01 0. -1.
       -5    1    3    3    0  502  0.37688350428E+03  0.68676119292E+03  0.14404566779E+04  0.16397010834E+04  0.46999998093E+01 0.  1.
</event>
<event>
 5   0  0.4448804E-06  0.2690372E+04  0.7818609E-02  0.8338136E-01
        2   -1    0    0  501    0  0.00000000000E+00  0.00000000000E+00  0.23448340721E+04  0.23448340721E+04  0.25500000920E-02 0. -1.
       -2   -1    0    0    0  501  0.00000000000E+00  0.00000000000E+00 -0.77170708640E+03  0.77170708641E+03  0.25500000920E-02 0.  1.
    10030    2    1    2    0    0  0.00000000000E+00  0.00000000000E+00  0.15731269857E+04  0.31165411585E+04  0.26903717735E+04 0.  0.
        2    1    3    3  502    0 -0.11161499869E+04 -0.14801976069E+03 -0.66123933827E+02  0.11278621447E+04  0.25500000920E-02 0. -1.
       -2    1    3    3    0  502  0.11161499869E+04  0.14801976069E+03  0.16392509196E+04  0.19886790138E+04  0.25500000920E-02 0.  1.
</event>
<event>
 5   0  0.1828511E-06  0.2686801E+04  0.7818609E-02  0.8339300E-01
       -1   -1    0    0    0  501  0.00000000000E+00  0.00000000000E+00  0.10946105191E+04  0.10946105191E+04  0.50400001928E-02 0.  1.
        1   -1    0    0  501    0  0.00000000000E+00  0.00000000000E+00 -0.16487367008E+04  0.16487367008E+04  0.50400001928E-02 0. -1.
    10030    2    1    2    0    0  0.00000000000E+00  0.00000000000E+00 -0.55412618169E+03  0.27433472199E+04  0.26868007265E+04 0.  0.
        4    1    3    3  502    0 -0.38283455230E+03 -0.55927422675E+03 -0.14613765653E+04  0.16108919994E+04  0.12699999809E+01 0. -1.
       -4    1    3    3    0  502  0.38283455230E+03  0.55927422675E+03  0.90725038358E+03  0.11324552206E+04  0.12699999809E+01 0.  1.
</event>
<event>
 5   0  0.4655882E-06  0.2681452E+04  0.7818609E-02  0.8341048E-01
       -2   -1    0    0    0  501  0.00000000000E+00  0.00000000000E+00  0.16211733057E+04  0.16211733057E+04  0.25500000920E-02 0.  1.
        2   -1    0    0  501    0  0.00000000000E+00  0.00000000000E+00 -0.11087931583E+04  0.11087931583E+04  0.25500000920E-02 0. -1.
    10030    2    1    2    0    0  0.00000000000E+00  0.00000000000E+00  0.51238014744E+03  0.27299664641E+04  0.26814517485E+04 0.  0.
        1    1    3    3  502    0 -0.15156583789E+02  0.12363139138E+04 -0.27169276517E+03  0.12659063055E+04  0.50400001928E-02 0. -1.
       -1    1    3    3    0  502  0.15156583789E+02 -0.12363139138E+04  0.78407291261E+03  0.14640601586E+04  0.50400001928E-02 0.  1.
</event>
<event>
 5   0  0.4401659E-06  0.2690457E+04  0.7818609E-02  0.8338108E-01
       -2   -1    0    0    0  501  0.00000000000E+00  0.00000000000E+00  0.69894164314E+03  0.69894164314E+03  0.25500000920E-02 0. -1.
        2   -1    0    0  501    0  0.00000000000E+00  0.00000000000E+00 -0.25891144835E+04  0.25891144835E+04  0.25500000920E-02 0.  1.
    10030    2    1    2    0    0  0.00000000000E+00  0.00000000000E+00 -0.18901728404E+04  0.32880561267E+04  0.26904571592E+04 0.  0.
        5    1    3    3  502    0  0.90109328786E+03  0.68287717520E+03 -0.54257546653E+02  0.11319259345E+04  0.46999998093E+01 0. -1.
       -5    1    3    3    0  502 -0.90109328786E+03 -0.68287717520E+03 -0.18359152937E+04  0.21561301922E+04  0.46999998093E+01 0.  1.
</event>
<event>
 5   0  0.4439357E-06  0.2692189E+04  0.7818609E-02  0.8337544E-01
       -2   -1    0    0    0  501  0.00000000000E+00  0.00000000000E+00  0.81190201429E+03  0.81190201429E+03  0.25500000920E-02 0. -1.
        2   -1    0    0  501    0  0.00000000000E+00  0.00000000000E+00 -0.22317599643E+04  0.22317599643E+04  0.25500000920E-02 0.  1.
    10030    2    1    2    0    0  0.00000000000E+00  0.00000000000E+00 -0.14198579500E+04  0.30436619786E+04  0.26921890056E+04 0.  0.
        4    1    3    3  502    0 -0.11191929249E+04 -0.22779006273E+03 -0.15153141392E+04  0.18975404262E+04  0.12699999809E+01 0.  1.
       -4    1    3    3    0  502  0.11191929249E+04  0.22779006273E+03  0.95456189223E+02  0.11461215523E+04  0.12699999809E+01 0. -1.
</event>
<event>
 5   0  0.4401659E-06  0.2697013E+04  0.7818609E-02  0.8335975E-01
       -2   -1    0    0    0  501  0.00000000000E+00  0.00000000000E+00  0.13610878803E+04  0.13610878803E+04  0.25500000920E-02 0. -1.
        2   -1    0    0  501    0  0.00000000000E+00  0.00000000000E+00 -0.13360411441E+04  0.13360411441E+04  0.25500000920E-02 0.  1.
    10030    2    1    2    0    0  0.00000000000E+00  0.00000000000E+00  0.25046736214E+02  0.26971290244E+04  0.26970127243E+04 0.  0.
        5    1    3    3  502    0  0.11731158024E+04  0.97688566032E+02 -0.64530707792E+03  0.13424556069E+04  0.46999998093E+01 0. -1.
       -5    1    3    3    0  502 -0.11731158024E+04 -0.97688566032E+02  0.67035381414E+03  0.13546734174E+04  0.46999998093E+01 0.  1.
</event>
<event>
 5   0  0.4401659E-06  0.2709957E+04  0.7818609E-02  0.8331782E-01
       -2   -1    0    0    0  501  0.00000000000E+00  0.00000000000E+00  0.12589920121E+04  0.12589920121E+04  0.25500000920E-02 0. -1.
        2   -1    0    0  501    0  0.00000000000E+00  0.00000000000E+00 -0.14582830622E+04  0.14582830622E+04  0.25500000920E-02 0.  1.
    10030    2    1    2    0    0  0.00000000000E+00  0.00000000000E+00 -0.19929105003E+03  0.27172750743E+04  0.27099569935E+04 0.  0.
        5    1    3    3  502    0  0.10970869049E+04 -0.20763492764E+03  0.67004231473E+03  0.13021869042E+04  0.46999998093E+01 0. -1.
       -5    1    3    3    0  502 -0.10970869049E+04  0.20763492764E+03 -0.86933336476E+03  0.14150881701E+04  0.46999998093E+01 0.  1.
</event>
<event>
 5   0  0.1828511E-06  0.2688209E+04  0.7818609E-02  0.8338841E-01
        1   -1    0    0  501    0  0.00000000000E+00  0.00000000000E+00  0.11431705231E+04  0.11431705231E+04  0.50400001928E-02 0. -1.
       -1   -1    0    0    0  501  0.00000000000E+00  0.00000000000E+00 -0.15803562731E+04  0.15803562731E+04  0.50400001928E-02 0.  1.
    10030    2    1    2    0    0  0.00000000000E+00  0.00000000000E+00 -0.43718574999E+03  0.27235267962E+04  0.26882088516E+04 0.  0.
        4    1    3    3  502    0 -0.26571409580E+03  0.22878533414E+03 -0.15332028529E+04  0.15727871156E+04  0.12699999809E+01 0.  1.
       -4    1    3    3    0  502  0.26571409580E+03 -0.22878533414E+03  0.10960171029E+04  0.11507396806E+04  0.12699999809E+01 0. -1.
</event>
<event>
 5   0  0.1753474E-06  0.2706588E+04  0.7818609E-02  0.8332871E-01
       -1   -1    0    0    0  501  0.00000000000E+00  0.00000000000E+00  0.16134111225E+04  0.16134111225E+04  0.50400001928E-02 0. -1.
        1   -1    0    0  501    0  0.00000000000E+00  0.00000000000E+00 -0.11351135448E+04  0.11351135448E+04  0.50400001928E-02 0.  1.
    10030    2    1    2    0    0  0.00000000000E+00  0.00000000000E+00  0.47829757762E+03  0.27485246673E+04  0.27065881242E+04 0.  0.
        3    1    3    3  502    0 -0.40940003745E+03 -0.75487704003E+02  0.15467718404E+04  0.16018145712E+04  0.10100000352E+00 0. -1.
       -3    1    3    3    0  502  0.40940003745E+03  0.75487704003E+02 -0.10684742628E+04  0.11467100961E+04  0.10100000352E+00 0.  1.
</event>
<event>
 5   0  0.1732312E-06  0.2696506E+04  0.7818609E-02  0.8336139E-01
        1   -1    0    0  501    0  0.00000000000E+00  0.00000000000E+00  0.23922634508E+04  0.23922634508E+04  0.50400001928E-02 0. -1.
       -1   -1    0    0    0  501  0.00000000000E+00  0.00000000000E+00 -0.75986042392E+03  0.75986042393E+03  0.50400001928E-02 0.  1.
    10030    2    1    2    0    0  0.00000000000E+00  0.00000000000E+00  0.16324030269E+04  0.31521238748E+04  0.26965061245E+04 0.  0.
        5    1    3    3  502    0  0.40099076168E+03  0.12484787605E+04  0.44975086979E+03  0.13862866736E+04  0.46999998093E+01 0. -1.
       -5    1    3    3    0  502 -0.40099076168E+03 -0.12484787605E+04  0.11826521571E+04  0.17658372012E+04  0.46999998093E+01 0.  1.
</event>
<event>
 5   0  0.4655882E-06  0.2701773E+04  0.7818609E-02  0.8334430E-01
        2   -1    0    0  501    0  0.00000000000E+00  0.00000000000E+00  0.14055652879E+04  0.14055652880E+04  0.25500000920E-02 0.  1.
       -2   -1    0    0    0  501  0.00000000000E+00  0.00000000000E+00 -0.12983347663E+04  0.12983347663E+04  0.25500000920E-02 0. -1.
    10030    2    1    2    0    0  0.00000000000E+00  0.00000000000E+00  0.10723052169E+03  0.27039000542E+04  0.27017729583E+04 0.  0.
        1    1    3    3  502    0 -0.42975383018E+03 -0.13480676389E+03 -0.12209780500E+04  0.13014025576E+04  0.50400001928E-02 0. -1.
       -1    1    3    3    0  502  0.42975383018E+03  0.13480676389E+03  0.13282085717E+04  0.14024974967E+04  0.50400001928E-02 0.  1.
</event>
<event>
 5   0  0.4401659E-06  0.2696061E+04  0.7818609E-02  0.8336284E-01
       -2   -1    0    0    0  501  0.00000000000E+00  0.00000000000E+00  0.12569653587E+04  0.12569653587E+04  0.25500000920E-02 0. -1.
        2   -1    0    0  501    0  0.00000000000E+00  0.00000000000E+00 -0.14456927126E+04  0.14456927126E+04  0.25500000920E-02 0.  1.
    10030    2    1    2    0    0  0.00000000000E+00  0.00000000000E+00 -0.18872735391E+03  0.27026580714E+04  0.26960605774E+04 0.  0.
        5    1    3    3  502    0 -0.45914303127E+02 -0.13364208064E+04  0.76449524748E+02  0.13394011030E+04  0.46999998093E+01 0.  1.
       -5    1    3    3    0  502  0.45914303127E+02  0.13364208064E+04 -0.26517687866E+03  0.13632569684E+04  0.46999998093E+01 0. -1.
</event>
<event>
 5   0  0.1732312E-06  0.2699723E+04  0.7818609E-02  0.8335095E-01
        1   -1    0    0  501    0  0.00000000000E+00  0.00000000000E+00  0.21614132962E+04  0.21614132962E+04  0.50400001928E-02 0.  1.
       -1   -1    0    0    0  501  0.00000000000E+00  0.00000000000E+00 -0.84302505037E+03  0.84302505039E+03  0.50400001928E-02 0. -1.
    10030    2    1    2    0    0  0.00000000000E+00  0.00000000000E+00  0.13183882458E+04  0.30044383466E+04  0.26997226176E+04 0.  0.
        5    1    3    3  502    0  0.48084942941E+03  0.73235120565E+03 -0.48362509161E+03  0.10007346209E+04  0.46999998093E+01 0. -1.
       -5    1    3    3    0  502 -0.48084942941E+03 -0.73235120565E+03  0.18020133374E+04  0.20037037257E+04  0.46999998093E+01 0.  1.
</event>
<event>
 5   0  0.1723605E-06  0.2732144E+04  0.7818609E-02  0.8324650E-01
       -1   -1    0    0    0  501  0.00000000000E+00  0.00000000000E+00  0.15700979503E+04  0.15700979503E+04  0.50400001928E-02 0. -1.
        1   -1    0    0  501    0  0.00000000000E+00  0.00000000000E+00 -0.11885577443E+04  0.11885577443E+04  0.50400001928E-02 0.  1.
    10030    2    1    2    0    0  0.00000000000E+00  0.00000000000E+00  0.38154020604E+03  0.27586556946E+04  0.27321435381E+04 0.  0.
        1    1    3    3  502    0  0.60961093425E+03  0.52114562074E+03 -0.92582435307E+03  0.12248954984E+04  0.50400001928E-02 0.  1.
       -1    1    3    3    0  502 -0.60961093425E+03 -0.52114562074E+03  0.13073645591E+04  0.15337601963E+04  0.50400001928E-02 0. -1.
</event>
<event>
 5   0  0.4439357E-06  0.2599350E+04  0.7818609E-02  0.8368422E-01
        2   -1    0    0  501    0  0.00000000000E+00  0.00000000000E+00  0.24055161984E+04  0.24055161984E+04  0.25500000920E-02 0. -1.
       -2   -1    0    0    0  501  0.00000000000E+00  0.00000000000E+00 -0.70220086613E+03  0.70220086614E+03  0.25500000920E-02 0.  1.
    10030    2    1    2    0    0  0.00000000000E+00  0.00000000000E+00  0.17033153322E+04  0.31077170645E+04  0.25993503481E+04 0.  0.
        4    1    3    3  502    0 -0.39720508659E+02  0.76472872461E+02  0.24020961778E+04  0.24036417120E+04  0.12699999809E+01 0. -1.
       -4    1    3    3    0  502  0.39720508659E+02 -0.76472872461E+02 -0.69878084558E+03  0.70407535256E+03  0.12699999809E+01 0.  1.
</event>
<event>
 5   0  0.1723605E-06  0.2706458E+04  0.7818609E-02  0.8332913E-01
        1   -1    0    0  501    0  0.00000000000E+00  0.00000000000E+00  0.19715264875E+04  0.19715264875E+04  0.50400001928E-02 0. -1.
       -1   -1    0    0    0  501  0.00000000000E+00  0.00000000000E+00 -0.92883802520E+03  0.92883802521E+03  0.50400001928E-02 0.  1.
    10030    2    1    2    0    0  0.00000000000E+00  0.00000000000E+00  0.10426884623E+04  0.29003645127E+04  0.27064580317E+04 0.  0.
        1    1    3    3  502    0 -0.57271756935E+03  0.39928294923E+03 -0.72093159870E+03  0.10035809174E+04  0.50400001928E-02 0.  1.
       -1    1    3    3    0  502  0.57271756935E+03 -0.39928294923E+03  0.17636200610E+04  0.18967835953E+04  0.50400001928E-02 0. -1.
</event>
<event>
 5   0  0.4439357E-06  0.2724496E+04  0.7818609E-02  0.8327101E-01
       -2   -1    0    0    0  501  0.00000000000E+00  0.00000000000E+00  0.79890890286E+03  0.79890890286E+03  0.25500000920E-02 0.  1.
        2   -1    0    0  501    0  0.00000000000E+00  0.00000000000E+00 -0.23228167693E+04  0.23228167693E+04  0.25500000920E-02 0. -1.
    10030    2    1    2    0    0  0.00000000000E+00  0.00000000000E+00 -0.15239078665E+04  0.31217256722E+04  0.27244955472E+04 0.  0.
        4    1    3    3  502    0  0.13113422598E+04 -0.28539310893E+03 -0.49409738661E+03  0.14301054470E+04  0.12699999809E+01 0.  1.
       -4    1    3    3    0  502 -0.13113422598E+04  0.28539310893E+03 -0.10298104799E+04  0.16916202252E+04  0.12699999809E+01 0. -1.
</event>
<event>
 5   0  0.4655882E-06  0.2698343E+04  0.7818609E-02  0.8335543E-01
        2   -1    0    0  501    0  0.00000000000E+00  0.00000000000E+00  0.11533644187E+04  0.11533644187E+04  0.25500000920E-02 0.  1.
       -2   -1    0    0    0  501  0.00000000000E+00  0.00000000000E+00 -0.15782208004E+04  0.15782208004E+04  0.25500000920E-02 0. -1.
    10030    2    1    2    0    0  0.00000000000E+00  0.00000000000E+00 -0.42485638171E+03  0.27315852191E+04  0.26983429849E+04 0.  0.
        1    1    3    3  502    0 -0.79399105243E+03 -0.42926276857E+03  0.80270942891E+03  0.12079034494E+04  0.50400001928E-02 0.  1.
       -1    1    3    3    0  502  0.79399105243E+03  0.42926276857E+03 -0.12275658106E+04  0.15236817697E+04  0.50400001928E-02 0. -1.
</event>
<event>
 5   0  0.1771016E-06  0.2723393E+04  0.7818609E-02  0.8327454E-01
        1   -1    0    0  501    0  0.00000000000E+00  0.00000000000E+00  0.13635536035E+04  0.13635536035E+04  0.50400001928E-02 0.  1.
       -1   -1    0    0    0  501  0.00000000000E+00  0.00000000000E+00 -0.13598422210E+04  0.13598422210E+04  0.50400001928E-02 0. -1.
    10030    2    1    2    0    0  0.00000000000E+00  0.00000000000E+00  0.37113824825E+01  0.27233958246E+04  0.27233932957E+04 0.  0.
        2    1    3    3  502    0  0.10822379738E+04 -0.77051416049E+03  0.30066469896E+03  0.13621051225E+04  0.25500000920E-02 0.  1.
       -2    1    3    3    0  502 -0.10822379738E+04  0.77051416049E+03 -0.29695331648E+03  0.13612907021E+04  0.25500000920E-02 0. -1.
</event>
<event>
 5   0  0.1723605E-06  0.2705168E+04  0.7818609E-02  0.8333330E-01
       -1   -1    0    0    0  501  0.00000000000E+00  0.00000000000E+00  0.64678274621E+03  0.64678274623E+03  0.50400001928E-02 0.  1.
        1   -1    0    0  501    0  0.00000000000E+00  0.00000000000E+00 -0.28285900794E+04  0.28285900794E+04  0.50400001928E-02 0. -1.
    10030    2    1    2    0    0  0.00000000000E+00  0.00000000000E+00 -0.21818073331E+04  0.34753728256E+04  0.27051678391E+04 0.  0.
        1    1    3    3  502    0  0.74560690323E+03 -0.77776859522E+03 -0.21414131818E+04  0.23971866963E+04  0.50400001928E-02 0.  1.
       -1    1    3    3    0  502 -0.74560690323E+03  0.77776859522E+03 -0.40394151359E+02  0.10781861293E+04  0.50400001928E-02 0. -1.
</event>
<event>
 5   0  0.4439357E-06  0.2767329E+04  0.7818609E-02  0.8313484E-01
       -2   -1    0    0    0  501  0.00000000000E+00  0.00000000000E+00  0.10023398374E+04  0.10023398374E+04  0.25500000920E-02 0.  1.
        2   -1    0    0  501    0  0.00000000000E+00  0.00000000000E+00 -0.19100578381E+04  0.19100578381E+04  0.25500000920E-02 0. -1.
    10030    2    1    2    0    0  0.00000000000E+00  0.00000000000E+00 -0.90771800070E+03  0.29123976756E+04  0.27673287213E+04 0.  0.
        4    1    3    3  502    0  0.39162676524E+03 -0.61791529651E+03 -0.16898768499E+04  0.18414331966E+04  0.12699999809E+01 0. -1.
       -4    1    3    3    0  502 -0.39162676524E+03  0.61791529651E+03  0.78215884919E+03  0.10709644790E+04  0.12699999809E+01 0.  1.
</event>
<event>
 5   0  0.1828511E-06  0.2704389E+04  0.7818609E-02  0.8333582E-01
        1   -1    0    0  501    0  0.00000000000E+00  0.00000000000E+00  0.91444840587E+03  0.91444840588E+03  0.50400001928E-02 0. -1.
       -1   -1    0    0    0  501  0.00000000000E+00  0.00000000000E+00 -0.19994893341E+04  0.19994893341E+04  0.50400001928E-02 0.  1.
    10030    2    1    2    0    0  0.00000000000E+00  0.00000000000E+00 -0.10850409283E+04  0.29139377400E+04  0.27043889026E+04 0.  0.
        4    1    3    3  502    0 -0.17983015605E+03 -0.32204958149E+03  0.85919291579E+03  0.93502347426E+03  0.12699999809E+01 0. -1.
       -4    1    3    3    0  502  0.17983015605E+03  0.32204958149E+03 -0.19442338440E+04  0.19789142658E+04  0.12699999809E+01 0.  1.
</event>
<event>
 5   0  0.4439357E-06  0.2726922E+04  0.7818609E-02  0.8326322E-01
       -2   -1    0    0    0  501  0.00000000000E+00  0.00000000000E+00  0.10978926799E+04  0.10978926799E+04  0.25500000920E-02 0.  1.
        2   -1    0    0  501    0  0.00000000000E+00  0.00000000000E+00 -0.16932669035E+04  0.16932669035E+04  0.25500000920E-02 0. -1.
    10030    2    1    2    0    0  0.00000000000E+00  0.00000000000E+00 -0.59537422362E+03  0.27911595834E+04  0.27269215893E+04 0.  0.
        4    1    3    3  502    0  0.12138077350E+04  0.51126826678E+03 -0.65855339137E+03  0.14725551400E+04  0.12699999809E+01 0. -1.
       -4    1    3    3    0  502 -0.12138077350E+04 -0.51126826678E+03  0.63179167757E+02  0.13186044434E+04  0.12699999809E+01 0.  1.
</event>
<event>
 5   0  0.1771016E-06  0.2707310E+04  0.7818609E-02  0.8332637E-01
        1   -1    0    0  501    0  0.00000000000E+00  0.00000000000E+00  0.10758236270E+04  0.10758236270E+04  0.50400001928E-02 0. -1.
       -1   -1    0    0    0  501  0.00000000000E+00  0.00000000000E+00 -0.17032365133E+04  0.17032365133E+04  0.50400001928E-02 0.  1.
    10030    2    1    2    0    0  0.00000000000E+00  0.00000000000E+00 -0.62741288622E+03  0.27790601403E+04  0.27073101658E+04 0.  0.
        2    1    3    3  502    0 -0.12969300128E+04  0.18506437020E+03  0.36067051945E+02  0.13105636617E+04  0.25500000920E-02 0.  1.
       -2    1    3    3    0  502  0.12969300128E+04 -0.18506437020E+03 -0.66347993816E+03  0.14684964786E+04  0.25500000920E-02 0. -1.
</event>
<event>
 5   0  0.4655882E-06  0.2693588E+04  0.7818609E-02  0.8337088E-01
        2   -1    0    0  501    0  0.00000000000E+00  0.00000000000E+00  0.20100692047E+04  0.20100692047E+04  0.25500000920E-02 0. -1.
       -2   -1    0    0    0  501  0.00000000000E+00  0.00000000000E+00 -0.90238388102E+03  0.90238388102E+03  0.25500000920E-02 0.  1.
    10030    2    1    2    0    0  0.00000000000E+00  0.00000000000E+00  0.11076853237E+04  0.29124530857E+04  0.26935879789E+04 0.  0.
        1    1    3    3  502    0  0.11986063577E+04 -0.22604015228E+03 -0.63611851869E+02  0.12213917549E+04  0.50400001928E-02 0.  1.
       -1    1    3    3    0  502 -0.11986063577E+04  0.22604015228E+03  0.11712971755E+04  0.16910613308E+04  0.50400001928E-02 0. -1.
</event>
<event>
 5   0  0.1753474E-06  0.2670237E+04  0.7818609E-02  0.8344727E-01
       -1   -1    0    0    0  501  0.00000000000E+00  0.00000000000E+00  0.14016957128E+04  0.14016957128E+04  0.50400001928E-02 0. -1.
        1   -1    0    0  501    0  0.00000000000E+00  0.00000000000E+00 -0.12717033355E+04  0.12717033355E+04  0.50400001928E-02 0.  1.
    10030    2    1    2    0    0  0.00000000000E+00  0.00000000000E+00  0.12999237729E+03  0.26733990483E+04  0.26702367785E+04 0.  0.
        3    1    3    3  502    0 -0.11680720638E+04  0.44803791230E+02  0.71085035543E+03  0.13681037840E+04  0.10100000352E+00 0. -1.
       -3    1    3    3    0  502  0.11680720638E+04 -0.44803791230E+02 -0.58085797814E+03  0.13052952642E+04  0.10100000352E+00 0.  1.
</event>
<event>
 5   0  0.1723605E-06  0.2709497E+04  0.7818609E-02  0.8331930E-01
       -1   -1    0    0    0  501  0.00000000000E+00  0.00000000000E+00  0.17519997398E+04  0.17519997398E+04  0.50400001928E-02 0. -1.
        1   -1    0    0  501    0  0.00000000000E+00  0.00000000000E+00 -0.10475703943E+04  0.10475703943E+04  0.50400001928E-02 0.  1.
    10030    2    1    2    0    0  0.00000000000E+00  0.00000000000E+00  0.70442934542E+03  0.27995701341E+04  0.27094966752E+04 0.  0.
        1    1    3    3  502    0  0.92632763941E+03 -0.44514927733E+03  0.12642254449E+04  0.16292657089E+04  0.50400001928E-02 0. -1.
       -1    1    3    3    0  502 -0.92632763941E+03  0.44514927733E+03 -0.55979609948E+03  0.11703044252E+04  0.50400001928E-02 0.  1.
</event>
<event>
 5   0  0.1753474E-06  0.2702202E+04  0.7818609E-02  0.8334291E-01
       -1   -1    0    0    0  501  0.00000000000E+00  0.00000000000E+00  0.12493514684E+04  0.12493514684E+04  0.50400001928E-02 0.  1.
        1   -1    0    0  501    0  0.00000000000E+00  0.00000000000E+00 -0.14611374102E+04  0.14611374102E+04  0.50400001928E-02 0. -1.
    10030    2    1    2    0    0  0.00000000000E+00  0.00000000000E+00 -0.21178594175E+03  0.27104888786E+04  0.27022021901E+04 0.  0.
        3    1    3    3  502    0 -0.12710064691E+04 -0.25490754750E+03 -0.48790054320E+03  0.13850928678E+04  0.10100000352E+00 0.  1.
       -3    1    3    3    0  502  0.12710064691E+04  0.25490754750E+03  0.27611460145E+03  0.13253960108E+04  0.10100000352E+00 0. -1.
</event>
<event>
 5   0  0.4487186E-06  0.2689484E+04  0.7818609E-02  0.8338425E-01
        2   -1    0    0  501    0  0.00000000000E+00  0.00000000000E+00  0.11196784568E+04  0.11196784569E+04  0.25500000920E-02 0. -1.
       -2   -1    0    0    0  501  0.00000000000E+00  0.00000000000E+00 -0.16150450053E+04  0.16150450053E+04  0.25500000920E-02 0.  1.
    10030    2    1    2    0    0  0.00000000000E+00  0.00000000000E+00 -0.49536654847E+03  0.27347234622E+04  0.26894840392E+04 0.  0.
        3    1    3    3  502    0 -0.98512549014E+02  0.53796557695E+03 -0.14968506565E+04  0.15936353354E+04  0.10100000352E+00 0.  1.
       -3    1    3    3    0  502  0.98512549014E+02 -0.53796557695E+03  0.10014841080E+04  0.11410881268E+04  0.10100000352E+00 0. -1.
</event>
<event>
 5   0  0.4448804E-06  0.2706636E+04  0.7818609E-02  0.8332855E-01
       -2   -1    0    0    0  501  0.00000000000E+00  0.00000000000E+00  0.12826408251E+04  0.12826408251E+04  0.25500000920E-02 0. -1.
        2   -1    0    0  501    0  0.00000000000E+00  0.00000000000E+00 -0.14278898005E+04  0.14278898005E+04  0.25500000920E-02 0.  1.
    10030    2    1    2    0    0  0.00000000000E+00  0.00000000000E+00 -0.14524897541E+03  0.27105306257E+04  0.27066361056E+04 0.  0.
        2    1    3    3  502    0  0.18190359668E+02  0.12261455373E+04 -0.64590428041E+03  0.13859856086E+04  0.25500000920E-02 0.  1.
       -2    1    3    3    0  502 -0.18190359668E+02 -0.12261455373E+04  0.50065530500E+03  0.13245450171E+04  0.25500000920E-02 0. -1.
</event>
<event>
 5   0  0.1828511E-06  0.2702163E+04  0.7818609E-02  0.8334303E-01
        1   -1    0    0  501    0  0.00000000000E+00  0.00000000000E+00  0.20003688246E+04  0.20003688246E+04  0.50400001928E-02 0. -1.
       -1   -1    0    0    0  501  0.00000000000E+00  0.00000000000E+00 -0.91254256188E+03  0.91254256189E+03  0.50400001928E-02 0.  1.
    10030    2    1    2    0    0  0.00000000000E+00  0.00000000000E+00  0.10878262627E+04  0.29129113865E+04  0.27021633495E+04 0.  0.
        4    1    3    3  502    0  0.54214722322E+03 -0.11093402311E+04  0.11352002510E+04  0.16772717677E+04  0.12699999809E+01 0.  1.
       -4    1    3    3    0  502 -0.54214722322E+03  0.11093402311E+04 -0.47373988274E+02  0.12356396188E+04  0.12699999809E+01 0. -1.
</event>
<event>
 5   0  0.4655882E-06  0.2693721E+04  0.7818609E-02  0.8337045E-01
        2   -1    0    0  501    0  0.00000000000E+00  0.00000000000E+00  0.25169670150E+04  0.25169670150E+04  0.25500000920E-02 0.  1.
       -2   -1    0    0    0  501  0.00000000000E+00  0.00000000000E+00 -0.72072195011E+03  0.72072195011E+03  0.25500000920E-02 0. -1.
    10030    2    1    2    0    0  0.00000000000E+00  0.00000000000E+00  0.17962450649E+04  0.32376889651E+04  0.26937211254E+04 0.  0.
        1    1    3    3  502    0 -0.42896584246E+03  0.98830691797E+03 -0.73347082484E+02  0.10798805733E+04  0.50400001928E-02 0. -1.
       -1    1    3    3    0  502  0.42896584246E+03 -0.98830691797E+03  0.18695921474E+04  0.21578083918E+04  0.50400001928E-02 0.  1.
</event>
<event>
 5   0  0.1482875E-06  0.2692265E+04  0.7818609E-02  0.8337519E-01
       -4   -1    0    0    0  501  0.00000000000E+00  0.00000000000E+00  0.84880117718E+03  0.84880212729E+03  0.12699999809E+01 0. -1.
        4   -1    0    0  501    0  0.00000000000E+00  0.00000000000E+00 -0.21348581141E+04  0.21348584919E+04  0.12699999809E+01 0.  1.
    10030    2    1    2    0    0  0.00000000000E+00  0.00000000000E+00 -0.12860569369E+04  0.29836606191E+04  0.26922645199E+04 0.  0.
        4    1    3    3  502    0 -0.12299637438E+03 -0.69739321400E+03 -0.19117441221E+04  0.20386889425E+04  0.12699999809E+01 0.  1.
       -4    1    3    3    0  502  0.12299637438E+03  0.69739321400E+03  0.62568718518E+03  0.94497167663E+03  0.12699999809E+01 0. -1.
</event>
<event>
 5   0  0.1828511E-06  0.2705234E+04  0.7818609E-02  0.8333309E-01
       -1   -1    0    0    0  501  0.00000000000E+00  0.00000000000E+00  0.69726434615E+03  0.69726434617E+03  0.50400001928E-02 0. -1.
        1   -1    0    0  501    0  0.00000000000E+00  0.00000000000E+00 -0.26239291971E+04  0.26239291971E+04  0.50400001928E-02 0.  1.
    10030    2    1    2    0    0  0.00000000000E+00  0.00000000000E+00 -0.19266648509E+04  0.33211935432E+04  0.27052336505E+04 0.  0.
        4    1    3    3  502    0  0.36023927741E+03 -0.55217386342E+03 -0.24133100719E+04  0.25017464757E+04  0.12699999809E+01 0.  1.
       -4    1    3    3    0  502 -0.36023927741E+03  0.55217386342E+03  0.48664522103E+03  0.81944706753E+03  0.12699999809E+01 0. -1.
</event>
<event>
 5   0  0.4655882E-06  0.2710854E+04  0.7818609E-02  0.8331492E-01
       -2   -1    0    0    0  501  0.00000000000E+00  0.00000000000E+00  0.96952784442E+03  0.96952784442E+03  0.25500000920E-02 0.  1.
        2   -1    0    0  501    0  0.00000000000E+00  0.00000000000E+00 -0.18949245498E+04  0.18949245498E+04  0.25500000920E-02 0. -1.
    10030    2    1    2    0    0  0.00000000000E+00  0.00000000000E+00 -0.92539670540E+03  0.28644523942E+04  0.27108538243E+04 0.  0.
        1    1    3    3  502    0  0.10074821601E+04 -0.43621525463E+02 -0.14196962951E+04  0.17413961958E+04  0.50400001928E-02 0. -1.
       -1    1    3    3    0  502 -0.10074821601E+04  0.43621525463E+02  0.49429958975E+03  0.11230561984E+04  0.50400001928E-02 0.  1.
</event>
<event>
 5   0  0.1723605E-06  0.2667756E+04  0.7818609E-02  0.8345543E-01
        1   -1    0    0  501    0  0.00000000000E+00  0.00000000000E+00  0.19813880205E+04  0.19813880205E+04  0.50400001928E-02 0. -1.
       -1   -1    0    0    0  501  0.00000000000E+00  0.00000000000E+00 -0.89797192494E+03  0.89797192495E+03  0.50400001928E-02 0.  1.
    10030    2    1    2    0    0  0.00000000000E+00  0.00000000000E+00  0.10834160956E+04  0.28793599455E+04  0.26677562219E+04 0.  0.
        1    1    3    3  502    0 -0.86698535368E+03 -0.10116020965E+04  0.47152401107E+03  0.14132718416E+04  0.50400001928E-02 0. -1.
       -1    1    3    3    0  502  0.86698535368E+03  0.10116020965E+04  0.61189208449E+03  0.14660881039E+04  0.50400001928E-02 0.  1.
</event>
<event>
 5   0  0.4655882E-06  0.2713736E+04  0.7818609E-02  0.8330562E-01
       -2   -1    0    0    0  501  0.00000000000E+00  0.00000000000E+00  0.76716571068E+03  0.76716571069E+03  0.25500000920E-02 0. -1.
        2   -1    0    0  501    0  0.00000000000E+00  0.00000000000E+00 -0.23998603410E+04  0.23998603410E+04  0.25500000920E-02 0.  1.
    10030    2    1    2    0    0  0.00000000000E+00  0.00000000000E+00 -0.16326946303E+04  0.31670260517E+04  0.27137358486E+04 0.  0.
        1    1    3    3  502    0  0.19227569340E+03  0.13187990409E+04 -0.51906300724E+03  0.14302542634E+04  0.50400001928E-02 0. -1.
       -1    1    3    3    0  502 -0.19227569340E+03 -0.13187990409E+04 -0.11136316231E+04  0.17367717882E+04  0.50400001928E-02 0.  1.
</event>
<event>
 5   0  0.1828511E-06  0.2696669E+04  0.7818609E-02  0.8336087E-01
        1   -1    0    0  501    0  0.00000000000E+00  0.00000000000E+00  0.18970282489E+04  0.18970282489E+04  0.50400001928E-02 0.  1.
       -1   -1    0    0    0  501  0.00000000000E+00  0.00000000000E+00 -0.95834395314E+03  0.95834395315E+03  0.50400001928E-02 0. -1.
    10030    2    1    2    0    0  0.00000000000E+00  0.00000000000E+00  0.93868429576E+03  0.28553722021E+04  0.26966687237E+04 0.  0.
        4    1    3    3  502    0 -0.10397680639E+04 -0.85319878196E+03  0.36923641405E+03  0.13947770182E+04  0.12699999809E+01 0. -1.
       -4    1    3    3    0  502  0.10397680639E+04  0.85319878196E+03  0.56944788171E+03  0.14605951838E+04  0.12699999809E+01 0.  1.
</event>
<event>
 5   0  0.4448804E-06  0.2718471E+04  0.7818609E-02  0.8329037E-01
       -2   -1    0    0    0  501  0.00000000000E+00  0.00000000000E+00  0.18114898517E+04  0.18114898517E+04  0.25500000920E-02 0.  1.
        2   -1    0    0  501    0  0.00000000000E+00  0.00000000000E+00 -0.10198901905E+04  0.10198901905E+04  0.25500000920E-02 0. -1.
    10030    2    1    2    0    0  0.00000000000E+00  0.00000000000E+00  0.79159966117E+03  0.28313800422E+04  0.27184706950E+04 0.  0.
        2    1    3    3  502    0 -0.71144073411E+03  0.54264987825E+03  0.14614800975E+04  0.17136338243E+04  0.25500000920E-02 0.  1.
       -2    1    3    3    0  502  0.71144073411E+03 -0.54264987825E+03 -0.66988043635E+03  0.11177462179E+04  0.25500000920E-02 0. -1.
</event>
<event>
 5   0  0.4448804E-06  0.2705941E+04  0.7818609E-02  0.8333080E-01
        2   -1    0    0  501    0  0.00000000000E+00  0.00000000000E+00  0.15132280270E+04  0.15132280270E+04  0.25500000920E-02 0.  1.
       -2   -1    0    0    0  501  0.00000000000E+00  0.00000000000E+00 -0.12096848386E+04  0.12096848386E+04  0.25500000920E-02 0. -1.
    10030    2    1    2    0    0  0.00000000000E+00  0.00000000000E+00  0.30354318838E+03  0.27229128656E+04  0.27059408727E+04 0.  0.
        2    1    3    3  502    0  0.74409954681E+03 -0.85673386627E+03  0.89317767182E+03  0.14441064388E+04  0.25500000920E-02 0.  1.
       -2    1    3    3    0  502 -0.74409954681E+03  0.85673386627E+03 -0.58963448344E+03  0.12788064268E+04  0.25500000920E-02 0. -1.
</event>
<event>
 5   0  0.1723605E-06  0.2694058E+04  0.7818609E-02  0.8336935E-01
        1   -1    0    0  501    0  0.00000000000E+00  0.00000000000E+00  0.22839446732E+04  0.22839446732E+04  0.50400001928E-02 0. -1.
       -1   -1    0    0    0  501  0.00000000000E+00  0.00000000000E+00 -0.79445345418E+03  0.79445345419E+03  0.50400001928E-02 0.  1.
    10030    2    1    2    0    0  0.00000000000E+00  0.00000000000E+00  0.14894912191E+04  0.30783981274E+04  0.26940584514E+04 0.  0.
        1    1    3    3  502    0  0.12091525778E+04  0.60084172906E+02  0.69870771953E+02  0.12126590572E+04  0.50400001928E-02 0.  1.
       -1    1    3    3    0  502 -0.12091525778E+04 -0.60084172906E+02  0.14196204471E+04  0.18657390702E+04  0.50400001928E-02 0. -1.
</event>
<event>
 5   0  0.1732312E-06  0.2705141E+04  0.7818609E-02  0.8333339E-01
       -1   -1    0    0    0  501  0.00000000000E+00  0.00000000000E+00  0.83899681098E+03  0.83899681099E+03  0.50400001928E-02 0.  1.
        1   -1    0    0  501    0  0.00000000000E+00  0.00000000000E+00 -0.21805177351E+04  0.21805177351E+04  0.50400001928E-02 0. -1.
    10030    2    1    2    0    0  0.00000000000E+00  0.00000000000E+00 -0.13415209242E+04  0.30195145461E+04  0.27051413465E+04 0.  0.
        5    1    3    3  502    0 -0.69497310173E+03 -0.27728238627E+03  0.58692617139E+03  0.95098767317E+03  0.46999998093E+01 0.  1.
       -5    1    3    3    0  502  0.69497310173E+03  0.27728238627E+03 -0.19284470956E+04  0.20685268730E+04  0.46999998093E+01 0. -1.
</event>
<event>
 5   0  0.1771016E-06  0.2719279E+04  0.7818609E-02  0.8328777E-01
        1   -1    0    0  501    0  0.00000000000E+00  0.00000000000E+00  0.86287444157E+03  0.86287444159E+03  0.50400001928E-02 0. -1.
       -1   -1    0    0    0  501  0.00000000000E+00  0.00000000000E+00 -0.21423970650E+04  0.21423970650E+04  0.50400001928E-02 0.  1.
    10030    2    1    2    0    0  0.00000000000E+00  0.00000000000E+00 -0.12795226234E+04  0.30052715066E+04  0.27192790744E+04 0.  0.
        2    1    3    3  502    0 -0.31134587651E+03  0.42110658605E+03  0.74693367081E+03  0.91223731574E+03  0.25500000920E-02 0. -1.
       -2    1    3    3    0  502  0.31134587651E+03 -0.42110658605E+03 -0.20264562942E+04  0.20930341908E+04  0.25500000920E-02 0.  1.
</event>
<event>
 5   0  0.4487186E-06  0.2697279E+04  0.7818609E-02  0.8335888E-01
        2   -1    0    0  501    0  0.00000000000E+00  0.00000000000E+00  0.16890524186E+04  0.16890524186E+04  0.25500000920E-02 0. -1.
       -2   -1    0    0    0  501  0.00000000000E+00  0.00000000000E+00 -0.10768334332E+04  0.10768334332E+04  0.25500000920E-02 0.  1.
    10030    2    1    2    0    0  0.00000000000E+00  0.00000000000E+00  0.61221898533E+03  0.27658858518E+04  0.26972787137E+04 0.  0.
        3    1    3    3  502    0  0.10721737278E+04  0.46368119366E+03 -0.38503062529E+03  0.12299615216E+04  0.10100000352E+00 0. -1.
       -3    1    3    3    0  502 -0.10721737278E+04 -0.46368119366E+03  0.99724961062E+03  0.15359243302E+04  0.10100000352E+00 0.  1.
</event>
<event>
 5   0  0.1771016E-06  0.2688504E+04  0.7818609E-02  0.8338745E-01
       -1   -1    0    0    0  501  0.00000000000E+00  0.00000000000E+00  0.84716880637E+03  0.84716880639E+03  0.50400001928E-02 0.  1.
        1   -1    0    0  501    0  0.00000000000E+00  0.00000000000E+00 -0.21330028676E+04  0.21330028676E+04  0.50400001928E-02 0. -1.
    10030    2    1    2    0    0  0.00000000000E+00  0.00000000000E+00 -0.12858340612E+04  0.29801716739E+04  0.26885040400E+04 0.  0.
        2    1    3    3  502    0  0.12300025397E+04 -0.23871006784E+03 -0.10313424352E+03  0.12571894910E+04  0.25500000920E-02 0.  1.
       -2    1    3    3    0  502 -0.12300025397E+04  0.23871006784E+03 -0.11826998177E+04  0.17229821830E+04  0.25500000920E-02 0. -1.
</event>
<event>
 5   0  0.1723605E-06  0.2705938E+04  0.7818609E-02  0.8333081E-01
        1   -1    0    0  501    0  0.00000000000E+00  0.00000000000E+00  0.22739937760E+04  0.22739937760E+04  0.50400001928E-02 0. -1.
       -1   -1    0    0    0  501  0.00000000000E+00  0.00000000000E+00 -0.80498221015E+03  0.80498221017E+03  0.50400001928E-02 0.  1.
    10030    2    1    2    0    0  0.00000000000E+00  0.00000000000E+00  0.14690115658E+04  0.30789759862E+04  0.27059375719E+04 0.  0.
        1    1    3    3  502    0 -0.61967636162E+03 -0.31238089080E+03  0.20560614964E+04  0.21700160117E+04  0.50400001928E-02 0. -1.
       -1    1    3    3    0  502  0.61967636162E+03  0.31238089080E+03 -0.58704993059E+03  0.90895997443E+03  0.50400001928E-02 0.  1.
</event>
<event>
 5   0  0.4655882E-06  0.2700610E+04  0.7818609E-02  0.8334807E-01
        2   -1    0    0  501    0  0.00000000000E+00  0.00000000000E+00  0.16034761496E+04  0.16034761496E+04  0.25500000920E-02 0. -1.
       -2   -1    0    0    0  501  0.00000000000E+00  0.00000000000E+00 -0.11371071089E+04  0.11371071089E+04  0.25500000920E-02 0.  1.
    10030    2    1    2    0    0  0.00000000000E+00  0.00000000000E+00  0.46636904070E+03  0.27405832584E+04  0.27006103966E+04 0.  0.
        1    1    3    3  502    0  0.98616700165E+02 -0.97812478389E+03 -0.70618990518E+03  0.12104369164E+04  0.50400001928E-02 0.  1.
       -1    1    3    3    0  502 -0.98616700165E+02  0.97812478389E+03  0.11725589459E+04  0.15301463420E+04  0.50400001928E-02 0. -1.
</event>
<event>
 5   0  0.1482875E-06  0.2715990E+04  0.7818609E-02  0.8329835E-01
        3   -1    0    0  501    0  0.00000000000E+00  0.00000000000E+00  0.73150037215E+03  0.73150037913E+03  0.10100000352E+00 0. -1.
       -3   -1    0    0    0  501  0.00000000000E+00  0.00000000000E+00 -0.25210523531E+04  0.25210523551E+04  0.10100000352E+00 0.  1.
    10030    2    1    2    0    0  0.00000000000E+00  0.00000000000E+00 -0.17895519809E+04  0.32525527342E+04  0.27159902423E+04 0.  0.
        3    1    3    3  502    0 -0.60482801072E+03 -0.10416014009E+04 -0.16459032191E+04  0.20395459832E+04  0.10100000352E+00 0.  1.
       -3    1    3    3    0  502  0.60482801072E+03  0.10416014009E+04 -0.14364876183E+03  0.12130067510E+04  0.10100000352E+00 0. -1.
</event>
<event>
 5   0  0.1732312E-06  0.2701101E+04  0.7818609E-02  0.8334648E-01
       -1   -1    0    0    0  501  0.00000000000E+00  0.00000000000E+00  0.12008714905E+04  0.12008714905E+04  0.50400001928E-02 0. -1.
        1   -1    0    0  501    0  0.00000000000E+00  0.00000000000E+00 -0.15188852711E+04  0.15188852711E+04  0.50400001928E-02 0.  1.
    10030    2    1    2    0    0  0.00000000000E+00  0.00000000000E+00 -0.31801378060E+03  0.27197567616E+04  0.27011005308E+04 0.  0.
        5    1    3    3  502    0 -0.10808152883E+03  0.13584894034E+02 -0.15144463634E+04  0.15183662417E+04  0.46999998093E+01 0.  1.
       -5    1    3    3    0  502  0.10808152883E+03 -0.13584894034E+02  0.11964325828E+04  0.12013905199E+04  0.46999998093E+01 0. -1.
</event>
<event>
 5   0  0.4448804E-06  0.2696417E+04  0.7818609E-02  0.8336168E-01
       -2   -1    0    0    0  501  0.00000000000E+00  0.00000000000E+00  0.94965021807E+03  0.94965021807E+03  0.25500000920E-02 0. -1.
        2   -1    0    0  501    0  0.00000000000E+00  0.00000000000E+00 -0.19140375198E+04  0.19140375198E+04  0.25500000920E-02 0.  1.
    10030    2    1    2    0    0  0.00000000000E+00  0.00000000000E+00 -0.96438730169E+03  0.28636877378E+04  0.26964169915E+04 0.  0.
        2    1    3    3  502    0  0.29697289274E+03 -0.53954930495E+03  0.79152166935E+03  0.10029022408E+04  0.25500000920E-02 0. -1.
       -2    1    3    3    0  502 -0.29697289274E+03  0.53954930495E+03 -0.17559089710E+04  0.18607854971E+04  0.25500000920E-02 0.  1.
</event>
<event>
 5   0  0.4448804E-06  0.2691381E+04  0.7818609E-02  0.8337807E-01
       -2   -1    0    0    0  501  0.00000000000E+00  0.00000000000E+00  0.10941354135E+04  0.10941354135E+04  0.25500000920E-02 0. -1.
        2   -1    0    0  501    0  0.00000000000E+00  0.00000000000E+00 -0.16550810536E+04  0.16550810536E+04  0.25500000920E-02 0.  1.
    10030    2    1    2    0    0  0.00000000000E+00  0.00000000000E+00 -0.56094564012E+03  0.27492164671E+04  0.26913809042E+04 0.  0.
        2    1    3    3  502    0 -0.10254401242E+04  0.79888442350E+03 -0.63600245132E+03  0.14471499191E+04  0.25500000920E-02 0.  1.
       -2    1    3    3    0  502  0.10254401242E+04 -0.79888442350E+03  0.75056811206E+02  0.13020665479E+04  0.25500000920E-02 0. -1.
</event>
<event>
 5   0  0.1753474E-06  0.2871313E+04  0.7818609E-02  0.8281464E-01
       -1   -1    0    0    0  501  0.00000000000E+00  0.00000000000E+00  0.86500709513E+03  0.86500709514E+03  0.50400001928E-02 0.  1.
        1   -1    0    0  501    0  0.00000000000E+00  0.00000000000E+00 -0.23827666934E+04  0.23827666934E+04  0.50400001928E-02 0. -1.
    10030    2    1    2    0    0  0.00000000000E+00  0.00000000000E+00 -0.15177595983E+04  0.32477737885E+04  0.28713133551E+04 0.  0.
        3    1    3    3  502    0  0.59591803360E+03  0.12941939807E+02  0.71843255111E+03  0.93350476017E+03  0.10100000352E+00 0.  1.
       -3    1    3    3    0  502 -0.59591803360E+03 -0.12941939807E+02 -0.22361921494E+04  0.23142690284E+04  0.10100000352E+00 0. -1.
</event>
<event>
 5   0  0.4401659E-06  0.2697120E+04  0.7818609E-02  0.8335940E-01
        2   -1    0    0  501    0  0.00000000000E+00  0.00000000000E+00  0.11247887558E+04  0.11247887558E+04  0.25500000920E-02 0. -1.
       -2   -1    0    0    0  501  0.00000000000E+00  0.00000000000E+00 -0.16168497270E+04  0.16168497270E+04  0.25500000920E-02 0.  1.
    10030    2    1    2    0    0  0.00000000000E+00  0.00000000000E+00 -0.49206097118E+03  0.27416384829E+04  0.26971202367E+04 0.  0.
        5    1    3    3  502    0 -0.38609448164E+03  0.71462286942E+03 -0.13402920668E+04  0.15672139958E+04  0.46999998093E+01 0.  1.
       -5    1    3    3    0  502  0.38609448164E+03 -0.71462286942E+03  0.84823109562E+03  0.11744244871E+04  0.46999998093E+01 0. -1.
</event>
<event>
 5   0  0.1828511E-06  0.2759669E+04  0.7818609E-02  0.8315900E-01
       -1   -1    0    0    0  501  0.00000000000E+00  0.00000000000E+00  0.16076877164E+04  0.16076877164E+04  0.50400001928E-02 0. -1.
        1   -1    0    0  501    0  0.00000000000E+00  0.00000000000E+00 -0.11842740977E+04  0.11842740977E+04  0.50400001928E-02 0.  1.
    10030    2    1    2    0    0  0.00000000000E+00  0.00000000000E+00  0.42341361865E+03  0.27919618141E+04  0.27596687626E+04 0.  0.
        4    1    3    3  502    0 -0.12714886634E+04 -0.33191372477E+03 -0.21403957059E+03  0.13314145457E+04  0.12699999809E+01 0.  1.
       -4    1    3    3    0  502  0.12714886634E+04  0.33191372477E+03  0.63745318925E+03  0.14605472684E+04  0.12699999809E+01 0. -1.
</event>
<event>
 5   0  0.4448804E-06  0.2694401E+04  0.7818609E-02  0.8336824E-01
       -2   -1    0    0    0  501  0.00000000000E+00  0.00000000000E+00  0.86209133246E+03  0.86209133247E+03  0.25500000920E-02 0. -1.
        2   -1    0    0  501    0  0.00000000000E+00  0.00000000000E+00 -0.21052866852E+04  0.21052866852E+04  0.25500000920E-02 0.  1.
    10030    2    1    2    0    0  0.00000000000E+00  0.00000000000E+00 -0.12431953527E+04  0.29673780176E+04  0.26944011607E+04 0.  0.
        2    1    3    3  502    0 -0.44814526047E+03 -0.10116236320E+04 -0.14680571726E+04  0.18383167326E+04  0.25500000920E-02 0.  1.
       -2    1    3    3    0  502  0.44814526047E+03  0.10116236320E+04  0.22486181992E+03  0.11290612850E+04  0.25500000920E-02 0. -1.
</event>
<event>
 5   0  0.1732312E-06  0.2733473E+04  0.7818609E-02  0.8324225E-01
       -1   -1    0    0    0  501  0.00000000000E+00  0.00000000000E+00  0.10848754035E+04  0.10848754035E+04  0.50400001928E-02 0. -1.
        1   -1    0    0  501    0  0.00000000000E+00  0.00000000000E+00 -0.17218272037E+04  0.17218272037E+04  0.50400001928E-02 0.  1.
    10030    2    1    2    0    0  0.00000000000E+00  0.00000000000E+00 -0.63695180019E+03  0.28067026072E+04  0.27334725039E+04 0.  0.
        5    1    3    3  502    0  0.89807652578E+03  0.38329318733E+03  0.66343335540E+03  0.11805172683E+04  0.46999998093E+01 0. -1.
       -5    1    3    3    0  502 -0.89807652578E+03 -0.38329318733E+03 -0.13003851556E+04  0.16261853389E+04  0.46999998093E+01 0.  1.
</event>
<event>
 5   0  0.1482875E-06  0.2703961E+04  0.7818609E-02  0.8333721E-01
       -3   -1    0    0    0  501  0.00000000000E+00  0.00000000000E+00  0.83698160562E+03  0.83698161171E+03  0.10100000352E+00 0.  1.
        3   -1    0    0  501    0  0.00000000000E+00  0.00000000000E+00 -0.21838613431E+04  0.21838613455E+04  0.10100000352E+00 0. -1.
    10030    2    1    2    0    0  0.00000000000E+00  0.00000000000E+00 -0.13468797375E+04  0.30208429572E+04  0.27039613800E+04 0.  0.
        3    1    3    3  502    0 -0.12082923917E+04  0.33437556657E+03 -0.12387810486E+04  0.17624857503E+04  0.10100000352E+00 0.  1.
       -3    1    3    3    0  502  0.12082923917E+04 -0.33437556657E+03 -0.10809868897E+03  0.12583572069E+04  0.10100000352E+00 0. -1.
</event>
<event>
 5   0  0.1771016E-06  0.2645817E+04  0.7818609E-02  0.8352803E-01
       -1   -1    0    0    0  501  0.00000000000E+00  0.00000000000E+00  0.10586599048E+04  0.10586599048E+04  0.50400001928E-02 0.  1.
        1   -1    0    0  501    0  0.00000000000E+00  0.00000000000E+00 -0.16531156261E+04  0.16531156262E+04  0.50400001928E-02 0. -1.
    10030    2    1    2    0    0  0.00000000000E+00  0.00000000000E+00 -0.59445572137E+03  0.27117755309E+04  0.26458172510E+04 0.  0.
        2    1    3    3  502    0 -0.64316589484E+03 -0.47941897659E+03 -0.13753941658E+04  0.15922355462E+04  0.25500000920E-02 0. -1.
       -2    1    3    3    0  502  0.64316589484E+03  0.47941897659E+03  0.78093844441E+03  0.11195399847E+04  0.25500000920E-02 0.  1.
</event>
<event>
 5   0  0.1732312E-06  0.2702994E+04  0.7818609E-02  0.8334034E-01
       -1   -1    0    0    0  501  0.00000000000E+00  0.00000000000E+00  0.10993226859E+04  0.10993226860E+04  0.50400001928E-02 0.  1.
        1   -1    0    0  501    0  0.00000000000E+00  0.00000000000E+00 -0.16615173150E+04  0.16615173150E+04  0.50400001928E-02 0. -1.
    10030    2    1    2    0    0  0.00000000000E+00  0.00000000000E+00 -0.56219462909E+03  0.27608400010E+04  0.27029936571E+04 0.  0.
        5    1    3    3  502    0 -0.29736789081E+03 -0.61922256217E+03 -0.14699031821E+04  0.16224985974E+04  0.46999998093E+01 0. -1.
       -5    1    3    3    0  502  0.29736789081E+03  0.61922256217E+03  0.90770855297E+03  0.11383414036E+04  0.46999998093E+01 0.  1.
</event>
<event>
 5   0  0.4448804E-06  0.2700021E+04  0.7818609E-02  0.8334998E-01
       -2   -1    0    0    0  501  0.00000000000E+00  0.00000000000E+00  0.12143464081E+04  0.12143464081E+04  0.25500000920E-02 0.  1.
        2   -1    0    0  501    0  0.00000000000E+00  0.00000000000E+00 -0.15008307111E+04  0.15008307111E+04  0.25500000920E-02 0. -1.
    10030    2    1    2    0    0  0.00000000000E+00  0.00000000000E+00 -0.28648430299E+03  0.27151771192E+04  0.27000210245E+04 0.  0.
        2    1    3    3  502    0 -0.76294020942E+03  0.97221032862E+03  0.40318419759E+03  0.12999339150E+04  0.25500000920E-02 0. -1.
       -2    1    3    3    0  502  0.76294020942E+03 -0.97221032862E+03 -0.68966850058E+03  0.14152432042E+04  0.25500000920E-02 0.  1.
</event>
<event>
 5   0  0.4448804E-06  0.2705045E+04  0.7818609E-02  0.8333370E-01
       -2   -1    0    0    0  501  0.00000000000E+00  0.00000000000E+00  0.12196296480E+04  0.12196296480E+04  0.25500000920E-02 0. -1.
        2   -1    0    0  501    0  0.00000000000E+00  0.00000000000E+00 -0.14998952670E+04  0.14998952670E+04  0.25500000920E-02 0.  1.
    10030    2    1    2    0    0  0.00000000000E+00  0.00000000000E+00 -0.28026561899E+03  0.27195249151E+04  0.27050447217E+04 0.  0.
        2    1    3    3  502    0 -0.12850924899E+03 -0.11553149450E+04  0.55497956634E+03  0.12881263790E+04  0.25500000920E-02 0. -1.
       -2    1    3    3    0  502  0.12850924899E+03  0.11553149450E+04 -0.83524518533E+03  0.14313985360E+04  0.25500000920E-02 0.  1.
</event>
<event>
 5   0  0.1828511E-06  0.2722451E+04  0.7818609E-02  0.8327757E-01
       -1   -1    0    0    0  501  0.00000000000E+00  0.00000000000E+00  0.73104850065E+03  0.73104850067E+03  0.50400001928E-02 0.  1.
        1   -1    0    0  501    0  0.00000000000E+00  0.00000000000E+00 -0.25346271558E+04  0.25346271558E+04  0.50400001928E-02 0. -1.
    10030    2    1    2    0    0  0.00000000000E+00  0.00000000000E+00 -0.18035786551E+04  0.32656756565E+04  0.27224513821E+04 0.  0.
        4    1    3    3  502    0  0.83256188306E+03  0.10634999973E+04 -0.11051529126E+04  0.17451521729E+04  0.12699999809E+01 0.  1.
       -4    1    3    3    0  502 -0.83256188306E+03 -0.10634999973E+04 -0.69842574257E+03  0.15205234836E+04  0.12699999809E+01 0. -1.
</event>
<event>
 5   0  0.4439357E-06  0.2690938E+04  0.7818609E-02  0.8337951E-01
       -2   -1    0    0    0  501  0.00000000000E+00  0.00000000000E+00  0.10260868365E+04  0.10260868365E+04  0.25500000920E-02 0.  1.
        2   -1    0    0  501    0  0.00000000000E+00  0.00000000000E+00 -0.17642632078E+04  0.17642632078E+04  0.25500000920E-02 0. -1.
    10030    2    1    2    0    0  0.00000000000E+00  0.00000000000E+00 -0.73817637127E+03  0.27903500443E+04  0.26909383149E+04 0.  0.
        4    1    3    3  502    0  0.11154159641E+04 -0.73294395208E+03 -0.19272847865E+03  0.13485197400E+04  0.12699999809E+01 0.  1.
       -4    1    3    3    0  502 -0.11154159641E+04  0.73294395208E+03 -0.54544789262E+03  0.14418303043E+04  0.12699999809E+01 0. -1.
</event>
<event>
 5   0  0.1482875E-06  0.2713092E+04  0.7818609E-02  0.8330770E-01
       -3   -1    0    0    0  501  0.00000000000E+00  0.00000000000E+00  0.23465111150E+04  0.23465111172E+04  0.10100000352E+00 0. -1.
        3   -1    0    0  501    0  0.00000000000E+00  0.00000000000E+00 -0.78423540331E+03  0.78423540982E+03  0.10100000352E+00 0.  1.
    10030    2    1    2    0    0  0.00000000000E+00  0.00000000000E+00  0.15622757117E+04  0.31307465270E+04  0.27130920399E+04 0.  0.
        3    1    3    3  502    0  0.31923366853E+03 -0.11175709235E+03  0.22970735913E+04  0.23218412687E+04  0.10100000352E+00 0. -1.
       -3    1    3    3    0  502 -0.31923366853E+03  0.11175709235E+03 -0.73479787963E+03  0.80890525831E+03  0.10100000352E+00 0.  1.
</event>
<event>
 5   0  0.1732312E-06  0.2692761E+04  0.7818609E-02  0.8337357E-01
        1   -1    0    0  501    0  0.00000000000E+00  0.00000000000E+00  0.14679126574E+04  0.14679126574E+04  0.50400001928E-02 0. -1.
       -1   -1    0    0    0  501  0.00000000000E+00  0.00000000000E+00 -0.12349106823E+04  0.12349106823E+04  0.50400001928E-02 0.  1.
    10030    2    1    2    0    0  0.00000000000E+00  0.00000000000E+00  0.23300197511E+03  0.27028233397E+04  0.26927614238E+04 0.  0.
        5    1    3    3  502    0  0.12089501098E+04  0.49723001644E+03 -0.20707119541E+03  0.13235175206E+04  0.46999998093E+01 0.  1.
       -5    1    3    3    0  502 -0.12089501098E+04 -0.49723001644E+03  0.44007317052E+03  0.13793058191E+04  0.46999998093E+01 0. -1.
</event>
<event>
 5   0  0.4448804E-06  0.2659230E+04  0.7818609E-02  0.8348356E-01
       -2   -1    0    0    0  501  0.00000000000E+00  0.00000000000E+00  0.71133608745E+03  0.71133608745E+03  0.25500000920E-02 0. -1.
        2   -1    0    0  501    0  0.00000000000E+00  0.00000000000E+00 -0.24852892479E+04  0.24852892479E+04  0.25500000920E-02 0.  1.
    10030    2    1    2    0    0  0.00000000000E+00  0.00000000000E+00 -0.17739531604E+04  0.31966253353E+04  0.26592299109E+04 0.  0.
        2    1    3    3  502    0  0.90517923137E+03  0.20820802945E+03  0.25669766888E+03  0.96363567682E+03  0.25500000920E-02 0. -1.
       -2    1    3    3    0  502 -0.90517923137E+03 -0.20820802945E+03 -0.20306508293E+04  0.22329896585E+04  0.25500000920E-02 0.  1.
</event>
<event>
 5   0  0.1723605E-06  0.2724134E+04  0.7818609E-02  0.8327217E-01
        1   -1    0    0  501    0  0.00000000000E+00  0.00000000000E+00  0.11361105515E+04  0.11361105515E+04  0.50400001928E-02 0. -1.
       -1   -1    0    0    0  501  0.00000000000E+00  0.00000000000E+00 -0.16329626260E+04  0.16329626260E+04  0.50400001928E-02 0.  1.
    10030    2    1    2    0    0  0.00000000000E+00  0.00000000000E+00 -0.49685207456E+03  0.27690731775E+04  0.27241336748E+04 0.  0.
        1    1    3    3  502    0 -0.11648181007E+04 -0.54616599117E+03  0.20631011339E+03  0.13029437288E+04  0.50400001928E-02 0. -1.
       -1    1    3    3    0  502  0.11648181007E+04  0.54616599117E+03 -0.70316218795E+03  0.14661294487E+04  0.50400001928E-02 0.  1.
</event>
<event>
 5   0  0.4448804E-06  0.2697857E+04  0.7818609E-02  0.8335701E-01
        2   -1    0    0  501    0  0.00000000000E+00  0.00000000000E+00  0.18254289911E+04  0.18254289911E+04  0.25500000920E-02 0. -1.
       -2   -1    0    0    0  501  0.00000000000E+00  0.00000000000E+00 -0.99681134542E+03  0.99681134543E+03  0.25500000920E-02 0.  1.
    10030    2    1    2    0    0  0.00000000000E+00  0.00000000000E+00  0.82861764572E+03  0.28222403366E+04  0.26978571709E+04 0.  0.
        2    1    3    3  502    0 -0.55152360215E+03 -0.62273932925E+03 -0.69654659556E+03  0.10849699147E+04  0.25500000920E-02 0.  1.
       -2    1    3    3    0  502  0.55152360215E+03  0.62273932925E+03  0.15251642413E+04  0.17372704219E+04  0.25500000920E-02 0. -1.
</event>
<event>
 5   0  0.4448804E-06  0.2701400E+04  0.7818609E-02  0.8334551E-01
        2   -1    0    0  501    0  0.00000000000E+00  0.00000000000E+00  0.14553839899E+04  0.14553839899E+04  0.25500000920E-02 0. -1.
       -2   -1    0    0    0  501  0.00000000000E+00  0.00000000000E+00 -0.12535457855E+04  0.12535457855E+04  0.25500000920E-02 0.  1.
    10030    2    1    2    0    0  0.00000000000E+00  0.00000000000E+00  0.20183820439E+03  0.27089297754E+04  0.27013999829E+04 0.  0.
        2    1    3    3  502    0  0.43351199994E+03 -0.88634850859E+03 -0.82406412682E+03  0.12855458054E+04  0.25500000920E-02 0.  1.
       -2    1    3    3    0  502 -0.43351199994E+03  0.88634850859E+03  0.10259023312E+04  0.14233839700E+04  0.25500000920E-02 0. -1.
</event>
<event>
 5   0  0.1732312E-06  0.2707965E+04  0.7818609E-02  0.8332425E-01
        1   -1    0    0  501    0  0.00000000000E+00  0.00000000000E+00  0.13954869019E+04  0.13954869019E+04  0.50400001928E-02 0. -1.
       -1   -1    0    0    0  501  0.00000000000E+00  0.00000000000E+00 -0.13137124121E+04  0.13137124121E+04  0.50400001928E-02 0.  1.
    10030    2    1    2    0    0  0.00000000000E+00  0.00000000000E+00  0.81774489815E+02  0.27091993139E+04  0.27079648919E+04 0.  0.
        5    1    3    3  502    0 -0.12414695154E+04 -0.50863966561E+03  0.22341357169E+03  0.13601090328E+04  0.46999998093E+01 0.  1.
       -5    1    3    3    0  502  0.12414695154E+04  0.50863966561E+03 -0.14163908187E+03  0.13490902811E+04  0.46999998093E+01 0. -1.
</event>
<event>
 5   0  0.1723605E-06  0.2711051E+04  0.7818609E-02  0.8331428E-01
       -1   -1    0    0    0  501  0.00000000000E+00  0.00000000000E+00  0.10166492402E+04  0.10166492402E+04  0.50400001928E-02 0. -1.
        1   -1    0    0  501    0  0.00000000000E+00  0.00000000000E+00 -0.18073587454E+04  0.18073587454E+04  0.50400001928E-02 0.  1.
    10030    2    1    2    0    0  0.00000000000E+00  0.00000000000E+00 -0.79070950513E+03  0.28240079856E+04  0.27110513793E+04 0.  0.
        1    1    3    3  502    0 -0.10435645674E+04 -0.85339821689E+03 -0.24754699765E+03  0.13706184878E+04  0.50400001928E-02 0. -1.
       -1    1    3    3    0  502  0.10435645674E+04  0.85339821689E+03 -0.54316250748E+03  0.14533894979E+04  0.50400001928E-02 0.  1.
</event>
<event>
 5   0  0.1753474E-06  0.2697045E+04  0.7818609E-02  0.8335964E-01
        1   -1    0    0  501    0  0.00000000000E+00  0.00000000000E+00  0.17326163086E+04  0.17326163086E+04  0.50400001928E-02 0. -1.
       -1   -1    0    0    0  501  0.00000000000E+00  0.00000000000E+00 -0.10495762275E+04  0.10495762275E+04  0.50400001928E-02 0.  1.
    10030    2    1    2    0    0  0.00000000000E+00  0.00000000000E+00  0.68304008104E+03  0.27821925361E+04  0.26970449673E+04 0.  0.
        3    1    3    3  502    0 -0.49877083665E+03  0.54897596980E+03 -0.82025294909E+03  0.11058760661E+04  0.10100000352E+00 0.  1.
       -3    1    3    3    0  502  0.49877083665E+03 -0.54897596980E+03  0.15032930301E+04  0.16763164700E+04  0.10100000352E+00 0. -1.
</event>
<event>
 5   0  0.1828511E-06  0.2643554E+04  0.7818609E-02  0.8353556E-01
        1   -1    0    0  501    0  0.00000000000E+00  0.00000000000E+00  0.16491496842E+04  0.16491496843E+04  0.50400001928E-02 0.  1.
       -1   -1    0    0    0  501  0.00000000000E+00  0.00000000000E+00 -0.10593910021E+04  0.10593910021E+04  0.50400001928E-02 0. -1.
    10030    2    1    2    0    0  0.00000000000E+00  0.00000000000E+00  0.58975868211E+03  0.27085406864E+04  0.26435539236E+04 0.  0.
        4    1    3    3  502    0 -0.31391517163E+02 -0.12817613143E+04  0.62401656452E+03  0.14259368078E+04  0.12699999809E+01 0.  1.
       -4    1    3    3    0  502  0.31391517163E+02  0.12817613143E+04 -0.34257882409E+02  0.12826038786E+04  0.12699999809E+01 0. -1.
</event>
<event>
 5   0  0.1828511E-06  0.2699715E+04  0.7818609E-02  0.8335097E-01
        1   -1    0    0  501    0  0.00000000000E+00  0.00000000000E+00  0.17993268814E+04  0.17993268814E+04  0.50400001928E-02 0.  1.
       -1   -1    0    0    0  501  0.00000000000E+00  0.00000000000E+00 -0.10126650555E+04  0.10126650556E+04  0.50400001928E-02 0. -1.
    10030    2    1    2    0    0  0.00000000000E+00  0.00000000000E+00  0.78666182585E+03  0.28119919370E+04  0.26997151378E+04 0.  0.
        4    1    3    3  502    0  0.13926370606E+03  0.56920392158E+03  0.16599325255E+04  0.17603309593E+04  0.12699999809E+01 0.  1.
       -4    1    3    3    0  502 -0.13926370606E+03 -0.56920392158E+03 -0.87327069965E+03  0.10516609777E+04  0.12699999809E+01 0. -1.
</event>
<event>
 5   0  0.4655882E-06  0.2699192E+04  0.7818609E-02  0.8335267E-01
       -2   -1    0    0    0  501  0.00000000000E+00  0.00000000000E+00  0.95902231200E+03  0.95902231200E+03  0.25500000920E-02 0.  1.
        2   -1    0    0  501    0  0.00000000000E+00  0.00000000000E+00 -0.18992353226E+04  0.18992353226E+04  0.25500000920E-02 0. -1.
    10030    2    1    2    0    0  0.00000000000E+00  0.00000000000E+00 -0.94021301056E+03  0.28582576346E+04  0.26991917680E+04 0.  0.
        1    1    3    3  502    0 -0.98599780181E+03  0.73801943690E+03 -0.10544835547E+04  0.16213574318E+04  0.50400001928E-02 0. -1.
       -1    1    3    3    0  502  0.98599780181E+03 -0.73801943690E+03  0.11427054411E+03  0.12369002028E+04  0.50400001928E-02 0.  1.
</event>
<event>
 5   0  0.4487186E-06  0.2698372E+04  0.7818609E-02  0.8335534E-01
        2   -1    0    0  501    0  0.00000000000E+00  0.00000000000E+00  0.15346869024E+04  0.15346869024E+04  0.25500000920E-02 0.  1.
       -2   -1    0    0    0  501  0.00000000000E+00  0.00000000000E+00 -0.11861065935E+04  0.11861065935E+04  0.25500000920E-02 0. -1.
    10030    2    1    2    0    0  0.00000000000E+00  0.00000000000E+00  0.34858030889E+03  0.27207934959E+04  0.26983715489E+04 0.  0.
        3    1    3    3  502    0 -0.42295542533E+03 -0.95132755124E+03  0.10395505815E+04  0.14712514480E+04  0.10100000352E+00 0.  1.
       -3    1    3    3    0  502  0.42295542533E+03  0.95132755124E+03 -0.69097027265E+03  0.12495420479E+04  0.10100000352E+00 0. -1.
</event>
<event>
 5   0  0.1482875E-06  0.2708672E+04  0.7818609E-02  0.8332197E-01
        3   -1    0    0  501    0  0.00000000000E+00  0.00000000000E+00  0.10155312895E+04  0.10155312945E+04  0.10100000352E+00 0.  1.
       -3   -1    0    0    0  501  0.00000000000E+00  0.00000000000E+00 -0.18061741166E+04  0.18061741194E+04  0.10100000352E+00 0. -1.
    10030    2    1    2    0    0  0.00000000000E+00  0.00000000000E+00 -0.79064282708E+03  0.28217054140E+04  0.27086722510E+04 0.  0.
        3    1    3    3  502    0  0.31433844615E+03  0.59936198710E+03  0.82674072250E+03  0.10684304763E+04  0.10100000352E+00 0.  1.
       -3    1    3    3    0  502 -0.31433844615E+03 -0.59936198710E+03 -0.16173835496E+04  0.17532749376E+04  0.10100000352E+00 0. -1.
</event>
<event>
 5   0  0.4448804E-06  0.2700494E+04  0.7818609E-02  0.8334845E-01
        2   -1    0    0  501    0  0.00000000000E+00  0.00000000000E+00  0.14289080752E+04  0.14289080752E+04  0.25500000920E-02 0.  1.
       -2   -1    0    0    0  501  0.00000000000E+00  0.00000000000E+00 -0.12759163072E+04  0.12759163072E+04  0.25500000920E-02 0. -1.
    10030    2    1    2    0    0  0.00000000000E+00  0.00000000000E+00  0.15299176803E+03  0.27048243825E+04  0.27004941138E+04 0.  0.
        2    1    3    3  502    0 -0.94395405732E+03 -0.69996387522E+03 -0.58952784337E+03  0.13147401899E+04  0.25500000920E-02 0. -1.
       -2    1    3    3    0  502  0.94395405732E+03  0.69996387522E+03  0.74251961140E+03  0.13900841925E+04  0.25500000920E-02 0.  1.
</event>
<event>
 5   0  0.4439357E-06  0.2563150E+04  0.7818609E-02  0.8380827E-01
        2   -1    0    0  501    0  0.00000000000E+00  0.00000000000E+00  0.13898291593E+04  0.13898291593E+04  0.25500000920E-02 0. -1.
       -2   -1    0    0    0  501  0.00000000000E+00  0.00000000000E+00 -0.11817526129E+04  0.11817526129E+04  0.25500000920E-02 0.  1.
    10030    2    1    2    0    0  0.00000000000E+00  0.00000000000E+00  0.20807654640E+03  0.25715817723E+04  0.25631498127E+04 0.  0.
        4    1    3    3  502    0  0.24326874708E+03  0.43573023857E+03  0.12883417941E+04  0.13816174273E+04  0.12699999809E+01 0. -1.
       -4    1    3    3    0  502 -0.24326874708E+03 -0.43573023857E+03 -0.10802652477E+04  0.11899643450E+04  0.12699999809E+01 0.  1.
</event>
<event>
 5   0  0.1828511E-06  0.2683568E+04  0.7818609E-02  0.8340356E-01
        1   -1    0    0  501    0  0.00000000000E+00  0.00000000000E+00  0.17408905283E+04  0.17408905283E+04  0.50400001928E-02 0.  1.
       -1   -1    0    0    0  501  0.00000000000E+00  0.00000000000E+00 -0.10341746361E+04  0.10341746361E+04  0.50400001928E-02 0. -1.
    10030    2    1    2    0    0  0.00000000000E+00  0.00000000000E+00  0.70671589217E+03  0.27750651644E+04  0.26835683920E+04 0.  0.
        4    1    3    3  502    0  0.12704579854E+04  0.19313388263E+03 -0.45833639797E+02  0.12858718928E+04  0.12699999809E+01 0. -1.
       -4    1    3    3    0  502 -0.12704579854E+04 -0.19313388263E+03  0.75254953197E+03  0.14891932716E+04  0.12699999809E+01 0.  1.
</event>
<event>
 5   0  0.4401659E-06  0.2686736E+04  0.7818609E-02  0.8339322E-01
        2   -1    0    0  501    0  0.00000000000E+00  0.00000000000E+00  0.21243980653E+04  0.21243980653E+04  0.25500000920E-02 0. -1.
       -2   -1    0    0    0  501  0.00000000000E+00  0.00000000000E+00 -0.84948171530E+03  0.84948171530E+03  0.25500000920E-02 0.  1.
    10030    2    1    2    0    0  0.00000000000E+00  0.00000000000E+00  0.12749163500E+04  0.29738797806E+04  0.26867357983E+04 0.  0.
        5    1    3    3  502    0 -0.46078019505E+03 -0.10358865498E+03 -0.75455112603E+03  0.89017890863E+03  0.46999998093E+01 0.  1.
       -5    1    3    3    0  502  0.46078019505E+03  0.10358865498E+03  0.20294674760E+04  0.20837008719E+04  0.46999998093E+01 0. -1.
</event>
<event>
 5   0  0.4487186E-06  0.2701876E+04  0.7818609E-02  0.8334397E-01
        2   -1    0    0  501    0  0.00000000000E+00  0.00000000000E+00  0.12498759857E+04  0.12498759857E+04  0.25500000920E-02 0.  1.
       -2   -1    0    0    0  501  0.00000000000E+00  0.00000000000E+00 -0.14601712504E+04  0.14601712504E+04  0.25500000920E-02 0. -1.
    10030    2    1    2    0    0  0.00000000000E+00  0.00000000000E+00 -0.21029526469E+03  0.27100472360E+04  0.27018756306E+04 0.  0.
        3    1    3    3  502    0 -0.78240083777E+02  0.52243209711E+03  0.11419857471E+04  0.12582480930E+04  0.10100000352E+00 0.  1.
       -3    1    3    3    0  502  0.78240083777E+02 -0.52243209711E+03 -0.13522810118E+04  0.14517991431E+04  0.10100000352E+00 0. -1.
</event>
<event>
 5   0  0.1828511E-06  0.2720470E+04  0.7818609E-02  0.8328393E-01
       -1   -1    0    0    0  501  0.00000000000E+00  0.00000000000E+00  0.79907071886E+03  0.79907071888E+03  0.50400001928E-02 0.  1.
        1   -1    0    0  501    0  0.00000000000E+00  0.00000000000E+00 -0.23154892843E+04  0.23154892843E+04  0.50400001928E-02 0. -1.
    10030    2    1    2    0    0  0.00000000000E+00  0.00000000000E+00 -0.15164185655E+04  0.31145600032E+04  0.27204703174E+04 0.  0.
        4    1    3    3  502    0 -0.58953474474E+03  0.44696493124E+03  0.54859270757E+03  0.92102358097E+03  0.12699999809E+01 0.  1.
       -4    1    3    3    0  502  0.58953474474E+03 -0.44696493124E+03 -0.20650112730E+04  0.21935364222E+04  0.12699999809E+01 0. -1.
</event>
<event>
 5   0  0.1753474E-06  0.2729710E+04  0.7818609E-02  0.8325429E-01
       -1   -1    0    0    0  501  0.00000000000E+00  0.00000000000E+00  0.14718823518E+04  0.14718823518E+04  0.50400001928E-02 0. -1.
        1   -1    0    0  501    0  0.00000000000E+00  0.00000000000E+00 -0.12656102875E+04  0.12656102875E+04  0.50400001928E-02 0.  1.
    10030    2    1    2    0    0  0.00000000000E+00  0.00000000000E+00  0.20627206428E+03  0.27374926393E+04  0.27297102018E+04 0.  0.
        3    1    3    3  502    0  0.22999743960E+02 -0.98127676197E+03 -0.84793286929E+03  0.12970825852E+04  0.10100000352E+00 0.  1.
       -3    1    3    3    0  502 -0.22999743960E+02  0.98127676197E+03  0.10542049336E+04  0.14404100541E+04  0.10100000352E+00 0. -1.
</event>
<event>
 5   0  0.4439357E-06  0.2725478E+04  0.7818609E-02  0.8326785E-01
       -2   -1    0    0    0  501  0.00000000000E+00  0.00000000000E+00  0.86457600700E+03  0.86457600701E+03  0.25500000920E-02 0. -1.
        2   -1    0    0  501    0  0.00000000000E+00  0.00000000000E+00 -0.21479401670E+04  0.21479401670E+04  0.25500000920E-02 0.  1.
    10030    2    1    2    0    0  0.00000000000E+00  0.00000000000E+00 -0.12833641600E+04  0.30125161740E+04  0.27254779639E+04 0.  0.
        4    1    3    3  502    0 -0.10520089249E+04 -0.59378298004E+03  0.55416967695E+02  0.12092864254E+04  0.12699999809E+01 0. -1.
       -4    1    3    3    0  502  0.10520089249E+04  0.59378298004E+03 -0.13387811277E+04  0.18032297486E+04  0.12699999809E+01 0.  1.
</event>
<event>
 5   0  0.4487186E-06  0.2703576E+04  0.7818609E-02  0.8333846E-01
        2   -1    0    0  501    0  0.00000000000E+00  0.00000000000E+00  0.16288391835E+04  0.16288391835E+04  0.25500000920E-02 0. -1.
       -2   -1    0    0    0  501  0.00000000000E+00  0.00000000000E+00 -0.11218605966E+04  0.11218605966E+04  0.25500000920E-02 0.  1.
    10030    2    1    2    0    0  0.00000000000E+00  0.00000000000E+00  0.50697858692E+03  0.27506997801E+04  0.27035757790E+04 0.  0.
        3    1    3    3  502    0 -0.70672148100E+03 -0.28363777789E+03 -0.88285998613E+03  0.11659105481E+04  0.10100000352E+00 0.  1.
       -3    1    3    3    0  502  0.70672148100E+03  0.28363777789E+03  0.13898385730E+04  0.15847892321E+04  0.10100000352E+00 0. -1.
</event>
<event>
 5   0  0.4448804E-06  0.2698507E+04  0.7818609E-02  0.8335490E-01
        2   -1    0    0  501    0  0.00000000000E+00  0.00000000000E+00  0.19470040038E+04  0.19470040038E+04  0.25500000920E-02 0. -1.
       -2   -1    0    0    0  501  0.00000000000E+00  0.00000000000E+00 -0.93501872258E+03  0.93501872259E+03  0.25500000920E-02 0.  1.
    10030    2    1    2    0    0  0.00000000000E+00  0.00000000000E+00  0.10119852812E+04  0.28820227264E+04  0.26985071403E+04 0.  0.
        2    1    3    3  502    0 -0.30068261467E+03 -0.71015092916E+03 -0.67644078286E+03  0.10258150465E+04  0.25500000920E-02 0.  1.
       -2    1    3    3    0  502  0.30068261467E+03  0.71015092916E+03  0.16884260641E+04  0.18562076799E+04  0.25500000920E-02 0. -1.
</event>
<event>
 5   0  0.4448804E-06  0.2508949E+04  0.7818609E-02  0.8399804E-01
        2   -1    0    0  501    0  0.00000000000E+00  0.00000000000E+00  0.18839446571E+04  0.18839446571E+04  0.25500000920E-02 0. -1.
       -2   -1    0    0    0  501  0.00000000000E+00  0.00000000000E+00 -0.83532506363E+03  0.83532506363E+03  0.25500000920E-02 0.  1.
    10030    2    1    2    0    0  0.00000000000E+00  0.00000000000E+00  0.10486195935E+04  0.27192697208E+04  0.25089489358E+04 0.  0.
        2    1    3    3  502    0  0.14591978692E+03  0.42358265472E+02  0.18739346553E+04  0.18800845457E+04  0.25500000920E-02 0. -1.
       -2    1    3    3    0  502 -0.14591978692E+03 -0.42358265472E+02 -0.82531506175E+03  0.83918517505E+03  0.25500000920E-02 0.  1.
</event>
<event>
 5   0  0.4439357E-06  0.2698478E+04  0.7818609E-02  0.8335499E-01
        2   -1    0    0  501    0  0.00000000000E+00  0.00000000000E+00  0.17022137876E+04  0.17022137876E+04  0.25500000920E-02 0.  1.
       -2   -1    0    0    0  501  0.00000000000E+00  0.00000000000E+00 -0.10694580456E+04  0.10694580456E+04  0.25500000920E-02 0. -1.
    10030    2    1    2    0    0  0.00000000000E+00  0.00000000000E+00  0.63275574205E+03  0.27716718332E+04  0.26984782604E+04 0.  0.
        4    1    3    3  502    0 -0.55587749718E+03  0.85294381427E+03 -0.59303687332E+03  0.11782220878E+04  0.12699999809E+01 0. -1.
       -4    1    3    3    0  502  0.55587749718E+03 -0.85294381427E+03  0.12257926154E+04  0.15934497454E+04  0.12699999809E+01 0.  1.
</event>
<event>
 5   0  0.4401659E-06  0.2709478E+04  0.7818609E-02  0.8331936E-01
        2   -1    0    0  501    0  0.00000000000E+00  0.00000000000E+00  0.18970563257E+04  0.18970563257E+04  0.25500000920E-02 0.  1.
       -2   -1    0    0    0  501  0.00000000000E+00  0.00000000000E+00 -0.96745527677E+03  0.96745527677E+03  0.25500000920E-02 0. -1.
    10030    2    1    2    0    0  0.00000000000E+00  0.00000000000E+00  0.92960104896E+03  0.28645116025E+04  0.27094775531E+04 0.  0.
        5    1    3    3  502    0 -0.13000254546E+04 -0.34208710743E+03  0.64235446743E+03  0.14898762108E+04  0.46999998093E+01 0. -1.
       -5    1    3    3    0  502  0.13000254546E+04  0.34208710743E+03  0.28724658154E+03  0.13746353917E+04  0.46999998093E+01 0.  1.
</event>
<event>
 5   0  0.4401659E-06  0.2674797E+04  0.7818609E-02  0.8343229E-01
        2   -1    0    0  501    0  0.00000000000E+00  0.00000000000E+00  0.90561324207E+03  0.90561324207E+03  0.25500000920E-02 0.  1.
       -2   -1    0    0    0  501  0.00000000000E+00  0.00000000000E+00 -0.19750543177E+04  0.19750543177E+04  0.25500000920E-02 0. -1.
    10030    2    1    2    0    0  0.00000000000E+00  0.00000000000E+00 -0.10694410756E+04  0.28806675597E+04  0.26747974457E+04 0.  0.
        5    1    3    3  502    0 -0.50131825965E+03  0.10639879971E+04 -0.12202863907E+04  0.16948484949E+04  0.46999998093E+01 0. -1.
       -5    1    3    3    0  502  0.50131825965E+03 -0.10639879971E+04  0.15084531508E+03  0.11858190648E+04  0.46999998093E+01 0.  1.
</event>
<event>
 5   0  0.4487186E-06  0.2700572E+04  0.7818609E-02  0.8334819E-01
       -2   -1    0    0    0  501  0.00000000000E+00  0.00000000000E+00  0.70610063408E+03  0.70610063409E+03  0.25500000920E-02 0. -1.
        2   -1    0    0  501    0  0.00000000000E+00  0.00000000000E+00 -0.25821704718E+04  0.25821704718E+04  0.25500000920E-02 0.  1.
    10030    2    1    2    0    0  0.00000000000E+00  0.00000000000E+00 -0.18760698377E+04  0.32882711059E+04  0.27005719449E+04 0.  0.
        3    1    3    3  502    0  0.17501244041E+03 -0.13372653721E+04 -0.10184731618E+04  0.16900282901E+04  0.10100000352E+00 0.  1.
       -3    1    3    3    0  502 -0.17501244041E+03  0.13372653721E+04 -0.85759667586E+03  0.15982428158E+04  0.10100000352E+00 0. -1.
</event>
<event>
 5   0  0.1723605E-06  0.2691017E+04  0.7818609E-02  0.8337925E-01
        1   -1    0    0  501    0  0.00000000000E+00  0.00000000000E+00  0.11590697476E+04  0.11590697477E+04  0.50400001928E-02 0. -1.
       -1   -1    0    0    0  501  0.00000000000E+00  0.00000000000E+00 -0.15619365096E+04  0.15619365096E+04  0.50400001928E-02 0.  1.
    10030    2    1    2    0    0  0.00000000000E+00  0.00000000000E+00 -0.40286676191E+03  0.27210062572E+04  0.26910171727E+04 0.  0.
        1    1    3    3  502    0  0.96315684893E+02  0.10648064356E+04  0.62455683419E+03  0.12382086640E+04  0.50400001928E-02 0. -1.
       -1    1    3    3    0  502 -0.96315684893E+02 -0.10648064356E+04 -0.10274235961E+04  0.14827975932E+04  0.50400001928E-02 0.  1.
</event>
<event>
 5   0  0.1723605E-06  0.2693868E+04  0.7818609E-02  0.8336997E-01
        1   -1    0    0  501    0  0.00000000000E+00  0.00000000000E+00  0.22732508497E+04  0.22732508497E+04  0.50400001928E-02 0. -1.
       -1   -1    0    0    0  501  0.00000000000E+00  0.00000000000E+00 -0.79807808695E+03  0.79807808697E+03  0.50400001928E-02 0.  1.
    10030    2    1    2    0    0  0.00000000000E+00  0.00000000000E+00  0.14751727628E+04  0.30713289367E+04  0.26938683630E+04 0.  0.
        1    1    3    3  502    0  0.81025531440E+03  0.36068444482E+03  0.18933452603E+04  0.20907805284E+04  0.50400001928E-02 0. -1.
       -1    1    3    3    0  502 -0.81025531440E+03 -0.36068444482E+03 -0.41817249754E+03  0.98054840828E+03  0.50400001928E-02 0.  1.
</event>
<event>
 5   0  0.4448804E-06  0.2691368E+04  0.7818609E-02  0.8337811E-01
        2   -1    0    0  501    0  0.00000000000E+00  0.00000000000E+00  0.14611061164E+04  0.14611061164E+04  0.25500000920E-02 0.  1.
       -2   -1    0    0    0  501  0.00000000000E+00  0.00000000000E+00 -0.12393798423E+04  0.12393798423E+04  0.25500000920E-02 0. -1.
    10030    2    1    2    0    0  0.00000000000E+00  0.00000000000E+00  0.22172627411E+03  0.27004859587E+04  0.26913680299E+04 0.  0.
        2    1    3    3  502    0 -0.65213044183E+03 -0.63517692983E+03 -0.88352490383E+03  0.12685976908E+04  0.25500000920E-02 0. -1.
       -2    1    3    3    0  502  0.65213044183E+03  0.63517692983E+03  0.11052511779E+04  0.14318882679E+04  0.25500000920E-02 0.  1.
</event>
<event>
 5   0  0.4439357E-06  0.2707318E+04  0.7818609E-02  0.8332635E-01
        2   -1    0    0  501    0  0.00000000000E+00  0.00000000000E+00  0.22011577447E+04  0.22011577447E+04  0.25500000920E-02 0. -1.
       -2   -1    0    0    0  501  0.00000000000E+00  0.00000000000E+00 -0.83246754685E+03  0.83246754686E+03  0.25500000920E-02 0.  1.
    10030    2    1    2    0    0  0.00000000000E+00  0.00000000000E+00  0.13686901978E+04  0.30336252915E+04  0.27073177781E+04 0.  0.
        4    1    3    3  502    0 -0.74696511658E+03 -0.73066991674E+02  0.19466660363E+04  0.20863379257E+04  0.12699999809E+01 0. -1.
       -4    1    3    3    0  502  0.74696511658E+03  0.73066991674E+02 -0.57797583846E+03  0.94728736580E+03  0.12699999809E+01 0.  1.
</event>
<event>
 5   0  0.1732312E-06  0.2701704E+04  0.7818609E-02  0.8334452E-01
       -1   -1    0    0    0  501  0.00000000000E+00  0.00000000000E+00  0.95735242050E+03  0.95735242051E+03  0.50400001928E-02 0.  1.
        1   -1    0    0  501    0  0.00000000000E+00  0.00000000000E+00 -0.19060913702E+04  0.19060913702E+04  0.50400001928E-02 0. -1.
    10030    2    1    2    0    0  0.00000000000E+00  0.00000000000E+00 -0.94873894970E+03  0.28634437907E+04  0.27017040452E+04 0.  0.
        5    1    3    3  502    0 -0.64230318624E+03 -0.75396121997E+03  0.49918994727E+03  0.11091544517E+04  0.46999998093E+01 0.  1.
       -5    1    3    3    0  502  0.64230318624E+03  0.75396121997E+03 -0.14479288970E+04  0.17542893390E+04  0.46999998093E+01 0. -1.
</event>
<event>
 5   0  0.4655882E-06  0.2714739E+04  0.7818609E-02  0.8330239E-01
        2   -1    0    0  501    0  0.00000000000E+00  0.00000000000E+00  0.96512157441E+03  0.96512157442E+03  0.25500000920E-02 0.  1.
       -2   -1    0    0    0  501  0.00000000000E+00  0.00000000000E+00 -0.19090358493E+04  0.19090358493E+04  0.25500000920E-02 0. -1.
    10030    2    1    2    0    0  0.00000000000E+00  0.00000000000E+00 -0.94391427486E+03  0.28741574237E+04  0.27147387974E+04 0.  0.
        1    1    3    3  502    0 -0.45609875348E+03 -0.95687436930E+03 -0.13695754162E+04  0.17318693520E+04  0.50400001928E-02 0. -1.
       -1    1    3    3    0  502  0.45609875348E+03  0.95687436930E+03  0.42566114134E+03  0.11422880717E+04  0.50400001928E-02 0.  1.
</event>
<event>
 5   0  0.1732312E-06  0.2709447E+04  0.7818609E-02  0.8331946E-01
        1   -1    0    0  501    0  0.00000000000E+00  0.00000000000E+00  0.13417186042E+04  0.13417186043E+04  0.50400001928E-02 0. -1.
       -1   -1    0    0    0  501  0.00000000000E+00  0.00000000000E+00 -0.13678545722E+04  0.13678545722E+04  0.50400001928E-02 0.  1.
    10030    2    1    2    0    0  0.00000000000E+00  0.00000000000E+00 -0.26135967987E+02  0.27095731765E+04  0.27094471226E+04 0.  0.
        5    1    3    3  502    0 -0.81104119808E+03 -0.10849506119E+04 -0.31728495789E+02  0.13549665836E+04  0.46999998093E+01 0. -1.
       -5    1    3    3    0  502  0.81104119808E+03  0.10849506119E+04  0.55925278027E+01  0.13546065929E+04  0.46999998093E+01 0.  1.
</event>
<event>
 5   0  0.1828511E-06  0.2692952E+04  0.7818609E-02  0.8337295E-01
       -1   -1    0    0    0  501  0.00000000000E+00  0.00000000000E+00  0.11603010509E+04  0.11603010509E+04  0.50400001928E-02 0. -1.
        1   -1    0    0  501    0  0.00000000000E+00  0.00000000000E+00 -0.15625234586E+04  0.15625234586E+04  0.50400001928E-02 0.  1.
    10030    2    1    2    0    0  0.00000000000E+00  0.00000000000E+00 -0.40222240769E+03  0.27228245095E+04  0.26929519944E+04 0.  0.
        4    1    3    3  502    0  0.32128203895E+03 -0.12212835362E+04  0.27123299755E+03  0.12916363947E+04  0.12699999809E+01 0. -1.
       -4    1    3    3    0  502 -0.32128203895E+03  0.12212835362E+04 -0.67345540523E+03  0.14311881148E+04  0.12699999809E+01 0.  1.
</event>
<event>
 5   0  0.1723605E-06  0.2696378E+04  0.7818609E-02  0.8336181E-01
       -1   -1    0    0    0  501  0.00000000000E+00  0.00000000000E+00  0.13540169986E+04  0.13540169986E+04  0.50400001928E-02 0.  1.
        1   -1    0    0  501    0  0.00000000000E+00  0.00000000000E+00 -0.13423857203E+04  0.13423857204E+04  0.50400001928E-02 0. -1.
    10030    2    1    2    0    0  0.00000000000E+00  0.00000000000E+00  0.11631278245E+02  0.26964027189E+04  0.26963776323E+04 0.  0.
        1    1    3    3  502    0 -0.11276936067E+04  0.68830315101E+03  0.27444238482E+03  0.13493601153E+04  0.50400001928E-02 0. -1.
       -1    1    3    3    0  502  0.11276936067E+04 -0.68830315101E+03 -0.26281110657E+03  0.13470426036E+04  0.50400001928E-02 0.  1.
</event>
<event>
 5   0  0.1723605E-06  0.2691677E+04  0.7818609E-02  0.8337711E-01
        1   -1    0    0  501    0  0.00000000000E+00  0.00000000000E+00  0.16524495746E+04  0.16524495746E+04  0.50400001928E-02 0.  1.
       -1   -1    0    0    0  501  0.00000000000E+00  0.00000000000E+00 -0.10961188214E+04  0.10961188214E+04  0.50400001928E-02 0. -1.
    10030    2    1    2    0    0  0.00000000000E+00  0.00000000000E+00  0.55633075321E+03  0.27485683961E+04  0.26916768604E+04 0.  0.
        1    1    3    3  502    0 -0.99244861056E+03 -0.20569446752E+01 -0.65007070122E+03  0.11864022894E+04  0.50400001928E-02 0. -1.
       -1    1    3    3    0  502  0.99244861056E+03  0.20569446752E+01  0.12064014544E+04  0.15621661067E+04  0.50400001928E-02 0.  1.
</event>
<event>
 5   0  0.1723605E-06  0.2694293E+04  0.7818609E-02  0.8336859E-01
       -1   -1    0    0    0  501  0.00000000000E+00  0.00000000000E+00  0.15598688473E+04  0.15598688473E+04  0.50400001928E-02 0. -1.
        1   -1    0    0  501    0  0.00000000000E+00  0.00000000000E+00 -0.11634334534E+04  0.11634334534E+04  0.50400001928E-02 0.  1.
    10030    2    1    2    0    0  0.00000000000E+00  0.00000000000E+00  0.39643539393E+03  0.27233023008E+04  0.26942929313E+04 0.  0.
        1    1    3    3  502    0 -0.10537206311E+04 -0.82147410533E+03  0.24152221255E+02  0.13363121656E+04  0.50400001928E-02 0.  1.
       -1    1    3    3    0  502  0.10537206311E+04  0.82147410533E+03  0.37228317267E+03  0.13869901351E+04  0.50400001928E-02 0. -1.
</event>
<event>
 5   0  0.1771016E-06  0.2709612E+04  0.7818609E-02  0.8331893E-01
        1   -1    0    0  501    0  0.00000000000E+00  0.00000000000E+00  0.22492426574E+04  0.22492426575E+04  0.50400001928E-02 0. -1.
       -1   -1    0    0    0  501  0.00000000000E+00  0.00000000000E+00 -0.81605204365E+03  0.81605204367E+03  0.50400001928E-02 0.  1.
    10030    2    1    2    0    0  0.00000000000E+00  0.00000000000E+00  0.14331906138E+04  0.30652947011E+04  0.27096118300E+04 0.  0.
        2    1    3    3  502    0 -0.71871155759E+03  0.10401723604E+04  0.12673193491E+04  0.17901405462E+04  0.25500000920E-02 0. -1.
       -2    1    3    3    0  502  0.71871155759E+03 -0.10401723604E+04  0.16587126468E+03  0.12751541549E+04  0.25500000920E-02 0.  1.
</event>
<event>
 5   0  0.1732312E-06  0.2695942E+04  0.7818609E-02  0.8336323E-01
        1   -1    0    0  501    0  0.00000000000E+00  0.00000000000E+00  0.10457137377E+04  0.10457137377E+04  0.50400001928E-02 0.  1.
       -1   -1    0    0    0  501  0.00000000000E+00  0.00000000000E+00 -0.17375938979E+04  0.17375938979E+04  0.50400001928E-02 0. -1.
    10030    2    1    2    0    0  0.00000000000E+00  0.00000000000E+00 -0.69188016021E+03  0.27833076355E+04  0.26959419946E+04 0.  0.
        5    1    3    3  502    0 -0.10611885954E+04  0.75271668447E+03 -0.70992749415E+03  0.14821345347E+04  0.46999998093E+01 0. -1.
       -5    1    3    3    0  502  0.10611885954E+04 -0.75271668447E+03  0.18047333946E+02  0.13011731008E+04  0.46999998093E+01 0.  1.
</event>
<event>
 5   0  0.4487186E-06  0.2704438E+04  0.7818609E-02  0.8333566E-01
       -2   -1    0    0    0  501  0.00000000000E+00  0.00000000000E+00  0.13027186187E+04  0.13027186187E+04  0.25500000920E-02 0.  1.
        2   -1    0    0  501    0  0.00000000000E+00  0.00000000000E+00 -0.14036001840E+04  0.14036001840E+04  0.25500000920E-02 0. -1.
    10030    2    1    2    0    0  0.00000000000E+00  0.00000000000E+00 -0.10088156534E+03  0.27063188027E+04  0.27044379031E+04 0.  0.
        3    1    3    3  502    0  0.13151447671E+04  0.24883710644E+03  0.14196987535E+03  0.13459870430E+04  0.10100000352E+00 0. -1.
       -3    1    3    3    0  502 -0.13151447671E+04 -0.24883710644E+03 -0.24285144069E+03  0.13603317597E+04  0.10100000352E+00 0.  1.
</event>
<event>
 5   0  0.1753474E-06  0.2699492E+04  0.7818609E-02  0.8335170E-01
       -1   -1    0    0    0  501  0.00000000000E+00  0.00000000000E+00  0.95556350733E+03  0.95556350734E+03  0.50400001928E-02 0. -1.
        1   -1    0    0  501    0  0.00000000000E+00  0.00000000000E+00 -0.19065332603E+04  0.19065332604E+04  0.50400001928E-02 0.  1.
    10030    2    1    2    0    0  0.00000000000E+00  0.00000000000E+00 -0.95096975302E+03  0.28620967677E+04  0.26994915144E+04 0.  0.
        3    1    3    3  502    0 -0.17057625213E+03  0.38045144733E+03 -0.18365456866E+04  0.18832789573E+04  0.10100000352E+00 0.  1.
       -3    1    3    3    0  502  0.17057625213E+03 -0.38045144733E+03  0.88557593363E+03  0.97881781042E+03  0.10100000352E+00 0. -1.
</event>
<event>
 5   0  0.1771016E-06  0.2701270E+04  0.7818609E-02  0.8334593E-01
        1   -1    0    0  501    0  0.00000000000E+00  0.00000000000E+00  0.16061346172E+04  0.16061346172E+04  0.50400001928E-02 0. -1.
       -1   -1    0    0    0  501  0.00000000000E+00  0.00000000000E+00 -0.11357799860E+04  0.11357799860E+04  0.50400001928E-02 0.  1.
    10030    2    1    2    0    0  0.00000000000E+00  0.00000000000E+00  0.47035463118E+03  0.27419146032E+04  0.27012704812E+04 0.  0.
        2    1    3    3  502    0  0.60690915839E+03  0.47291251595E+03  0.13619384097E+04  0.15642446120E+04  0.25500000920E-02 0. -1.
       -2    1    3    3    0  502 -0.60690915839E+03 -0.47291251595E+03 -0.89158377850E+03  0.11776699913E+04  0.25500000920E-02 0.  1.
</event>
<event>
 5   0  0.4401659E-06  0.2573362E+04  0.7818609E-02  0.8377306E-01
        2   -1    0    0  501    0  0.00000000000E+00  0.00000000000E+00  0.17512071451E+04  0.17512071452E+04  0.25500000920E-02 0.  1.
       -2   -1    0    0    0  501  0.00000000000E+00  0.00000000000E+00 -0.94537537185E+03  0.94537537186E+03  0.25500000920E-02 0. -1.
    10030    2    1    2    0    0  0.00000000000E+00  0.00000000000E+00  0.80583177330E+03  0.26965825170E+04  0.25733620857E+04 0.  0.
        5    1    3    3  502    0  0.60249408540E+03  0.96443386281E+03  0.10337329699E+04  0.15368011393E+04  0.46999998093E+01 0.  1.
       -5    1    3    3    0  502 -0.60249408540E+03 -0.96443386281E+03 -0.22790119661E+03  0.11597813777E+04  0.46999998093E+01 0. -1.
</event>
<event>
 5   0  0.4487186E-06  0.2700658E+04  0.7818609E-02  0.8334792E-01
        2   -1    0    0  501    0  0.00000000000E+00  0.00000000000E+00  0.16389057681E+04  0.16389057681E+04  0.25500000920E-02 0. -1.
       -2   -1    0    0    0  501  0.00000000000E+00  0.00000000000E+00 -0.11125644236E+04  0.11125644236E+04  0.25500000920E-02 0.  1.
    10030    2    1    2    0    0  0.00000000000E+00  0.00000000000E+00  0.52634134454E+03  0.27514701917E+04  0.27006578837E+04 0.  0.
        3    1    3    3  502    0  0.78240571971E+03  0.10756246867E+04  0.50049343418E+03  0.14211336548E+04  0.10100000352E+00 0. -1.
       -3    1    3    3    0  502 -0.78240571971E+03 -0.10756246867E+04  0.25847910358E+02  0.13303365369E+04  0.10100000352E+00 0.  1.
</event>
<event>
 5   0  0.1723605E-06  0.2701736E+04  0.7818609E-02  0.8334442E-01
       -1   -1    0    0    0  501  0.00000000000E+00  0.00000000000E+00  0.11024921714E+04  0.11024921714E+04  0.50400001928E-02 0.  1.
        1   -1    0    0  501    0  0.00000000000E+00  0.00000000000E+00 -0.16551988179E+04  0.16551988179E+04  0.50400001928E-02 0. -1.
    10030    2    1    2    0    0  0.00000000000E+00  0.00000000000E+00 -0.55270664642E+03  0.27576909893E+04  0.27017355451E+04 0.  0.
        1    1    3    3  502    0 -0.96042124866E+03  0.71574016212E+03  0.36120365807E+03  0.12510639621E+04  0.50400001928E-02 0.  1.
       -1    1    3    3    0  502  0.96042124866E+03 -0.71574016212E+03 -0.91391030449E+03  0.15066270272E+04  0.50400001928E-02 0. -1.
</event>
<event>
 5   0  0.4439357E-06  0.2706089E+04  0.7818609E-02  0.8333032E-01
       -2   -1    0    0    0  501  0.00000000000E+00  0.00000000000E+00  0.17482097144E+04  0.17482097144E+04  0.25500000920E-02 0.  1.
        2   -1    0    0  501    0  0.00000000000E+00  0.00000000000E+00 -0.10472024431E+04  0.10472024431E+04  0.25500000920E-02 0. -1.
    10030    2    1    2    0    0  0.00000000000E+00  0.00000000000E+00  0.70100727136E+03  0.27954121575E+04  0.27060890480E+04 0.  0.
        4    1    3    3  502    0 -0.19242176980E+03  0.11968103563E+04 -0.27045949542E+03  0.12419867624E+04  0.12699999809E+01 0. -1.
       -4    1    3    3    0  502  0.19242176980E+03 -0.11968103563E+04  0.97146676678E+03  0.15534253951E+04  0.12699999809E+01 0.  1.
</event>
<event>
 5   0  0.4655882E-06  0.2687825E+04  0.7818609E-02  0.8338966E-01
        2   -1    0    0  501    0  0.00000000000E+00  0.00000000000E+00  0.11971172861E+04  0.11971172861E+04  0.25500000920E-02 0. -1.
       -2   -1    0    0    0  501  0.00000000000E+00  0.00000000000E+00 -0.15087077883E+04  0.15087077883E+04  0.25500000920E-02 0.  1.
    10030    2    1    2    0    0  0.00000000000E+00  0.00000000000E+00 -0.31159050225E+03  0.27058250744E+04  0.26878245278E+04 0.  0.
        1    1    3    3  502    0  0.38626907463E+03 -0.97968085093E+03  0.68473459224E+03  0.12561209454E+04  0.50400001928E-02 0. -1.
       -1    1    3    3    0  502 -0.38626907463E+03  0.97968085093E+03 -0.99632509449E+03  0.14497041290E+04  0.50400001928E-02 0.  1.
</event>
<event>
 5   0  0.4487186E-06  0.2713089E+04  0.7818609E-02  0.8330770E-01
       -2   -1    0    0    0  501  0.00000000000E+00  0.00000000000E+00  0.12288634959E+04  0.12288634959E+04  0.25500000920E-02 0.  1.
        2   -1    0    0  501    0  0.00000000000E+00  0.00000000000E+00 -0.14974920483E+04  0.14974920483E+04  0.25500000920E-02 0. -1.
    10030    2    1    2    0    0  0.00000000000E+00  0.00000000000E+00 -0.26862855235E+03  0.27263555442E+04  0.27130892455E+04 0.  0.
        3    1    3    3  502    0 -0.71310443927E+03 -0.10172115739E+04 -0.68193398610E+03  0.14171348909E+04  0.10100000352E+00 0. -1.
       -3    1    3    3    0  502  0.71310443927E+03  0.10172115739E+04  0.41330543375E+03  0.13092206533E+04  0.10100000352E+00 0.  1.
</event>
<event>
 5   0  0.1732312E-06  0.2696501E+04  0.7818609E-02  0.8336141E-01
        1   -1    0    0  501    0  0.00000000000E+00  0.00000000000E+00  0.70332924299E+03  0.70332924300E+03  0.50400001928E-02 0. -1.
       -1   -1    0    0    0  501  0.00000000000E+00  0.00000000000E+00 -0.25845355944E+04  0.25845355944E+04  0.50400001928E-02 0.  1.
    10030    2    1    2    0    0  0.00000000000E+00  0.00000000000E+00 -0.18812063514E+04  0.32878648374E+04  0.26965010389E+04 0.  0.
        5    1    3    3  502    0  0.48562002365E+03  0.79940657468E+03  0.24336902410E+03  0.96650310445E+03  0.46999998093E+01 0. -1.
       -5    1    3    3    0  502 -0.48562002365E+03 -0.79940657468E+03 -0.21245753755E+04  0.23213617330E+04  0.46999998093E+01 0.  1.
</event>
<event>
 5   0  0.1771016E-06  0.2685632E+04  0.7818609E-02  0.8339682E-01
       -1   -1    0    0    0  501  0.00000000000E+00  0.00000000000E+00  0.98467256924E+03  0.98467256925E+03  0.50400001928E-02 0.  1.
        1   -1    0    0  501    0  0.00000000000E+00  0.00000000000E+00 -0.18312227706E+04  0.18312227706E+04  0.50400001928E-02 0. -1.
    10030    2    1    2    0    0  0.00000000000E+00  0.00000000000E+00 -0.84655020140E+03  0.28158953399E+04  0.26856320153E+04 0.  0.
        2    1    3    3  502    0 -0.81158323992E+02  0.58550569615E+03  0.84092276325E+03  0.10278884607E+04  0.25500000920E-02 0.  1.
       -2    1    3    3    0  502  0.81158323992E+02 -0.58550569615E+03 -0.16874729647E+04  0.17880068792E+04  0.25500000920E-02 0. -1.
</event>
<event>
 5   0  0.1753474E-06  0.2703231E+04  0.7818609E-02  0.8333957E-01
        1   -1    0    0  501    0  0.00000000000E+00  0.00000000000E+00  0.20313295818E+04  0.20313295818E+04  0.50400001928E-02 0. -1.
       -1   -1    0    0    0  501  0.00000000000E+00  0.00000000000E+00 -0.89934433524E+03  0.89934433525E+03  0.50400001928E-02 0.  1.
    10030    2    1    2    0    0  0.00000000000E+00  0.00000000000E+00  0.11319852466E+04  0.29306739171E+04  0.27032312165E+04 0.  0.
        3    1    3    3  502    0 -0.33629319012E+03  0.46087167068E+03 -0.76240478024E+03  0.95223781993E+03  0.10100000352E+00 0.  1.
       -3    1    3    3    0  502  0.33629319012E+03 -0.46087167068E+03  0.18943900268E+04  0.19784360971E+04  0.10100000352E+00 0. -1.
</event>
<event>
 5   0  0.4448804E-06  0.2695307E+04  0.7818609E-02  0.8336529E-01
        2   -1    0    0  501    0  0.00000000000E+00  0.00000000000E+00  0.21578300176E+04  0.21578300176E+04  0.25500000920E-02 0.  1.
       -2   -1    0    0    0  501  0.00000000000E+00  0.00000000000E+00 -0.84166513781E+03  0.84166513781E+03  0.25500000920E-02 0. -1.
    10030    2    1    2    0    0  0.00000000000E+00  0.00000000000E+00  0.13161648798E+04  0.29994951554E+04  0.26953072546E+04 0.  0.
        2    1    3    3  502    0 -0.99174544306E+03 -0.24255065579E+03 -0.32084107821E+03  0.10702003747E+04  0.25500000920E-02 0. -1.
       -2    1    3    3    0  502  0.99174544306E+03  0.24255065579E+03  0.16370059580E+04  0.19292947807E+04  0.25500000920E-02 0.  1.
</event>
<event>
 5   0  0.4439357E-06  0.2697653E+04  0.7818609E-02  0.8335767E-01
       -2   -1    0    0    0  501  0.00000000000E+00  0.00000000000E+00  0.83646310699E+03  0.83646310700E+03  0.25500000920E-02 0. -1.
        2   -1    0    0  501    0  0.00000000000E+00  0.00000000000E+00 -0.21750314817E+04  0.21750314817E+04  0.25500000920E-02 0.  1.
    10030    2    1    2    0    0  0.00000000000E+00  0.00000000000E+00 -0.13385683747E+04  0.30114945887E+04  0.26976534922E+04 0.  0.
        4    1    3    3  502    0  0.29926487350E+03  0.69543792335E+03 -0.19154593704E+04  0.20596552096E+04  0.12699999809E+01 0.  1.
       -4    1    3    3    0  502 -0.29926487350E+03 -0.69543792335E+03  0.57689099572E+03  0.95183937910E+03  0.12699999809E+01 0. -1.
</event>
<event>
 5   0  0.1771016E-06  0.2700922E+04  0.7818609E-02  0.8334706E-01
       -1   -1    0    0    0  501  0.00000000000E+00  0.00000000000E+00  0.14626356279E+04  0.14626356279E+04  0.50400001928E-02 0.  1.
        1   -1    0    0  501    0  0.00000000000E+00  0.00000000000E+00 -0.12468894186E+04  0.12468894186E+04  0.50400001928E-02 0. -1.
    10030    2    1    2    0    0  0.00000000000E+00  0.00000000000E+00  0.21574620928E+03  0.27095250465E+04  0.27009219816E+04 0.  0.
        2    1    3    3  502    0  0.93363219405E+03  0.21861736760E+03 -0.84609342195E+03  0.12788028409E+04  0.25500000920E-02 0. -1.
       -2    1    3    3    0  502 -0.93363219405E+03 -0.21861736760E+03  0.10618396312E+04  0.14307222056E+04  0.25500000920E-02 0.  1.
</event>
<event>
 5   0  0.1732312E-06  0.2701467E+04  0.7818609E-02  0.8334529E-01
       -1   -1    0    0    0  501  0.00000000000E+00  0.00000000000E+00  0.10964303647E+04  0.10964303647E+04  0.50400001928E-02 0. -1.
        1   -1    0    0  501    0  0.00000000000E+00  0.00000000000E+00 -0.16640188404E+04  0.16640188404E+04  0.50400001928E-02 0.  1.
    10030    2    1    2    0    0  0.00000000000E+00  0.00000000000E+00 -0.56758847566E+03  0.27604492051E+04  0.27014668490E+04 0.  0.
        5    1    3    3  502    0  0.75297835965E+03 -0.32168051063E+03 -0.13814944854E+04  0.16059277269E+04  0.46999998093E+01 0.  1.
       -5    1    3    3    0  502 -0.75297835965E+03  0.32168051063E+03  0.81390600969E+03  0.11545214782E+04  0.46999998093E+01 0. -1.
</event>
<event>
 5   0  0.1771016E-06  0.2682190E+04  0.7818609E-02  0.8340807E-01
       -1   -1    0    0    0  501  0.00000000000E+00  0.00000000000E+00  0.94000985623E+03  0.94000985624E+03  0.50400001928E-02 0. -1.
        1   -1    0    0  501    0  0.00000000000E+00  0.00000000000E+00 -0.19133162953E+04  0.19133162953E+04  0.50400001928E-02 0.  1.
    10030    2    1    2    0    0  0.00000000000E+00  0.00000000000E+00 -0.97330643905E+03  0.28533261515E+04  0.26821902808E+04 0.  0.
        2    1    3    3  502    0  0.57300181243E+03  0.86268452257E+03 -0.13930624386E+04  0.17358509788E+04  0.25500000920E-02 0.  1.
       -2    1    3    3    0  502 -0.57300181243E+03 -0.86268452257E+03  0.41975599959E+03  0.11174751728E+04  0.25500000920E-02 0. -1.
</event>
<event>
 5   0  0.4448804E-06  0.2709097E+04  0.7818609E-02  0.8332059E-01
       -2   -1    0    0    0  501  0.00000000000E+00  0.00000000000E+00  0.12017277787E+04  0.12017277787E+04  0.25500000920E-02 0.  1.
        2   -1    0    0  501    0  0.00000000000E+00  0.00000000000E+00 -0.15268033442E+04  0.15268033442E+04  0.25500000920E-02 0. -1.
    10030    2    1    2    0    0  0.00000000000E+00  0.00000000000E+00 -0.32507556554E+03  0.27285311229E+04  0.27090972602E+04 0.  0.
        2    1    3    3  502    0 -0.50963749372E+03 -0.90192006868E+03 -0.10415019057E+04  0.14689848212E+04  0.25500000920E-02 0. -1.
       -2    1    3    3    0  502  0.50963749372E+03  0.90192006868E+03  0.71642634015E+03  0.12595463017E+04  0.25500000920E-02 0.  1.
</event>
<event>
 5   0  0.4487186E-06  0.2704819E+04  0.7818609E-02  0.8333443E-01
        2   -1    0    0  501    0  0.00000000000E+00  0.00000000000E+00  0.17805261768E+04  0.17805261768E+04  0.25500000920E-02 0. -1.
       -2   -1    0    0    0  501  0.00000000000E+00  0.00000000000E+00 -0.10272305101E+04  0.10272305101E+04  0.25500000920E-02 0.  1.
    10030    2    1    2    0    0  0.00000000000E+00  0.00000000000E+00  0.75329566663E+03  0.28077566869E+04  0.27048185247E+04 0.  0.
        3    1    3    3  502    0 -0.12361831920E+04 -0.38222928725E+03  0.78501843853E+03  0.15134404749E+04  0.10100000352E+00 0. -1.
       -3    1    3    3    0  502  0.12361831920E+04  0.38222928725E+03 -0.31722771905E+02  0.12943162120E+04  0.10100000352E+00 0.  1.
</event>
<event>
 5   0  0.4448804E-06  0.2699327E+04  0.7818609E-02  0.8335223E-01
        2   -1    0    0  501    0  0.00000000000E+00  0.00000000000E+00  0.72851120710E+03  0.72851120711E+03  0.25500000920E-02 0. -1.
       -2   -1    0    0    0  501  0.00000000000E+00  0.00000000000E+00 -0.25004302588E+04  0.25004302588E+04  0.25500000920E-02 0.  1.
    10030    2    1    2    0    0  0.00000000000E+00  0.00000000000E+00 -0.17719190517E+04  0.32289414659E+04  0.26993269280E+04 0.  0.
        2    1    3    3  502    0 -0.67553590572E+03 -0.17380474749E+03 -0.22680960647E+04  0.23729341771E+04  0.25500000920E-02 0.  1.
       -2    1    3    3    0  502  0.67553590572E+03  0.17380474749E+03  0.49617701303E+03  0.85600728877E+03  0.25500000920E-02 0. -1.
</event>
<event>
 5   0  0.1753474E-06  0.2688559E+04  0.7818609E-02  0.8338727E-01
       -1   -1    0    0    0  501  0.00000000000E+00  0.00000000000E+00  0.11699614947E+04  0.11699614947E+04  0.50400001928E-02 0.  1.
        1   -1    0    0  501    0  0.00000000000E+00  0.00000000000E+00 -0.15445697062E+04  0.15445697062E+04  0.50400001928E-02 0. -1.
    10030    2    1    2    0    0  0.00000000000E+00  0.00000000000E+00 -0.37460821153E+03  0.27145312009E+04  0.26885587828E+04 0.  0.
        3    1    3    3  502    0  0.67231147883E+03 -0.56828993931E+03 -0.12130568556E+04  0.14988205779E+04  0.10100000352E+00 0. -1.
       -3    1    3    3    0  502 -0.67231147883E+03  0.56828993931E+03  0.83844864410E+03  0.12157106229E+04  0.10100000352E+00 0.  1.
</event>
<event>
 5   0  0.1732312E-06  0.2710379E+04  0.7818609E-02  0.8331645E-01
        1   -1    0    0  501    0  0.00000000000E+00  0.00000000000E+00  0.14580416389E+04  0.14580416389E+04  0.50400001928E-02 0. -1.
       -1   -1    0    0    0  501  0.00000000000E+00  0.00000000000E+00 -0.12595922306E+04  0.12595922306E+04  0.50400001928E-02 0.  1.
    10030    2    1    2    0    0  0.00000000000E+00  0.00000000000E+00  0.19844940825E+03  0.27176338695E+04  0.27103785125E+04 0.  0.
        5    1    3    3  502    0  0.25738822607E+02 -0.10880079529E+04 -0.71045909476E+03  0.12996915049E+04  0.46999998093E+01 0.  1.
       -5    1    3    3    0  502 -0.25738822607E+02  0.10880079529E+04  0.90890850301E+03  0.14179423646E+04  0.46999998093E+01 0. -1.
</event>
<event>
 5   0  0.4401659E-06  0.2708457E+04  0.7818609E-02  0.8332266E-01
        2   -1    0    0  501    0  0.00000000000E+00  0.00000000000E+00  0.21479404243E+04  0.21479404243E+04  0.25500000920E-02 0. -1.
       -2   -1    0    0    0  501  0.00000000000E+00  0.00000000000E+00 -0.85381096965E+03  0.85381096966E+03  0.25500000920E-02 0.  1.
    10030    2    1    2    0    0  0.00000000000E+00  0.00000000000E+00  0.12941294547E+04  0.30017513940E+04  0.27084571966E+04 0.  0.
        5    1    3    3  502    0  0.12686692548E+04 -0.46324171186E+03  0.75677096523E+03  0.15481727763E+04  0.46999998093E+01 0.  1.
       -5    1    3    3    0  502 -0.12686692548E+04  0.46324171186E+03  0.53735848946E+03  0.14535786177E+04  0.46999998093E+01 0. -1.
</event>
<event>
 5   0  0.1732312E-06  0.2696978E+04  0.7818609E-02  0.8335986E-01
        1   -1    0    0  501    0  0.00000000000E+00  0.00000000000E+00  0.19636523926E+04  0.19636523926E+04  0.50400001928E-02 0. -1.
       -1   -1    0    0    0  501  0.00000000000E+00  0.00000000000E+00 -0.92604069604E+03  0.92604069605E+03  0.50400001928E-02 0.  1.
    10030    2    1    2    0    0  0.00000000000E+00  0.00000000000E+00  0.10376116966E+04  0.28896930887E+04  0.26969775887E+04 0.  0.
        5    1    3    3  502    0  0.10144147964E+04  0.51750028322E+03 -0.25498726697E+03  0.11669980800E+04  0.46999998093E+01 0.  1.
       -5    1    3    3    0  502 -0.10144147964E+04 -0.51750028322E+03  0.12925989635E+04  0.17226950087E+04  0.46999998093E+01 0. -1.
</event>
<event>
 5   0  0.1771016E-06  0.2705869E+04  0.7818609E-02  0.8333103E-01
       -1   -1    0    0    0  501  0.00000000000E+00  0.00000000000E+00  0.14687607943E+04  0.14687607943E+04  0.50400001928E-02 0. -1.
        1   -1    0    0  501    0  0.00000000000E+00  0.00000000000E+00 -0.12462424110E+04  0.12462424110E+04  0.50400001928E-02 0.  1.
    10030    2    1    2    0    0  0.00000000000E+00  0.00000000000E+00  0.22251838328E+03  0.27150032053E+04  0.27058691716E+04 0.  0.
        2    1    3    3  502    0 -0.86789752328E+03 -0.24434400658E+03 -0.90084889711E+03  0.12745504462E+04  0.25500000920E-02 0. -1.
       -2    1    3    3    0  502  0.86789752328E+03  0.24434400658E+03  0.11233672804E+04  0.14404527591E+04  0.25500000920E-02 0.  1.
</event>
<event>
 5   0  0.4401659E-06  0.2712642E+04  0.7818609E-02  0.8330915E-01
        2   -1    0    0  501    0  0.00000000000E+00  0.00000000000E+00  0.12569755819E+04  0.12569755819E+04  0.25500000920E-02 0.  1.
       -2   -1    0    0    0  501  0.00000000000E+00  0.00000000000E+00 -0.14635185295E+04  0.14635185296E+04  0.25500000920E-02 0. -1.
    10030    2    1    2    0    0  0.00000000000E+00  0.00000000000E+00 -0.20654294765E+03  0.27204941114E+04  0.27126422951E+04 0.  0.
        5    1    3    3  502    0  0.75543718644E+03 -0.81521704810E+03  0.67635939779E+03  0.13010566103E+04  0.46999998093E+01 0.  1.
       -5    1    3    3    0  502 -0.75543718644E+03  0.81521704810E+03 -0.88290234544E+03  0.14194375012E+04  0.46999998093E+01 0. -1.
</event>
<event>
 5   0  0.1723605E-06  0.2699699E+04  0.7818609E-02  0.8335102E-01
        1   -1    0    0  501    0  0.00000000000E+00  0.00000000000E+00  0.15864681668E+04  0.15864681668E+04  0.50400001928E-02 0.  1.
       -1   -1    0    0    0  501  0.00000000000E+00  0.00000000000E+00 -0.11485224138E+04  0.11485224138E+04  0.50400001928E-02 0. -1.
    10030    2    1    2    0    0  0.00000000000E+00  0.00000000000E+00  0.43794575306E+03  0.27349905806E+04  0.26996994265E+04 0.  0.
        1    1    3    3  502    0  0.25175195097E+02  0.17175994197E+03  0.15751126479E+04  0.15846498420E+04  0.50400001928E-02 0.  1.
       -1    1    3    3    0  502 -0.25175195097E+02 -0.17175994197E+03 -0.11371668949E+04  0.11503407386E+04  0.50400001928E-02 0. -1.
</event>
<event>
 5   0  0.4487186E-06  0.2702127E+04  0.7818609E-02  0.8334315E-01
       -2   -1    0    0    0  501  0.00000000000E+00  0.00000000000E+00  0.12650490404E+04  0.12650490404E+04  0.25500000920E-02 0.  1.
        2   -1    0    0  501    0  0.00000000000E+00  0.00000000000E+00 -0.14429264368E+04  0.14429264368E+04  0.25500000920E-02 0. -1.
    10030    2    1    2    0    0  0.00000000000E+00  0.00000000000E+00 -0.17787739647E+03  0.27079754772E+04  0.27021270912E+04 0.  0.
        3    1    3    3  502    0  0.50618968035E+03 -0.62985852444E+03 -0.11740670466E+04  0.14252660079E+04  0.10100000352E+00 0. -1.
       -3    1    3    3    0  502 -0.50618968035E+03  0.62985852444E+03  0.99618965011E+03  0.12827094692E+04  0.10100000352E+00 0.  1.
</event>
<event>
 5   0  0.4655882E-06  0.2679734E+04  0.7818609E-02  0.8341611E-01
        2   -1    0    0  501    0  0.00000000000E+00  0.00000000000E+00  0.16693004642E+04  0.16693004643E+04  0.25500000920E-02 0. -1.
       -2   -1    0    0    0  501  0.00000000000E+00  0.00000000000E+00 -0.10754468272E+04  0.10754468272E+04  0.25500000920E-02 0.  1.
    10030    2    1    2    0    0  0.00000000000E+00  0.00000000000E+00  0.59385363704E+03  0.27447472915E+04  0.26797342315E+04 0.  0.
        1    1    3    3  502    0 -0.77832383089E+03  0.61194507005E+03  0.12215906827E+04  0.15724339575E+04  0.50400001928E-02 0.  1.
       -1    1    3    3    0  502  0.77832383089E+03 -0.61194507005E+03 -0.62773704568E+03  0.11723133340E+04  0.50400001928E-02 0. -1.
</event>
<event>
 5   0  0.4487186E-06  0.2699533E+04  0.7818609E-02  0.8335156E-01
        2   -1    0    0  501    0  0.00000000000E+00  0.00000000000E+00  0.19681815245E+04  0.19681815245E+04  0.25500000920E-02 0.  1.
       -2   -1    0    0    0  501  0.00000000000E+00  0.00000000000E+00 -0.92566164097E+03  0.92566164097E+03  0.25500000920E-02 0. -1.
    10030    2    1    2    0    0  0.00000000000E+00  0.00000000000E+00  0.10425198835E+04  0.28938431655E+04  0.26995333965E+04 0.  0.
        3    1    3    3  502    0  0.27080324671E+03  0.12423395005E+04  0.10067709404E+04  0.16218290814E+04  0.10100000352E+00 0. -1.
       -3    1    3    3    0  502 -0.27080324671E+03 -0.12423395005E+04  0.35748943169E+02  0.12720140840E+04  0.10100000352E+00 0.  1.
</event>
<event>
 5   0  0.1771016E-06  0.2716121E+04  0.7818609E-02  0.8329793E-01
       -1   -1    0    0    0  501  0.00000000000E+00  0.00000000000E+00  0.11130039350E+04  0.11130039350E+04  0.50400001928E-02 0.  1.
        1   -1    0    0  501    0  0.00000000000E+00  0.00000000000E+00 -0.16570730148E+04  0.16570730148E+04  0.50400001928E-02 0. -1.
    10030    2    1    2    0    0  0.00000000000E+00  0.00000000000E+00 -0.54406907978E+03  0.27700769498E+04  0.27161213419E+04 0.  0.
        2    1    3    3  502    0  0.10523111186E+04  0.80310582406E+03 -0.58135998392E+03  0.14457928917E+04  0.25500000920E-02 0. -1.
       -2    1    3    3    0  502 -0.10523111186E+04 -0.80310582406E+03  0.37290904131E+02  0.13242840580E+04  0.25500000920E-02 0.  1.
</event>
<event>
 5   0  0.4439357E-06  0.2699716E+04  0.7818609E-02  0.8335097E-01
       -2   -1    0    0    0  501  0.00000000000E+00  0.00000000000E+00  0.19404236641E+04  0.19404236641E+04  0.25500000920E-02 0.  1.
        2   -1    0    0  501    0  0.00000000000E+00  0.00000000000E+00 -0.93903023109E+03  0.93903023109E+03  0.25500000920E-02 0. -1.
    10030    2    1    2    0    0  0.00000000000E+00  0.00000000000E+00  0.10013934330E+04  0.28794538952E+04  0.26997158975E+04 0.  0.
        4    1    3    3  502    0 -0.13115687815E+04 -0.15973726081E+03  0.20591568102E+03  0.13372103581E+04  0.12699999809E+01 0. -1.
       -4    1    3    3    0  502  0.13115687815E+04  0.15973726081E+03  0.79547775202E+03  0.15422435372E+04  0.12699999809E+01 0.  1.
</event>
<event>
 5   0  0.1732312E-06  0.2698841E+04  0.7818609E-02  0.8335381E-01
        1   -1    0    0  501    0  0.00000000000E+00  0.00000000000E+00  0.14691275684E+04  0.14691275684E+04  0.50400001928E-02 0.  1.
       -1   -1    0    0    0  501  0.00000000000E+00  0.00000000000E+00 -0.12394675023E+04  0.12394675023E+04  0.50400001928E-02 0. -1.
    10030    2    1    2    0    0  0.00000000000E+00  0.00000000000E+00  0.22966006613E+03  0.27085950708E+04  0.26988411423E+04 0.  0.
        5    1    3    3  502    0 -0.83724028018E+02  0.33476127868E+03 -0.11944302473E+04  0.12432861827E+04  0.46999998093E+01 0. -1.
       -5    1    3    3    0  502  0.83724028018E+02 -0.33476127868E+03  0.14240903134E+04  0.14653088880E+04  0.46999998093E+01 0.  1.
</event>
<event>
 5   0  0.1771016E-06  0.2706527E+04  0.7818609E-02  0.8332890E-01
       -1   -1    0    0    0  501  0.00000000000E+00  0.00000000000E+00  0.24020037546E+04  0.24020037546E+04  0.50400001928E-02 0. -1.
        1   -1    0    0  501    0  0.00000000000E+00  0.00000000000E+00 -0.76241436820E+03  0.76241436822E+03  0.50400001928E-02 0.  1.
    10030    2    1    2    0    0  0.00000000000E+00  0.00000000000E+00  0.16395893864E+04  0.31644181228E+04  0.27065270551E+04 0.  0.
        2    1    3    3  502    0  0.21361798383E+03 -0.11499334514E+04  0.16156472228E+04  0.19945665028E+04  0.25500000920E-02 0. -1.
       -2    1    3    3    0  502 -0.21361798383E+03  0.11499334514E+04  0.23942163575E+02  0.11698516200E+04  0.25500000920E-02 0.  1.
</event>
<event>
 5   0  0.1771016E-06  0.2697461E+04  0.7818609E-02  0.8335829E-01
       -1   -1    0    0    0  501  0.00000000000E+00  0.00000000000E+00  0.78440214523E+03  0.78440214524E+03  0.50400001928E-02 0. -1.
        1   -1    0    0  501    0  0.00000000000E+00  0.00000000000E+00 -0.23190584157E+04  0.23190584157E+04  0.50400001928E-02 0.  1.
    10030    2    1    2    0    0  0.00000000000E+00  0.00000000000E+00 -0.15346562705E+04  0.31034605610E+04  0.26974613222E+04 0.  0.
        2    1    3    3  502    0 -0.12614290217E+03  0.11805790463E+04 -0.31184559980E+02  0.11877084630E+04  0.25500000920E-02 0. -1.
       -2    1    3    3    0  502  0.12614290217E+03 -0.11805790463E+04 -0.15034717105E+04  0.19157520979E+04  0.25500000920E-02 0.  1.
</event>
<event>
 5   0  0.1753474E-06  0.2706411E+04  0.7818609E-02  0.8332928E-01
        1   -1    0    0  501    0  0.00000000000E+00  0.00000000000E+00  0.16247365650E+04  0.16247365650E+04  0.50400001928E-02 0. -1.
       -1   -1    0    0    0  501  0.00000000000E+00  0.00000000000E+00 -0.11270532357E+04  0.11270532358E+04  0.50400001928E-02 0.  1.
    10030    2    1    2    0    0  0.00000000000E+00  0.00000000000E+00  0.49768332927E+03  0.27517898008E+04  0.27064106140E+04 0.  0.
        3    1    3    3  502    0  0.12607137822E+04 -0.10314076595E+02  0.74867248334E+03  0.14662933261E+04  0.10100000352E+00 0. -1.
       -3    1    3    3    0  502 -0.12607137822E+04  0.10314076595E+02 -0.25098915408E+03  0.12854964747E+04  0.10100000352E+00 0.  1.
</event>
<event>
 5   0  0.1732312E-06  0.2702586E+04  0.7818609E-02  0.8334166E-01
       -1   -1    0    0    0  501  0.00000000000E+00  0.00000000000E+00  0.74594615132E+03  0.74594615134E+03  0.50400001928E-02 0.  1.
        1   -1    0    0  501    0  0.00000000000E+00  0.00000000000E+00 -0.24478889665E+04  0.24478889665E+04  0.50400001928E-02 0. -1.
    10030    2    1    2    0    0  0.00000000000E+00  0.00000000000E+00 -0.17019428152E+04  0.31938351179E+04  0.27025864304E+04 0.  0.
        5    1    3    3  502    0 -0.81203781943E+03  0.71444323949E+03 -0.18082317458E+04  0.21070260319E+04  0.46999998093E+01 0. -1.
       -5    1    3    3    0  502  0.81203781943E+03 -0.71444323949E+03  0.10628893056E+03  0.10868090860E+04  0.46999998093E+01 0.  1.
</event>
<event>
 5   0  0.4401659E-06  0.2701557E+04  0.7818609E-02  0.8334500E-01
        2   -1    0    0  501    0  0.00000000000E+00  0.00000000000E+00  0.14988636144E+04  0.14988636144E+04  0.25500000920E-02 0.  1.
       -2   -1    0    0    0  501  0.00000000000E+00  0.00000000000E+00 -0.12173239858E+04  0.12173239858E+04  0.25500000920E-02 0. -1.
    10030    2    1    2    0    0  0.00000000000E+00  0.00000000000E+00  0.28153962862E+03  0.27161876003E+04  0.27015570543E+04 0.  0.
        5    1    3    3  502    0  0.52309037599E+03  0.11548337806E+04 -0.32792635799E+03  0.13095122713E+04  0.46999998093E+01 0. -1.
       -5    1    3    3    0  502 -0.52309037599E+03 -0.11548337806E+04  0.60946598661E+03  0.14066753290E+04  0.46999998093E+01 0.  1.
</event>
<event>
 5   0  0.1753474E-06  0.2700781E+04  0.7818609E-02  0.8334752E-01
        1   -1    0    0  501    0  0.00000000000E+00  0.00000000000E+00  0.10556651632E+04  0.10556651633E+04  0.50400001928E-02 0. -1.
       -1   -1    0    0    0  501  0.00000000000E+00  0.00000000000E+00 -0.17273983692E+04  0.17273983692E+04  0.50400001928E-02 0.  1.
    10030    2    1    2    0    0  0.00000000000E+00  0.00000000000E+00 -0.67173320592E+03  0.27830635324E+04  0.27007808363E+04 0.  0.
        3    1    3    3  502    0 -0.37616923601E+03  0.11331878354E+04  0.31417411272E+03  0.12346349046E+04  0.10100000352E+00 0. -1.
       -3    1    3    3    0  502  0.37616923601E+03 -0.11331878354E+04 -0.98590731864E+03  0.15484286278E+04  0.10100000352E+00 0.  1.
</event>
<event>
 5   0  0.1732312E-06  0.2698896E+04  0.7818609E-02  0.8335363E-01
       -1   -1    0    0    0  501  0.00000000000E+00  0.00000000000E+00  0.15842640270E+04  0.15842640270E+04  0.50400001928E-02 0. -1.
        1   -1    0    0  501    0  0.00000000000E+00  0.00000000000E+00 -0.11494355482E+04  0.11494355482E+04  0.50400001928E-02 0.  1.
    10030    2    1    2    0    0  0.00000000000E+00  0.00000000000E+00  0.43482847877E+03  0.27336995753E+04  0.26988956189E+04 0.  0.
        5    1    3    3  502    0 -0.38422848763E+03 -0.35442365298E+03 -0.10427108262E+04  0.11664114255E+04  0.46999998093E+01 0.  1.
       -5    1    3    3    0  502  0.38422848763E+03  0.35442365298E+03  0.14775393050E+04  0.15672881497E+04  0.46999998093E+01 0. -1.
</event>
<event>
 5   0  0.1828511E-06  0.2662579E+04  0.7818609E-02  0.8347250E-01
       -1   -1    0    0    0  501  0.00000000000E+00  0.00000000000E+00  0.91466257456E+03  0.91466257458E+03  0.50400001928E-02 0.  1.
        1   -1    0    0  501    0  0.00000000000E+00  0.00000000000E+00 -0.19376890062E+04  0.19376890062E+04  0.50400001928E-02 0. -1.
    10030    2    1    2    0    0  0.00000000000E+00  0.00000000000E+00 -0.10230264316E+04  0.28523515807E+04  0.26625789116E+04 0.  0.
        4    1    3    3  502    0 -0.12529676335E+04 -0.28120179543E+03 -0.13530279891E+03  0.12912438967E+04  0.12699999809E+01 0.  1.
       -4    1    3    3    0  502  0.12529676335E+04  0.28120179543E+03 -0.88772363269E+03  0.15611076841E+04  0.12699999809E+01 0. -1.
</event>
<event>
 5   0  0.1771016E-06  0.2698980E+04  0.7818609E-02  0.8335336E-01
        1   -1    0    0  501    0  0.00000000000E+00  0.00000000000E+00  0.12996328687E+04  0.12996328687E+04  0.50400001928E-02 0.  1.
       -1   -1    0    0    0  501  0.00000000000E+00  0.00000000000E+00 -0.14012600566E+04  0.14012600566E+04  0.50400001928E-02 0. -1.
    10030    2    1    2    0    0  0.00000000000E+00  0.00000000000E+00 -0.10162718789E+03  0.27008929254E+04  0.26989802721E+04 0.  0.
        2    1    3    3  502    0  0.11397801603E+04 -0.50047225073E+03  0.47066253343E+03  0.13308247473E+04  0.25500000920E-02 0.  1.
       -2    1    3    3    0  502 -0.11397801603E+04  0.50047225073E+03 -0.57228972132E+03  0.13700681781E+04  0.25500000920E-02 0. -1.
</event>
<event>
 5   0  0.4448804E-06  0.2692628E+04  0.7818609E-02  0.8337401E-01
       -2   -1    0    0    0  501  0.00000000000E+00  0.00000000000E+00  0.11914857573E+04  0.11914857573E+04  0.25500000920E-02 0. -1.
        2   -1    0    0  501    0  0.00000000000E+00  0.00000000000E+00 -0.15212610663E+04  0.15212610663E+04  0.25500000920E-02 0.  1.
    10030    2    1    2    0    0  0.00000000000E+00  0.00000000000E+00 -0.32977530896E+03  0.27127468236E+04  0.26926276339E+04 0.  0.
        2    1    3    3  502    0 -0.11989154446E+04 -0.47207537507E+03 -0.55806962640E+03  0.14041706132E+04  0.25500000920E-02 0.  1.
       -2    1    3    3    0  502  0.11989154446E+04  0.47207537507E+03  0.22829431743E+03  0.13085762104E+04  0.25500000920E-02 0. -1.
</event>
<event>
 5   0  0.4487186E-06  0.2717589E+04  0.7818609E-02  0.8329320E-01
        2   -1    0    0  501    0  0.00000000000E+00  0.00000000000E+00  0.14903490470E+04  0.14903490470E+04  0.25500000920E-02 0. -1.
       -2   -1    0    0    0  501  0.00000000000E+00  0.00000000000E+00 -0.12388525855E+04  0.12388525855E+04  0.25500000920E-02 0.  1.
    10030    2    1    2    0    0  0.00000000000E+00  0.00000000000E+00  0.25149646157E+03  0.27292016325E+04  0.27175892038E+04 0.  0.
        3    1    3    3  502    0 -0.74426610262E+03 -0.17922290069E+03  0.12531626691E+04  0.14684922761E+04  0.10100000352E+00 0. -1.
       -3    1    3    3    0  502  0.74426610262E+03  0.17922290069E+03 -0.10016662075E+04  0.12607093563E+04  0.10100000352E+00 0.  1.
</event>
<event>
 5   0  0.4439357E-06  0.2704774E+04  0.7818609E-02  0.8333458E-01
       -2   -1    0    0    0  501  0.00000000000E+00  0.00000000000E+00  0.17086049333E+04  0.17086049333E+04  0.25500000920E-02 0. -1.
        2   -1    0    0  501    0  0.00000000000E+00  0.00000000000E+00 -0.10704352537E+04  0.10704352537E+04  0.25500000920E-02 0.  1.
    10030    2    1    2    0    0  0.00000000000E+00  0.00000000000E+00  0.63816967954E+03  0.27790401870E+04  0.27047742643E+04 0.  0.
        4    1    3    3  502    0 -0.11368145824E+04  0.63508364422E+03  0.69417110455E+03  0.14756536739E+04  0.12699999809E+01 0. -1.
       -4    1    3    3    0  502  0.11368145824E+04 -0.63508364422E+03 -0.56001425009E+02  0.13033865131E+04  0.12699999809E+01 0.  1.
</event>
<event>
 5   0  0.1732312E-06  0.2825170E+04  0.7818609E-02  0.8295496E-01
       -1   -1    0    0    0  501  0.00000000000E+00  0.00000000000E+00  0.10244791617E+04  0.10244791617E+04  0.50400001928E-02 0.  1.
        1   -1    0    0  501    0  0.00000000000E+00  0.00000000000E+00 -0.19477179717E+04  0.19477179717E+04  0.50400001928E-02 0. -1.
    10030    2    1    2    0    0  0.00000000000E+00  0.00000000000E+00 -0.92323881000E+03  0.29721971335E+04  0.28251700657E+04 0.  0.
        5    1    3    3  502    0  0.13670874831E+04 -0.34019914638E+03 -0.57049805757E+03  0.15199190010E+04  0.46999998093E+01 0. -1.
       -5    1    3    3    0  502 -0.13670874831E+04  0.34019914638E+03 -0.35274075244E+03  0.14522781325E+04  0.46999998093E+01 0.  1.
</event>
<event>
 5   0  0.4655882E-06  0.2698518E+04  0.7818609E-02  0.8335486E-01
        2   -1    0    0  501    0  0.00000000000E+00  0.00000000000E+00  0.15859281299E+04  0.15859281299E+04  0.25500000920E-02 0.  1.
       -2   -1    0    0    0  501  0.00000000000E+00  0.00000000000E+00 -0.11479078343E+04  0.11479078343E+04  0.25500000920E-02 0. -1.
    10030    2    1    2    0    0  0.00000000000E+00  0.00000000000E+00  0.43802029558E+03  0.27338359642E+04  0.26985176115E+04 0.  0.
        1    1    3    3  502    0  0.35729607565E+03  0.69799411124E+02  0.15352321805E+04  0.15778055304E+04  0.50400001928E-02 0.  1.
       -1    1    3    3    0  502 -0.35729607565E+03 -0.69799411124E+02 -0.10972118849E+04  0.11560304338E+04  0.50400001928E-02 0. -1.
</event>
<event>
 5   0  0.4401659E-06  0.2699672E+04  0.7818609E-02  0.8335111E-01
        2   -1    0    0  501    0  0.00000000000E+00  0.00000000000E+00  0.13270639697E+04  0.13270639697E+04  0.25500000920E-02 0.  1.
       -2   -1    0    0    0  501  0.00000000000E+00  0.00000000000E+00 -0.13729985082E+04  0.13729985082E+04  0.25500000920E-02 0. -1.
    10030    2    1    2    0    0  0.00000000000E+00  0.00000000000E+00 -0.45934538466E+02  0.27000624779E+04  0.26996717213E+04 0.  0.
        5    1    3    3  502    0  0.12076749306E+04  0.59164580786E+03 -0.13922204208E+03  0.13520090115E+04  0.46999998093E+01 0.  1.
       -5    1    3    3    0  502 -0.12076749306E+04 -0.59164580786E+03  0.93287503609E+02  0.13480534664E+04  0.46999998093E+01 0. -1.
</event>
<event>
 5   0  0.1828511E-06  0.2702652E+04  0.7818609E-02  0.8334145E-01
       -1   -1    0    0    0  501  0.00000000000E+00  0.00000000000E+00  0.15935432386E+04  0.15935432387E+04  0.50400001928E-02 0.  1.
        1   -1    0    0  501    0  0.00000000000E+00  0.00000000000E+00 -0.11459251739E+04  0.11459251739E+04  0.50400001928E-02 0. -1.
    10030    2    1    2    0    0  0.00000000000E+00  0.00000000000E+00  0.44761806475E+03  0.27394684126E+04  0.27026515224E+04 0.  0.
        4    1    3    3  502    0 -0.97023746498E+03  0.75675765487E+03 -0.34240308900E+03  0.12772174345E+04  0.12699999809E+01 0. -1.
       -4    1    3    3    0  502  0.97023746498E+03 -0.75675765487E+03  0.79002115375E+03  0.14622509781E+04  0.12699999809E+01 0.  1.
</event>
<event>
 5   0  0.1771016E-06  0.2708956E+04  0.7818609E-02  0.8332105E-01
       -1   -1    0    0    0  501  0.00000000000E+00  0.00000000000E+00  0.13810283548E+04  0.13810283548E+04  0.50400001928E-02 0.  1.
        1   -1    0    0  501    0  0.00000000000E+00  0.00000000000E+00 -0.13284377942E+04  0.13284377942E+04  0.50400001928E-02 0. -1.
    10030    2    1    2    0    0  0.00000000000E+00  0.00000000000E+00  0.52590560597E+02  0.27094661489E+04  0.27089557112E+04 0.  0.
        2    1    3    3  502    0 -0.11357181699E+04  0.71239471906E+03  0.21932973994E+03  0.13584798607E+04  0.25500000920E-02 0.  1.
       -2    1    3    3    0  502  0.11357181699E+04 -0.71239471906E+03 -0.16673917935E+03  0.13509862882E+04  0.25500000920E-02 0. -1.
</event>
<event>
 5   0  0.1771016E-06  0.2743932E+04  0.7818609E-02  0.8320890E-01
        1   -1    0    0  501    0  0.00000000000E+00  0.00000000000E+00  0.19731621431E+04  0.19731621431E+04  0.50400001928E-02 0.  1.
       -1   -1    0    0    0  501  0.00000000000E+00  0.00000000000E+00 -0.95394610718E+03  0.95394610720E+03  0.50400001928E-02 0. -1.
    10030    2    1    2    0    0  0.00000000000E+00  0.00000000000E+00  0.10192160359E+04  0.29271082503E+04  0.27439317377E+04 0.  0.
        2    1    3    3  502    0  0.10055883739E+04 -0.83398608885E+03  0.95656463101E+03  0.16191839511E+04  0.25500000920E-02 0.  1.
       -2    1    3    3    0  502 -0.10055883739E+04  0.83398608885E+03  0.62651404921E+02  0.13079242993E+04  0.25500000920E-02 0. -1.
</event>
<event>
 5   0  0.1732312E-06  0.2698849E+04  0.7818609E-02  0.8335379E-01
        1   -1    0    0  501    0  0.00000000000E+00  0.00000000000E+00  0.28672705548E+04  0.28672705549E+04  0.50400001928E-02 0. -1.
       -1   -1    0    0    0  501  0.00000000000E+00  0.00000000000E+00 -0.63507989094E+03  0.63507989096E+03  0.50400001928E-02 0.  1.
    10030    2    1    2    0    0  0.00000000000E+00  0.00000000000E+00  0.22321906639E+04  0.35023504458E+04  0.26988485480E+04 0.  0.
        5    1    3    3  502    0  0.71206340813E+03  0.26443561789E+03 -0.33129233422E+03  0.82869608055E+03  0.46999998093E+01 0.  1.
       -5    1    3    3    0  502 -0.71206340813E+03 -0.26443561789E+03  0.25634829981E+04  0.26736543653E+04  0.46999998093E+01 0. -1.
</event>
<event>
 5   0  0.1828511E-06  0.2697083E+04  0.7818609E-02  0.8335952E-01
        1   -1    0    0  501    0  0.00000000000E+00  0.00000000000E+00  0.13818792062E+04  0.13818792062E+04  0.50400001928E-02 0. -1.
       -1   -1    0    0    0  501  0.00000000000E+00  0.00000000000E+00 -0.13160080241E+04  0.13160080241E+04  0.50400001928E-02 0.  1.
    10030    2    1    2    0    0  0.00000000000E+00  0.00000000000E+00  0.65871182078E+02  0.26978872303E+04  0.26970829603E+04 0.  0.
        4    1    3    3  502    0  0.87807071558E+03  0.80062058135E+03  0.67074710168E+03  0.13645163188E+04  0.12699999809E+01 0. -1.
       -4    1    3    3    0  502 -0.87807071558E+03 -0.80062058135E+03 -0.60487591961E+03  0.13333709116E+04  0.12699999809E+01 0.  1.
</event>
<event>
 5   0  0.4448804E-06  0.2697430E+04  0.7818609E-02  0.8335839E-01
        2   -1    0    0  501    0  0.00000000000E+00  0.00000000000E+00  0.17732141548E+04  0.17732141548E+04  0.25500000920E-02 0. -1.
       -2   -1    0    0    0  501  0.00000000000E+00  0.00000000000E+00 -0.10258387007E+04  0.10258387007E+04  0.25500000920E-02 0.  1.
    10030    2    1    2    0    0  0.00000000000E+00  0.00000000000E+00  0.74737545411E+03  0.27990528555E+04  0.26974296689E+04 0.  0.
        2    1    3    3  502    0 -0.16640859621E+03 -0.77731384545E+02  0.17601762986E+04  0.17697329152E+04  0.25500000920E-02 0. -1.
       -2    1    3    3    0  502  0.16640859621E+03  0.77731384545E+02 -0.10128008445E+04  0.10293199403E+04  0.25500000920E-02 0.  1.
</event>
<event>
 5   0  0.4448804E-06  0.2696899E+04  0.7818609E-02  0.8336012E-01
       -2   -1    0    0    0  501  0.00000000000E+00  0.00000000000E+00  0.14504492751E+04  0.14504492751E+04  0.25500000920E-02 0. -1.
        2   -1    0    0  501    0  0.00000000000E+00  0.00000000000E+00 -0.12536230311E+04  0.12536230311E+04  0.25500000920E-02 0.  1.
    10030    2    1    2    0    0  0.00000000000E+00  0.00000000000E+00  0.19682624395E+03  0.27040723062E+04  0.26968994172E+04 0.  0.
        2    1    3    3  502    0 -0.40690516628E+03  0.98711413727E+03  0.92422403925E+03  0.14121459588E+04  0.25500000920E-02 0. -1.
       -2    1    3    3    0  502  0.40690516628E+03 -0.98711413727E+03 -0.72739779530E+03  0.12919263473E+04  0.25500000920E-02 0.  1.
</event>
<event>
 5   0  0.4487186E-06  0.2696957E+04  0.7818609E-02  0.8335993E-01
        2   -1    0    0  501    0  0.00000000000E+00  0.00000000000E+00  0.15829025533E+04  0.15829025533E+04  0.25500000920E-02 0.  1.
       -2   -1    0    0    0  501  0.00000000000E+00  0.00000000000E+00 -0.11487721766E+04  0.11487721766E+04  0.25500000920E-02 0. -1.
    10030    2    1    2    0    0  0.00000000000E+00  0.00000000000E+00  0.43413037670E+03  0.27316747298E+04  0.26969571086E+04 0.  0.
        3    1    3    3  502    0  0.12504587029E+03  0.15096512415E+03  0.15683938159E+04  0.15805967576E+04  0.10100000352E+00 0.  1.
       -3    1    3    3    0  502 -0.12504587029E+03 -0.15096512415E+03 -0.11342634392E+04  0.11510779722E+04  0.10100000352E+00 0. -1.
</event>
<event>
 5   0  0.1723605E-06  0.2726857E+04  0.7818609E-02  0.8326343E-01
       -1   -1    0    0    0  501  0.00000000000E+00  0.00000000000E+00  0.11631002071E+04  0.11631002071E+04  0.50400001928E-02 0. -1.
        1   -1    0    0  501    0  0.00000000000E+00  0.00000000000E+00 -0.15982601652E+04  0.15982601652E+04  0.50400001928E-02 0.  1.
    10030    2    1    2    0    0  0.00000000000E+00  0.00000000000E+00 -0.43515995809E+03  0.27613603724E+04  0.27268566000E+04 0.  0.
        1    1    3    3  502    0  0.27235909787E+03  0.40025555434E+03 -0.15082870701E+04  0.15840813972E+04  0.50400001928E-02 0.  1.
       -1    1    3    3    0  502 -0.27235909787E+03 -0.40025555434E+03  0.10731271120E+04  0.11772789752E+04  0.50400001928E-02 0. -1.
</event>
<event>
 5   0  0.1771016E-06  0.2680484E+04  0.7818609E-02  0.8341365E-01
        1   -1    0    0  501    0  0.00000000000E+00  0.00000000000E+00  0.89565887752E+03  0.89565887754E+03  0.50400001928E-02 0.  1.
       -1   -1    0    0    0  501  0.00000000000E+00  0.00000000000E+00 -0.20055049756E+04  0.20055049756E+04  0.50400001928E-02 0. -1.
    10030    2    1    2    0    0  0.00000000000E+00  0.00000000000E+00 -0.11098460980E+04  0.29011638531E+04  0.26804837887E+04 0.  0.
        2    1    3    3  502    0  0.46064112023E+03 -0.11064775275E+04 -0.12041086445E+04  0.16989291887E+04  0.25500000920E-02 0.  1.
       -2    1    3    3    0  502 -0.46064112023E+03  0.11064775275E+04  0.94262546442E+02  0.12022346644E+04  0.25500000920E-02 0. -1.
</event>
<event>
 5   0  0.1771016E-06  0.2701619E+04  0.7818609E-02  0.8334480E-01
       -1   -1    0    0    0  501  0.00000000000E+00  0.00000000000E+00  0.11036594998E+04  0.11036594998E+04  0.50400001928E-02 0. -1.
        1   -1    0    0  501    0  0.00000000000E+00  0.00000000000E+00 -0.16533053240E+04  0.16533053240E+04  0.50400001928E-02 0.  1.
    10030    2    1    2    0    0  0.00000000000E+00  0.00000000000E+00 -0.54964582424E+03  0.27569648238E+04  0.27016188679E+04 0.  0.
        2    1    3    3  502    0  0.41171588301E+02 -0.53190145401E+03 -0.15412425563E+04  0.16309637868E+04  0.25500000920E-02 0.  1.
       -2    1    3    3    0  502 -0.41171588301E+02  0.53190145401E+03  0.99159673203E+03  0.11260010370E+04  0.25500000920E-02 0. -1.
</event>
<event>
 5   0  0.4487186E-06  0.2720015E+04  0.7818609E-02  0.8328540E-01
       -2   -1    0    0    0  501  0.00000000000E+00  0.00000000000E+00  0.10262905253E+04  0.10262905253E+04  0.25500000920E-02 0.  1.
        2   -1    0    0  501    0  0.00000000000E+00  0.00000000000E+00 -0.18022385457E+04  0.18022385457E+04  0.25500000920E-02 0. -1.
    10030    2    1    2    0    0  0.00000000000E+00  0.00000000000E+00 -0.77594802041E+03  0.28285290710E+04  0.27200149586E+04 0.  0.
        3    1    3    3  502    0 -0.12867496593E+04  0.43970309510E+03 -0.36343523045E+03  0.14075328325E+04  0.10100000352E+00 0. -1.
       -3    1    3    3    0  502  0.12867496593E+04 -0.43970309510E+03 -0.41251278996E+03  0.14209962385E+04  0.10100000352E+00 0.  1.
</event>
<event>
 5   0  0.4448804E-06  0.2692874E+04  0.7818609E-02  0.8337321E-01
        2   -1    0    0  501    0  0.00000000000E+00  0.00000000000E+00  0.20047760092E+04  0.20047760092E+04  0.25500000920E-02 0. -1.
       -2   -1    0    0    0  501  0.00000000000E+00  0.00000000000E+00 -0.90428695676E+03  0.90428695676E+03  0.25500000920E-02 0.  1.
    10030    2    1    2    0    0  0.00000000000E+00  0.00000000000E+00  0.11004890525E+04  0.29090629660E+04  0.26928741496E+04 0.  0.
        2    1    3    3  502    0  0.35729235255E+02 -0.12873081940E+04  0.97480191929E+03  0.16151401631E+04  0.25500000920E-02 0.  1.
       -2    1    3    3    0  502 -0.35729235255E+02  0.12873081940E+04  0.12568713317E+03  0.12939228029E+04  0.25500000920E-02 0. -1.
</event>
<event>
 5   0  0.4448804E-06  0.2702497E+04  0.7818609E-02  0.8334195E-01
        2   -1    0    0  501    0  0.00000000000E+00  0.00000000000E+00  0.20812201778E+04  0.20812201778E+04  0.25500000920E-02 0. -1.
       -2   -1    0    0    0  501  0.00000000000E+00  0.00000000000E+00 -0.87730863948E+03  0.87730863948E+03  0.25500000920E-02 0.  1.
    10030    2    1    2    0    0  0.00000000000E+00  0.00000000000E+00  0.12039115383E+04  0.29585288172E+04  0.27024969511E+04 0.  0.
        2    1    3    3  502    0 -0.11905633686E+04  0.81636670909E+02  0.12958568974E+04  0.17616329865E+04  0.25500000920E-02 0. -1.
       -2    1    3    3    0  502  0.11905633686E+04 -0.81636670909E+02 -0.91945359105E+02  0.11968958307E+04  0.25500000920E-02 0.  1.
</event>
<event>
 5   0  0.1828511E-06  0.2697238E+04  0.7818609E-02  0.8335902E-01
       -1   -1    0    0    0  501  0.00000000000E+00  0.00000000000E+00  0.10152450222E+04  0.10152450222E+04  0.50400001928E-02 0. -1.
        1   -1    0    0  501    0  0.00000000000E+00  0.00000000000E+00 -0.17914626890E+04  0.17914626890E+04  0.50400001928E-02 0.  1.
    10030    2    1    2    0    0  0.00000000000E+00  0.00000000000E+00 -0.77621766683E+03  0.28067077113E+04  0.26972382747E+04 0.  0.
        4    1    3    3  502    0  0.48025822036E+03  0.11891897514E+04  0.45893700060E+02  0.12833269527E+04  0.12699999809E+01 0. -1.
       -4    1    3    3    0  502 -0.48025822036E+03 -0.11891897514E+04 -0.82211136689E+03  0.15233807585E+04  0.12699999809E+01 0.  1.
</event>
<event>
 5   0  0.4655882E-06  0.2695226E+04  0.7818609E-02  0.8336556E-01
        2   -1    0    0  501    0  0.00000000000E+00  0.00000000000E+00  0.18818510885E+04  0.18818510885E+04  0.25500000920E-02 0.  1.
       -2   -1    0    0    0  501  0.00000000000E+00  0.00000000000E+00 -0.96503967771E+03  0.96503967772E+03  0.25500000920E-02 0. -1.
    10030    2    1    2    0    0  0.00000000000E+00  0.00000000000E+00  0.91681141081E+03  0.28468907662E+04  0.26952261263E+04 0.  0.
        1    1    3    3  502    0  0.48509430892E+03  0.72213050990E+03  0.15455303560E+04  0.17735425124E+04  0.50400001928E-02 0.  1.
       -1    1    3    3    0  502 -0.48509430892E+03 -0.72213050990E+03 -0.62871894523E+03  0.10733482538E+04  0.50400001928E-02 0. -1.
</event>
<event>
 5   0  0.4487186E-06  0.2702891E+04  0.7818609E-02  0.8334067E-01
        2   -1    0    0  501    0  0.00000000000E+00  0.00000000000E+00  0.15887063558E+04  0.15887063558E+04  0.25500000920E-02 0. -1.
       -2   -1    0    0    0  501  0.00000000000E+00  0.00000000000E+00 -0.11496178699E+04  0.11496178699E+04  0.25500000920E-02 0.  1.
    10030    2    1    2    0    0  0.00000000000E+00  0.00000000000E+00  0.43908848591E+03  0.27383242256E+04  0.27028912050E+04 0.  0.
        3    1    3    3  502    0  0.88927104440E+03 -0.87112525433E+03 -0.31341577677E+03  0.12837023247E+04  0.10100000352E+00 0.  1.
       -3    1    3    3    0  502 -0.88927104440E+03  0.87112525433E+03  0.75250426268E+03  0.14546219009E+04  0.10100000352E+00 0. -1.
</event>
<event>
 5   0  0.1771016E-06  0.2722972E+04  0.7818609E-02  0.8327590E-01
        1   -1    0    0  501    0  0.00000000000E+00  0.00000000000E+00  0.22726425243E+04  0.22726425243E+04  0.50400001928E-02 0.  1.
       -1   -1    0    0    0  501  0.00000000000E+00  0.00000000000E+00 -0.81563397490E+03  0.81563397491E+03  0.50400001928E-02 0. -1.
    10030    2    1    2    0    0  0.00000000000E+00  0.00000000000E+00  0.14570085494E+04  0.30882764992E+04  0.27229722405E+04 0.  0.
        2    1    3    3  502    0  0.41439900887E+03 -0.91402749412E+03 -0.31496381671E+03  0.10518436217E+04  0.25500000920E-02 0. -1.
       -2    1    3    3    0  502 -0.41439900887E+03  0.91402749412E+03  0.17719723661E+04  0.20364328776E+04  0.25500000920E-02 0.  1.
</event>
<event>
 5   0  0.4487186E-06  0.2711449E+04  0.7818609E-02  0.8331300E-01
        2   -1    0    0  501    0  0.00000000000E+00  0.00000000000E+00  0.16554561679E+04  0.16554561679E+04  0.25500000920E-02 0.  1.
       -2   -1    0    0    0  501  0.00000000000E+00  0.00000000000E+00 -0.11102610518E+04  0.11102610518E+04  0.25500000920E-02 0. -1.
    10030    2    1    2    0    0  0.00000000000E+00  0.00000000000E+00  0.54519511617E+03  0.27657172197E+04  0.27114486948E+04 0.  0.
        3    1    3    3  502    0 -0.84268009321E+03 -0.67235513204E+03  0.11111322702E+04  0.15481557077E+04  0.10100000352E+00 0.  1.
       -3    1    3    3    0  502  0.84268009321E+03  0.67235513204E+03 -0.56593715404E+03  0.12175615120E+04  0.10100000352E+00 0. -1.
</event>
<event>
 5   0  0.4448804E-06  0.2697986E+04  0.7818609E-02  0.8335659E-01
       -2   -1    0    0    0  501  0.00000000000E+00  0.00000000000E+00  0.68791452624E+03  0.68791452625E+03  0.25500000920E-02 0. -1.
        2   -1    0    0  501    0  0.00000000000E+00  0.00000000000E+00 -0.26453598466E+04  0.26453598466E+04  0.25500000920E-02 0.  1.
    10030    2    1    2    0    0  0.00000000000E+00  0.00000000000E+00 -0.19574453204E+04  0.33332743729E+04  0.26979855193E+04 0.  0.
        2    1    3    3  502    0  0.28303472737E+03 -0.44989095766E+03 -0.25105388561E+04  0.25661870311E+04  0.25500000920E-02 0.  1.
       -2    1    3    3    0  502 -0.28303472737E+03  0.44989095766E+03  0.55309353570E+03  0.76708734178E+03  0.25500000920E-02 0. -1.
</event>
<event>
 5   0  0.4401659E-06  0.2699066E+04  0.7818609E-02  0.8335308E-01
        2   -1    0    0  501    0  0.00000000000E+00  0.00000000000E+00  0.12259385718E+04  0.12259385718E+04  0.25500000920E-02 0.  1.
       -2   -1    0    0    0  501  0.00000000000E+00  0.00000000000E+00 -0.14855882252E+04  0.14855882252E+04  0.25500000920E-02 0. -1.
    10030    2    1    2    0    0  0.00000000000E+00  0.00000000000E+00 -0.25964965346E+03  0.27115267970E+04  0.26990664365E+04 0.  0.
        5    1    3    3  502    0 -0.53678140094E+02  0.53550805846E+03 -0.13731032893E+04  0.14748169230E+04  0.46999998093E+01 0. -1.
       -5    1    3    3    0  502  0.53678140094E+02 -0.53550805846E+03  0.11134536358E+04  0.12367098740E+04  0.46999998093E+01 0.  1.
</event>
<event>
 5   0  0.1732312E-06  0.2633095E+04  0.7818609E-02  0.8357046E-01
       -1   -1    0    0    0  501  0.00000000000E+00  0.00000000000E+00  0.15532996750E+04  0.15532996750E+04  0.50400001928E-02 0. -1.
        1   -1    0    0  501    0  0.00000000000E+00  0.00000000000E+00 -0.11158804888E+04  0.11158804888E+04  0.50400001928E-02 0.  1.
    10030    2    1    2    0    0  0.00000000000E+00  0.00000000000E+00  0.43741918621E+03  0.26691801638E+04  0.26330946056E+04 0.  0.
        5    1    3    3  502    0 -0.86320457361E+03  0.63770615680E+03 -0.55429148200E+03  0.12079124204E+04  0.46999998093E+01 0.  1.
       -5    1    3    3    0  502  0.86320457361E+03 -0.63770615680E+03  0.99171066822E+03  0.14612677434E+04  0.46999998093E+01 0. -1.
</event>
<event>
 5   0  0.1732312E-06  0.2611482E+04  0.7818609E-02  0.8364311E-01
        1   -1    0    0  501    0  0.00000000000E+00  0.00000000000E+00  0.18567105683E+04  0.18567105683E+04  0.50400001928E-02 0.  1.
       -1   -1    0    0    0  501  0.00000000000E+00  0.00000000000E+00 -0.91826885962E+03  0.91826885963E+03  0.50400001928E-02 0. -1.
    10030    2    1    2    0    0  0.00000000000E+00  0.00000000000E+00  0.93844170866E+03  0.27749794279E+04  0.26114819518E+04 0.  0.
        5    1    3    3  502    0  0.30031258544E+02  0.62326769519E+03  0.16880145527E+04  0.17996610005E+04  0.46999998093E+01 0.  1.
       -5    1    3    3    0  502 -0.30031258544E+02 -0.62326769519E+03 -0.74957284407E+03  0.97531842745E+03  0.46999998093E+01 0. -1.
</event>
<event>
 5   0  0.4655882E-06  0.2703263E+04  0.7818609E-02  0.8333947E-01
        2   -1    0    0  501    0  0.00000000000E+00  0.00000000000E+00  0.16881192821E+04  0.16881192821E+04  0.25500000920E-02 0. -1.
       -2   -1    0    0    0  501  0.00000000000E+00  0.00000000000E+00 -0.10822152156E+04  0.10822152156E+04  0.25500000920E-02 0.  1.
    10030    2    1    2    0    0  0.00000000000E+00  0.00000000000E+00  0.60590406659E+03  0.27703344977E+04  0.27032634891E+04 0.  0.
        1    1    3    3  502    0 -0.94503857623E+03 -0.94281880430E+03  0.85790796926E+02  0.13376715849E+04  0.50400001928E-02 0.  1.
       -1    1    3    3    0  502  0.94503857623E+03  0.94281880430E+03  0.52011326966E+03  0.14326629128E+04  0.50400001928E-02 0. -1.
</event>
<event>
 5   0  0.1828511E-06  0.2703824E+04  0.7818609E-02  0.8333765E-01
        1   -1    0    0  501    0  0.00000000000E+00  0.00000000000E+00  0.22986641549E+04  0.22986641549E+04  0.50400001928E-02 0. -1.
       -1   -1    0    0    0  501  0.00000000000E+00  0.00000000000E+00 -0.79509937918E+03  0.79509937920E+03  0.50400001928E-02 0.  1.
    10030    2    1    2    0    0  0.00000000000E+00  0.00000000000E+00  0.15035647757E+04  0.30937635341E+04  0.27038242861E+04 0.  0.
        4    1    3    3  502    0 -0.11023126369E+04 -0.71143955288E+03  0.11250595194E+04  0.17282939339E+04  0.12699999809E+01 0. -1.
       -4    1    3    3    0  502  0.11023126369E+04  0.71143955288E+03  0.37850525629E+03  0.13654696001E+04  0.12699999809E+01 0.  1.
</event>
<event>
 5   0  0.4448804E-06  0.2743407E+04  0.7818609E-02  0.8321057E-01
       -2   -1    0    0    0  501  0.00000000000E+00  0.00000000000E+00  0.13822789045E+04  0.13822789046E+04  0.25500000920E-02 0.  1.
        2   -1    0    0  501    0  0.00000000000E+00  0.00000000000E+00 -0.13612092236E+04  0.13612092236E+04  0.25500000920E-02 0. -1.
    10030    2    1    2    0    0  0.00000000000E+00  0.00000000000E+00  0.21069680971E+02  0.27434881281E+04  0.27434072205E+04 0.  0.
        2    1    3    3  502    0  0.80219585580E+03 -0.11017566949E+04 -0.14498433874E+03  0.13705496942E+04  0.25500000920E-02 0. -1.
       -2    1    3    3    0  502 -0.80219585580E+03  0.11017566949E+04  0.16605401971E+03  0.13729384339E+04  0.25500000920E-02 0.  1.
</event>
<event>
 5   0  0.1723605E-06  0.2701367E+04  0.7818609E-02  0.8334562E-01
       -1   -1    0    0    0  501  0.00000000000E+00  0.00000000000E+00  0.10760351433E+04  0.10760351433E+04  0.50400001928E-02 0. -1.
        1   -1    0    0  501    0  0.00000000000E+00  0.00000000000E+00 -0.16954330461E+04  0.16954330461E+04  0.50400001928E-02 0.  1.
    10030    2    1    2    0    0  0.00000000000E+00  0.00000000000E+00 -0.61939790280E+03  0.27714681894E+04  0.27013667213E+04 0.  0.
        1    1    3    3  502    0  0.10426492874E+04  0.64386518669E+03  0.27307845112E+03  0.12554886521E+04  0.50400001928E-02 0.  1.
       -1    1    3    3    0  502 -0.10426492874E+04 -0.64386518669E+03 -0.89247635393E+03  0.15159795373E+04  0.50400001928E-02 0. -1.
</event>
<event>
 5   0  0.4439357E-06  0.2691181E+04  0.7818609E-02  0.8337872E-01
        2   -1    0    0  501    0  0.00000000000E+00  0.00000000000E+00  0.16440364929E+04  0.16440364929E+04  0.25500000920E-02 0. -1.
       -2   -1    0    0    0  501  0.00000000000E+00  0.00000000000E+00 -0.11013222313E+04  0.11013222313E+04  0.25500000920E-02 0.  1.
    10030    2    1    2    0    0  0.00000000000E+00  0.00000000000E+00  0.54271426159E+03  0.27453587243E+04  0.26911811078E+04 0.  0.
        4    1    3    3  502    0 -0.63328706562E+03 -0.25398809303E+03 -0.91175352928E+03  0.11387969836E+04  0.12699999809E+01 0.  1.
       -4    1    3    3    0  502  0.63328706562E+03  0.25398809303E+03  0.14544677909E+04  0.16065617406E+04  0.12699999809E+01 0. -1.
</event>
<event>
 5   0  0.1828511E-06  0.2737713E+04  0.7818609E-02  0.8322871E-01
        1   -1    0    0  501    0  0.00000000000E+00  0.00000000000E+00  0.14569812891E+04  0.14569812891E+04  0.50400001928E-02 0. -1.
       -1   -1    0    0    0  501  0.00000000000E+00  0.00000000000E+00 -0.12860614407E+04  0.12860614407E+04  0.50400001928E-02 0.  1.
    10030    2    1    2    0    0  0.00000000000E+00  0.00000000000E+00  0.17091984842E+03  0.27430427298E+04  0.27377125165E+04 0.  0.
        4    1    3    3  502    0 -0.85270343729E+03 -0.94432076779E+03  0.59133993559E+03  0.14030429062E+04  0.12699999809E+01 0. -1.
       -4    1    3    3    0  502  0.85270343729E+03  0.94432076779E+03 -0.42042008717E+03  0.13399998235E+04  0.12699999809E+01 0.  1.
</event>
<event>
 5   0  0.1482875E-06  0.2684817E+04  0.7818609E-02  0.8339948E-01
        4   -1    0    0  501    0  0.00000000000E+00  0.00000000000E+00  0.11047043918E+04  0.11047051218E+04  0.12699999809E+01 0.  1.
       -4   -1    0    0    0  501  0.00000000000E+00  0.00000000000E+00 -0.16312584546E+04  0.16312589490E+04  0.12699999809E+01 0. -1.
    10030    2    1    2    0    0  0.00000000000E+00  0.00000000000E+00 -0.52655406281E+03  0.27359640709E+04  0.26848166075E+04 0.  0.
        3    1    3    3  502    0  0.64520864241E+03 -0.74823018312E+03  0.66283618899E+03  0.11897455286E+04  0.10100000352E+00 0.  1.
       -3    1    3    3    0  502 -0.64520864241E+03  0.74823018312E+03 -0.11893902518E+04  0.15462185423E+04  0.10100000352E+00 0. -1.
</event>
<event>
 5   0  0.1828511E-06  0.2705150E+04  0.7818609E-02  0.8333336E-01
        1   -1    0    0  501    0  0.00000000000E+00  0.00000000000E+00  0.14091549036E+04  0.14091549036E+04  0.50400001928E-02 0. -1.
       -1   -1    0    0    0  501  0.00000000000E+00  0.00000000000E+00 -0.12982664317E+04  0.12982664317E+04  0.50400001928E-02 0.  1.
    10030    2    1    2    0    0  0.00000000000E+00  0.00000000000E+00  0.11088847190E+03  0.27074213354E+04  0.27051495400E+04 0.  0.
        4    1    3    3  502    0  0.48641134360E+03  0.67731855782E+03 -0.10103916406E+04  0.13100569851E+04  0.12699999809E+01 0.  1.
       -4    1    3    3    0  502 -0.48641134360E+03 -0.67731855782E+03  0.11212801125E+04  0.13973643503E+04  0.12699999809E+01 0. -1.
</event>
<event>
 5   0  0.1732312E-06  0.2696083E+04  0.7818609E-02  0.8336277E-01
        1   -1    0    0  501    0  0.00000000000E+00  0.00000000000E+00  0.13699986953E+04  0.13699986953E+04  0.50400001928E-02 0.  1.
       -1   -1    0    0    0  501  0.00000000000E+00  0.00000000000E+00 -0.13264363705E+04  0.13264363705E+04  0.50400001928E-02 0. -1.
    10030    2    1    2    0    0  0.00000000000E+00  0.00000000000E+00  0.43562324828E+02  0.26964350658E+04  0.26960831568E+04 0.  0.
        5    1    3    3  502    0  0.50267142773E+03  0.12098122148E+04  0.33942275573E+03  0.13533491997E+04  0.46999998093E+01 0. -1.
       -5    1    3    3    0  502 -0.50267142773E+03 -0.12098122148E+04 -0.29586043090E+03  0.13430858661E+04  0.46999998093E+01 0.  1.
</event>
<event>
 5   0  0.4655882E-06  0.2700504E+04  0.7818609E-02  0.8334842E-01
       -2   -1    0    0    0  501  0.00000000000E+00  0.00000000000E+00  0.20956382320E+04  0.20956382320E+04  0.25500000920E-02 0. -1.
        2   -1    0    0  501    0  0.00000000000E+00  0.00000000000E+00 -0.86998800708E+03  0.86998800709E+03  0.25500000920E-02 0.  1.
    10030    2    1    2    0    0  0.00000000000E+00  0.00000000000E+00  0.12256502249E+04  0.29656262391E+04  0.27005037523E+04 0.  0.
        1    1    3    3  502    0 -0.97522723302E+02 -0.88518267793E+02 -0.86291723194E+03  0.87291025570E+03  0.50400001928E-02 0.  1.
       -1    1    3    3    0  502  0.97522723302E+02  0.88518267793E+02  0.20885674569E+04  0.20927159834E+04  0.50400001928E-02 0. -1.
</event>
<event>
 5   0  0.1732312E-06  0.2694316E+04  0.7818609E-02  0.8336851E-01
       -1   -1    0    0    0  501  0.00000000000E+00  0.00000000000E+00  0.12103824369E+04  0.12103824369E+04  0.50400001928E-02 0. -1.
        1   -1    0    0  501    0  0.00000000000E+00  0.00000000000E+00 -0.14993899802E+04  0.14993899802E+04  0.50400001928E-02 0.  1.
    10030    2    1    2    0    0  0.00000000000E+00  0.00000000000E+00 -0.28900754324E+03  0.27097724171E+04  0.26943164611E+04 0.  0.
        5    1    3    3  502    0  0.11575211589E+04  0.68251841755E+03 -0.48422586181E+02  0.13446387844E+04  0.46999998093E+01 0.  1.
       -5    1    3    3    0  502 -0.11575211589E+04 -0.68251841755E+03 -0.24058495706E+03  0.13651336327E+04  0.46999998093E+01 0. -1.
</event>
<event>
 5   0  0.4655882E-06  0.2641417E+04  0.7818609E-02  0.8354267E-01
        2   -1    0    0  501    0  0.00000000000E+00  0.00000000000E+00  0.15331302528E+04  0.15331302528E+04  0.25500000920E-02 0.  1.
       -2   -1    0    0    0  501  0.00000000000E+00  0.00000000000E+00 -0.11377186915E+04  0.11377186915E+04  0.25500000920E-02 0. -1.
    10030    2    1    2    0    0  0.00000000000E+00  0.00000000000E+00  0.39541156135E+03  0.26708489443E+04  0.26414170024E+04 0.  0.
        1    1    3    3  502    0 -0.16567118159E+03 -0.10228983955E+04 -0.63026055683E+03  0.12128464196E+04  0.50400001928E-02 0. -1.
       -1    1    3    3    0  502  0.16567118159E+03  0.10228983955E+04  0.10256721182E+04  0.14580025247E+04  0.50400001928E-02 0.  1.
</event>
<event>
 5   0  0.1753474E-06  0.2630630E+04  0.7818609E-02  0.8357871E-01
        1   -1    0    0  501    0  0.00000000000E+00  0.00000000000E+00  0.18730753835E+04  0.18730753835E+04  0.50400001928E-02 0. -1.
       -1   -1    0    0    0  501  0.00000000000E+00  0.00000000000E+00 -0.92364354115E+03  0.92364354116E+03  0.50400001928E-02 0.  1.
    10030    2    1    2    0    0  0.00000000000E+00  0.00000000000E+00  0.94943184236E+03  0.27967189247E+04  0.26306303276E+04 0.  0.
        3    1    3    3  502    0  0.23518346954E+03  0.52268710694E+03 -0.78389612932E+03  0.97108507757E+03  0.10100000352E+00 0.  1.
       -3    1    3    3    0  502 -0.23518346954E+03 -0.52268710694E+03  0.17333279717E+04  0.18256338471E+04  0.10100000352E+00 0. -1.
</event>
<event>
 5   0  0.1732312E-06  0.2668007E+04  0.7818609E-02  0.8345461E-01
        1   -1    0    0  501    0  0.00000000000E+00  0.00000000000E+00  0.13340489690E+04  0.13340489690E+04  0.50400001928E-02 0. -1.
       -1   -1    0    0    0  501  0.00000000000E+00  0.00000000000E+00 -0.13339578781E+04  0.13339578781E+04  0.50400001928E-02 0.  1.
    10030    2    1    2    0    0  0.00000000000E+00  0.00000000000E+00  0.91090970938E-01  0.26680068471E+04  0.26680068455E+04 0.  0.
        5    1    3    3  502    0  0.77567051329E+03 -0.58037217292E+02 -0.10837025708E+04  0.13339664223E+04  0.46999998093E+01 0.  1.
       -5    1    3    3    0  502 -0.77567051329E+03  0.58037217292E+02  0.10837936618E+04  0.13340404248E+04  0.46999998093E+01 0. -1.
</event>
<event>
 5   0  0.4439357E-06  0.2691758E+04  0.7818609E-02  0.8337684E-01
        2   -1    0    0  501    0  0.00000000000E+00  0.00000000000E+00  0.11971572373E+04  0.11971572373E+04  0.25500000920E-02 0.  1.
       -2   -1    0    0    0  501  0.00000000000E+00  0.00000000000E+00 -0.15130760174E+04  0.15130760174E+04  0.25500000920E-02 0. -1.
    10030    2    1    2    0    0  0.00000000000E+00  0.00000000000E+00 -0.31591878003E+03  0.27102332547E+04  0.26917577193E+04 0.  0.
        4    1    3    3  502    0 -0.16402902266E+03 -0.12299609050E+04 -0.68276527055E+03  0.14162907102E+04  0.12699999809E+01 0. -1.
       -4    1    3    3    0  502  0.16402902266E+03  0.12299609050E+04  0.36684649051E+03  0.12939425446E+04  0.12699999809E+01 0.  1.
</event>
<event>
 5   0  0.4448804E-06  0.2721041E+04  0.7818609E-02  0.8328210E-01
        2   -1    0    0  501    0  0.00000000000E+00  0.00000000000E+00  0.91342454986E+03  0.91342454987E+03  0.25500000920E-02 0.  1.
       -2   -1    0    0    0  501  0.00000000000E+00  0.00000000000E+00 -0.20264570134E+04  0.20264570134E+04  0.25500000920E-02 0. -1.
    10030    2    1    2    0    0  0.00000000000E+00  0.00000000000E+00 -0.11130324635E+04  0.29398815632E+04  0.27210406724E+04 0.  0.
        2    1    3    3  502    0 -0.95362844722E+03 -0.76112116102E+03  0.93809196021E+02  0.12237290559E+04  0.25500000920E-02 0.  1.
       -2    1    3    3    0  502  0.95362844722E+03  0.76112116102E+03 -0.12068416595E+04  0.17161525073E+04  0.25500000920E-02 0. -1.
</event>
<event>
 5   0  0.1723605E-06  0.2696400E+04  0.7818609E-02  0.8336174E-01
        1   -1    0    0  501    0  0.00000000000E+00  0.00000000000E+00  0.13278302896E+04  0.13278302896E+04  0.50400001928E-02 0.  1.
       -1   -1    0    0    0  501  0.00000000000E+00  0.00000000000E+00 -0.13688822819E+04  0.13688822820E+04  0.50400001928E-02 0. -1.
    10030    2    1    2    0    0  0.00000000000E+00  0.00000000000E+00 -0.41051992392E+02  0.26967125715E+04  0.26964000867E+04 0.  0.
        1    1    3    3  502    0 -0.21934718695E+03  0.96816924171E+03  0.89181789769E+03  0.13344676960E+04  0.50400001928E-02 0.  1.
       -1    1    3    3    0  502  0.21934718695E+03 -0.96816924171E+03 -0.93286989008E+03  0.13622448755E+04  0.50400001928E-02 0. -1.
</event>
<event>
 5   0  0.4401659E-06  0.2683229E+04  0.7818609E-02  0.8340467E-01
       -2   -1    0    0    0  501  0.00000000000E+00  0.00000000000E+00  0.10652852031E+04  0.10652852031E+04  0.25500000920E-02 0.  1.
        2   -1    0    0  501    0  0.00000000000E+00  0.00000000000E+00 -0.16896218301E+04  0.16896218302E+04  0.25500000920E-02 0. -1.
    10030    2    1    2    0    0  0.00000000000E+00  0.00000000000E+00 -0.62433662701E+03  0.27549070333E+04  0.26832287525E+04 0.  0.
        5    1    3    3  502    0 -0.17528987367E+03  0.56474283801E+03 -0.15485999012E+04  0.16576624375E+04  0.46999998093E+01 0. -1.
       -5    1    3    3    0  502  0.17528987367E+03 -0.56474283801E+03  0.92426327418E+03  0.10972445957E+04  0.46999998093E+01 0.  1.
</event>
<event>
 5   0  0.1723605E-06  0.2690027E+04  0.7818609E-02  0.8338248E-01
        1   -1    0    0  501    0  0.00000000000E+00  0.00000000000E+00  0.20682746031E+04  0.20682746031E+04  0.50400001928E-02 0. -1.
       -1   -1    0    0    0  501  0.00000000000E+00  0.00000000000E+00 -0.87467184994E+03  0.87467184996E+03  0.50400001928E-02 0.  1.
    10030    2    1    2    0    0  0.00000000000E+00  0.00000000000E+00  0.11936027532E+04  0.29429464531E+04  0.26900271919E+04 0.  0.
        1    1    3    3  502    0 -0.95569946375E+03  0.78600915457E+02  0.16286216056E+04  0.18899597623E+04  0.50400001928E-02 0. -1.
       -1    1    3    3    0  502  0.95569946375E+03 -0.78600915457E+02 -0.43501885243E+03  0.10529866908E+04  0.50400001928E-02 0.  1.
</event>
<event>
 5   0  0.4439357E-06  0.2696608E+04  0.7818609E-02  0.8336106E-01
       -2   -1    0    0    0  501  0.00000000000E+00  0.00000000000E+00  0.10786404883E+04  0.10786404883E+04  0.25500000920E-02 0.  1.
        2   -1    0    0  501    0  0.00000000000E+00  0.00000000000E+00 -0.16853844958E+04  0.16853844958E+04  0.25500000920E-02 0. -1.
    10030    2    1    2    0    0  0.00000000000E+00  0.00000000000E+00 -0.60674400747E+03  0.27640249841E+04  0.26966082070E+04 0.  0.
        4    1    3    3  502    0  0.13347031192E+04  0.77550696105E+02 -0.48230967547E+03  0.14212919344E+04  0.12699999809E+01 0.  1.
       -4    1    3    3    0  502 -0.13347031192E+04 -0.77550696105E+02 -0.12443433200E+03  0.13427330497E+04  0.12699999809E+01 0. -1.
</event>
<event>
 5   0  0.1828511E-06  0.2730799E+04  0.7818609E-02  0.8325080E-01
        1   -1    0    0  501    0  0.00000000000E+00  0.00000000000E+00  0.14708170866E+04  0.14708170866E+04  0.50400001928E-02 0. -1.
       -1   -1    0    0    0  501  0.00000000000E+00  0.00000000000E+00 -0.12675372809E+04  0.12675372809E+04  0.50400001928E-02 0.  1.
    10030    2    1    2    0    0  0.00000000000E+00  0.00000000000E+00  0.20327980567E+03  0.27383543675E+04  0.27307987774E+04 0.  0.
        4    1    3    3  502    0 -0.52653451193E+03  0.11049503307E+03 -0.11567689683E+04  0.12757600885E+04  0.12699999809E+01 0.  1.
       -4    1    3    3    0  502  0.52653451193E+03 -0.11049503307E+03  0.13600487739E+04  0.14625942790E+04  0.12699999809E+01 0. -1.
</event>
<event>
 5   0  0.1771016E-06  0.2690681E+04  0.7818609E-02  0.8338035E-01
        1   -1    0    0  501    0  0.00000000000E+00  0.00000000000E+00  0.11610777481E+04  0.11610777481E+04  0.50400001928E-02 0. -1.
       -1   -1    0    0    0  501  0.00000000000E+00  0.00000000000E+00 -0.15588461046E+04  0.15588461046E+04  0.50400001928E-02 0.  1.
    10030    2    1    2    0    0  0.00000000000E+00  0.00000000000E+00 -0.39776835651E+03  0.27199238527E+04  0.26906813448E+04 0.  0.
        2    1    3    3  502    0  0.13063493105E+04  0.13334456028E+03 -0.49465980801E+03  0.14032168822E+04  0.25500000920E-02 0.  1.
       -2    1    3    3    0  502 -0.13063493105E+04 -0.13334456028E+03  0.96891451502E+02  0.13167069705E+04  0.25500000920E-02 0. -1.
</event>
<event>
 5   0  0.4448804E-06  0.2701001E+04  0.7818609E-02  0.8334680E-01
       -2   -1    0    0    0  501  0.00000000000E+00  0.00000000000E+00  0.64324766059E+03  0.64324766059E+03  0.25500000920E-02 0. -1.
        2   -1    0    0  501    0  0.00000000000E+00  0.00000000000E+00 -0.28353803452E+04  0.28353803452E+04  0.25500000920E-02 0.  1.
    10030    2    1    2    0    0  0.00000000000E+00  0.00000000000E+00 -0.21921326847E+04  0.34786280058E+04  0.27010011284E+04 0.  0.
        2    1    3    3  502    0  0.86584337592E+03 -0.90356037473E+03 -0.17499175252E+04  0.21513524694E+04  0.25500000920E-02 0.  1.
       -2    1    3    3    0  502 -0.86584337592E+03  0.90356037473E+03 -0.44221515941E+03  0.13272755364E+04  0.25500000920E-02 0. -1.
</event>
<event>
 5   0  0.1482875E-06  0.2699251E+04  0.7818609E-02  0.8335248E-01
       -3   -1    0    0    0  501  0.00000000000E+00  0.00000000000E+00  0.10252820791E+04  0.10252820841E+04  0.10100000352E+00 0.  1.
        3   -1    0    0  501    0  0.00000000000E+00  0.00000000000E+00 -0.17765737898E+04  0.17765737927E+04  0.10100000352E+00 0. -1.
    10030    2    1    2    0    0  0.00000000000E+00  0.00000000000E+00 -0.75129171067E+03  0.28018558768E+04  0.26992512147E+04 0.  0.
        4    1    3    3  502    0 -0.20728368126E+03 -0.11731739687E+04  0.28264052729E+03  0.12244145400E+04  0.12699999809E+01 0. -1.
       -4    1    3    3    0  502  0.20728368126E+03  0.11731739687E+04 -0.10339322380E+04  0.15774413368E+04  0.12699999809E+01 0.  1.
</event>
<event>
 5   0  0.1723605E-06  0.2701045E+04  0.7818609E-02  0.8334666E-01
        1   -1    0    0  501    0  0.00000000000E+00  0.00000000000E+00  0.92247482385E+03  0.92247482386E+03  0.50400001928E-02 0.  1.
       -1   -1    0    0    0  501  0.00000000000E+00  0.00000000000E+00 -0.19771932651E+04  0.19771932651E+04  0.50400001928E-02 0. -1.
    10030    2    1    2    0    0  0.00000000000E+00  0.00000000000E+00 -0.10547184412E+04  0.28996680890E+04  0.27010449896E+04 0.  0.
        1    1    3    3  502    0 -0.11462462102E+04 -0.27761043407E+03 -0.12337449291E+04  0.17067731184E+04  0.50400001928E-02 0. -1.
       -1    1    3    3    0  502  0.11462462102E+04  0.27761043407E+03  0.17902648783E+03  0.11928949706E+04  0.50400001928E-02 0.  1.
</event>
<event>
 5   0  0.1732312E-06  0.2683367E+04  0.7818609E-02  0.8340422E-01
        1   -1    0    0  501    0  0.00000000000E+00  0.00000000000E+00  0.17647689762E+04  0.17647689763E+04  0.50400001928E-02 0. -1.
       -1   -1    0    0    0  501  0.00000000000E+00  0.00000000000E+00 -0.10200283371E+04  0.10200283371E+04  0.50400001928E-02 0.  1.
    10030    2    1    2    0    0  0.00000000000E+00  0.00000000000E+00  0.74474063911E+03  0.27847973134E+04  0.26833668138E+04 0.  0.
        5    1    3    3  502    0 -0.11243565523E+04 -0.21817543184E+03 -0.35283866956E+03  0.11984554195E+04  0.46999998093E+01 0.  1.
       -5    1    3    3    0  502  0.11243565523E+04  0.21817543184E+03  0.10975793087E+04  0.15863418939E+04  0.46999998093E+01 0. -1.
</event>
<event>
 5   0  0.4448804E-06  0.2707043E+04  0.7818609E-02  0.8332723E-01
        2   -1    0    0  501    0  0.00000000000E+00  0.00000000000E+00  0.12032173104E+04  0.12032173104E+04  0.25500000920E-02 0.  1.
       -2   -1    0    0    0  501  0.00000000000E+00  0.00000000000E+00 -0.15226016278E+04  0.15226016278E+04  0.25500000920E-02 0. -1.
    10030    2    1    2    0    0  0.00000000000E+00  0.00000000000E+00 -0.31938431735E+03  0.27258189382E+04  0.27070431362E+04 0.  0.
        2    1    3    3  502    0 -0.88702643845E+03 -0.45219093388E+03  0.76357972013E+03  0.12547296650E+04  0.25500000920E-02 0.  1.
       -2    1    3    3    0  502  0.88702643845E+03  0.45219093388E+03 -0.10829640375E+04  0.14710892732E+04  0.25500000920E-02 0. -1.
</event>
<event>
 5   0  0.4448804E-06  0.2696872E+04  0.7818609E-02  0.8336021E-01
        2   -1    0    0  501    0  0.00000000000E+00  0.00000000000E+00  0.17029354247E+04  0.17029354247E+04  0.25500000920E-02 0.  1.
       -2   -1    0    0    0  501  0.00000000000E+00  0.00000000000E+00 -0.10677324802E+04  0.10677324802E+04  0.25500000920E-02 0. -1.
    10030    2    1    2    0    0  0.00000000000E+00  0.00000000000E+00  0.63520294443E+03  0.27706679049E+04  0.26968718654E+04 0.  0.
        2    1    3    3  502    0  0.27045884291E+03 -0.10473243562E+04  0.11447683520E+04  0.15749701180E+04  0.25500000920E-02 0. -1.
       -2    1    3    3    0  502 -0.27045884291E+03  0.10473243562E+04 -0.50956540762E+03  0.11956977869E+04  0.25500000920E-02 0.  1.
</event>
<event>
 5   0  0.1723605E-06  0.2694420E+04  0.7818609E-02  0.8336818E-01
       -1   -1    0    0    0  501  0.00000000000E+00  0.00000000000E+00  0.93779846421E+03  0.93779846422E+03  0.50400001928E-02 0. -1.
        1   -1    0    0  501    0  0.00000000000E+00  0.00000000000E+00 -0.19353568923E+04  0.19353568923E+04  0.50400001928E-02 0.  1.
    10030    2    1    2    0    0  0.00000000000E+00  0.00000000000E+00 -0.99755842813E+03  0.28731553566E+04  0.26944199534E+04 0.  0.
        1    1    3    3  502    0 -0.11969819813E+04 -0.97228873379E+02 -0.11498164039E+04  0.16626175387E+04  0.50400001928E-02 0.  1.
       -1    1    3    3    0  502  0.11969819813E+04  0.97228873379E+02  0.15225797577E+03  0.12105378179E+04  0.50400001928E-02 0. -1.
</event>
<event>
 5   0  0.4487186E-06  0.2682838E+04  0.7818609E-02  0.8340595E-01
       -2   -1    0    0    0  501  0.00000000000E+00  0.00000000000E+00  0.12336768579E+04  0.12336768579E+04  0.25500000920E-02 0. -1.
        2   -1    0    0  501    0  0.00000000000E+00  0.00000000000E+00 -0.14585711074E+04  0.14585711074E+04  0.25500000920E-02 0.  1.
    10030    2    1    2    0    0  0.00000000000E+00  0.00000000000E+00 -0.22489424947E+03  0.26922479653E+04  0.26828383632E+04 0.  0.
        3    1    3    3  502    0 -0.13611359430E+03 -0.35031973717E+03  0.11797627550E+04  0.12381805188E+04  0.10100000352E+00 0. -1.
       -3    1    3    3    0  502  0.13611359430E+03  0.35031973717E+03 -0.14046570044E+04  0.14540674466E+04  0.10100000352E+00 0.  1.
</event>
<event>
 5   0  0.4487186E-06  0.2682790E+04  0.7818609E-02  0.8340611E-01
        2   -1    0    0  501    0  0.00000000000E+00  0.00000000000E+00  0.11560231101E+04  0.11560231101E+04  0.25500000920E-02 0. -1.
       -2   -1    0    0    0  501  0.00000000000E+00  0.00000000000E+00 -0.15564922674E+04  0.15564922675E+04  0.25500000920E-02 0.  1.
    10030    2    1    2    0    0  0.00000000000E+00  0.00000000000E+00 -0.40046915739E+03  0.27125153775E+04  0.26827903622E+04 0.  0.
        3    1    3    3  502    0  0.38113612914E+02 -0.13151021072E+04 -0.46465627232E+03  0.13952962630E+04  0.10100000352E+00 0.  1.
       -3    1    3    3    0  502 -0.38113612914E+02  0.13151021072E+04  0.64187114937E+02  0.13172191146E+04  0.10100000352E+00 0. -1.
</event>
<event>
 5   0  0.4439357E-06  0.2700931E+04  0.7818609E-02  0.8334703E-01
       -2   -1    0    0    0  501  0.00000000000E+00  0.00000000000E+00  0.11044368389E+04  0.11044368389E+04  0.25500000920E-02 0. -1.
        2   -1    0    0  501    0  0.00000000000E+00  0.00000000000E+00 -0.16513009221E+04  0.16513009221E+04  0.25500000920E-02 0.  1.
    10030    2    1    2    0    0  0.00000000000E+00  0.00000000000E+00 -0.54686408314E+03  0.27557377610E+04  0.27009313730E+04 0.  0.
        4    1    3    3  502    0 -0.11425820751E+03 -0.12986927212E+04  0.85992014483E+02  0.13065427515E+04  0.12699999809E+01 0. -1.
       -4    1    3    3    0  502  0.11425820751E+03  0.12986927212E+04 -0.63285609762E+03  0.14491950094E+04  0.12699999809E+01 0.  1.
</event>
<event>
 5   0  0.1828511E-06  0.2706358E+04  0.7818609E-02  0.8332945E-01
        1   -1    0    0  501    0  0.00000000000E+00  0.00000000000E+00  0.14922742883E+04  0.14922742883E+04  0.50400001928E-02 0. -1.
       -1   -1    0    0    0  501  0.00000000000E+00  0.00000000000E+00 -0.12270486746E+04  0.12270486746E+04  0.50400001928E-02 0.  1.
    10030    2    1    2    0    0  0.00000000000E+00  0.00000000000E+00  0.26522561369E+03  0.27193229629E+04  0.27063578386E+04 0.  0.
        4    1    3    3  502    0 -0.12454517805E+04 -0.51968824943E+03  0.23241416544E+03  0.13693954766E+04  0.12699999809E+01 0. -1.
       -4    1    3    3    0  502  0.12454517805E+04  0.51968824943E+03  0.32811448254E+02  0.13499274863E+04  0.12699999809E+01 0.  1.
</event>
<event>
 5   0  0.1828511E-06  0.2704928E+04  0.7818609E-02  0.8333408E-01
        1   -1    0    0  501    0  0.00000000000E+00  0.00000000000E+00  0.11826040871E+04  0.11826040871E+04  0.50400001928E-02 0. -1.
       -1   -1    0    0    0  501  0.00000000000E+00  0.00000000000E+00 -0.15467214191E+04  0.15467214191E+04  0.50400001928E-02 0.  1.
    10030    2    1    2    0    0  0.00000000000E+00  0.00000000000E+00 -0.36411733203E+03  0.27293255062E+04  0.27049281483E+04 0.  0.
        4    1    3    3  502    0 -0.45569760158E+03  0.27007308431E+03  0.10735759910E+04  0.11971494461E+04  0.12699999809E+01 0. -1.
       -4    1    3    3    0  502  0.45569760158E+03 -0.27007308431E+03 -0.14376933231E+04  0.15321760601E+04  0.12699999809E+01 0.  1.
</event>
<event>
 5   0  0.4401659E-06  0.2702871E+04  0.7818609E-02  0.8334074E-01
        2   -1    0    0  501    0  0.00000000000E+00  0.00000000000E+00  0.14159835669E+04  0.14159835669E+04  0.25500000920E-02 0. -1.
       -2   -1    0    0    0  501  0.00000000000E+00  0.00000000000E+00 -0.12898301039E+04  0.12898301039E+04  0.25500000920E-02 0.  1.
    10030    2    1    2    0    0  0.00000000000E+00  0.00000000000E+00  0.12615346300E+03  0.27058136709E+04  0.27028712373E+04 0.  0.
        5    1    3    3  502    0  0.12783538195E+04 -0.29132847824E+03 -0.26483958225E+03  0.13376183553E+04  0.46999998093E+01 0.  1.
       -5    1    3    3    0  502 -0.12783538195E+04  0.29132847824E+03  0.39099304525E+03  0.13681953156E+04  0.46999998093E+01 0. -1.
</event>
<event>
 5   0  0.1828511E-06  0.2702317E+04  0.7818609E-02  0.8334254E-01
       -1   -1    0    0    0  501  0.00000000000E+00  0.00000000000E+00  0.11509895865E+04  0.11509895865E+04  0.50400001928E-02 0.  1.
        1   -1    0    0  501    0  0.00000000000E+00  0.00000000000E+00 -0.15861389073E+04  0.15861389073E+04  0.50400001928E-02 0. -1.
    10030    2    1    2    0    0  0.00000000000E+00  0.00000000000E+00 -0.43514932078E+03  0.27371284939E+04  0.27023170540E+04 0.  0.
        4    1    3    3  502    0 -0.94112037549E+02  0.10055606961E+04  0.69155025911E+03  0.12240313570E+04  0.12699999809E+01 0.  1.
       -4    1    3    3    0  502  0.94112037549E+02 -0.10055606961E+04 -0.11266995799E+04  0.15130971368E+04  0.12699999809E+01 0. -1.
</event>
<event>
 5   0  0.4487186E-06  0.2703472E+04  0.7818609E-02  0.8333879E-01
       -2   -1    0    0    0  501  0.00000000000E+00  0.00000000000E+00  0.16776799646E+04  0.16776799646E+04  0.25500000920E-02 0. -1.
        2   -1    0    0  501    0  0.00000000000E+00  0.00000000000E+00 -0.10891170947E+04  0.10891170947E+04  0.25500000920E-02 0.  1.
    10030    2    1    2    0    0  0.00000000000E+00  0.00000000000E+00  0.58856286994E+03  0.27667970593E+04  0.27034717893E+04 0.  0.
        3    1    3    3  502    0 -0.77310679983E+03 -0.66183888304E+03 -0.61620052361E+03  0.11897175827E+04  0.10100000352E+00 0.  1.
       -3    1    3    3    0  502  0.77310679983E+03  0.66183888304E+03  0.12047633936E+04  0.15770794767E+04  0.10100000352E+00 0. -1.
</event>
<event>
 5   0  0.4401659E-06  0.2721539E+04  0.7818609E-02  0.8328050E-01
        2   -1    0    0  501    0  0.00000000000E+00  0.00000000000E+00  0.23738123152E+04  0.23738123152E+04  0.25500000920E-02 0.  1.
       -2   -1    0    0    0  501  0.00000000000E+00  0.00000000000E+00 -0.78005075267E+03  0.78005075268E+03  0.25500000920E-02 0. -1.
    10030    2    1    2    0    0  0.00000000000E+00  0.00000000000E+00  0.15937615626E+04  0.31538630679E+04  0.27215393315E+04 0.  0.
        5    1    3    3  502    0 -0.99234776320E+03 -0.83962713595E+03  0.12632296144E+04  0.18125945380E+04  0.46999998093E+01 0.  1.
       -5    1    3    3    0  502  0.99234776320E+03  0.83962713595E+03  0.33053194818E+03  0.13412685299E+04  0.46999998093E+01 0. -1.
</event>
<event>
 5   0  0.1828511E-06  0.2684892E+04  0.7818609E-02  0.8339924E-01
        1   -1    0    0  501    0  0.00000000000E+00  0.00000000000E+00  0.10296296900E+04  0.10296296900E+04  0.50400001928E-02 0.  1.
       -1   -1    0    0    0  501  0.00000000000E+00  0.00000000000E+00 -0.17503006705E+04  0.17503006705E+04  0.50400001928E-02 0. -1.
    10030    2    1    2    0    0  0.00000000000E+00  0.00000000000E+00 -0.72067098045E+03  0.27799303605E+04  0.26848922040E+04 0.  0.
        4    1    3    3  502    0  0.87192937819E+03  0.48647710848E+03 -0.12894505336E+04  0.16308295770E+04  0.12699999809E+01 0. -1.
       -4    1    3    3    0  502 -0.87192937819E+03 -0.48647710848E+03  0.56877955319E+03  0.11491007835E+04  0.12699999809E+01 0.  1.
</event>
<event>
 5   0  0.1753474E-06  0.2689952E+04  0.7818609E-02  0.8338273E-01
        1   -1    0    0  501    0  0.00000000000E+00  0.00000000000E+00  0.16795275358E+04  0.16795275358E+04  0.50400001928E-02 0. -1.
       -1   -1    0    0    0  501  0.00000000000E+00  0.00000000000E+00 -0.10770651845E+04  0.10770651845E+04  0.50400001928E-02 0.  1.
    10030    2    1    2    0    0  0.00000000000E+00  0.00000000000E+00  0.60246235130E+03  0.27565927204E+04  0.26899521448E+04 0.  0.
        3    1    3    3  502    0  0.10607881201E+04  0.30150804878E+03 -0.48776625045E+03  0.12058583932E+04  0.10100000352E+00 0.  1.
       -3    1    3    3    0  502 -0.10607881201E+04 -0.30150804878E+03  0.10902286018E+04  0.15507343272E+04  0.10100000352E+00 0. -1.
</event>
<event>
 5   0  0.1828511E-06  0.2691940E+04  0.7818609E-02  0.8337625E-01
       -1   -1    0    0    0  501  0.00000000000E+00  0.00000000000E+00  0.17609168262E+04  0.17609168262E+04  0.50400001928E-02 0. -1.
        1   -1    0    0  501    0  0.00000000000E+00  0.00000000000E+00 -0.10288019834E+04  0.10288019834E+04  0.50400001928E-02 0.  1.
    10030    2    1    2    0    0  0.00000000000E+00  0.00000000000E+00  0.73211484280E+03  0.27897188097E+04  0.26919396156E+04 0.  0.
        4    1    3    3  502    0 -0.38070301583E+03  0.35728602210E+03  0.16517015751E+04  0.17322551181E+04  0.12699999809E+01 0. -1.
       -4    1    3    3    0  502  0.38070301583E+03 -0.35728602210E+03 -0.91958673233E+03  0.10574636916E+04  0.12699999809E+01 0.  1.
</event>
<event>
 5   0  0.4401659E-06  0.2701828E+04  0.7818609E-02  0.8334412E-01
       -2   -1    0    0    0  501  0.00000000000E+00  0.00000000000E+00  0.19577736895E+04  0.19577736895E+04  0.25500000920E-02 0. -1.
        2   -1    0    0  501    0  0.00000000000E+00  0.00000000000E+00 -0.93216541473E+03  0.93216541473E+03  0.25500000920E-02 0.  1.
    10030    2    1    2    0    0  0.00000000000E+00  0.00000000000E+00  0.10256082748E+04  0.28899391042E+04  0.27018282131E+04 0.  0.
        5    1    3    3  502    0 -0.75533353011E+02 -0.33700162711E+03  0.19097470196E+04  0.19407295414E+04  0.46999998093E+01 0. -1.
       -5    1    3    3    0  502  0.75533353011E+02  0.33700162711E+03 -0.88413874481E+03  0.94920956283E+03  0.46999998093E+01 0.  1.
</event>
<event>
 5   0  0.1828511E-06  0.2591390E+04  0.7818609E-02  0.8371132E-01
        1   -1    0    0  501    0  0.00000000000E+00  0.00000000000E+00  0.21177469550E+04  0.21177469550E+04  0.50400001928E-02 0. -1.
       -1   -1    0    0    0  501  0.00000000000E+00  0.00000000000E+00 -0.79274154659E+03  0.79274154661E+03  0.50400001928E-02 0.  1.
    10030    2    1    2    0    0  0.00000000000E+00  0.00000000000E+00  0.13250054084E+04  0.29104885016E+04  0.25913903576E+04 0.  0.
        4    1    3    3  502    0  0.36793512866E+02 -0.46777077798E+03 -0.69396748251E+03  0.83770862655E+03  0.12699999809E+01 0.  1.
       -4    1    3    3    0  502 -0.36793512866E+02  0.46777077798E+03  0.20189728909E+04  0.20727798750E+04  0.12699999809E+01 0. -1.
</event>
<event>
 5   0  0.1771016E-06  0.2708214E+04  0.7818609E-02  0.8332345E-01
        1   -1    0    0  501    0  0.00000000000E+00  0.00000000000E+00  0.20945898103E+04  0.20945898103E+04  0.50400001928E-02 0. -1.
       -1   -1    0    0    0  501  0.00000000000E+00  0.00000000000E+00 -0.87540120418E+03  0.87540120419E+03  0.50400001928E-02 0.  1.
    10030    2    1    2    0    0  0.00000000000E+00  0.00000000000E+00  0.12191886061E+04  0.29699910145E+04  0.27082144983E+04 0.  0.
        2    1    3    3  502    0  0.31011044239E+03 -0.38445057235E+03  0.19922717601E+04  0.20525879994E+04  0.25500000920E-02 0. -1.
       -2    1    3    3    0  502 -0.31011044239E+03  0.38445057235E+03 -0.77308315402E+03  0.91740301509E+03  0.25500000920E-02 0.  1.
</event>
<event>
 5   0  0.1482875E-06  0.2698050E+04  0.7818609E-02  0.8335638E-01
       -3   -1    0    0    0  501  0.00000000000E+00  0.00000000000E+00  0.14542610772E+04  0.14542610807E+04  0.10100000352E+00 0. -1.
        3   -1    0    0  501    0  0.00000000000E+00  0.00000000000E+00 -0.12514039699E+04  0.12514039740E+04  0.10100000352E+00 0.  1.
    10030    2    1    2    0    0  0.00000000000E+00  0.00000000000E+00  0.20285710722E+03  0.27056650547E+04  0.26980497368E+04 0.  0.
        2    1    3    3  502    0  0.96711849718E+03 -0.17112136427E+03  0.10288455206E+04  0.14223655698E+04  0.25500000920E-02 0. -1.
       -2    1    3    3    0  502 -0.96711849718E+03  0.17112136427E+03 -0.82598841336E+03  0.12832994849E+04  0.25500000920E-02 0.  1.
</event>
<event>
 5   0  0.4448804E-06  0.2735262E+04  0.7818609E-02  0.8323654E-01
       -2   -1    0    0    0  501  0.00000000000E+00  0.00000000000E+00  0.12564978247E+04  0.12564978247E+04  0.25500000920E-02 0. -1.
        2   -1    0    0  501    0  0.00000000000E+00  0.00000000000E+00 -0.14885930487E+04  0.14885930487E+04  0.25500000920E-02 0.  1.
    10030    2    1    2    0    0  0.00000000000E+00  0.00000000000E+00 -0.23209522396E+03  0.27450908734E+04  0.27352615433E+04 0.  0.
        2    1    3    3  502    0  0.22679641162E+03  0.34828162431E+03 -0.14236792738E+04  0.14831046413E+04  0.25500000920E-02 0.  1.
       -2    1    3    3    0  502 -0.22679641162E+03 -0.34828162431E+03  0.11915840499E+04  0.12619862321E+04  0.25500000920E-02 0. -1.
</event>
<event>
 5   0  0.4439357E-06  0.2700525E+04  0.7818609E-02  0.8334835E-01
        2   -1    0    0  501    0  0.00000000000E+00  0.00000000000E+00  0.19945142014E+04  0.19945142014E+04  0.25500000920E-02 0. -1.
       -2   -1    0    0    0  501  0.00000000000E+00  0.00000000000E+00 -0.91411174901E+03  0.91411174902E+03  0.25500000920E-02 0.  1.
    10030    2    1    2    0    0  0.00000000000E+00  0.00000000000E+00  0.10804024523E+04  0.29086259504E+04  0.27005250342E+04 0.  0.
        4    1    3    3  502    0  0.13354036139E+04  0.19870370450E+03  0.56230793211E+03  0.14625244605E+04  0.12699999809E+01 0. -1.
       -4    1    3    3    0  502 -0.13354036139E+04 -0.19870370450E+03  0.51809452023E+03  0.14461014899E+04  0.12699999809E+01 0.  1.
</event>
<event>
 5   0  0.4487186E-06  0.2721453E+04  0.7818609E-02  0.8328078E-01
        2   -1    0    0  501    0  0.00000000000E+00  0.00000000000E+00  0.21286442691E+04  0.21286442691E+04  0.25500000920E-02 0. -1.
       -2   -1    0    0    0  501  0.00000000000E+00  0.00000000000E+00 -0.86983834268E+03  0.86983834268E+03  0.25500000920E-02 0.  1.
    10030    2    1    2    0    0  0.00000000000E+00  0.00000000000E+00  0.12588059264E+04  0.29984826117E+04  0.27214528496E+04 0.  0.
        3    1    3    3  502    0  0.26643034511E+03 -0.36091700842E+03  0.20448256126E+04  0.20934559972E+04  0.10100000352E+00 0. -1.
       -3    1    3    3    0  502 -0.26643034511E+03  0.36091700842E+03 -0.78601968624E+03  0.90502661459E+03  0.10100000352E+00 0.  1.
</event>
<event>
 5   0  0.1723605E-06  0.2700710E+04  0.7818609E-02  0.8334775E-01
        1   -1    0    0  501    0  0.00000000000E+00  0.00000000000E+00  0.10791162133E+04  0.10791162133E+04  0.50400001928E-02 0. -1.
       -1   -1    0    0    0  501  0.00000000000E+00  0.00000000000E+00 -0.16897705287E+04  0.16897705287E+04  0.50400001928E-02 0.  1.
    10030    2    1    2    0    0  0.00000000000E+00  0.00000000000E+00 -0.61065431538E+03  0.27688867420E+04  0.27007101098E+04 0.  0.
        1    1    3    3  502    0 -0.12535769389E+04 -0.29449458906E+03 -0.72213210656E+03  0.14763661416E+04  0.50400001928E-02 0.  1.
       -1    1    3    3    0  502  0.12535769389E+04  0.29449458906E+03  0.11147779119E+03  0.12925206005E+04  0.50400001928E-02 0. -1.
</event>
<event>
 5   0  0.1753474E-06  0.2665806E+04  0.7818609E-02  0.8346186E-01
       -1   -1    0    0    0  501  0.00000000000E+00  0.00000000000E+00  0.93038679528E+03  0.93038679529E+03  0.50400001928E-02 0. -1.
        1   -1    0    0  501    0  0.00000000000E+00  0.00000000000E+00 -0.19095611028E+04  0.19095611028E+04  0.50400001928E-02 0.  1.
    10030    2    1    2    0    0  0.00000000000E+00  0.00000000000E+00 -0.97917430752E+03  0.28399478981E+04  0.26658060206E+04 0.  0.
        3    1    3    3  502    0  0.74911784977E+03  0.10682298541E+04 -0.78004748487E+03  0.15201206080E+04  0.10100000352E+00 0.  1.
       -3    1    3    3    0  502 -0.74911784977E+03 -0.10682298541E+04 -0.19912682265E+03  0.13198272901E+04  0.10100000352E+00 0. -1.
</event>
<event>
 5   0  0.1732312E-06  0.2687926E+04  0.7818609E-02  0.8338933E-01
        1   -1    0    0  501    0  0.00000000000E+00  0.00000000000E+00  0.18318815844E+04  0.18318815844E+04  0.50400001928E-02 0.  1.
       -1   -1    0    0    0  501  0.00000000000E+00  0.00000000000E+00 -0.98600076856E+03  0.98600076858E+03  0.50400001928E-02 0. -1.
    10030    2    1    2    0    0  0.00000000000E+00  0.00000000000E+00  0.84588081587E+03  0.28178823530E+04  0.26879260780E+04 0.  0.
        5    1    3    3  502    0  0.12050363938E+03 -0.47843945505E+03 -0.88761602386E+03  0.10155342117E+04  0.46999998093E+01 0. -1.
       -5    1    3    3    0  502 -0.12050363938E+03  0.47843945505E+03  0.17334968397E+04  0.18023481413E+04  0.46999998093E+01 0.  1.
</event>
<event>
 5   0  0.1732312E-06  0.2699682E+04  0.7818609E-02  0.8335108E-01
       -1   -1    0    0    0  501  0.00000000000E+00  0.00000000000E+00  0.93573873414E+03  0.93573873416E+03  0.50400001928E-02 0. -1.
        1   -1    0    0  501    0  0.00000000000E+00  0.00000000000E+00 -0.19472003204E+04  0.19472003205E+04  0.50400001928E-02 0.  1.
    10030    2    1    2    0    0  0.00000000000E+00  0.00000000000E+00 -0.10114615863E+04  0.28829390546E+04  0.26996820279E+04 0.  0.
        5    1    3    3  502    0 -0.80180666283E+03 -0.78267966152E+03  0.29807030853E+03  0.11594608126E+04  0.46999998093E+01 0. -1.
       -5    1    3    3    0  502  0.80180666283E+03  0.78267966152E+03 -0.13095318948E+04  0.17234782420E+04  0.46999998093E+01 0.  1.
</event>
<event>
 5   0  0.4448804E-06  0.2700110E+04  0.7818609E-02  0.8334969E-01
        2   -1    0    0  501    0  0.00000000000E+00  0.00000000000E+00  0.13840162783E+04  0.13840162783E+04  0.25500000920E-02 0. -1.
       -2   -1    0    0    0  501  0.00000000000E+00  0.00000000000E+00 -0.13169273505E+04  0.13169273505E+04  0.25500000920E-02 0.  1.
    10030    2    1    2    0    0  0.00000000000E+00  0.00000000000E+00  0.67088927768E+02  0.27009436287E+04  0.27001102869E+04 0.  0.
        2    1    3    3  502    0  0.11984047698E+04 -0.56671573227E+03 -0.22208905416E+03  0.13441221155E+04  0.25500000920E-02 0. -1.
       -2    1    3    3    0  502 -0.11984047698E+04  0.56671573227E+03  0.28917798193E+03  0.13568215132E+04  0.25500000920E-02 0.  1.
</event>
<event>
 5   0  0.4448804E-06  0.2650116E+04  0.7818609E-02  0.8351374E-01
       -2   -1    0    0    0  501  0.00000000000E+00  0.00000000000E+00  0.96934898058E+03  0.96934898058E+03  0.25500000920E-02 0.  1.
        2   -1    0    0  501    0  0.00000000000E+00  0.00000000000E+00 -0.18112974516E+04  0.18112974516E+04  0.25500000920E-02 0. -1.
    10030    2    1    2    0    0  0.00000000000E+00  0.00000000000E+00 -0.84194847105E+03  0.27806464322E+04  0.26501164791E+04 0.  0.
        2    1    3    3  502    0 -0.10140215631E+04  0.56117639357E+03 -0.10949686448E+04  0.15944011441E+04  0.25500000920E-02 0. -1.
       -2    1    3    3    0  502  0.10140215631E+04 -0.56117639357E+03  0.25302017375E+03  0.11862452881E+04  0.25500000920E-02 0.  1.
</event>
<event>
 5   0  0.1753474E-06  0.2730596E+04  0.7818609E-02  0.8325145E-01
       -1   -1    0    0    0  501  0.00000000000E+00  0.00000000000E+00  0.16506220533E+04  0.16506220534E+04  0.50400001928E-02 0.  1.
        1   -1    0    0  501    0  0.00000000000E+00  0.00000000000E+00 -0.11292948303E+04  0.11292948303E+04  0.50400001928E-02 0. -1.
    10030    2    1    2    0    0  0.00000000000E+00  0.00000000000E+00  0.52132722303E+03  0.27799168837E+04  0.27305962365E+04 0.  0.
        3    1    3    3  502    0 -0.11411752455E+02  0.24173052910E+03  0.16286131313E+04  0.16464946457E+04  0.10100000352E+00 0.  1.
       -3    1    3    3    0  502  0.11411752455E+02 -0.24173052910E+03 -0.11072859082E+04  0.11334222380E+04  0.10100000352E+00 0. -1.
</event>
<event>
 5   0  0.1723605E-06  0.2704420E+04  0.7818609E-02  0.8333572E-01
       -1   -1    0    0    0  501  0.00000000000E+00  0.00000000000E+00  0.88379946810E+03  0.88379946811E+03  0.50400001928E-02 0. -1.
        1   -1    0    0  501    0  0.00000000000E+00  0.00000000000E+00 -0.20688763371E+04  0.20688763371E+04  0.50400001928E-02 0.  1.
    10030    2    1    2    0    0  0.00000000000E+00  0.00000000000E+00 -0.11850768690E+04  0.29526758052E+04  0.27044199425E+04 0.  0.
        1    1    3    3  502    0  0.60467351361E+03 -0.11991970365E+04 -0.42071238801E+03  0.14073743297E+04  0.50400001928E-02 0. -1.
       -1    1    3    3    0  502 -0.60467351361E+03  0.11991970365E+04 -0.76436448098E+03  0.15453014755E+04  0.50400001928E-02 0.  1.
</event>
<event>
 5   0  0.4487186E-06  0.2701134E+04  0.7818609E-02  0.8334637E-01
        2   -1    0    0  501    0  0.00000000000E+00  0.00000000000E+00  0.12375706662E+04  0.12375706662E+04  0.25500000920E-02 0. -1.
       -2   -1    0    0    0  501  0.00000000000E+00  0.00000000000E+00 -0.14738803003E+04  0.14738803003E+04  0.25500000920E-02 0.  1.
    10030    2    1    2    0    0  0.00000000000E+00  0.00000000000E+00 -0.23630963414E+03  0.27114509665E+04  0.27011338546E+04 0.  0.
        3    1    3    3  502    0 -0.46156738256E+03 -0.11539838987E+04 -0.64866915381E+03  0.14019611152E+04  0.10100000352E+00 0.  1.
       -3    1    3    3    0  502  0.46156738256E+03  0.11539838987E+04  0.41235951967E+03  0.13094898514E+04  0.10100000352E+00 0. -1.
</event>
<event>
 5   0  0.4401659E-06  0.2760264E+04  0.7818609E-02  0.8315712E-01
        2   -1    0    0  501    0  0.00000000000E+00  0.00000000000E+00  0.20531108764E+04  0.20531108764E+04  0.25500000920E-02 0.  1.
       -2   -1    0    0    0  501  0.00000000000E+00  0.00000000000E+00 -0.92774573479E+03  0.92774573480E+03  0.25500000920E-02 0. -1.
    10030    2    1    2    0    0  0.00000000000E+00  0.00000000000E+00  0.11253651416E+04  0.29808566112E+04  0.27602643777E+04 0.  0.
        5    1    3    3  502    0 -0.35054515223E+03 -0.13308476738E+04  0.45094724110E+03  0.14482447787E+04  0.46999998093E+01 0.  1.
       -5    1    3    3    0  502  0.35054515223E+03  0.13308476738E+04  0.67441790053E+03  0.15326118325E+04  0.46999998093E+01 0. -1.
</event>
<event>
 5   0  0.1771016E-06  0.2689556E+04  0.7818609E-02  0.8338402E-01
       -1   -1    0    0    0  501  0.00000000000E+00  0.00000000000E+00  0.13665905679E+04  0.13665905679E+04  0.50400001928E-02 0. -1.
        1   -1    0    0  501    0  0.00000000000E+00  0.00000000000E+00 -0.13233135436E+04  0.13233135436E+04  0.50400001928E-02 0.  1.
    10030    2    1    2    0    0  0.00000000000E+00  0.00000000000E+00  0.43277024288E+02  0.26899041116E+04  0.26895559538E+04 0.  0.
        2    1    3    3  502    0 -0.10142720244E+04  0.57898577314E+03 -0.64512277763E+03  0.13342247424E+04  0.25500000920E-02 0.  1.
       -2    1    3    3    0  502  0.10142720244E+04 -0.57898577314E+03  0.68839980192E+03  0.13556793692E+04  0.25500000920E-02 0. -1.
</event>
<event>
 5   0  0.1771016E-06  0.2723203E+04  0.7818609E-02  0.8327515E-01
       -1   -1    0    0    0  501  0.00000000000E+00  0.00000000000E+00  0.96203475565E+03  0.96203475566E+03  0.50400001928E-02 0.  1.
        1   -1    0    0  501    0  0.00000000000E+00  0.00000000000E+00 -0.19271221802E+04  0.19271221802E+04  0.50400001928E-02 0. -1.
    10030    2    1    2    0    0  0.00000000000E+00  0.00000000000E+00 -0.96508742452E+03  0.28891569358E+04  0.27232029052E+04 0.  0.
        2    1    3    3  502    0 -0.75085185556E+03  0.12568930377E+03  0.71513679288E+03  0.10445079907E+04  0.25500000920E-02 0.  1.
       -2    1    3    3    0  502  0.75085185556E+03 -0.12568930377E+03 -0.16802242174E+04  0.18446489451E+04  0.25500000920E-02 0. -1.
</event>
<event>
 5   0  0.1753474E-06  0.2703283E+04  0.7818609E-02  0.8333941E-01
       -1   -1    0    0    0  501  0.00000000000E+00  0.00000000000E+00  0.89145034378E+03  0.89145034380E+03  0.50400001928E-02 0. -1.
        1   -1    0    0  501    0  0.00000000000E+00  0.00000000000E+00 -0.20493957348E+04  0.20493957348E+04  0.50400001928E-02 0.  1.
    10030    2    1    2    0    0  0.00000000000E+00  0.00000000000E+00 -0.11579453910E+04  0.29408460786E+04  0.27032828430E+04 0.  0.
        3    1    3    3  502    0  0.93685065019E+03 -0.43046483443E+03  0.37187721228E+03  0.10960300113E+04  0.10100000352E+00 0. -1.
       -3    1    3    3    0  502 -0.93685065019E+03  0.43046483443E+03 -0.15298226033E+04  0.18448160673E+04  0.10100000352E+00 0.  1.
</event>
<event>
 5   0  0.4487186E-06  0.2680126E+04  0.7818609E-02  0.8341482E-01
        2   -1    0    0  501    0  0.00000000000E+00  0.00000000000E+00  0.17616769905E+04  0.17616769905E+04  0.25500000920E-02 0. -1.
       -2   -1    0    0    0  501  0.00000000000E+00  0.00000000000E+00 -0.10193517176E+04  0.10193517176E+04  0.25500000920E-02 0.  1.
    10030    2    1    2    0    0  0.00000000000E+00  0.00000000000E+00  0.74232527291E+03  0.27810287082E+04  0.26801257181E+04 0.  0.
        3    1    3    3  502    0 -0.92942547745E+03  0.14313935120E+03  0.13618034615E+04  0.16549408660E+04  0.10100000352E+00 0. -1.
       -3    1    3    3    0  502  0.92942547745E+03 -0.14313935120E+03 -0.61947818858E+03  0.11260878422E+04  0.10100000352E+00 0.  1.
</event>
<event>
 5   0  0.1732312E-06  0.2705356E+04  0.7818609E-02  0.8333269E-01
       -1   -1    0    0    0  501  0.00000000000E+00  0.00000000000E+00  0.16584395876E+04  0.16584395876E+04  0.50400001928E-02 0.  1.
        1   -1    0    0  501    0  0.00000000000E+00  0.00000000000E+00 -0.11032884853E+04  0.11032884853E+04  0.50400001928E-02 0. -1.
    10030    2    1    2    0    0  0.00000000000E+00  0.00000000000E+00  0.55515110223E+03  0.27617280729E+04  0.27053556517E+04 0.  0.
        5    1    3    3  502    0 -0.14551772854E+03  0.12996277916E+04  0.63047741762E+03  0.14518029033E+04  0.46999998093E+01 0.  1.
       -5    1    3    3    0  502  0.14551772854E+03 -0.12996277916E+04 -0.75326315386E+02  0.13099251696E+04  0.46999998093E+01 0. -1.
</event>
<event>
 5   0  0.1828511E-06  0.2701479E+04  0.7818609E-02  0.8334525E-01
       -1   -1    0    0    0  501  0.00000000000E+00  0.00000000000E+00  0.18325746915E+04  0.18325746915E+04  0.50400001928E-02 0.  1.
        1   -1    0    0  501    0  0.00000000000E+00  0.00000000000E+00 -0.99559209863E+03  0.99559209865E+03  0.50400001928E-02 0. -1.
    10030    2    1    2    0    0  0.00000000000E+00  0.00000000000E+00  0.83698259287E+03  0.28281667902E+04  0.27014787677E+04 0.  0.
        4    1    3    3  502    0 -0.35795198348E+03 -0.26067541134E+03 -0.91744537215E+03  0.10187192530E+04  0.12699999809E+01 0. -1.
       -4    1    3    3    0  502  0.35795198348E+03  0.26067541134E+03  0.17544279650E+04  0.18094475372E+04  0.12699999809E+01 0.  1.
</event>
<event>
 5   0  0.4487186E-06  0.2694762E+04  0.7818609E-02  0.8336706E-01
       -2   -1    0    0    0  501  0.00000000000E+00  0.00000000000E+00  0.11401758623E+04  0.11401758623E+04  0.25500000920E-02 0. -1.
        2   -1    0    0  501    0  0.00000000000E+00  0.00000000000E+00 -0.15922420837E+04  0.15922420837E+04  0.25500000920E-02 0.  1.
    10030    2    1    2    0    0  0.00000000000E+00  0.00000000000E+00 -0.45206622137E+03  0.27324179460E+04  0.26947623203E+04 0.  0.
        3    1    3    3  502    0  0.12832187253E+04  0.16375052643E+03  0.15602301733E+03  0.13029995103E+04  0.10100000352E+00 0. -1.
       -3    1    3    3    0  502 -0.12832187253E+04 -0.16375052643E+03 -0.60808923870E+03  0.14294184357E+04  0.10100000352E+00 0.  1.
</event>
<event>
 5   0  0.4401659E-06  0.2702229E+04  0.7818609E-02  0.8334282E-01
       -2   -1    0    0    0  501  0.00000000000E+00  0.00000000000E+00  0.10050589821E+04  0.10050589821E+04  0.25500000920E-02 0.  1.
        2   -1    0    0  501    0  0.00000000000E+00  0.00000000000E+00 -0.18163218588E+04  0.18163218588E+04  0.25500000920E-02 0. -1.
    10030    2    1    2    0    0  0.00000000000E+00  0.00000000000E+00 -0.81126287670E+03  0.28213808409E+04  0.27022291529E+04 0.  0.
        5    1    3    3  502    0 -0.20018066212E+02  0.12275866856E+04  0.18325851833E+03  0.12413603700E+04  0.46999998093E+01 0.  1.
       -5    1    3    3    0  502  0.20018066212E+02 -0.12275866856E+04 -0.99452139504E+03  0.15800204710E+04  0.46999998093E+01 0. -1.
</event>
<event>
 5   0  0.4401659E-06  0.2699914E+04  0.7818609E-02  0.8335033E-01
       -2   -1    0    0    0  501  0.00000000000E+00  0.00000000000E+00  0.85156302997E+03  0.85156302997E+03  0.25500000920E-02 0. -1.
        2   -1    0    0  501    0  0.00000000000E+00  0.00000000000E+00 -0.21400459953E+04  0.21400459953E+04  0.25500000920E-02 0.  1.
    10030    2    1    2    0    0  0.00000000000E+00  0.00000000000E+00 -0.12884829654E+04  0.29916090253E+04  0.26999141113E+04 0.  0.
        5    1    3    3  502    0 -0.16954491826E+03 -0.57478332738E+03  0.69609166681E+03  0.91852438800E+03  0.46999998093E+01 0. -1.
       -5    1    3    3    0  502  0.16954491826E+03  0.57478332738E+03 -0.19845746322E+04  0.20730846373E+04  0.46999998093E+01 0.  1.
</event>
<event>
 5   0  0.4401659E-06  0.2696532E+04  0.7818609E-02  0.8336131E-01
       -2   -1    0    0    0  501  0.00000000000E+00  0.00000000000E+00  0.13734058836E+04  0.13734058836E+04  0.25500000920E-02 0.  1.
        2   -1    0    0  501    0  0.00000000000E+00  0.00000000000E+00 -0.13235859104E+04  0.13235859104E+04  0.25500000920E-02 0. -1.
    10030    2    1    2    0    0  0.00000000000E+00  0.00000000000E+00  0.49819973191E+02  0.26969917939E+04  0.26965316069E+04 0.  0.
        5    1    3    3  502    0 -0.81913353255E+03 -0.94765107624E+03 -0.47394991285E+03  0.13392807459E+04  0.46999998093E+01 0. -1.
       -5    1    3    3    0  502  0.81913353255E+03  0.94765107624E+03  0.52376988604E+03  0.13577110480E+04  0.46999998093E+01 0.  1.
</event>
<event>
 5   0  0.4448804E-06  0.2709276E+04  0.7818609E-02  0.8332002E-01
        2   -1    0    0  501    0  0.00000000000E+00  0.00000000000E+00  0.16109894070E+04  0.16109894070E+04  0.25500000920E-02 0. -1.
       -2   -1    0    0    0  501  0.00000000000E+00  0.00000000000E+00 -0.11390786755E+04  0.11390786755E+04  0.25500000920E-02 0.  1.
    10030    2    1    2    0    0  0.00000000000E+00  0.00000000000E+00  0.47191073144E+03  0.27500680825E+04  0.27092756818E+04 0.  0.
        2    1    3    3  502    0 -0.22944253382E+03 -0.38555300658E+03 -0.10614714565E+04  0.11523960474E+04  0.25500000920E-02 0.  1.
       -2    1    3    3    0  502  0.22944253382E+03  0.38555300658E+03  0.15333821879E+04  0.15976720350E+04  0.25500000920E-02 0. -1.
</event>
<event>
 5   0  0.4439357E-06  0.2697541E+04  0.7818609E-02  0.8335803E-01
        2   -1    0    0  501    0  0.00000000000E+00  0.00000000000E+00  0.15769995026E+04  0.15769995026E+04  0.25500000920E-02 0.  1.
       -2   -1    0    0    0  501  0.00000000000E+00  0.00000000000E+00 -0.11535718035E+04  0.11535718035E+04  0.25500000920E-02 0. -1.
    10030    2    1    2    0    0  0.00000000000E+00  0.00000000000E+00  0.42342769908E+03  0.27305713061E+04  0.26975412214E+04 0.  0.
        4    1    3    3  502    0  0.50199566792E+03  0.10451236410E+04  0.90927994026E+03  0.14734567175E+04  0.12699999809E+01 0. -1.
       -4    1    3    3    0  502 -0.50199566792E+03 -0.10451236410E+04 -0.48585224118E+03  0.12571145886E+04  0.12699999809E+01 0.  1.
</event>
<event>
 5   0  0.4401659E-06  0.2697703E+04  0.7818609E-02  0.8335751E-01
        2   -1    0    0  501    0  0.00000000000E+00  0.00000000000E+00  0.10103671886E+04  0.10103671886E+04  0.25500000920E-02 0. -1.
       -2   -1    0    0    0  501  0.00000000000E+00  0.00000000000E+00 -0.18007320987E+04  0.18007320987E+04  0.25500000920E-02 0.  1.
    10030    2    1    2    0    0  0.00000000000E+00  0.00000000000E+00 -0.79036491015E+03  0.28110992873E+04  0.26977031920E+04 0.  0.
        5    1    3    3  502    0 -0.52000675060E+03  0.43358489386E+03 -0.16108286580E+04  0.17473391017E+04  0.46999998093E+01 0.  1.
       -5    1    3    3    0  502  0.52000675060E+03 -0.43358489386E+03  0.82046374788E+03  0.10637601856E+04  0.46999998093E+01 0. -1.
</event>
<event>
 5   0  0.4401659E-06  0.2720538E+04  0.7818609E-02  0.8328372E-01
        2   -1    0    0  501    0  0.00000000000E+00  0.00000000000E+00  0.90773712308E+03  0.90773712308E+03  0.25500000920E-02 0. -1.
       -2   -1    0    0    0  501  0.00000000000E+00  0.00000000000E+00 -0.20383999820E+04  0.20383999820E+04  0.25500000920E-02 0.  1.
    10030    2    1    2    0    0  0.00000000000E+00  0.00000000000E+00 -0.11306628590E+04  0.29461371051E+04  0.27205376935E+04 0.  0.
        5    1    3    3  502    0  0.48644492566E+03 -0.19207950984E+03 -0.19251613404E+04  0.19949414729E+04  0.46999998093E+01 0.  1.
       -5    1    3    3    0  502 -0.48644492566E+03  0.19207950984E+03  0.79449848141E+03  0.95119563223E+03  0.46999998093E+01 0. -1.
</event>
<event>
 5   0  0.4655882E-06  0.2706642E+04  0.7818609E-02  0.8332853E-01
       -2   -1    0    0    0  501  0.00000000000E+00  0.00000000000E+00  0.23532006388E+04  0.23532006388E+04  0.25500000920E-02 0.  1.
        2   -1    0    0  501    0  0.00000000000E+00  0.00000000000E+00 -0.77829217876E+03  0.77829217876E+03  0.25500000920E-02 0. -1.
    10030    2    1    2    0    0  0.00000000000E+00  0.00000000000E+00  0.15749084600E+04  0.31314928176E+04  0.27066419432E+04 0.  0.
        1    1    3    3  502    0  0.32323832616E+03 -0.83926282880E+03  0.19574395604E+04  0.21541621907E+04  0.50400001928E-02 0.  1.
       -1    1    3    3    0  502 -0.32323832616E+03  0.83926282880E+03 -0.38253110038E+03  0.97733062681E+03  0.50400001928E-02 0. -1.
</event>
<event>
 5   0  0.4655882E-06  0.2705400E+04  0.7818609E-02  0.8333255E-01
       -2   -1    0    0    0  501  0.00000000000E+00  0.00000000000E+00  0.81806854769E+03  0.81806854769E+03  0.25500000920E-02 0. -1.
        2   -1    0    0  501    0  0.00000000000E+00  0.00000000000E+00 -0.22367282356E+04  0.22367282357E+04  0.25500000920E-02 0.  1.
    10030    2    1    2    0    0  0.00000000000E+00  0.00000000000E+00 -0.14186596880E+04  0.30547967833E+04  0.27053997999E+04 0.  0.
        1    1    3    3  502    0 -0.40189327750E+03  0.61149759769E+03 -0.19939556775E+04  0.21239837011E+04  0.50400001928E-02 0.  1.
       -1    1    3    3    0  502  0.40189327750E+03 -0.61149759769E+03  0.57529598957E+03  0.93081308227E+03  0.50400001928E-02 0. -1.
</event>
<event>
 5   0  0.1771016E-06  0.2697798E+04  0.7818609E-02  0.8335720E-01
       -1   -1    0    0    0  501  0.00000000000E+00  0.00000000000E+00  0.11366830537E+04  0.11366830537E+04  0.50400001928E-02 0. -1.
        1   -1    0    0  501    0  0.00000000000E+00  0.00000000000E+00 -0.16007347422E+04  0.16007347422E+04  0.50400001928E-02 0.  1.
    10030    2    1    2    0    0  0.00000000000E+00  0.00000000000E+00 -0.46405168846E+03  0.27374177959E+04  0.26977976610E+04 0.  0.
        2    1    3    3  502    0 -0.12064385714E+04 -0.33480744290E+03  0.27727987743E+03  0.12823705318E+04  0.25500000920E-02 0.  1.
       -2    1    3    3    0  502  0.12064385714E+04  0.33480744290E+03 -0.74133156589E+03  0.14550472641E+04  0.25500000920E-02 0. -1.
</event>
<event>
 5   0  0.4487186E-06  0.2697359E+04  0.7818609E-02  0.8335862E-01
        2   -1    0    0  501    0  0.00000000000E+00  0.00000000000E+00  0.14492710561E+04  0.14492710561E+04  0.25500000920E-02 0. -1.
       -2   -1    0    0    0  501  0.00000000000E+00  0.00000000000E+00 -0.12550702958E+04  0.12550702958E+04  0.25500000920E-02 0.  1.
    10030    2    1    2    0    0  0.00000000000E+00  0.00000000000E+00  0.19420076037E+03  0.27043413519E+04  0.26973594889E+04 0.  0.
        3    1    3    3  502    0  0.20554899182E+03 -0.94206055690E+03 -0.84831899031E+03  0.12842794090E+04  0.10100000352E+00 0.  1.
       -3    1    3    3    0  502 -0.20554899182E+03  0.94206055690E+03  0.10425197507E+04  0.14200619429E+04  0.10100000352E+00 0. -1.
</event>
<event>
 5   0  0.1828511E-06  0.2666982E+04  0.7818609E-02  0.8345798E-01
        1   -1    0    0  501    0  0.00000000000E+00  0.00000000000E+00  0.13724108081E+04  0.13724108081E+04  0.50400001928E-02 0. -1.
       -1   -1    0    0    0  501  0.00000000000E+00  0.00000000000E+00 -0.12956750906E+04  0.12956750906E+04  0.50400001928E-02 0.  1.
    10030    2    1    2    0    0  0.00000000000E+00  0.00000000000E+00  0.76735717531E+02  0.26680858987E+04  0.26669821883E+04 0.  0.
        4    1    3    3  502    0  0.13844506208E+03  0.35206771213E+03  0.13175987940E+04  0.13708343824E+04  0.12699999809E+01 0. -1.
       -4    1    3    3    0  502 -0.13844506208E+03 -0.35206771213E+03 -0.12408630765E+04  0.12972515163E+04  0.12699999809E+01 0.  1.
</event>
<event>
 5   0  0.1723605E-06  0.2684752E+04  0.7818609E-02  0.8339969E-01
       -1   -1    0    0    0  501  0.00000000000E+00  0.00000000000E+00  0.73991088925E+03  0.73991088927E+03  0.50400001928E-02 0. -1.
        1   -1    0    0  501    0  0.00000000000E+00  0.00000000000E+00 -0.24353923239E+04  0.24353923239E+04  0.50400001928E-02 0.  1.
    10030    2    1    2    0    0  0.00000000000E+00  0.00000000000E+00 -0.16954814346E+04  0.31753032131E+04  0.26847519811E+04 0.  0.
        1    1    3    3  502    0  0.13291700655E+04  0.80326931604E+02 -0.64692997534E+03  0.14804269222E+04  0.50400001928E-02 0.  1.
       -1    1    3    3    0  502 -0.13291700655E+04 -0.80326931604E+02 -0.10485514593E+04  0.16948762909E+04  0.50400001928E-02 0. -1.
</event>
<event>
 5   0  0.1482875E-06  0.2702070E+04  0.7818609E-02  0.8334334E-01
        3   -1    0    0  501    0  0.00000000000E+00  0.00000000000E+00  0.87358213200E+03  0.87358213784E+03  0.10100000352E+00 0.  1.
       -3   -1    0    0    0  501  0.00000000000E+00  0.00000000000E+00 -0.20894376684E+04  0.20894376708E+04  0.10100000352E+00 0. -1.
    10030    2    1    2    0    0  0.00000000000E+00  0.00000000000E+00 -0.12158555363E+04  0.29630198086E+04  0.27020698920E+04 0.  0.
        2    1    3    3  502    0  0.10950393341E+04 -0.10725356527E+03  0.25180376321E+03  0.11287247697E+04  0.25500000920E-02 0.  1.
       -2    1    3    3    0  502 -0.10950393341E+04  0.10725356527E+03 -0.14676592996E+04  0.18342950390E+04  0.25500000920E-02 0. -1.
</event>
<event>
 5   0  0.4439357E-06  0.2702029E+04  0.7818609E-02  0.8334347E-01
        2   -1    0    0  501    0  0.00000000000E+00  0.00000000000E+00  0.11945982183E+04  0.11945982183E+04  0.25500000920E-02 0.  1.
       -2   -1    0    0    0  501  0.00000000000E+00  0.00000000000E+00 -0.15279109161E+04  0.15279109161E+04  0.25500000920E-02 0. -1.
    10030    2    1    2    0    0  0.00000000000E+00  0.00000000000E+00 -0.33331269775E+03  0.27225091344E+04  0.27020286143E+04 0.  0.
        4    1    3    3  502    0  0.55298193719E+03 -0.23877201540E+02 -0.14084258140E+04  0.15132825348E+04  0.12699999809E+01 0. -1.
       -4    1    3    3    0  502 -0.55298193719E+03  0.23877201540E+02  0.10751131162E+04  0.12092265996E+04  0.12699999809E+01 0.  1.
</event>
<event>
 5   0  0.1828511E-06  0.2699957E+04  0.7818609E-02  0.8335019E-01
       -1   -1    0    0    0  501  0.00000000000E+00  0.00000000000E+00  0.13364068646E+04  0.13364068646E+04  0.50400001928E-02 0. -1.
        1   -1    0    0  501    0  0.00000000000E+00  0.00000000000E+00 -0.13636876880E+04  0.13636876881E+04  0.50400001928E-02 0.  1.
    10030    2    1    2    0    0  0.00000000000E+00  0.00000000000E+00 -0.27280823428E+02  0.27000945527E+04  0.26999567312E+04 0.  0.
        4    1    3    3  502    0  0.13690819056E+03 -0.72148857743E+03 -0.11464605020E+04  0.13614928995E+04  0.12699999809E+01 0.  1.
       -4    1    3    3    0  502 -0.13690819056E+03  0.72148857743E+03  0.11191796786E+04  0.13386016531E+04  0.12699999809E+01 0. -1.
</event>
<event>
 5   0  0.4448804E-06  0.2690073E+04  0.7818609E-02  0.8338233E-01
        2   -1    0    0  501    0  0.00000000000E+00  0.00000000000E+00  0.14800009534E+04  0.14800009534E+04  0.25500000920E-02 0. -1.
       -2   -1    0    0    0  501  0.00000000000E+00  0.00000000000E+00 -0.12223795623E+04  0.12223795623E+04  0.25500000920E-02 0.  1.
    10030    2    1    2    0    0  0.00000000000E+00  0.00000000000E+00  0.25762139115E+03  0.27023805157E+04  0.26900728002E+04 0.  0.
        2    1    3    3  502    0 -0.38164838328E+03  0.33466275039E+03 -0.11224676162E+04  0.12319042959E+04  0.25500000920E-02 0.  1.
       -2    1    3    3    0  502  0.38164838328E+03 -0.33466275039E+03  0.13800890073E+04  0.14704762198E+04  0.25500000920E-02 0. -1.
</event>
<event>
 5   0  0.4655882E-06  0.2705098E+04  0.7818609E-02  0.8333353E-01
        2   -1    0    0  501    0  0.00000000000E+00  0.00000000000E+00  0.22827143237E+04  0.22827143237E+04  0.25500000920E-02 0.  1.
       -2   -1    0    0    0  501  0.00000000000E+00  0.00000000000E+00 -0.80140943116E+03  0.80140943116E+03  0.25500000920E-02 0. -1.
    10030    2    1    2    0    0  0.00000000000E+00  0.00000000000E+00  0.14813048925E+04  0.30841237548E+04  0.27050979928E+04 0.  0.
        1    1    3    3  502    0  0.12919283564E+04 -0.11168030239E+03  0.11790226033E+04  0.17526110998E+04  0.50400001928E-02 0.  1.
       -1    1    3    3    0  502 -0.12919283564E+04  0.11168030239E+03  0.30228228924E+03  0.13315126550E+04  0.50400001928E-02 0. -1.
</event>
<event>
 5   0  0.4401659E-06  0.2703600E+04  0.7818609E-02  0.8333838E-01
       -2   -1    0    0    0  501  0.00000000000E+00  0.00000000000E+00  0.12872345350E+04  0.12872345350E+04  0.25500000920E-02 0.  1.
        2   -1    0    0  501    0  0.00000000000E+00  0.00000000000E+00 -0.14196037064E+04  0.14196037064E+04  0.25500000920E-02 0. -1.
    10030    2    1    2    0    0  0.00000000000E+00  0.00000000000E+00 -0.13236917146E+03  0.27068382414E+04  0.27035997610E+04 0.  0.
        5    1    3    3  502    0 -0.29744682412E+03 -0.31222332935E+03  0.12165146736E+04  0.12906928611E+04  0.46999998093E+01 0.  1.
       -5    1    3    3    0  502  0.29744682412E+03  0.31222332935E+03 -0.13488838451E+04  0.14161453803E+04  0.46999998093E+01 0. -1.
</event>
<event>
 5   0  0.1771016E-06  0.2723959E+04  0.7818609E-02  0.8327273E-01
        1   -1    0    0  501    0  0.00000000000E+00  0.00000000000E+00  0.17739458555E+04  0.17739458555E+04  0.50400001928E-02 0. -1.
       -1   -1    0    0    0  501  0.00000000000E+00  0.00000000000E+00 -0.10456844532E+04  0.10456844532E+04  0.50400001928E-02 0.  1.
    10030    2    1    2    0    0  0.00000000000E+00  0.00000000000E+00  0.72826140228E+03  0.28196303088E+04  0.27239585915E+04 0.  0.
        2    1    3    3  502    0  0.34811657097E+03 -0.70663212652E+03 -0.78596122177E+03  0.11127664406E+04  0.25500000920E-02 0.  1.
       -2    1    3    3    0  502 -0.34811657097E+03  0.70663212652E+03  0.15142226241E+04  0.17068638682E+04  0.25500000920E-02 0. -1.
</event>
<event>
 5   0  0.1828511E-06  0.2698981E+04  0.7818609E-02  0.8335336E-01
        1   -1    0    0  501    0  0.00000000000E+00  0.00000000000E+00  0.17117881008E+04  0.17117881008E+04  0.50400001928E-02 0.  1.
       -1   -1    0    0    0  501  0.00000000000E+00  0.00000000000E+00 -0.10638729011E+04  0.10638729012E+04  0.50400001928E-02 0. -1.
    10030    2    1    2    0    0  0.00000000000E+00  0.00000000000E+00  0.64791519960E+03  0.27756610019E+04  0.26989812692E+04 0.  0.
        4    1    3    3  502    0 -0.79249722707E+02 -0.75775158675E+03  0.14694497927E+04  0.16552197111E+04  0.12699999809E+01 0.  1.
       -4    1    3    3    0  502  0.79249722707E+02  0.75775158675E+03 -0.82153459307E+03  0.11204412909E+04  0.12699999809E+01 0. -1.
</event>
<event>
 5   0  0.4439357E-06  0.2690208E+04  0.7818609E-02  0.8338189E-01
        2   -1    0    0  501    0  0.00000000000E+00  0.00000000000E+00  0.18318396240E+04  0.18318396240E+04  0.25500000920E-02 0.  1.
       -2   -1    0    0    0  501  0.00000000000E+00  0.00000000000E+00 -0.98769853774E+03  0.98769853774E+03  0.25500000920E-02 0. -1.
    10030    2    1    2    0    0  0.00000000000E+00  0.00000000000E+00  0.84414108623E+03  0.28195381617E+04  0.26902084068E+04 0.  0.
        4    1    3    3  502    0 -0.89109724374E+03 -0.78936208777E+03 -0.23425904446E+03  0.12132706690E+04  0.12699999809E+01 0. -1.
       -4    1    3    3    0  502  0.89109724374E+03  0.78936208777E+03  0.10784001307E+04  0.16062674927E+04  0.12699999809E+01 0.  1.
</event>
<event>
 5   0  0.4487186E-06  0.2705076E+04  0.7818609E-02  0.8333360E-01
       -2   -1    0    0    0  501  0.00000000000E+00  0.00000000000E+00  0.69176912086E+03  0.69176912087E+03  0.25500000920E-02 0. -1.
        2   -1    0    0  501    0  0.00000000000E+00  0.00000000000E+00 -0.26444639932E+04  0.26444639932E+04  0.25500000920E-02 0.  1.
    10030    2    1    2    0    0  0.00000000000E+00  0.00000000000E+00 -0.19526948724E+04  0.33362331141E+04  0.27050756232E+04 0.  0.
        3    1    3    3  502    0  0.78612549833E+03  0.87713971217E+03 -0.15640424546E+03  0.11882043898E+04  0.10100000352E+00 0. -1.
       -3    1    3    3    0  502 -0.78612549833E+03 -0.87713971217E+03 -0.17962906269E+04  0.21480287243E+04  0.10100000352E+00 0.  1.
</event>
<event>
 5   0  0.1723605E-06  0.2737033E+04  0.7818609E-02  0.8323088E-01
       -1   -1    0    0    0  501  0.00000000000E+00  0.00000000000E+00  0.29663741885E+04  0.29663741885E+04  0.50400001928E-02 0. -1.
        1   -1    0    0  501    0  0.00000000000E+00  0.00000000000E+00 -0.63135589890E+03  0.63135589892E+03  0.50400001928E-02 0.  1.
    10030    2    1    2    0    0  0.00000000000E+00  0.00000000000E+00  0.23350182896E+04  0.35977300874E+04  0.27370333153E+04 0.  0.
        1    1    3    3  502    0 -0.11386436719E+04  0.74204098512E+03  0.95676984571E+03  0.16620898811E+04  0.50400001928E-02 0.  1.
       -1    1    3    3    0  502  0.11386436719E+04 -0.74204098512E+03  0.13782484439E+04  0.19356402063E+04  0.50400001928E-02 0. -1.
</event>
<event>
 5   0  0.1753474E-06  0.2697201E+04  0.7818609E-02  0.8335914E-01
        1   -1    0    0  501    0  0.00000000000E+00  0.00000000000E+00  0.19968324299E+04  0.19968324299E+04  0.50400001928E-02 0.  1.
       -1   -1    0    0    0  501  0.00000000000E+00  0.00000000000E+00 -0.91080421422E+03  0.91080421424E+03  0.50400001928E-02 0. -1.
    10030    2    1    2    0    0  0.00000000000E+00  0.00000000000E+00  0.10860282156E+04  0.29076366441E+04  0.26972010620E+04 0.  0.
        3    1    3    3  502    0  0.50939523175E+03 -0.10566260204E+04 -0.17431997032E+03  0.11858876470E+04  0.10100000352E+00 0. -1.
       -3    1    3    3    0  502 -0.50939523175E+03  0.10566260204E+04  0.12603481860E+04  0.17217489971E+04  0.10100000352E+00 0.  1.
</event>
<event>
 5   0  0.1771016E-06  0.2696598E+04  0.7818609E-02  0.8336110E-01
       -1   -1    0    0    0  501  0.00000000000E+00  0.00000000000E+00  0.84055576924E+03  0.84055576926E+03  0.50400001928E-02 0. -1.
        1   -1    0    0  501    0  0.00000000000E+00  0.00000000000E+00 -0.21627483030E+04  0.21627483030E+04  0.50400001928E-02 0.  1.
    10030    2    1    2    0    0  0.00000000000E+00  0.00000000000E+00 -0.13221925337E+04  0.30033040722E+04  0.26965982745E+04 0.  0.
        2    1    3    3  502    0 -0.50909403985E+02  0.11017137919E+04 -0.15249044221E+04  0.18819401008E+04  0.25500000920E-02 0.  1.
       -2    1    3    3    0  502  0.50909403985E+02 -0.11017137919E+04  0.20271188836E+03  0.11213639714E+04  0.25500000920E-02 0. -1.
</event>
<event>
 5   0  0.1771016E-06  0.2699799E+04  0.7818609E-02  0.8335070E-01
        1   -1    0    0  501    0  0.00000000000E+00  0.00000000000E+00  0.10254059908E+04  0.10254059908E+04  0.50400001928E-02 0.  1.
       -1   -1    0    0    0  501  0.00000000000E+00  0.00000000000E+00 -0.17770799977E+04  0.17770799977E+04  0.50400001928E-02 0. -1.
    10030    2    1    2    0    0  0.00000000000E+00  0.00000000000E+00 -0.75167400687E+03  0.28024859885E+04  0.26997988635E+04 0.  0.
        2    1    3    3  502    0 -0.39859184115E+03  0.94237822228E+03  0.53815057912E+03  0.11560961100E+04  0.25500000920E-02 0.  1.
       -2    1    3    3    0  502  0.39859184115E+03 -0.94237822228E+03 -0.12898245860E+04  0.16463898786E+04  0.25500000920E-02 0. -1.
</event>
<event>
 5   0  0.4401659E-06  0.2702380E+04  0.7818609E-02  0.8334233E-01
       -2   -1    0    0    0  501  0.00000000000E+00  0.00000000000E+00  0.10131394101E+04  0.10131394102E+04  0.25500000920E-02 0. -1.
        2   -1    0    0  501    0  0.00000000000E+00  0.00000000000E+00 -0.18020365947E+04  0.18020365947E+04  0.25500000920E-02 0.  1.
    10030    2    1    2    0    0  0.00000000000E+00  0.00000000000E+00 -0.78889718451E+03  0.28151760048E+04  0.27023799086E+04 0.  0.
        5    1    3    3  502    0 -0.65342824082E+03 -0.11797467078E+04 -0.30778085741E+03  0.13833010904E+04  0.46999998093E+01 0. -1.
       -5    1    3    3    0  502  0.65342824082E+03  0.11797467078E+04 -0.48111632710E+03  0.14318749144E+04  0.46999998093E+01 0.  1.
</event>
<event>
 5   0  0.1732312E-06  0.2695821E+04  0.7818609E-02  0.8336362E-01
       -1   -1    0    0    0  501  0.00000000000E+00  0.00000000000E+00  0.14786495334E+04  0.14786495334E+04  0.50400001928E-02 0. -1.
        1   -1    0    0  501    0  0.00000000000E+00  0.00000000000E+00 -0.12287315375E+04  0.12287315375E+04  0.50400001928E-02 0.  1.
    10030    2    1    2    0    0  0.00000000000E+00  0.00000000000E+00  0.24991799595E+03  0.27073810709E+04  0.26958214441E+04 0.  0.
        5    1    3    3  502    0  0.88153129635E+02 -0.93865702358E+02 -0.12225318303E+04  0.12293038316E+04  0.46999998093E+01 0.  1.
       -5    1    3    3    0  502 -0.88153129635E+02  0.93865702358E+02  0.14724498263E+04  0.14780772393E+04  0.46999998093E+01 0. -1.
</event>
<event>
 5   0  0.1753474E-06  0.2706940E+04  0.7818609E-02  0.8332757E-01
       -1   -1    0    0    0  501  0.00000000000E+00  0.00000000000E+00  0.80163712111E+03  0.80163712112E+03  0.50400001928E-02 0. -1.
        1   -1    0    0  501    0  0.00000000000E+00  0.00000000000E+00 -0.22851754938E+04  0.22851754938E+04  0.50400001928E-02 0.  1.
    10030    2    1    2    0    0  0.00000000000E+00  0.00000000000E+00 -0.14835383727E+04  0.30868126150E+04  0.27069403423E+04 0.  0.
        3    1    3    3  502    0 -0.12336485211E+04  0.38300147476E+03 -0.28095244130E+03  0.13219353569E+04  0.10100000352E+00 0. -1.
       -3    1    3    3    0  502  0.12336485211E+04 -0.38300147476E+03 -0.12025859314E+04  0.17648772581E+04  0.10100000352E+00 0.  1.
</event>
<event>
 5   0  0.1732312E-06  0.2708983E+04  0.7818609E-02  0.8332096E-01
        1   -1    0    0  501    0  0.00000000000E+00  0.00000000000E+00  0.21733911538E+04  0.21733911538E+04  0.50400001928E-02 0.  1.
       -1   -1    0    0    0  501  0.00000000000E+00  0.00000000000E+00 -0.84414010590E+03  0.84414010592E+03  0.50400001928E-02 0. -1.
    10030    2    1    2    0    0  0.00000000000E+00  0.00000000000E+00  0.13292510479E+04  0.30175312597E+04  0.27089825682E+04 0.  0.
        5    1    3    3  502    0  0.38172922200E+03 -0.73225970640E+03 -0.53130043457E+03  0.98194893875E+03  0.46999998093E+01 0. -1.
       -5    1    3    3    0  502 -0.38172922200E+03  0.73225970640E+03  0.18605514824E+04  0.20355823209E+04  0.46999998093E+01 0.  1.
</event>
<event>
 5   0  0.1723605E-06  0.2694981E+04  0.7818609E-02  0.8336635E-01
       -1   -1    0    0    0  501  0.00000000000E+00  0.00000000000E+00  0.16236175260E+04  0.16236175260E+04  0.50400001928E-02 0.  1.
        1   -1    0    0  501    0  0.00000000000E+00  0.00000000000E+00 -0.11183243160E+04  0.11183243160E+04  0.50400001928E-02 0. -1.
    10030    2    1    2    0    0  0.00000000000E+00  0.00000000000E+00  0.50529320997E+03  0.27419418420E+04  0.26949812313E+04 0.  0.
        1    1    3    3  502    0 -0.10335329635E+04  0.82283550205E+03  0.52275778229E+03  0.14207478133E+04  0.50400001928E-02 0.  1.
       -1    1    3    3    0  502  0.10335329635E+04 -0.82283550205E+03 -0.17464572322E+02  0.13211940287E+04  0.50400001928E-02 0. -1.
</event>
<event>
 5   0  0.4448804E-06  0.2697832E+04  0.7818609E-02  0.8335709E-01
       -2   -1    0    0    0  501  0.00000000000E+00  0.00000000000E+00  0.10766135207E+04  0.10766135207E+04  0.25500000920E-02 0. -1.
        2   -1    0    0  501    0  0.00000000000E+00  0.00000000000E+00 -0.16900899946E+04  0.16900899946E+04  0.25500000920E-02 0.  1.
    10030    2    1    2    0    0  0.00000000000E+00  0.00000000000E+00 -0.61347647390E+03  0.27667035152E+04  0.26978315287E+04 0.  0.
        2    1    3    3  502    0 -0.12872582059E+04 -0.36518036382E+03 -0.13154578649E+03  0.13445053665E+04  0.25500000920E-02 0. -1.
       -2    1    3    3    0  502  0.12872582059E+04  0.36518036382E+03 -0.48193068740E+03  0.14221981487E+04  0.25500000920E-02 0.  1.
</event>
<event>
 5   0  0.4655882E-06  0.2715254E+04  0.7818609E-02  0.8330073E-01
        2   -1    0    0  501    0  0.00000000000E+00  0.00000000000E+00  0.11572559485E+04  0.11572559485E+04  0.25500000920E-02 0. -1.
       -2   -1    0    0    0  501  0.00000000000E+00  0.00000000000E+00 -0.15926908026E+04  0.15926908026E+04  0.25500000920E-02 0.  1.
    10030    2    1    2    0    0  0.00000000000E+00  0.00000000000E+00 -0.43543485409E+03  0.27499467511E+04  0.27152538780E+04 0.  0.
        1    1    3    3  502    0  0.12580539486E+04  0.50917037035E+03 -0.18268204809E+03  0.13694257681E+04  0.50400001928E-02 0. -1.
       -1    1    3    3    0  502 -0.12580539486E+04 -0.50917037035E+03 -0.25275280600E+03  0.13805209830E+04  0.50400001928E-02 0.  1.
</event>
<event>
 5   0  0.1482875E-06  0.2693186E+04  0.7818609E-02  0.8337219E-01
        3   -1    0    0  501    0  0.00000000000E+00  0.00000000000E+00  0.70978424206E+03  0.70978424924E+03  0.10100000352E+00 0. -1.
       -3   -1    0    0    0  501  0.00000000000E+00  0.00000000000E+00 -0.25547380725E+04  0.25547380745E+04  0.10100000352E+00 0.  1.
    10030    2    1    2    0    0  0.00000000000E+00  0.00000000000E+00 -0.18449538304E+04  0.32645223237E+04  0.26931860993E+04 0.  0.
        1    1    3    3  502    0 -0.43012405806E+03  0.12707549316E+04 -0.10632526167E+04  0.17118209394E+04  0.50400001928E-02 0.  1.
       -1    1    3    3    0  502  0.43012405806E+03 -0.12707549316E+04 -0.78170121372E+03  0.15527013844E+04  0.50400001928E-02 0. -1.
</event>
<event>
 5   0  0.1771016E-06  0.2721584E+04  0.7818609E-02  0.8328036E-01
        1   -1    0    0  501    0  0.00000000000E+00  0.00000000000E+00  0.21616121284E+04  0.21616121284E+04  0.50400001928E-02 0. -1.
       -1   -1    0    0    0  501  0.00000000000E+00  0.00000000000E+00 -0.85665443968E+03  0.85665443970E+03  0.50400001928E-02 0.  1.
    10030    2    1    2    0    0  0.00000000000E+00  0.00000000000E+00  0.13049576888E+04  0.30182665681E+04  0.27215838232E+04 0.  0.
        2    1    3    3  502    0 -0.91686630166E+03  0.43189684341E+03  0.16595292404E+04  0.19445349053E+04  0.25500000920E-02 0. -1.
       -2    1    3    3    0  502  0.91686630166E+03 -0.43189684341E+03 -0.35457155161E+03  0.10737316628E+04  0.25500000920E-02 0.  1.
</event>
<event>
 5   0  0.1753474E-06  0.2700424E+04  0.7818609E-02  0.8334867E-01
        1   -1    0    0  501    0  0.00000000000E+00  0.00000000000E+00  0.25293227944E+04  0.25293227944E+04  0.50400001928E-02 0.  1.
       -1   -1    0    0    0  501  0.00000000000E+00  0.00000000000E+00 -0.72077511579E+03  0.72077511581E+03  0.50400001928E-02 0. -1.
    10030    2    1    2    0    0  0.00000000000E+00  0.00000000000E+00  0.18085476786E+04  0.32500979102E+04  0.27004243593E+04 0.  0.
        3    1    3    3  502    0 -0.24991828707E+03  0.51387646572E+02 -0.69149704787E+03  0.73706717323E+03  0.10100000352E+00 0. -1.
       -3    1    3    3    0  502  0.24991828707E+03 -0.51387646572E+02  0.25000447264E+04  0.25130307369E+04  0.10100000352E+00 0.  1.
</event>
<event>
 5   0  0.4448804E-06  0.2698717E+04  0.7818609E-02  0.8335421E-01
       -2   -1    0    0    0  501  0.00000000000E+00  0.00000000000E+00  0.12324622429E+04  0.12324622429E+04  0.25500000920E-02 0. -1.
        2   -1    0    0  501    0  0.00000000000E+00  0.00000000000E+00 -0.14773425916E+04  0.14773425916E+04  0.25500000920E-02 0.  1.
    10030    2    1    2    0    0  0.00000000000E+00  0.00000000000E+00 -0.24488034865E+03  0.27098048345E+04  0.26987174465E+04 0.  0.
        2    1    3    3  502    0  0.32860609567E+03  0.52275451954E+03  0.10822868436E+04  0.12460333325E+04  0.25500000920E-02 0. -1.
       -2    1    3    3    0  502 -0.32860609567E+03 -0.52275451954E+03 -0.13271671923E+04  0.14637715020E+04  0.25500000920E-02 0.  1.
</event>
<event>
 5   0  0.4487186E-06  0.2705456E+04  0.7818609E-02  0.8333237E-01
       -2   -1    0    0    0  501  0.00000000000E+00  0.00000000000E+00  0.80867618216E+03  0.80867618216E+03  0.25500000920E-02 0.  1.
        2   -1    0    0  501    0  0.00000000000E+00  0.00000000000E+00 -0.22627999039E+04  0.22627999039E+04  0.25500000920E-02 0. -1.
    10030    2    1    2    0    0  0.00000000000E+00  0.00000000000E+00 -0.14541237218E+04  0.30714760861E+04  0.27054555160E+04 0.  0.
        3    1    3    3  502    0 -0.10158354112E+04  0.86180699257E+03 -0.46023372759E+03  0.14094140518E+04  0.10100000352E+00 0. -1.
       -3    1    3    3    0  502  0.10158354112E+04 -0.86180699257E+03 -0.99388999419E+03  0.16620620343E+04  0.10100000352E+00 0.  1.
</event>
<event>
 5   0  0.1723605E-06  0.2709633E+04  0.7818609E-02  0.8331886E-01
       -1   -1    0    0    0  501  0.00000000000E+00  0.00000000000E+00  0.75445071859E+03  0.75445071860E+03  0.50400001928E-02 0.  1.
        1   -1    0    0  501    0  0.00000000000E+00  0.00000000000E+00 -0.24329329376E+04  0.24329329376E+04  0.50400001928E-02 0. -1.
    10030    2    1    2    0    0  0.00000000000E+00  0.00000000000E+00 -0.16784822190E+04  0.31873836562E+04  0.27096331878E+04 0.  0.
        1    1    3    3  502    0 -0.13386986098E+04  0.19598454081E+03 -0.75602898558E+03  0.15498721674E+04  0.50400001928E-02 0. -1.
       -1    1    3    3    0  502  0.13386986098E+04 -0.19598454081E+03 -0.92245323343E+03  0.16375114888E+04  0.50400001928E-02 0.  1.
</event>
<event>
 5   0  0.4448804E-06  0.2698284E+04  0.7818609E-02  0.8335562E-01
        2   -1    0    0  501    0  0.00000000000E+00  0.00000000000E+00  0.88858290827E+03  0.88858290827E+03  0.25500000920E-02 0.  1.
       -2   -1    0    0    0  501  0.00000000000E+00  0.00000000000E+00 -0.20484128148E+04  0.20484128148E+04  0.25500000920E-02 0. -1.
    10030    2    1    2    0    0  0.00000000000E+00  0.00000000000E+00 -0.11598299065E+04  0.29369957230E+04  0.26982843559E+04 0.  0.
        2    1    3    3  502    0 -0.11141027040E+04  0.24785226851E+03 -0.13629531696E+04  0.17777223980E+04  0.25500000920E-02 0.  1.
       -2    1    3    3    0  502  0.11141027040E+04 -0.24785226851E+03  0.20312326309E+03  0.11592733250E+04  0.25500000920E-02 0. -1.
</event>
<event>
 5   0  0.1828511E-06  0.2697323E+04  0.7818609E-02  0.8335874E-01
       -1   -1    0    0    0  501  0.00000000000E+00  0.00000000000E+00  0.10985272831E+04  0.10985272832E+04  0.50400001928E-02 0.  1.
        1   -1    0    0  501    0  0.00000000000E+00  0.00000000000E+00 -0.16557506279E+04  0.16557506279E+04  0.50400001928E-02 0. -1.
    10030    2    1    2    0    0  0.00000000000E+00  0.00000000000E+00 -0.55722334475E+03  0.27542779111E+04  0.26973225531E+04 0.  0.
        4    1    3    3  502    0 -0.39249187171E+03  0.79326052773E+02  0.10364262012E+04  0.11110910744E+04  0.12699999809E+01 0.  1.
       -4    1    3    3    0  502  0.39249187171E+03 -0.79326052773E+02 -0.15936495460E+04  0.16431868367E+04  0.12699999809E+01 0. -1.
</event>
<event>
 5   0  0.1753474E-06  0.2718367E+04  0.7818609E-02  0.8329070E-01
        1   -1    0    0  501    0  0.00000000000E+00  0.00000000000E+00  0.21407262677E+04  0.21407262677E+04  0.50400001928E-02 0. -1.
       -1   -1    0    0    0  501  0.00000000000E+00  0.00000000000E+00 -0.86296840280E+03  0.86296840281E+03  0.50400001928E-02 0.  1.
    10030    2    1    2    0    0  0.00000000000E+00  0.00000000000E+00  0.12777578649E+04  0.30036946705E+04  0.27183665154E+04 0.  0.
        3    1    3    3  502    0  0.41422266089E+03 -0.50970545035E+02  0.20681736608E+04  0.21098627232E+04  0.10100000352E+00 0. -1.
       -3    1    3    3    0  502 -0.41422266089E+03  0.50970545035E+02 -0.79041579596E+03  0.89383194727E+03  0.10100000352E+00 0.  1.
</event>
<event>
 5   0  0.4401659E-06  0.2701045E+04  0.7818609E-02  0.8334666E-01
       -2   -1    0    0    0  501  0.00000000000E+00  0.00000000000E+00  0.10954308932E+04  0.10954308932E+04  0.25500000920E-02 0.  1.
        2   -1    0    0  501    0  0.00000000000E+00  0.00000000000E+00 -0.16650167317E+04  0.16650167317E+04  0.25500000920E-02 0. -1.
    10030    2    1    2    0    0  0.00000000000E+00  0.00000000000E+00 -0.56958583849E+03  0.27604476248E+04  0.27010448093E+04 0.  0.
        5    1    3    3  502    0 -0.10671166918E+04 -0.14097817766E+03  0.54878957150E+03  0.12082238883E+04  0.46999998093E+01 0.  1.
       -5    1    3    3    0  502  0.10671166918E+04  0.14097817766E+03 -0.11183754100E+04  0.15522237365E+04  0.46999998093E+01 0. -1.
</event>
<event>
 5   0  0.4448804E-06  0.2702139E+04  0.7818609E-02  0.8334311E-01
        2   -1    0    0  501    0  0.00000000000E+00  0.00000000000E+00  0.13767105699E+04  0.13767105699E+04  0.25500000920E-02 0. -1.
       -2   -1    0    0    0  501  0.00000000000E+00  0.00000000000E+00 -0.13259064686E+04  0.13259064686E+04  0.25500000920E-02 0.  1.
    10030    2    1    2    0    0  0.00000000000E+00  0.00000000000E+00  0.50804101364E+02  0.27026170385E+04  0.27021394857E+04 0.  0.
        2    1    3    3  502    0  0.80411321174E+00 -0.11244862781E+04 -0.72367584608E+03  0.13372272681E+04  0.25500000920E-02 0. -1.
       -2    1    3    3    0  502 -0.80411321174E+00  0.11244862781E+04  0.77447994744E+03  0.13653897704E+04  0.25500000920E-02 0.  1.
</event>
<event>
 5   0  0.1482875E-06  0.2694254E+04  0.7818609E-02  0.8336872E-01
       -3   -1    0    0    0  501  0.00000000000E+00  0.00000000000E+00  0.56184717836E+03  0.56184718744E+03  0.10100000352E+00 0.  1.
        3   -1    0    0  501    0  0.00000000000E+00  0.00000000000E+00 -0.32299733284E+04  0.32299733300E+04  0.10100000352E+00 0. -1.
    10030    2    1    2    0    0  0.00000000000E+00  0.00000000000E+00 -0.26681261500E+04  0.37918205174E+04  0.26942541981E+04 0.  0.
        4    1    3    3  502    0  0.20959949095E+03 -0.53468848225E+03 -0.30490531958E+04  0.31026683232E+04  0.12699999809E+01 0. -1.
       -4    1    3    3    0  502 -0.20959949095E+03  0.53468848225E+03  0.38092704583E+03  0.68915219422E+03  0.12699999809E+01 0.  1.
</event>
<event>
 5   0  0.1771016E-06  0.2706622E+04  0.7818609E-02  0.8332860E-01
        1   -1    0    0  501    0  0.00000000000E+00  0.00000000000E+00  0.12566295290E+04  0.12566295290E+04  0.50400001928E-02 0. -1.
       -1   -1    0    0    0  501  0.00000000000E+00  0.00000000000E+00 -0.14574309952E+04  0.14574309952E+04  0.50400001928E-02 0.  1.
    10030    2    1    2    0    0  0.00000000000E+00  0.00000000000E+00 -0.20080146621E+03  0.27140605242E+04  0.27066221199E+04 0.  0.
        2    1    3    3  502    0 -0.11140556613E+04 -0.10077442240E+03  0.66338497632E+03  0.13005210984E+04  0.25500000920E-02 0. -1.
       -2    1    3    3    0  502  0.11140556613E+04  0.10077442240E+03 -0.86418644253E+03  0.14135394258E+04  0.25500000920E-02 0.  1.
</event>
<event>
 5   0  0.1723605E-06  0.2701886E+04  0.7818609E-02  0.8334393E-01
        1   -1    0    0  501    0  0.00000000000E+00  0.00000000000E+00  0.11759982640E+04  0.11759982640E+04  0.50400001928E-02 0.  1.
       -1   -1    0    0    0  501  0.00000000000E+00  0.00000000000E+00 -0.15519125796E+04  0.15519125796E+04  0.50400001928E-02 0. -1.
    10030    2    1    2    0    0  0.00000000000E+00  0.00000000000E+00 -0.37591431558E+03  0.27279108436E+04  0.27018856375E+04 0.  0.
        1    1    3    3  502    0 -0.22783341752E+03 -0.13315893959E+04 -0.19083313206E+03  0.13643517397E+04  0.50400001928E-02 0. -1.
       -1    1    3    3    0  502  0.22783341752E+03  0.13315893959E+04 -0.18508118352E+03  0.13635591039E+04  0.50400001928E-02 0.  1.
</event>
<event>
 5   0  0.4448804E-06  0.2714239E+04  0.7818609E-02  0.8330400E-01
       -2   -1    0    0    0  501  0.00000000000E+00  0.00000000000E+00  0.99432199224E+03  0.99432199225E+03  0.25500000920E-02 0. -1.
        2   -1    0    0  501    0  0.00000000000E+00  0.00000000000E+00 -0.18522910011E+04  0.18522910011E+04  0.25500000920E-02 0.  1.
    10030    2    1    2    0    0  0.00000000000E+00  0.00000000000E+00 -0.85796900882E+03  0.28466129933E+04  0.27142392514E+04 0.  0.
        2    1    3    3  502    0  0.42297221762E+02 -0.32005364785E+03  0.95346409171E+03  0.10066365614E+04  0.25500000920E-02 0. -1.
       -2    1    3    3    0  502 -0.42297221762E+02  0.32005364785E+03 -0.18114331005E+04  0.18399764320E+04  0.25500000920E-02 0.  1.
</event>
<event>
 5   0  0.1723605E-06  0.2696211E+04  0.7818609E-02  0.8336235E-01
       -1   -1    0    0    0  501  0.00000000000E+00  0.00000000000E+00  0.10565561515E+04  0.10565561515E+04  0.50400001928E-02 0. -1.
        1   -1    0    0  501    0  0.00000000000E+00  0.00000000000E+00 -0.17201058427E+04  0.17201058427E+04  0.50400001928E-02 0.  1.
    10030    2    1    2    0    0  0.00000000000E+00  0.00000000000E+00 -0.66354969115E+03  0.27766619942E+04  0.26962109779E+04 0.  0.
        1    1    3    3  502    0 -0.31342739984E+03 -0.15222409086E+03 -0.16729312954E+04  0.17088323581E+04  0.50400001928E-02 0.  1.
       -1    1    3    3    0  502  0.31342739984E+03  0.15222409086E+03  0.10093816042E+04  0.10678296361E+04  0.50400001928E-02 0. -1.
</event>
<event>
 5   0  0.1482875E-06  0.2704970E+04  0.7818609E-02  0.8333394E-01
        4   -1    0    0  501    0  0.00000000000E+00  0.00000000000E+00  0.14063830976E+04  0.14063836711E+04  0.12699999809E+01 0.  1.
       -4   -1    0    0    0  501  0.00000000000E+00  0.00000000000E+00 -0.13006516551E+04  0.13006522751E+04  0.12699999809E+01 0. -1.
    10030    2    1    2    0    0  0.00000000000E+00  0.00000000000E+00  0.10573144254E+03  0.27070359462E+04  0.27049703281E+04 0.  0.
        4    1    3    3  502    0 -0.11652849304E+04  0.59921078203E+03  0.38819169943E+03  0.13666151392E+04  0.12699999809E+01 0.  1.
       -4    1    3    3    0  502  0.11652849304E+04 -0.59921078203E+03 -0.28246025689E+03  0.13404208070E+04  0.12699999809E+01 0. -1.
</event>
<event>
 5   0  0.1753474E-06  0.2688015E+04  0.7818609E-02  0.8338904E-01
        1   -1    0    0  501    0  0.00000000000E+00  0.00000000000E+00  0.16344417423E+04  0.16344417423E+04  0.50400001928E-02 0. -1.
       -1   -1    0    0    0  501  0.00000000000E+00  0.00000000000E+00 -0.11051821416E+04  0.11051821416E+04  0.50400001928E-02 0.  1.
    10030    2    1    2    0    0  0.00000000000E+00  0.00000000000E+00  0.52925960065E+03  0.27396238839E+04  0.26880147508E+04 0.  0.
        3    1    3    3  502    0  0.97377405849E+03  0.91862643242E+03  0.38627535638E+03  0.13933122767E+04  0.10100000352E+00 0. -1.
       -3    1    3    3    0  502 -0.97377405849E+03 -0.91862643242E+03  0.14298424427E+03  0.13463116072E+04  0.10100000352E+00 0.  1.
</event>
<event>
 5   0  0.1732312E-06  0.2705299E+04  0.7818609E-02  0.8333288E-01
       -1   -1    0    0    0  501  0.00000000000E+00  0.00000000000E+00  0.12754790635E+04  0.12754790635E+04  0.50400001928E-02 0. -1.
        1   -1    0    0  501    0  0.00000000000E+00  0.00000000000E+00 -0.14344886190E+04  0.14344886190E+04  0.50400001928E-02 0.  1.
    10030    2    1    2    0    0  0.00000000000E+00  0.00000000000E+00 -0.15900955544E+03  0.27099676825E+04  0.27052986529E+04 0.  0.
        5    1    3    3  502    0 -0.25100694628E+03  0.17472384050E+03  0.12403827189E+04  0.12775383700E+04  0.46999998093E+01 0. -1.
       -5    1    3    3    0  502  0.25100694628E+03 -0.17472384050E+03 -0.13993922744E+04  0.14324293124E+04  0.46999998093E+01 0.  1.
</event>
<event>
 5   0  0.4448804E-06  0.2693701E+04  0.7818609E-02  0.8337052E-01
       -2   -1    0    0    0  501  0.00000000000E+00  0.00000000000E+00  0.15232595186E+04  0.15232595186E+04  0.25500000920E-02 0.  1.
        2   -1    0    0  501    0  0.00000000000E+00  0.00000000000E+00 -0.11908718465E+04  0.11908718465E+04  0.25500000920E-02 0. -1.
    10030    2    1    2    0    0  0.00000000000E+00  0.00000000000E+00  0.33238767207E+03  0.27141313652E+04  0.26937014502E+04 0.  0.
        2    1    3    3  502    0 -0.58859425699E+03 -0.87668358943E+03 -0.67620304172E+03  0.12539010603E+04  0.25500000920E-02 0. -1.
       -2    1    3    3    0  502  0.58859425699E+03  0.87668358943E+03  0.10085907138E+04  0.14602303049E+04  0.25500000920E-02 0.  1.
</event>
<event>
 5   0  0.1723605E-06  0.2703043E+04  0.7818609E-02  0.8334018E-01
        1   -1    0    0  501    0  0.00000000000E+00  0.00000000000E+00  0.29705239522E+04  0.29705239522E+04  0.50400001928E-02 0. -1.
       -1   -1    0    0    0  501  0.00000000000E+00  0.00000000000E+00 -0.61491179142E+03  0.61491179144E+03  0.50400001928E-02 0.  1.
    10030    2    1    2    0    0  0.00000000000E+00  0.00000000000E+00  0.23556121608E+04  0.35854357437E+04  0.27030428816E+04 0.  0.
        1    1    3    3  502    0 -0.62915226404E+03 -0.16397711452E+03 -0.39384239431E+03  0.76015320628E+03  0.50400001928E-02 0.  1.
       -1    1    3    3    0  502  0.62915226404E+03  0.16397711452E+03  0.27494545551E+04  0.28252825374E+04  0.50400001928E-02 0. -1.
</event>
<event>
 5   0  0.4448804E-06  0.2693273E+04  0.7818609E-02  0.8337191E-01
        2   -1    0    0  501    0  0.00000000000E+00  0.00000000000E+00  0.24019868596E+04  0.24019868596E+04  0.25500000920E-02 0.  1.
       -2   -1    0    0    0  501  0.00000000000E+00  0.00000000000E+00 -0.75497049177E+03  0.75497049177E+03  0.25500000920E-02 0. -1.
    10030    2    1    2    0    0  0.00000000000E+00  0.00000000000E+00  0.16470163679E+04  0.31569573514E+04  0.26932725081E+04 0.  0.
        2    1    3    3  502    0  0.72398916334E+03  0.25259737521E+03 -0.47408513176E+03  0.90151120612E+03  0.25500000920E-02 0. -1.
       -2    1    3    3    0  502 -0.72398916334E+03 -0.25259737521E+03  0.21211014996E+04  0.22554461453E+04  0.25500000920E-02 0.  1.
</event>
<event>
 5   0  0.1771016E-06  0.2717129E+04  0.7818609E-02  0.8329469E-01
        1   -1    0    0  501    0  0.00000000000E+00  0.00000000000E+00  0.25901514708E+04  0.25901514709E+04  0.50400001928E-02 0. -1.
       -1   -1    0    0    0  501  0.00000000000E+00  0.00000000000E+00 -0.71258268360E+03  0.71258268362E+03  0.50400001928E-02 0.  1.
    10030    2    1    2    0    0  0.00000000000E+00  0.00000000000E+00  0.18775687872E+04  0.33027341545E+04  0.27171286948E+04 0.  0.
        2    1    3    3  502    0 -0.49773473522E+03 -0.83545801799E+02  0.24719723630E+04  0.25229679212E+04  0.25500000920E-02 0. -1.
       -2    1    3    3    0  502  0.49773473522E+03  0.83545801799E+02 -0.59440357581E+03  0.77976623329E+03  0.25500000920E-02 0.  1.
</event>
<event>
 5   0  0.1771016E-06  0.2713081E+04  0.7818609E-02  0.8330773E-01
        1   -1    0    0  501    0  0.00000000000E+00  0.00000000000E+00  0.13249647665E+04  0.13249647665E+04  0.50400001928E-02 0. -1.
       -1   -1    0    0    0  501  0.00000000000E+00  0.00000000000E+00 -0.13888682556E+04  0.13888682556E+04  0.50400001928E-02 0.  1.
    10030    2    1    2    0    0  0.00000000000E+00  0.00000000000E+00 -0.63903489166E+02  0.27138330221E+04  0.27130805399E+04 0.  0.
        2    1    3    3  502    0  0.51664223429E+03  0.29517814276E+03  0.11874647810E+04  0.13282025224E+04  0.25500000920E-02 0. -1.
       -2    1    3    3    0  502 -0.51664223429E+03 -0.29517814276E+03 -0.12513682702E+04  0.13856304998E+04  0.25500000920E-02 0.  1.
</event>
<event>
 5   0  0.1828511E-06  0.2609486E+04  0.7818609E-02  0.8364986E-01
        1   -1    0    0  501    0  0.00000000000E+00  0.00000000000E+00  0.23162228972E+04  0.23162228972E+04  0.50400001928E-02 0.  1.
       -1   -1    0    0    0  501  0.00000000000E+00  0.00000000000E+00 -0.73496977886E+03  0.73496977888E+03  0.50400001928E-02 0. -1.
    10030    2    1    2    0    0  0.00000000000E+00  0.00000000000E+00  0.15812531183E+04  0.30511926761E+04  0.26094856432E+04 0.  0.
        4    1    3    3  502    0  0.21532135514E+03  0.14354062931E+03  0.22859141494E+04  0.23005156617E+04  0.12699999809E+01 0.  1.
       -4    1    3    3    0  502 -0.21532135514E+03 -0.14354062931E+03 -0.70466103111E+03  0.75067701437E+03  0.12699999809E+01 0. -1.
</event>
<event>
 5   0  0.1828511E-06  0.2700493E+04  0.7818609E-02  0.8334845E-01
        1   -1    0    0  501    0  0.00000000000E+00  0.00000000000E+00  0.22953748044E+04  0.22953748044E+04  0.50400001928E-02 0.  1.
       -1   -1    0    0    0  501  0.00000000000E+00  0.00000000000E+00 -0.79427813885E+03  0.79427813887E+03  0.50400001928E-02 0. -1.
    10030    2    1    2    0    0  0.00000000000E+00  0.00000000000E+00  0.15010966655E+04  0.30896529432E+04  0.27004933087E+04 0.  0.
        4    1    3    3  502    0 -0.67494829768E+03  0.98540655880E+03  0.14710478724E+04  0.18948785572E+04  0.12699999809E+01 0.  1.
       -4    1    3    3    0  502  0.67494829768E+03 -0.98540655880E+03  0.30048793093E+02  0.11947743860E+04  0.12699999809E+01 0. -1.
</event>
<event>
 5   0  0.1732312E-06  0.2744131E+04  0.7818609E-02  0.8320827E-01
       -1   -1    0    0    0  501  0.00000000000E+00  0.00000000000E+00  0.10280864666E+04  0.10280864666E+04  0.50400001928E-02 0. -1.
        1   -1    0    0  501    0  0.00000000000E+00  0.00000000000E+00 -0.18311331930E+04  0.18311331930E+04  0.50400001928E-02 0.  1.
    10030    2    1    2    0    0  0.00000000000E+00  0.00000000000E+00 -0.80304672637E+03  0.28592196595E+04  0.27441306486E+04 0.  0.
        5    1    3    3  502    0 -0.41340716595E+03 -0.12204422648E+04  0.89579097260E+02  0.12916777119E+04  0.46999998093E+01 0. -1.
       -5    1    3    3    0  502  0.41340716595E+03  0.12204422648E+04 -0.89262582363E+03  0.15675419477E+04  0.46999998093E+01 0.  1.
</event>
<event>
 5   0  0.1753474E-06  0.2752802E+04  0.7818609E-02  0.8318073E-01
       -1   -1    0    0    0  501  0.00000000000E+00  0.00000000000E+00  0.22324126759E+04  0.22324126759E+04  0.50400001928E-02 0.  1.
        1   -1    0    0  501    0  0.00000000000E+00  0.00000000000E+00 -0.84862438321E+03  0.84862438323E+03  0.50400001928E-02 0. -1.
    10030    2    1    2    0    0  0.00000000000E+00  0.00000000000E+00  0.13837882927E+04  0.30810370591E+04  0.27528020853E+04 0.  0.
        3    1    3    3  502    0 -0.10185842831E+04  0.90913884313E+03  0.49664446414E+03  0.14528259056E+04  0.10100000352E+00 0. -1.
       -3    1    3    3    0  502  0.10185842831E+04 -0.90913884313E+03  0.88714382857E+03  0.16282111536E+04  0.10100000352E+00 0.  1.
</event>
<event>
 5   0  0.4401659E-06  0.2693787E+04  0.7818609E-02  0.8337024E-01
        2   -1    0    0  501    0  0.00000000000E+00  0.00000000000E+00  0.34842263450E+04  0.34842263450E+04  0.25500000920E-02 0.  1.
       -2   -1    0    0    0  501  0.00000000000E+00  0.00000000000E+00 -0.52066699714E+03  0.52066699714E+03  0.25500000920E-02 0. -1.
    10030    2    1    2    0    0  0.00000000000E+00  0.00000000000E+00  0.29635593478E+04  0.40048933421E+04  0.26937866793E+04 0.  0.
        5    1    3    3  502    0 -0.24890896356E+03 -0.48112995044E+03 -0.35156242593E+03  0.64580177351E+03  0.46999998093E+01 0. -1.
       -5    1    3    3    0  502  0.24890896356E+03  0.48112995044E+03  0.33151217738E+04  0.33590915686E+04  0.46999998093E+01 0.  1.
</event>
<event>
 5   0  0.1732312E-06  0.2685895E+04  0.7818609E-02  0.8339596E-01
        1   -1    0    0  501    0  0.00000000000E+00  0.00000000000E+00  0.19348469710E+04  0.19348469710E+04  0.50400001928E-02 0. -1.
       -1   -1    0    0    0  501  0.00000000000E+00  0.00000000000E+00 -0.93211933362E+03  0.93211933363E+03  0.50400001928E-02 0.  1.
    10030    2    1    2    0    0  0.00000000000E+00  0.00000000000E+00  0.10027276373E+04  0.28669663046E+04  0.26858952096E+04 0.  0.
        5    1    3    3  502    0 -0.50479596699E+02  0.54020011117E+00 -0.93109738520E+03  0.93247676229E+03  0.46999998093E+01 0.  1.
       -5    1    3    3    0  502  0.50479596699E+02 -0.54020011117E+00  0.19338250225E+04  0.19344895423E+04  0.46999998093E+01 0. -1.
</event>
<event>
 5   0  0.4655882E-06  0.2697606E+04  0.7818609E-02  0.8335782E-01
        2   -1    0    0  501    0  0.00000000000E+00  0.00000000000E+00  0.16564195736E+04  0.16564195736E+04  0.25500000920E-02 0.  1.
       -2   -1    0    0    0  501  0.00000000000E+00  0.00000000000E+00 -0.10983142094E+04  0.10983142094E+04  0.25500000920E-02 0. -1.
    10030    2    1    2    0    0  0.00000000000E+00  0.00000000000E+00  0.55810536420E+03  0.27547337829E+04  0.26976057194E+04 0.  0.
        1    1    3    3  502    0  0.57718866727E+03  0.84220803012E+03  0.11790848146E+04  0.15597121926E+04  0.50400001928E-02 0.  1.
       -1    1    3    3    0  502 -0.57718866727E+03 -0.84220803012E+03 -0.62097945036E+03  0.11950215904E+04  0.50400001928E-02 0. -1.
</event>
<event>
 5   0  0.1753474E-06  0.2703433E+04  0.7818609E-02  0.8333892E-01
       -1   -1    0    0    0  501  0.00000000000E+00  0.00000000000E+00  0.13629582444E+04  0.13629582444E+04  0.50400001928E-02 0.  1.
        1   -1    0    0  501    0  0.00000000000E+00  0.00000000000E+00 -0.13405673578E+04  0.13405673578E+04  0.50400001928E-02 0. -1.
    10030    2    1    2    0    0  0.00000000000E+00  0.00000000000E+00  0.22390886582E+02  0.27035256022E+04  0.27034328788E+04 0.  0.
        3    1    3    3  502    0 -0.39428382452E+03 -0.96625999671E+03 -0.84791446439E+03  0.13446475615E+04  0.10100000352E+00 0. -1.
       -3    1    3    3    0  502  0.39428382452E+03  0.96625999671E+03  0.87030535097E+03  0.13588780408E+04  0.10100000352E+00 0.  1.
</event>
<event>
 5   0  0.1828511E-06  0.2682555E+04  0.7818609E-02  0.8340687E-01
       -1   -1    0    0    0  501  0.00000000000E+00  0.00000000000E+00  0.11153788498E+04  0.11153788498E+04  0.50400001928E-02 0.  1.
        1   -1    0    0  501    0  0.00000000000E+00  0.00000000000E+00 -0.16129280788E+04  0.16129280788E+04  0.50400001928E-02 0. -1.
    10030    2    1    2    0    0  0.00000000000E+00  0.00000000000E+00 -0.49754922906E+03  0.27283069286E+04  0.26825553977E+04 0.  0.
        4    1    3    3  502    0  0.90051766257E+03 -0.50259025607E+03 -0.11210115148E+04  0.15232194377E+04  0.12699999809E+01 0. -1.
       -4    1    3    3    0  502 -0.90051766257E+03  0.50259025607E+03  0.62346228579E+03  0.12050874909E+04  0.12699999809E+01 0.  1.
</event>
<event>
 5   0  0.4655882E-06  0.2688637E+04  0.7818609E-02  0.8338701E-01
       -2   -1    0    0    0  501  0.00000000000E+00  0.00000000000E+00  0.83613182371E+03  0.83613182371E+03  0.25500000920E-02 0.  1.
        2   -1    0    0  501    0  0.00000000000E+00  0.00000000000E+00 -0.21613725174E+04  0.21613725175E+04  0.25500000920E-02 0. -1.
    10030    2    1    2    0    0  0.00000000000E+00  0.00000000000E+00 -0.13252406937E+04  0.29975043412E+04  0.26886370858E+04 0.  0.
        1    1    3    3  502    0 -0.22787694265E+03 -0.58660304969E+03 -0.19870105690E+04  0.20842845392E+04  0.50400001928E-02 0. -1.
       -1    1    3    3    0  502  0.22787694265E+03  0.58660304969E+03  0.66176987527E+03  0.91321980198E+03  0.50400001928E-02 0.  1.
</event>
<event>
 5   0  0.4487186E-06  0.2682691E+04  0.7818609E-02  0.8340643E-01
       -2   -1    0    0    0  501  0.00000000000E+00  0.00000000000E+00  0.73044927808E+03  0.73044927809E+03  0.25500000920E-02 0. -1.
        2   -1    0    0  501    0  0.00000000000E+00  0.00000000000E+00 -0.24631525646E+04  0.24631525646E+04  0.25500000920E-02 0.  1.
    10030    2    1    2    0    0  0.00000000000E+00  0.00000000000E+00 -0.17327032865E+04  0.31936018427E+04  0.26826911955E+04 0.  0.
        3    1    3    3  502    0  0.73488928502E+03  0.88988742085E+03 -0.16800865342E+04  0.20382965082E+04  0.10100000352E+00 0.  1.
       -3    1    3    3    0  502 -0.73488928502E+03 -0.88988742085E+03 -0.52616752382E+02  0.11553053345E+04  0.10100000352E+00 0. -1.
</event>
<event>
 5   0  0.4655882E-06  0.2703304E+04  0.7818609E-02  0.8333934E-01
       -2   -1    0    0    0  501  0.00000000000E+00  0.00000000000E+00  0.17284628712E+04  0.17284628712E+04  0.25500000920E-02 0. -1.
        2   -1    0    0  501    0  0.00000000000E+00  0.00000000000E+00 -0.10569872583E+04  0.10569872583E+04  0.25500000920E-02 0.  1.
    10030    2    1    2    0    0  0.00000000000E+00  0.00000000000E+00  0.67147561290E+03  0.27854501295E+04  0.27033040757E+04 0.  0.
        1    1    3    3  502    0 -0.55271097778E+03 -0.98185312770E+03  0.11050433604E+04  0.15781780057E+04  0.50400001928E-02 0. -1.
       -1    1    3    3    0  502  0.55271097778E+03  0.98185312770E+03 -0.43356774748E+03  0.12072721238E+04  0.50400001928E-02 0.  1.
</event>
<event>
 5   0  0.4487186E-06  0.2697494E+04  0.7818609E-02  0.8335818E-01
        2   -1    0    0  501    0  0.00000000000E+00  0.00000000000E+00  0.10119362954E+04  0.10119362954E+04  0.25500000920E-02 0. -1.
       -2   -1    0    0    0  501  0.00000000000E+00  0.00000000000E+00 -0.17976615085E+04  0.17976615085E+04  0.25500000920E-02 0.  1.
    10030    2    1    2    0    0  0.00000000000E+00  0.00000000000E+00 -0.78572521307E+03  0.28095978040E+04  0.26974943391E+04 0.  0.
        3    1    3    3  502    0 -0.87984421438E+03 -0.56717579391E+03 -0.12786801042E+04  0.16525244452E+04  0.10100000352E+00 0.  1.
       -3    1    3    3    0  502  0.87984421438E+03  0.56717579391E+03  0.49295489113E+03  0.11570733588E+04  0.10100000352E+00 0. -1.
</event>
<event>
 5   0  0.4448804E-06  0.2708314E+04  0.7818609E-02  0.8332312E-01
       -2   -1    0    0    0  501  0.00000000000E+00  0.00000000000E+00  0.14167120987E+04  0.14167120987E+04  0.25500000920E-02 0.  1.
        2   -1    0    0  501    0  0.00000000000E+00  0.00000000000E+00 -0.12943639536E+04  0.12943639536E+04  0.25500000920E-02 0. -1.
    10030    2    1    2    0    0  0.00000000000E+00  0.00000000000E+00  0.12234814514E+03  0.27110760523E+04  0.27083139207E+04 0.  0.
        2    1    3    3  502    0  0.19535043431E+03 -0.13127306646E+04 -0.20801929197E+03  0.13433895994E+04  0.25500000920E-02 0. -1.
       -2    1    3    3    0  502 -0.19535043431E+03  0.13127306646E+04  0.33036743711E+03  0.13676864529E+04  0.25500000920E-02 0.  1.
</event>
<event>
 5   0  0.4655882E-06  0.2699796E+04  0.7818609E-02  0.8335071E-01
       -2   -1    0    0    0  501  0.00000000000E+00  0.00000000000E+00  0.14039099856E+04  0.14039099856E+04  0.25500000920E-02 0.  1.
        2   -1    0    0  501    0  0.00000000000E+00  0.00000000000E+00 -0.12979641161E+04  0.12979641161E+04  0.25500000920E-02 0. -1.
    10030    2    1    2    0    0  0.00000000000E+00  0.00000000000E+00  0.10594586953E+03  0.27018741017E+04  0.26997961282E+04 0.  0.
        1    1    3    3  502    0 -0.56475590459E+03 -0.73647072198E+03 -0.92802968638E+03  0.13124699825E+04  0.50400001928E-02 0. -1.
       -1    1    3    3    0  502  0.56475590459E+03  0.73647072198E+03  0.10339755559E+04  0.13894041192E+04  0.50400001928E-02 0.  1.
</event>
<event>
 5   0  0.1732312E-06  0.2698379E+04  0.7818609E-02  0.8335531E-01
       -1   -1    0    0    0  501  0.00000000000E+00  0.00000000000E+00  0.60352930278E+03  0.60352930280E+03  0.50400001928E-02 0.  1.
        1   -1    0    0  501    0  0.00000000000E+00  0.00000000000E+00 -0.30161132066E+04  0.30161132066E+04  0.50400001928E-02 0. -1.
    10030    2    1    2    0    0  0.00000000000E+00  0.00000000000E+00 -0.24125839038E+04  0.36196425094E+04  0.26983792919E+04 0.  0.
        5    1    3    3  502    0 -0.85300265637E+03  0.87666012527E+03 -0.44257620084E+03  0.13007852592E+04  0.46999998093E+01 0.  1.
       -5    1    3    3    0  502  0.85300265637E+03 -0.87666012527E+03 -0.19700077030E+04  0.23188572502E+04  0.46999998093E+01 0. -1.
</event>
<event>
 5   0  0.1732312E-06  0.2711227E+04  0.7818609E-02  0.8331371E-01
        1   -1    0    0  501    0  0.00000000000E+00  0.00000000000E+00  0.21605014134E+04  0.21605014134E+04  0.50400001928E-02 0.  1.
       -1   -1    0    0    0  501  0.00000000000E+00  0.00000000000E+00 -0.85058423181E+03  0.85058423182E+03  0.50400001928E-02 0. -1.
    10030    2    1    2    0    0  0.00000000000E+00  0.00000000000E+00  0.13099171816E+04  0.30110856453E+04  0.27112273494E+04 0.  0.
        5    1    3    3  502    0  0.92137930162E+03 -0.91453866132E+03  0.22147558213E+03  0.13169640481E+04  0.46999998093E+01 0.  1.
       -5    1    3    3    0  502 -0.92137930162E+03  0.91453866132E+03  0.10884415995E+04  0.16941215972E+04  0.46999998093E+01 0. -1.
</event>
<event>
 5   0  0.4448804E-06  0.2700826E+04  0.7818609E-02  0.8334737E-01
        2   -1    0    0  501    0  0.00000000000E+00  0.00000000000E+00  0.20652011559E+04  0.20652011559E+04  0.25500000920E-02 0.  1.
       -2   -1    0    0    0  501  0.00000000000E+00  0.00000000000E+00 -0.88302087066E+03  0.88302087067E+03  0.25500000920E-02 0. -1.
    10030    2    1    2    0    0  0.00000000000E+00  0.00000000000E+00  0.11821802852E+04  0.29482220266E+04  0.27008263349E+04 0.  0.
        2    1    3    3  502    0 -0.11873536281E+04  0.52818642516E+03  0.99191131127E+03  0.16348325869E+04  0.25500000920E-02 0.  1.
       -2    1    3    3    0  502  0.11873536281E+04 -0.52818642516E+03  0.19026897398E+03  0.13133894397E+04  0.25500000920E-02 0. -1.
</event>
<event>
 5   0  0.1753474E-06  0.2699075E+04  0.7818609E-02  0.8335305E-01
       -1   -1    0    0    0  501  0.00000000000E+00  0.00000000000E+00  0.98570368621E+03  0.98570368622E+03  0.50400001928E-02 0.  1.
        1   -1    0    0  501    0  0.00000000000E+00  0.00000000000E+00 -0.18476668996E+04  0.18476668996E+04  0.50400001928E-02 0. -1.
    10030    2    1    2    0    0  0.00000000000E+00  0.00000000000E+00 -0.86196321342E+03  0.28333705859E+04  0.26990754520E+04 0.  0.
        3    1    3    3  502    0  0.77002499949E+02 -0.45011464709E+03  0.90213387517E+03  0.10111271530E+04  0.10100000352E+00 0.  1.
       -3    1    3    3    0  502 -0.77002499949E+02  0.45011464709E+03 -0.17640970886E+04  0.18222434329E+04  0.10100000352E+00 0. -1.
</event>
<event>
 5   0  0.1732312E-06  0.2715124E+04  0.7818609E-02  0.8330114E-01
        1   -1    0    0  501    0  0.00000000000E+00  0.00000000000E+00  0.13851048255E+04  0.13851048255E+04  0.50400001928E-02 0.  1.
       -1   -1    0    0    0  501  0.00000000000E+00  0.00000000000E+00 -0.13305671547E+04  0.13305671547E+04  0.50400001928E-02 0. -1.
    10030    2    1    2    0    0  0.00000000000E+00  0.00000000000E+00  0.54537670817E+02  0.27156719802E+04  0.27151242967E+04 0.  0.
        5    1    3    3  502    0  0.89985667357E+03  0.79233201582E+03 -0.60958626304E+03  0.13450463034E+04  0.46999998093E+01 0. -1.
       -5    1    3    3    0  502 -0.89985667357E+03 -0.79233201582E+03  0.66412393386E+03  0.13706256768E+04  0.46999998093E+01 0.  1.
</event>
<event>
 5   0  0.1771016E-06  0.2594575E+04  0.7818609E-02  0.8370046E-01
        1   -1    0    0  501    0  0.00000000000E+00  0.00000000000E+00  0.17209107233E+04  0.17209107233E+04  0.50400001928E-02 0. -1.
       -1   -1    0    0    0  501  0.00000000000E+00  0.00000000000E+00 -0.97794458742E+03  0.97794458743E+03  0.50400001928E-02 0.  1.
    10030    2    1    2    0    0  0.00000000000E+00  0.00000000000E+00  0.74296613587E+03  0.26988553107E+04  0.25945753620E+04 0.  0.
        2    1    3    3  502    0  0.41965551708E+03 -0.91140826882E+03  0.12268339858E+04  0.15848966572E+04  0.25500000920E-02 0. -1.
       -2    1    3    3    0  502 -0.41965551708E+03  0.91140826882E+03 -0.48386784991E+03  0.11139586535E+04  0.25500000920E-02 0.  1.
</event>
<event>
 5   0  0.4487186E-06  0.2703990E+04  0.7818609E-02  0.8333712E-01
        2   -1    0    0  501    0  0.00000000000E+00  0.00000000000E+00  0.18889470909E+04  0.18889470909E+04  0.25500000920E-02 0.  1.
       -2   -1    0    0    0  501  0.00000000000E+00  0.00000000000E+00 -0.96767687134E+03  0.96767687135E+03  0.25500000920E-02 0. -1.
    10030    2    1    2    0    0  0.00000000000E+00  0.00000000000E+00  0.92127021954E+03  0.28566239622E+04  0.27039899490E+04 0.  0.
        3    1    3    3  502    0  0.13217261627E+04 -0.73468868932E+02  0.75098083774E+03  0.15219493923E+04  0.10100000352E+00 0.  1.
       -3    1    3    3    0  502 -0.13217261627E+04  0.73468868932E+02  0.17028938180E+03  0.13346745699E+04  0.10100000352E+00 0. -1.
</event>
<event>
 5   0  0.1482875E-06  0.2650020E+04  0.7818609E-02  0.8351406E-01
        3   -1    0    0  501    0  0.00000000000E+00  0.00000000000E+00  0.12184678113E+04  0.12184678155E+04  0.10100000352E+00 0. -1.
       -3   -1    0    0    0  501  0.00000000000E+00  0.00000000000E+00 -0.14408680062E+04  0.14408680098E+04  0.10100000352E+00 0.  1.
    10030    2    1    2    0    0  0.00000000000E+00  0.00000000000E+00 -0.22240019490E+03  0.26593358253E+04  0.26500198461E+04 0.  0.
        1    1    3    3  502    0 -0.10824740271E+04  0.73214936654E+03  0.10833500444E+03  0.13113081970E+04  0.50400001928E-02 0. -1.
       -1    1    3    3    0  502  0.10824740271E+04 -0.73214936654E+03 -0.33073519934E+03  0.13480276282E+04  0.50400001928E-02 0.  1.
</event>
<event>
 5   0  0.4448804E-06  0.2736790E+04  0.7818609E-02  0.8323166E-01
       -2   -1    0    0    0  501  0.00000000000E+00  0.00000000000E+00  0.14303807440E+04  0.14303807440E+04  0.25500000920E-02 0.  1.
        2   -1    0    0  501    0  0.00000000000E+00  0.00000000000E+00 -0.13090957506E+04  0.13090957506E+04  0.25500000920E-02 0. -1.
    10030    2    1    2    0    0  0.00000000000E+00  0.00000000000E+00  0.12128499340E+03  0.27394764947E+04  0.27367903492E+04 0.  0.
        2    1    3    3  502    0 -0.12130698722E+04  0.10945052593E+03  0.68494320506E+03  0.13973779469E+04  0.25500000920E-02 0.  1.
       -2    1    3    3    0  502  0.12130698722E+04 -0.10945052593E+03 -0.56365821166E+03  0.13420985478E+04  0.25500000920E-02 0. -1.
</event>
<event>
 5   0  0.1753474E-06  0.2711294E+04  0.7818609E-02  0.8331350E-01
       -1   -1    0    0    0  501  0.00000000000E+00  0.00000000000E+00  0.13261089169E+04  0.13261089169E+04  0.50400001928E-02 0.  1.
        1   -1    0    0  501    0  0.00000000000E+00  0.00000000000E+00 -0.13858431224E+04  0.13858431224E+04  0.50400001928E-02 0. -1.
    10030    2    1    2    0    0  0.00000000000E+00  0.00000000000E+00 -0.59734205565E+02  0.27119520393E+04  0.27112940984E+04 0.  0.
        3    1    3    3  502    0 -0.11270664607E+04 -0.59438747663E+03 -0.49280079721E+03  0.13661727252E+04  0.10100000352E+00 0. -1.
       -3    1    3    3    0  502  0.11270664607E+04  0.59438747663E+03  0.43306659164E+03  0.13457793141E+04  0.10100000352E+00 0.  1.
</event>
<event>
 5   0  0.4487186E-06  0.2659899E+04  0.7818609E-02  0.8348135E-01
       -2   -1    0    0    0  501  0.00000000000E+00  0.00000000000E+00  0.11595006346E+04  0.11595006346E+04  0.25500000920E-02 0. -1.
        2   -1    0    0  501    0  0.00000000000E+00  0.00000000000E+00 -0.15254548879E+04  0.15254548879E+04  0.25500000920E-02 0.  1.
    10030    2    1    2    0    0  0.00000000000E+00  0.00000000000E+00 -0.36595425326E+03  0.26849555225E+04  0.26598991790E+04 0.  0.
        3    1    3    3  502    0 -0.46133862396E+03 -0.17309946266E+03  0.10639606931E+04  0.11725225442E+04  0.10100000352E+00 0. -1.
       -3    1    3    3    0  502  0.46133862396E+03  0.17309946266E+03 -0.14299149463E+04  0.15124329783E+04  0.10100000352E+00 0.  1.
</event>
<event>
 5   0  0.1771016E-06  0.2700230E+04  0.7818609E-02  0.8334930E-01
        1   -1    0    0  501    0  0.00000000000E+00  0.00000000000E+00  0.17854734328E+04  0.17854734328E+04  0.50400001928E-02 0.  1.
       -1   -1    0    0    0  501  0.00000000000E+00  0.00000000000E+00 -0.10209113809E+04  0.10209113809E+04  0.50400001928E-02 0. -1.
    10030    2    1    2    0    0  0.00000000000E+00  0.00000000000E+00  0.76456205195E+03  0.28063848137E+04  0.27002297294E+04 0.  0.
        2    1    3    3  502    0  0.53507744183E+03 -0.45123017300E+03  0.15821788066E+04  0.17300885277E+04  0.25500000920E-02 0.  1.
       -2    1    3    3    0  502 -0.53507744183E+03  0.45123017300E+03 -0.81761675463E+03  0.10762962860E+04  0.25500000920E-02 0. -1.
</event>
<event>
 5   0  0.1732312E-06  0.2691602E+04  0.7818609E-02  0.8337735E-01
       -1   -1    0    0    0  501  0.00000000000E+00  0.00000000000E+00  0.16391815321E+04  0.16391815321E+04  0.50400001928E-02 0. -1.
        1   -1    0    0  501    0  0.00000000000E+00  0.00000000000E+00 -0.11049294076E+04  0.11049294076E+04  0.50400001928E-02 0.  1.
    10030    2    1    2    0    0  0.00000000000E+00  0.00000000000E+00  0.53425212451E+03  0.27441109397E+04  0.26916016638E+04 0.  0.
        5    1    3    3  502    0 -0.27891848206E+03  0.67403320899E+03  0.14201363850E+04  0.15965355394E+04  0.46999998093E+01 0. -1.
       -5    1    3    3    0  502  0.27891848206E+03 -0.67403320899E+03 -0.88588426049E+03  0.11475754003E+04  0.46999998093E+01 0.  1.
</event>
<event>
 5   0  0.1732312E-06  0.2700385E+04  0.7818609E-02  0.8334880E-01
       -1   -1    0    0    0  501  0.00000000000E+00  0.00000000000E+00  0.12895497761E+04  0.12895497761E+04  0.50400001928E-02 0.  1.
        1   -1    0    0  501    0  0.00000000000E+00  0.00000000000E+00 -0.14136875095E+04  0.14136875096E+04  0.50400001928E-02 0. -1.
    10030    2    1    2    0    0  0.00000000000E+00  0.00000000000E+00 -0.12413773348E+03  0.27032372856E+04  0.27003854624E+04 0.  0.
        5    1    3    3  502    0 -0.81577638017E+03  0.94607360839E+03 -0.57491053792E+03  0.13751692956E+04  0.46999998093E+01 0. -1.
       -5    1    3    3    0  502  0.81577638017E+03 -0.94607360839E+03  0.45077280444E+03  0.13280679900E+04  0.46999998093E+01 0.  1.
</event>
<event>
 5   0  0.1771016E-06  0.2707385E+04  0.7818609E-02  0.8332613E-01
        1   -1    0    0  501    0  0.00000000000E+00  0.00000000000E+00  0.23622306849E+04  0.23622306849E+04  0.50400001928E-02 0.  1.
       -1   -1    0    0    0  501  0.00000000000E+00  0.00000000000E+00 -0.77574261770E+03  0.77574261772E+03  0.50400001928E-02 0. -1.
    10030    2    1    2    0    0  0.00000000000E+00  0.00000000000E+00  0.15864880672E+04  0.31379733026E+04  0.27073847271E+04 0.  0.
        2    1    3    3  502    0 -0.48303409986E+03 -0.10854135761E+04  0.41170778384E+02  0.11887554862E+04  0.25500000920E-02 0. -1.
       -2    1    3    3    0  502  0.48303409986E+03  0.10854135761E+04  0.15453172888E+04  0.19492178165E+04  0.25500000920E-02 0.  1.
</event>
<event>
 5   0  0.4439357E-06  0.2698517E+04  0.7818609E-02  0.8335486E-01
        2   -1    0    0  501    0  0.00000000000E+00  0.00000000000E+00  0.10133139140E+04  0.10133139141E+04  0.25500000920E-02 0.  1.
       -2   -1    0    0    0  501  0.00000000000E+00  0.00000000000E+00 -0.17965787415E+04  0.17965787415E+04  0.25500000920E-02 0. -1.
    10030    2    1    2    0    0  0.00000000000E+00  0.00000000000E+00 -0.78326482748E+03  0.28098926556E+04  0.26985168048E+04 0.  0.
        4    1    3    3  502    0  0.10596690690E+04 -0.81071724015E+03 -0.18250589830E+03  0.13466517720E+04  0.12699999809E+01 0. -1.
       -4    1    3    3    0  502 -0.10596690690E+04  0.81071724015E+03 -0.60075892918E+03  0.14632408835E+04  0.12699999809E+01 0.  1.
</event>
<event>
 5   0  0.1828511E-06  0.2693595E+04  0.7818609E-02  0.8337086E-01
       -1   -1    0    0    0  501  0.00000000000E+00  0.00000000000E+00  0.12817011747E+04  0.12817011747E+04  0.50400001928E-02 0.  1.
        1   -1    0    0  501    0  0.00000000000E+00  0.00000000000E+00 -0.14152003668E+04  0.14152003668E+04  0.50400001928E-02 0. -1.
    10030    2    1    2    0    0  0.00000000000E+00  0.00000000000E+00 -0.13349919208E+03  0.26969015415E+04  0.26935953464E+04 0.  0.
        4    1    3    3  502    0  0.19834681242E+03 -0.23984597231E+03 -0.13786994327E+04  0.14133935358E+04  0.12699999809E+01 0. -1.
       -4    1    3    3    0  502 -0.19834681242E+03  0.23984597231E+03  0.12452002406E+04  0.12835080057E+04  0.12699999809E+01 0.  1.
</event>
<event>
 5   0  0.1732312E-06  0.2704874E+04  0.7818609E-02  0.8333425E-01
        1   -1    0    0  501    0  0.00000000000E+00  0.00000000000E+00  0.11778145840E+04  0.11778145840E+04  0.50400001928E-02 0.  1.
       -1   -1    0    0    0  501  0.00000000000E+00  0.00000000000E+00 -0.15529492219E+04  0.15529492219E+04  0.50400001928E-02 0. -1.
    10030    2    1    2    0    0  0.00000000000E+00  0.00000000000E+00 -0.37513463791E+03  0.27307638058E+04  0.27048742978E+04 0.  0.
        5    1    3    3  502    0 -0.42365058354E+03  0.12329550945E+04 -0.55074100548E+03  0.14152723508E+04  0.46999998093E+01 0.  1.
       -5    1    3    3    0  502  0.42365058354E+03 -0.12329550945E+04  0.17560636757E+03  0.13154914550E+04  0.46999998093E+01 0. -1.
</event>
<event>
 5   0  0.1771016E-06  0.2715476E+04  0.7818609E-02  0.8330001E-01
        1   -1    0    0  501    0  0.00000000000E+00  0.00000000000E+00  0.19447757249E+04  0.19447757249E+04  0.50400001928E-02 0.  1.
       -1   -1    0    0    0  501  0.00000000000E+00  0.00000000000E+00 -0.94790010495E+03  0.94790010497E+03  0.50400001928E-02 0. -1.
    10030    2    1    2    0    0  0.00000000000E+00  0.00000000000E+00  0.99687561992E+03  0.28926758298E+04  0.27154764692E+04 0.  0.
        2    1    3    3  502    0 -0.14172495384E+03 -0.84845871218E+03  0.16174554510E+04  0.18319744225E+04  0.25500000920E-02 0.  1.
       -2    1    3    3    0  502  0.14172495384E+03  0.84845871218E+03 -0.62057983105E+03  0.10607014073E+04  0.25500000920E-02 0. -1.
</event>
<event>
 5   0  0.4655882E-06  0.2701211E+04  0.7818609E-02  0.8334612E-01
       -2   -1    0    0    0  501  0.00000000000E+00  0.00000000000E+00  0.79096446931E+03  0.79096446931E+03  0.25500000920E-02 0.  1.
        2   -1    0    0  501    0  0.00000000000E+00  0.00000000000E+00 -0.23062169542E+04  0.23062169542E+04  0.25500000920E-02 0. -1.
    10030    2    1    2    0    0  0.00000000000E+00  0.00000000000E+00 -0.15152524849E+04  0.30971814235E+04  0.27012113352E+04 0.  0.
        1    1    3    3  502    0 -0.26704225067E+03  0.10504979996E+04  0.16627052083E+03  0.10965872044E+04  0.50400001928E-02 0.  1.
       -1    1    3    3    0  502  0.26704225067E+03 -0.10504979996E+04 -0.16815230057E+04  0.20005942191E+04  0.50400001928E-02 0. -1.
</event>
<event>
 5   0  0.4487186E-06  0.2642466E+04  0.7818609E-02  0.8353918E-01
       -2   -1    0    0    0  501  0.00000000000E+00  0.00000000000E+00  0.78489196057E+03  0.78489196057E+03  0.25500000920E-02 0.  1.
        2   -1    0    0  501    0  0.00000000000E+00  0.00000000000E+00 -0.22240719197E+04  0.22240719197E+04  0.25500000920E-02 0. -1.
    10030    2    1    2    0    0  0.00000000000E+00  0.00000000000E+00 -0.14391799592E+04  0.30089638803E+04  0.26424656437E+04 0.  0.
        3    1    3    3  502    0 -0.83897033571E+02 -0.68841946303E+03  0.56097232329E+03  0.89199216757E+03  0.10100000352E+00 0.  1.
       -3    1    3    3    0  502  0.83897033571E+02  0.68841946303E+03 -0.20001522825E+04  0.21169717127E+04  0.10100000352E+00 0. -1.
</event>
<event>
 5   0  0.4487186E-06  0.2701470E+04  0.7818609E-02  0.8334528E-01
       -2   -1    0    0    0  501  0.00000000000E+00  0.00000000000E+00  0.24686699684E+04  0.24686699684E+04  0.25500000920E-02 0. -1.
        2   -1    0    0  501    0  0.00000000000E+00  0.00000000000E+00 -0.73905606498E+03  0.73905606498E+03  0.25500000920E-02 0.  1.
    10030    2    1    2    0    0  0.00000000000E+00  0.00000000000E+00  0.17296139034E+04  0.32077260333E+04  0.27014703497E+04 0.  0.
        3    1    3    3  502    0  0.58338117751E+03 -0.97914378253E+03  0.17255117632E+04  0.20679572046E+04  0.10100000352E+00 0. -1.
       -3    1    3    3    0  502 -0.58338117751E+03  0.97914378253E+03  0.41021402130E+01  0.11397688287E+04  0.10100000352E+00 0.  1.
</event>
<event>
 5   0  0.1828511E-06  0.2710143E+04  0.7818609E-02  0.8331721E-01
        1   -1    0    0  501    0  0.00000000000E+00  0.00000000000E+00  0.21686347868E+04  0.21686347868E+04  0.50400001928E-02 0.  1.
       -1   -1    0    0    0  501  0.00000000000E+00  0.00000000000E+00 -0.84671674489E+03  0.84671674490E+03  0.50400001928E-02 0. -1.
    10030    2    1    2    0    0  0.00000000000E+00  0.00000000000E+00  0.13219180419E+04  0.30153515317E+04  0.27101434556E+04 0.  0.
        4    1    3    3  502    0  0.16740020283E+03 -0.74184270803E+03  0.19088095658E+04  0.20547284499E+04  0.12699999809E+01 0.  1.
       -4    1    3    3    0  502 -0.16740020283E+03  0.74184270803E+03 -0.58689152398E+03  0.96062308174E+03  0.12699999809E+01 0. -1.
</event>
<event>
 5   0  0.4655882E-06  0.2555319E+04  0.7818609E-02  0.8383539E-01
        2   -1    0    0  501    0  0.00000000000E+00  0.00000000000E+00  0.99520245246E+03  0.99520245246E+03  0.25500000920E-02 0.  1.
       -2   -1    0    0    0  501  0.00000000000E+00  0.00000000000E+00 -0.16402831760E+04  0.16402831760E+04  0.25500000920E-02 0. -1.
    10030    2    1    2    0    0  0.00000000000E+00  0.00000000000E+00 -0.64508072359E+03  0.26354856285E+04  0.25553190326E+04 0.  0.
        1    1    3    3  502    0  0.77987243945E+03 -0.86371526974E+03 -0.86654288681E+03  0.14508968481E+04  0.50400001928E-02 0. -1.
       -1    1    3    3    0  502 -0.77987243945E+03  0.86371526974E+03  0.22146216322E+03  0.11845887804E+04  0.50400001928E-02 0.  1.
</event>
<event>
 5   0  0.1771016E-06  0.2711235E+04  0.7818609E-02  0.8331369E-01
       -1   -1    0    0    0  501  0.00000000000E+00  0.00000000000E+00  0.15888911714E+04  0.15888911714E+04  0.50400001928E-02 0.  1.
        1   -1    0    0  501    0  0.00000000000E+00  0.00000000000E+00 -0.11565919521E+04  0.11565919521E+04  0.50400001928E-02 0. -1.
    10030    2    1    2    0    0  0.00000000000E+00  0.00000000000E+00  0.43229921930E+03  0.27454831235E+04  0.27112349523E+04 0.  0.
        2    1    3    3  502    0 -0.60493904981E+03 -0.61975646565E+03  0.12722278351E+04  0.15390298876E+04  0.25500000920E-02 0.  1.
       -2    1    3    3    0  502  0.60493904981E+03  0.61975646565E+03 -0.83992861577E+03  0.12064532359E+04  0.25500000920E-02 0. -1.
</event>
<event>
 5   0  0.1753474E-06  0.2700789E+04  0.7818609E-02  0.8334749E-01
       -1   -1    0    0    0  501  0.00000000000E+00  0.00000000000E+00  0.12931321332E+04  0.12931321332E+04  0.50400001928E-02 0.  1.
        1   -1    0    0  501    0  0.00000000000E+00  0.00000000000E+00 -0.14101927293E+04  0.14101927293E+04  0.50400001928E-02 0. -1.
    10030    2    1    2    0    0  0.00000000000E+00  0.00000000000E+00 -0.11706059613E+03  0.27033248625E+04  0.27007891679E+04 0.  0.
        3    1    3    3  502    0 -0.84398333873E+02  0.12067252259E+04  0.54224708142E+03  0.13256472974E+04  0.10100000352E+00 0.  1.
       -3    1    3    3    0  502  0.84398333873E+02 -0.12067252259E+04 -0.65930767755E+03  0.13776775651E+04  0.10100000352E+00 0. -1.
</event>
<event>
 5   0  0.1732312E-06  0.2702137E+04  0.7818609E-02  0.8334312E-01
       -1   -1    0    0    0  501  0.00000000000E+00  0.00000000000E+00  0.95257577399E+03  0.95257577401E+03  0.50400001928E-02 0. -1.
        1   -1    0    0  501    0  0.00000000000E+00  0.00000000000E+00 -0.19162628719E+04  0.19162628719E+04  0.50400001928E-02 0.  1.
    10030    2    1    2    0    0  0.00000000000E+00  0.00000000000E+00 -0.96368709794E+03  0.28688386460E+04  0.27021366275E+04 0.  0.
        5    1    3    3  502    0 -0.65127922721E+02 -0.15235449498E+03  0.94173943216E+03  0.95621586817E+03  0.46999998093E+01 0. -1.
       -5    1    3    3    0  502  0.65127922721E+02  0.15235449498E+03 -0.19054265301E+04  0.19126227778E+04  0.46999998093E+01 0.  1.
</event>
<event>
 5   0  0.4448804E-06  0.2700395E+04  0.7818609E-02  0.8334877E-01
        2   -1    0    0  501    0  0.00000000000E+00  0.00000000000E+00  0.15577844399E+04  0.15577844399E+04  0.25500000920E-02 0. -1.
       -2   -1    0    0    0  501  0.00000000000E+00  0.00000000000E+00 -0.11702733357E+04  0.11702733357E+04  0.25500000920E-02 0.  1.
    10030    2    1    2    0    0  0.00000000000E+00  0.00000000000E+00  0.38751110419E+03  0.27280577755E+04  0.27003952249E+04 0.  0.
        2    1    3    3  502    0 -0.86507811790E+03  0.43317005249E+03 -0.75771891040E+03  0.12288752547E+04  0.25500000920E-02 0.  1.
       -2    1    3    3    0  502  0.86507811790E+03 -0.43317005249E+03  0.11452300146E+04  0.14991825208E+04  0.25500000920E-02 0. -1.
</event>
<event>
 5   0  0.4655882E-06  0.2698154E+04  0.7818609E-02  0.8335604E-01
       -2   -1    0    0    0  501  0.00000000000E+00  0.00000000000E+00  0.14624395891E+04  0.14624395891E+04  0.25500000920E-02 0. -1.
        2   -1    0    0  501    0  0.00000000000E+00  0.00000000000E+00 -0.12445018823E+04  0.12445018823E+04  0.25500000920E-02 0.  1.
    10030    2    1    2    0    0  0.00000000000E+00  0.00000000000E+00  0.21793770685E+03  0.27069414714E+04  0.26981540515E+04 0.  0.
        1    1    3    3  502    0 -0.11475610905E+04  0.70836230258E+03  0.14562842827E+03  0.13564222231E+04  0.50400001928E-02 0.  1.
       -1    1    3    3    0  502  0.11475610905E+04 -0.70836230258E+03  0.72309278576E+02  0.13505192483E+04  0.50400001928E-02 0. -1.
</event>
<event>
 5   0  0.4401659E-06  0.2709597E+04  0.7818609E-02  0.8331898E-01
        2   -1    0    0  501    0  0.00000000000E+00  0.00000000000E+00  0.12070300105E+04  0.12070300105E+04  0.25500000920E-02 0.  1.
       -2   -1    0    0    0  501  0.00000000000E+00  0.00000000000E+00 -0.15206578428E+04  0.15206578429E+04  0.25500000920E-02 0. -1.
    10030    2    1    2    0    0  0.00000000000E+00  0.00000000000E+00 -0.31362783237E+03  0.27276878533E+04  0.27095974993E+04 0.  0.
        5    1    3    3  502    0  0.36598671368E+03 -0.23129248883E+01 -0.14699405842E+04  0.15148264044E+04  0.46999998093E+01 0. -1.
       -5    1    3    3    0  502 -0.36598671368E+03  0.23129248883E+01  0.11563127519E+04  0.12128614489E+04  0.46999998093E+01 0.  1.
</event>
<event>
 5   0  0.1771016E-06  0.2705083E+04  0.7818609E-02  0.8333358E-01
        1   -1    0    0  501    0  0.00000000000E+00  0.00000000000E+00  0.13501437035E+04  0.13501437035E+04  0.50400001928E-02 0. -1.
       -1   -1    0    0    0  501  0.00000000000E+00  0.00000000000E+00 -0.13549433537E+04  0.13549433537E+04  0.50400001928E-02 0.  1.
    10030    2    1    2    0    0  0.00000000000E+00  0.00000000000E+00 -0.47996501744E+01  0.27050870572E+04  0.27050827992E+04 0.  0.
        2    1    3    3  502    0 -0.86913580592E+03  0.83316515422E+03 -0.61868564347E+03  0.13536370078E+04  0.25500000920E-02 0.  1.
       -2    1    3    3    0  502  0.86913580592E+03 -0.83316515422E+03  0.61388599329E+03  0.13514500494E+04  0.25500000920E-02 0. -1.
</event>
<event>
 5   0  0.4439357E-06  0.2700830E+04  0.7818609E-02  0.8334736E-01
        2   -1    0    0  501    0  0.00000000000E+00  0.00000000000E+00  0.16892611354E+04  0.16892611354E+04  0.25500000920E-02 0.  1.
       -2   -1    0    0    0  501  0.00000000000E+00  0.00000000000E+00 -0.10795375211E+04  0.10795375211E+04  0.25500000920E-02 0. -1.
    10030    2    1    2    0    0  0.00000000000E+00  0.00000000000E+00  0.60972361426E+03  0.27687986565E+04  0.27008300787E+04 0.  0.
        4    1    3    3  502    0 -0.90207255975E+02  0.15097087251E+03  0.16774702468E+04  0.16866646363E+04  0.12699999809E+01 0.  1.
       -4    1    3    3    0  502  0.90207255975E+02 -0.15097087251E+03 -0.10677466326E+04  0.10821340202E+04  0.12699999809E+01 0. -1.
</event>
<event>
 5   0  0.4655882E-06  0.2706392E+04  0.7818609E-02  0.8332934E-01
        2   -1    0    0  501    0  0.00000000000E+00  0.00000000000E+00  0.11688147059E+04  0.11688147059E+04  0.25500000920E-02 0. -1.
       -2   -1    0    0    0  501  0.00000000000E+00  0.00000000000E+00 -0.15666638671E+04  0.15666638671E+04  0.25500000920E-02 0.  1.
    10030    2    1    2    0    0  0.00000000000E+00  0.00000000000E+00 -0.39784916122E+03  0.27354785731E+04  0.27063922607E+04 0.  0.
        1    1    3    3  502    0 -0.50050669952E+03 -0.12468434810E+04 -0.36194700600E+03  0.13914493371E+04  0.50400001928E-02 0.  1.
       -1    1    3    3    0  502  0.50050669952E+03  0.12468434810E+04 -0.35902155216E+02  0.13440292360E+04  0.50400001928E-02 0. -1.
</event>
<event>
 5   0  0.1723605E-06  0.2699327E+04  0.7818609E-02  0.8335223E-01
        1   -1    0    0  501    0  0.00000000000E+00  0.00000000000E+00  0.18158596844E+04  0.18158596844E+04  0.50400001928E-02 0. -1.
       -1   -1    0    0    0  501  0.00000000000E+00  0.00000000000E+00 -0.10031564296E+04  0.10031564296E+04  0.50400001928E-02 0.  1.
    10030    2    1    2    0    0  0.00000000000E+00  0.00000000000E+00  0.81270325485E+03  0.28190161140E+04  0.26993268180E+04 0.  0.
        1    1    3    3  502    0  0.89770360486E+03  0.22873409056E+03  0.14314026213E+04  0.17050233167E+04  0.50400001928E-02 0. -1.
       -1    1    3    3    0  502 -0.89770360486E+03 -0.22873409056E+03 -0.61869936640E+03  0.11139927973E+04  0.50400001928E-02 0.  1.
</event>
<event>
 5   0  0.1732312E-06  0.2712285E+04  0.7818609E-02  0.8331030E-01
       -1   -1    0    0    0  501  0.00000000000E+00  0.00000000000E+00  0.20607804341E+04  0.20607804341E+04  0.50400001928E-02 0. -1.
        1   -1    0    0  501    0  0.00000000000E+00  0.00000000000E+00 -0.89244006324E+03  0.89244006326E+03  0.50400001928E-02 0.  1.
    10030    2    1    2    0    0  0.00000000000E+00  0.00000000000E+00  0.11683403709E+04  0.29532204974E+04  0.27122853987E+04 0.  0.
        5    1    3    3  502    0 -0.80869615510E+03 -0.93685535506E+03 -0.19530902170E+02  0.12377766251E+04  0.46999998093E+01 0. -1.
       -5    1    3    3    0  502  0.80869615510E+03  0.93685535506E+03  0.11878712731E+04  0.17154438723E+04  0.46999998093E+01 0.  1.
</event>
<event>
 5   0  0.4401659E-06  0.2694819E+04  0.7818609E-02  0.8336688E-01
        2   -1    0    0  501    0  0.00000000000E+00  0.00000000000E+00  0.12038360155E+04  0.12038360155E+04  0.25500000920E-02 0.  1.
       -2   -1    0    0    0  501  0.00000000000E+00  0.00000000000E+00 -0.15081059665E+04  0.15081059665E+04  0.25500000920E-02 0. -1.
    10030    2    1    2    0    0  0.00000000000E+00  0.00000000000E+00 -0.30426995102E+03  0.27119419820E+04  0.26948189384E+04 0.  0.
        5    1    3    3  502    0 -0.38238325969E+03  0.74552570752E+03 -0.12140481778E+04  0.14751137604E+04  0.46999998093E+01 0. -1.
       -5    1    3    3    0  502  0.38238325969E+03 -0.74552570752E+03  0.90977822682E+03  0.12368282216E+04  0.46999998093E+01 0.  1.
</event>
<event>
 5   0  0.4401659E-06  0.2691234E+04  0.7818609E-02  0.8337855E-01
        2   -1    0    0  501    0  0.00000000000E+00  0.00000000000E+00  0.19704951657E+04  0.19704951657E+04  0.25500000920E-02 0.  1.
       -2   -1    0    0    0  501  0.00000000000E+00  0.00000000000E+00 -0.91889884315E+03  0.91889884315E+03  0.25500000920E-02 0. -1.
    10030    2    1    2    0    0  0.00000000000E+00  0.00000000000E+00  0.10515963225E+04  0.28893940088E+04  0.26912344589E+04 0.  0.
        5    1    3    3  502    0  0.37487558441E+03  0.15902151689E+03 -0.85115003854E+03  0.94355605278E+03  0.46999998093E+01 0. -1.
       -5    1    3    3    0  502 -0.37487558441E+03 -0.15902151689E+03  0.19027463611E+04  0.19458379560E+04  0.46999998093E+01 0.  1.
</event>
<event>
 5   0  0.4401659E-06  0.2719673E+04  0.7818609E-02  0.8328650E-01
       -2   -1    0    0    0  501  0.00000000000E+00  0.00000000000E+00  0.15953029939E+04  0.15953029939E+04  0.25500000920E-02 0.  1.
        2   -1    0    0  501    0  0.00000000000E+00  0.00000000000E+00 -0.11591252372E+04  0.11591252372E+04  0.25500000920E-02 0. -1.
    10030    2    1    2    0    0  0.00000000000E+00  0.00000000000E+00  0.43617775669E+03  0.27544282310E+04  0.27196734812E+04 0.  0.
        5    1    3    3  502    0  0.13112693797E+04 -0.35036115408E+03  0.30254242318E+03  0.13905877650E+04  0.46999998093E+01 0.  1.
       -5    1    3    3    0  502 -0.13112693797E+04  0.35036115408E+03  0.13363533351E+03  0.13638404660E+04  0.46999998093E+01 0. -1.
</event>
<event>
 5   0  0.4439357E-06  0.2583578E+04  0.7818609E-02  0.8373801E-01
       -2   -1    0    0    0  501  0.00000000000E+00  0.00000000000E+00  0.96771768047E+03  0.96771768047E+03  0.25500000920E-02 0.  1.
        2   -1    0    0  501    0  0.00000000000E+00  0.00000000000E+00 -0.17243861555E+04  0.17243861555E+04  0.25500000920E-02 0. -1.
    10030    2    1    2    0    0  0.00000000000E+00  0.00000000000E+00 -0.75666847503E+03  0.26921038360E+04  0.25835781162E+04 0.  0.
        4    1    3    3  502    0 -0.44917363680E+03 -0.98985143145E+03  0.34894901860E+03  0.11416347239E+04  0.12699999809E+01 0.  1.
       -4    1    3    3    0  502  0.44917363680E+03  0.98985143145E+03 -0.11056174936E+04  0.15504691121E+04  0.12699999809E+01 0. -1.
</event>
<event>
 5   0  0.4439357E-06  0.2701189E+04  0.7818609E-02  0.8334619E-01
       -2   -1    0    0    0  501  0.00000000000E+00  0.00000000000E+00  0.69355861403E+03  0.69355861404E+03  0.25500000920E-02 0.  1.
        2   -1    0    0  501    0  0.00000000000E+00  0.00000000000E+00 -0.26300664603E+04  0.26300664603E+04  0.25500000920E-02 0. -1.
    10030    2    1    2    0    0  0.00000000000E+00  0.00000000000E+00 -0.19365078462E+04  0.33236250743E+04  0.27011888116E+04 0.  0.
        4    1    3    3  502    0 -0.40386964702E+03  0.11296582236E+04 -0.20492550697E+03  0.12170597645E+04  0.12699999809E+01 0.  1.
       -4    1    3    3    0  502  0.40386964702E+03 -0.11296582236E+04 -0.17315823393E+04  0.21065653098E+04  0.12699999809E+01 0. -1.
</event>
<event>
 5   0  0.1732312E-06  0.2708490E+04  0.7818609E-02  0.8332256E-01
        1   -1    0    0  501    0  0.00000000000E+00  0.00000000000E+00  0.17896069352E+04  0.17896069352E+04  0.50400001928E-02 0. -1.
       -1   -1    0    0    0  501  0.00000000000E+00  0.00000000000E+00 -0.10247943052E+04  0.10247943052E+04  0.50400001928E-02 0.  1.
    10030    2    1    2    0    0  0.00000000000E+00  0.00000000000E+00  0.76481263000E+03  0.28144012405E+04  0.27084896129E+04 0.  0.
        5    1    3    3  502    0  0.10422072320E+04  0.52198220622E+03  0.10987818097E+04  0.16018754300E+04  0.46999998093E+01 0. -1.
       -5    1    3    3    0  502 -0.10422072320E+04 -0.52198220622E+03 -0.33396917966E+03  0.12125258105E+04  0.46999998093E+01 0.  1.
</event>
<event>
 5   0  0.4487186E-06  0.2709683E+04  0.7818609E-02  0.8331870E-01
       -2   -1    0    0    0  501  0.00000000000E+00  0.00000000000E+00  0.10371766966E+04  0.10371766966E+04  0.25500000920E-02 0. -1.
        2   -1    0    0  501    0  0.00000000000E+00  0.00000000000E+00 -0.17697998335E+04  0.17697998335E+04  0.25500000920E-02 0.  1.
    10030    2    1    2    0    0  0.00000000000E+00  0.00000000000E+00 -0.73262313691E+03  0.28069765301E+04  0.27096827453E+04 0.  0.
        3    1    3    3  502    0 -0.32431990143E+03 -0.96584932996E+02 -0.17253171925E+04  0.17581898284E+04  0.10100000352E+00 0.  1.
       -3    1    3    3    0  502  0.32431990143E+03  0.96584932996E+02  0.99269405554E+03  0.10487867018E+04  0.10100000352E+00 0. -1.
</event>
<event>
 5   0  0.4448804E-06  0.2701729E+04  0.7818609E-02  0.8334444E-01
        2   -1    0    0  501    0  0.00000000000E+00  0.00000000000E+00  0.11121255506E+04  0.11121255506E+04  0.25500000920E-02 0. -1.
       -2   -1    0    0    0  501  0.00000000000E+00  0.00000000000E+00 -0.16408536619E+04  0.16408536619E+04  0.25500000920E-02 0.  1.
    10030    2    1    2    0    0  0.00000000000E+00  0.00000000000E+00 -0.52872811127E+03  0.27529792125E+04  0.27017292849E+04 0.  0.
        2    1    3    3  502    0 -0.54543330849E+03 -0.99407466922E+02 -0.15195820235E+04  0.16175626308E+04  0.25500000920E-02 0.  1.
       -2    1    3    3    0  502  0.54543330849E+03  0.99407466922E+02  0.99085391224E+03  0.11354165817E+04  0.25500000920E-02 0. -1.
</event>
<event>
 5   0  0.1753474E-06  0.2704330E+04  0.7818609E-02  0.8333601E-01
       -1   -1    0    0    0  501  0.00000000000E+00  0.00000000000E+00  0.93800304262E+03  0.93800304263E+03  0.50400001928E-02 0. -1.
        1   -1    0    0  501    0  0.00000000000E+00  0.00000000000E+00 -0.19491943476E+04  0.19491943476E+04  0.50400001928E-02 0.  1.
    10030    2    1    2    0    0  0.00000000000E+00  0.00000000000E+00 -0.10111913049E+04  0.28871973902E+04  0.27043300307E+04 0.  0.
        3    1    3    3  502    0  0.53180498658E+03  0.63208624555E+03 -0.16484982457E+04  0.18438807017E+04  0.10100000352E+00 0.  1.
       -3    1    3    3    0  502 -0.53180498658E+03 -0.63208624555E+03  0.63730694080E+03  0.10433166885E+04  0.10100000352E+00 0. -1.
</event>
<event>
 5   0  0.4401659E-06  0.2699497E+04  0.7818609E-02  0.8335168E-01
       -2   -1    0    0    0  501  0.00000000000E+00  0.00000000000E+00  0.18221052071E+04  0.18221052071E+04  0.25500000920E-02 0.  1.
        2   -1    0    0  501    0  0.00000000000E+00  0.00000000000E+00 -0.99984409769E+03  0.99984409770E+03  0.25500000920E-02 0. -1.
    10030    2    1    2    0    0  0.00000000000E+00  0.00000000000E+00  0.82226110941E+03  0.28219493048E+04  0.26994970915E+04 0.  0.
        5    1    3    3  502    0  0.87420411138E+03  0.11235846190E+03  0.14797237238E+04  0.17223419060E+04  0.46999998093E+01 0. -1.
       -5    1    3    3    0  502 -0.87420411138E+03 -0.11235846190E+03 -0.65746261436E+03  0.10996073988E+04  0.46999998093E+01 0.  1.
</event>
<event>
 5   0  0.4448804E-06  0.2707197E+04  0.7818609E-02  0.8332674E-01
        2   -1    0    0  501    0  0.00000000000E+00  0.00000000000E+00  0.14471514352E+04  0.14471514352E+04  0.25500000920E-02 0. -1.
       -2   -1    0    0    0  501  0.00000000000E+00  0.00000000000E+00 -0.12660930168E+04  0.12660930168E+04  0.25500000920E-02 0.  1.
    10030    2    1    2    0    0  0.00000000000E+00  0.00000000000E+00  0.18105841837E+03  0.27132444521E+04  0.27071965769E+04 0.  0.
        2    1    3    3  502    0 -0.69429505344E+02  0.56376486388E+03 -0.11408640548E+04  0.12744497124E+04  0.25500000920E-02 0.  1.
       -2    1    3    3    0  502  0.69429505344E+02 -0.56376486388E+03  0.13219224731E+04  0.14387947397E+04  0.25500000920E-02 0. -1.
</event>
<event>
 5   0  0.1723605E-06  0.2603353E+04  0.7818609E-02  0.8367063E-01
        1   -1    0    0  501    0  0.00000000000E+00  0.00000000000E+00  0.16203294039E+04  0.16203294039E+04  0.50400001928E-02 0.  1.
       -1   -1    0    0    0  501  0.00000000000E+00  0.00000000000E+00 -0.10456897156E+04  0.10456897157E+04  0.50400001928E-02 0. -1.
    10030    2    1    2    0    0  0.00000000000E+00  0.00000000000E+00  0.57463968828E+03  0.26660191196E+04  0.26033530638E+04 0.  0.
        1    1    3    3  502    0  0.10827104480E+04 -0.57358038302E+03  0.73733529486E+03  0.14300068905E+04  0.50400001928E-02 0.  1.
       -1    1    3    3    0  502 -0.10827104480E+04  0.57358038302E+03 -0.16269560659E+03  0.12360122290E+04  0.50400001928E-02 0. -1.
</event>
<event>
 5   0  0.4401659E-06  0.2774515E+04  0.7818609E-02  0.8311224E-01
       -2   -1    0    0    0  501  0.00000000000E+00  0.00000000000E+00  0.11523716529E+04  0.11523716529E+04  0.25500000920E-02 0.  1.
        2   -1    0    0  501    0  0.00000000000E+00  0.00000000000E+00 -0.16700197377E+04  0.16700197377E+04  0.25500000920E-02 0. -1.
    10030    2    1    2    0    0  0.00000000000E+00  0.00000000000E+00 -0.51764808484E+03  0.28223913906E+04  0.27745150246E+04 0.  0.
        5    1    3    3  502    0  0.82914750383E+02 -0.75250640363E+01  0.11498198690E+04  0.11528396695E+04  0.46999998093E+01 0.  1.
       -5    1    3    3    0  502 -0.82914750383E+02  0.75250640363E+01 -0.16674679538E+04  0.16695517211E+04  0.46999998093E+01 0. -1.
</event>
<event>
 5   0  0.1482875E-06  0.2694984E+04  0.7818609E-02  0.8336634E-01
        4   -1    0    0  501    0  0.00000000000E+00  0.00000000000E+00  0.10827620675E+04  0.10827628123E+04  0.12699999809E+01 0. -1.
       -4   -1    0    0    0  501  0.00000000000E+00  0.00000000000E+00 -0.16769454032E+04  0.16769458841E+04  0.12699999809E+01 0.  1.
    10030    2    1    2    0    0  0.00000000000E+00  0.00000000000E+00 -0.59418333573E+03  0.27597086964E+04  0.26949839058E+04 0.  0.
        5    1    3    3  502    0 -0.85250601425E+03  0.64160558116E+03  0.54564877451E+03  0.11984068179E+04  0.46999998093E+01 0. -1.
       -5    1    3    3    0  502  0.85250601425E+03 -0.64160558116E+03 -0.11398321102E+04  0.15613018785E+04  0.46999998093E+01 0.  1.
</event>
<event>
 5   0  0.4487186E-06  0.2695446E+04  0.7818609E-02  0.8336484E-01
        2   -1    0    0  501    0  0.00000000000E+00  0.00000000000E+00  0.97795585456E+03  0.97795585456E+03  0.25500000920E-02 0.  1.
       -2   -1    0    0    0  501  0.00000000000E+00  0.00000000000E+00 -0.18573002998E+04  0.18573002998E+04  0.25500000920E-02 0. -1.
    10030    2    1    2    0    0  0.00000000000E+00  0.00000000000E+00 -0.87934444523E+03  0.28352561544E+04  0.26954463095E+04 0.  0.
        3    1    3    3  502    0  0.13272598736E+04  0.12990024793E+03 -0.64435424917E+03  0.14811094677E+04  0.10100000352E+00 0.  1.
       -3    1    3    3    0  502 -0.13272598736E+04 -0.12990024793E+03 -0.23499019606E+03  0.13541466867E+04  0.10100000352E+00 0. -1.
</event>
<event>
 5   0  0.1771016E-06  0.2687335E+04  0.7818609E-02  0.8339126E-01
       -1   -1    0    0    0  501  0.00000000000E+00  0.00000000000E+00  0.10630853144E+04  0.10630853144E+04  0.50400001928E-02 0.  1.
        1   -1    0    0  501    0  0.00000000000E+00  0.00000000000E+00 -0.16983040524E+04  0.16983040524E+04  0.50400001928E-02 0. -1.
    10030    2    1    2    0    0  0.00000000000E+00  0.00000000000E+00 -0.63521873805E+03  0.27613893668E+04  0.26873348116E+04 0.  0.
        2    1    3    3  502    0 -0.88507458865E+03 -0.45235819147E+03 -0.12466578231E+04  0.15944091974E+04  0.25500000920E-02 0. -1.
       -2    1    3    3    0  502  0.88507458865E+03  0.45235819147E+03  0.61143908509E+03  0.11669801693E+04  0.25500000920E-02 0.  1.
</event>
<event>
 5   0  0.1732312E-06  0.2693408E+04  0.7818609E-02  0.8337147E-01
        1   -1    0    0  501    0  0.00000000000E+00  0.00000000000E+00  0.18799866063E+04  0.18799866063E+04  0.50400001928E-02 0.  1.
       -1   -1    0    0    0  501  0.00000000000E+00  0.00000000000E+00 -0.96469428527E+03  0.96469428529E+03  0.50400001928E-02 0. -1.
    10030    2    1    2    0    0  0.00000000000E+00  0.00000000000E+00  0.91529232102E+03  0.28446808916E+04  0.26934084989E+04 0.  0.
        5    1    3    3  502    0  0.17887302584E+03 -0.36039262624E+03  0.18150168609E+04  0.18590822197E+04  0.46999998093E+01 0.  1.
       -5    1    3    3    0  502 -0.17887302584E+03  0.36039262624E+03 -0.89972453984E+03  0.98559867188E+03  0.46999998093E+01 0. -1.
</event>
<event>
 5   0  0.4448804E-06  0.2704516E+04  0.7818609E-02  0.8333541E-01
       -2   -1    0    0    0  501  0.00000000000E+00  0.00000000000E+00  0.12057573460E+04  0.12057573460E+04  0.25500000920E-02 0.  1.
        2   -1    0    0  501    0  0.00000000000E+00  0.00000000000E+00 -0.15165583942E+04  0.15165583942E+04  0.25500000920E-02 0. -1.
    10030    2    1    2    0    0  0.00000000000E+00  0.00000000000E+00 -0.31080104826E+03  0.27223157402E+04  0.27045157973E+04 0.  0.
        2    1    3    3  502    0  0.10709022093E+04  0.11612757424E+03 -0.97826741981E+03  0.14551028486E+04  0.25500000920E-02 0. -1.
       -2    1    3    3    0  502 -0.10709022093E+04 -0.11612757424E+03  0.66746637154E+03  0.12672128916E+04  0.25500000920E-02 0.  1.
</event>
<event>
 5   0  0.4655882E-06  0.2702588E+04  0.7818609E-02  0.8334166E-01
        2   -1    0    0  501    0  0.00000000000E+00  0.00000000000E+00  0.17295370296E+04  0.17295370296E+04  0.25500000920E-02 0. -1.
       -2   -1    0    0    0  501  0.00000000000E+00  0.00000000000E+00 -0.10557710811E+04  0.10557710811E+04  0.25500000920E-02 0.  1.
    10030    2    1    2    0    0  0.00000000000E+00  0.00000000000E+00  0.67376594849E+03  0.27853081106E+04  0.27025877817E+04 0.  0.
        1    1    3    3  502    0 -0.63396882976E+03 -0.11909895709E+04  0.25960426158E+03  0.13739603370E+04  0.50400001928E-02 0.  1.
       -1    1    3    3    0  502  0.63396882976E+03  0.11909895709E+04  0.41416168691E+03  0.14113477736E+04  0.50400001928E-02 0. -1.
</event>
<event>
 5   0  0.1828511E-06  0.2692690E+04  0.7818609E-02  0.8337381E-01
        1   -1    0    0  501    0  0.00000000000E+00  0.00000000000E+00  0.17444444947E+04  0.17444444947E+04  0.50400001928E-02 0. -1.
       -1   -1    0    0    0  501  0.00000000000E+00  0.00000000000E+00 -0.10390959255E+04  0.10390959255E+04  0.50400001928E-02 0.  1.
    10030    2    1    2    0    0  0.00000000000E+00  0.00000000000E+00  0.70534856914E+03  0.27835404202E+04  0.26926902285E+04 0.  0.
        4    1    3    3  502    0  0.69892282565E+01 -0.11927809365E+04  0.99813545828E+03  0.15553299386E+04  0.12699999809E+01 0. -1.
       -4    1    3    3    0  502 -0.69892282565E+01  0.11927809365E+04 -0.29278688914E+03  0.12282104816E+04  0.12699999809E+01 0.  1.
</event>
<event>
 5   0  0.1753474E-06  0.2697489E+04  0.7818609E-02  0.8335820E-01
       -1   -1    0    0    0  501  0.00000000000E+00  0.00000000000E+00  0.10467442535E+04  0.10467442535E+04  0.50400001928E-02 0.  1.
        1   -1    0    0  501    0  0.00000000000E+00  0.00000000000E+00 -0.17378764617E+04  0.17378764617E+04  0.50400001928E-02 0. -1.
    10030    2    1    2    0    0  0.00000000000E+00  0.00000000000E+00 -0.69113220814E+03  0.27846207152E+04  0.26974893510E+04 0.  0.
        3    1    3    3  502    0  0.86555199684E+03  0.46593109637E+03 -0.12988892293E+04  0.16289215101E+04  0.10100000352E+00 0. -1.
       -3    1    3    3    0  502 -0.86555199684E+03 -0.46593109637E+03  0.60775702116E+03  0.11556992051E+04  0.10100000352E+00 0.  1.
</event>
<event>
 5   0  0.4448804E-06  0.2701315E+04  0.7818609E-02  0.8334578E-01
        2   -1    0    0  501    0  0.00000000000E+00  0.00000000000E+00  0.18649470009E+04  0.18649470009E+04  0.25500000920E-02 0. -1.
       -2   -1    0    0    0  501  0.00000000000E+00  0.00000000000E+00 -0.97819199767E+03  0.97819199768E+03  0.25500000920E-02 0.  1.
    10030    2    1    2    0    0  0.00000000000E+00  0.00000000000E+00  0.88675500322E+03  0.28431389986E+04  0.27013154073E+04 0.  0.
        2    1    3    3  502    0  0.63592864134E+03  0.10165970549E+04  0.10976251279E+04  0.16256247200E+04  0.25500000920E-02 0. -1.
       -2    1    3    3    0  502 -0.63592864134E+03 -0.10165970549E+04 -0.21087012465E+03  0.12175142786E+04  0.25500000920E-02 0.  1.
</event>
<event>
 5   0  0.1753474E-06  0.2697408E+04  0.7818609E-02  0.8335846E-01
        1   -1    0    0  501    0  0.00000000000E+00  0.00000000000E+00  0.52874359723E+03  0.52874359725E+03  0.50400001928E-02 0.  1.
       -1   -1    0    0    0  501  0.00000000000E+00  0.00000000000E+00 -0.34402367032E+04  0.34402367032E+04  0.50400001928E-02 0. -1.
    10030    2    1    2    0    0  0.00000000000E+00  0.00000000000E+00 -0.29114931060E+04  0.39689803004E+04  0.26974084821E+04 0.  0.
        3    1    3    3  502    0  0.11209168799E+04  0.12074079809E+03 -0.36653894438E+03  0.11854888443E+04  0.10100000352E+00 0.  1.
       -3    1    3    3    0  502 -0.11209168799E+04 -0.12074079809E+03 -0.25449541616E+04  0.27834914562E+04  0.10100000352E+00 0. -1.
</event>
<event>
 5   0  0.1723605E-06  0.2695605E+04  0.7818609E-02  0.8336432E-01
        1   -1    0    0  501    0  0.00000000000E+00  0.00000000000E+00  0.14135644633E+04  0.14135644633E+04  0.50400001928E-02 0.  1.
       -1   -1    0    0    0  501  0.00000000000E+00  0.00000000000E+00 -0.12850997040E+04  0.12850997040E+04  0.50400001928E-02 0. -1.
    10030    2    1    2    0    0  0.00000000000E+00  0.00000000000E+00  0.12846475937E+03  0.26986641673E+04  0.26956047733E+04 0.  0.
        1    1    3    3  502    0 -0.61771426378E+03  0.10744046375E+04  0.59460249641E+03  0.13745793413E+04  0.50400001928E-02 0.  1.
       -1    1    3    3    0  502  0.61771426378E+03 -0.10744046375E+04 -0.46613773704E+03  0.13240848261E+04  0.50400001928E-02 0. -1.
</event>
<event>
 5   0  0.1771016E-06  0.2701931E+04  0.7818609E-02  0.8334379E-01
       -1   -1    0    0    0  501  0.00000000000E+00  0.00000000000E+00  0.87373975106E+03  0.87373975107E+03  0.50400001928E-02 0. -1.
        1   -1    0    0  501    0  0.00000000000E+00  0.00000000000E+00 -0.20888455208E+04  0.20888455208E+04  0.50400001928E-02 0.  1.
    10030    2    1    2    0    0  0.00000000000E+00  0.00000000000E+00 -0.12151057698E+04  0.29625852719E+04  0.27019306915E+04 0.  0.
        2    1    3    3  502    0  0.10159056859E+04 -0.68765353625E+03 -0.12279800177E+04  0.17357611219E+04  0.25500000920E-02 0.  1.
       -2    1    3    3    0  502 -0.10159056859E+04  0.68765353625E+03  0.12874247917E+02  0.12268241500E+04  0.25500000920E-02 0. -1.
</event>
<event>
 5   0  0.4439357E-06  0.2699649E+04  0.7818609E-02  0.8335119E-01
       -2   -1    0    0    0  501  0.00000000000E+00  0.00000000000E+00  0.11539813588E+04  0.11539813588E+04  0.25500000920E-02 0. -1.
        2   -1    0    0  501    0  0.00000000000E+00  0.00000000000E+00 -0.15789047746E+04  0.15789047746E+04  0.25500000920E-02 0.  1.
    10030    2    1    2    0    0  0.00000000000E+00  0.00000000000E+00 -0.42492341585E+03  0.27328861334E+04  0.26996493677E+04 0.  0.
        4    1    3    3  502    0  0.55859761199E+03  0.12111136931E+04 -0.20630562818E+01  0.13337291850E+04  0.12699999809E+01 0.  1.
       -4    1    3    3    0  502 -0.55859761199E+03 -0.12111136931E+04 -0.42286035956E+03  0.13991569484E+04  0.12699999809E+01 0. -1.
</event>
<event>
 5   0  0.1771016E-06  0.2696062E+04  0.7818609E-02  0.8336284E-01
       -1   -1    0    0    0  501  0.00000000000E+00  0.00000000000E+00  0.83068090292E+03  0.83068090293E+03  0.50400001928E-02 0. -1.
        1   -1    0    0  501    0  0.00000000000E+00  0.00000000000E+00 -0.21875886029E+04  0.21875886029E+04  0.50400001928E-02 0.  1.
    10030    2    1    2    0    0  0.00000000000E+00  0.00000000000E+00 -0.13569077000E+04  0.30182695059E+04  0.26960623701E+04 0.  0.
        2    1    3    3  502    0 -0.88883327698E+03 -0.41232307120E+03 -0.17149251909E+04  0.19750957748E+04  0.25500000920E-02 0.  1.
       -2    1    3    3    0  502  0.88883327698E+03  0.41232307120E+03  0.35801749092E+03  0.10431737310E+04  0.25500000920E-02 0. -1.
</event>
<event>
 5   0  0.4439357E-06  0.2696079E+04  0.7818609E-02  0.8336278E-01
        2   -1    0    0  501    0  0.00000000000E+00  0.00000000000E+00  0.12774806564E+04  0.12774806564E+04  0.25500000920E-02 0. -1.
       -2   -1    0    0    0  501  0.00000000000E+00  0.00000000000E+00 -0.14224952397E+04  0.14224952397E+04  0.25500000920E-02 0.  1.
    10030    2    1    2    0    0  0.00000000000E+00  0.00000000000E+00 -0.14501458335E+03  0.26999758961E+04  0.26960787471E+04 0.  0.
        4    1    3    3  502    0  0.52328274144E+03 -0.15433186671E+02  0.11715224304E+04  0.12831716287E+04  0.12699999809E+01 0. -1.
       -4    1    3    3    0  502 -0.52328274144E+03  0.15433186671E+02 -0.13165370138E+04  0.14168042675E+04  0.12699999809E+01 0.  1.
</event>
<event>
 5   0  0.4655882E-06  0.2678046E+04  0.7818609E-02  0.8342164E-01
       -2   -1    0    0    0  501  0.00000000000E+00  0.00000000000E+00  0.11574638275E+04  0.11574638275E+04  0.25500000920E-02 0.  1.
        2   -1    0    0  501    0  0.00000000000E+00  0.00000000000E+00 -0.15490611505E+04  0.15490611505E+04  0.25500000920E-02 0. -1.
    10030    2    1    2    0    0  0.00000000000E+00  0.00000000000E+00 -0.39159732300E+03  0.27065249781E+04  0.26780457415E+04 0.  0.
        1    1    3    3  502    0  0.17505976399E+03 -0.50748275114E+03 -0.14355457346E+04  0.15326370150E+04  0.50400001928E-02 0. -1.
       -1    1    3    3    0  502 -0.17505976399E+03  0.50748275114E+03  0.10439484116E+04  0.11738879631E+04  0.50400001928E-02 0.  1.
</event>
<event>
 5   0  0.1482875E-06  0.2693037E+04  0.7818609E-02  0.8337268E-01
        4   -1    0    0  501    0  0.00000000000E+00  0.00000000000E+00  0.19338742134E+04  0.19338746304E+04  0.12699999809E+01 0.  1.
       -4   -1    0    0    0  501  0.00000000000E+00  0.00000000000E+00 -0.93755308702E+03  0.93755394718E+03  0.12699999809E+01 0. -1.
    10030    2    1    2    0    0  0.00000000000E+00  0.00000000000E+00  0.99632112635E+03  0.28714285776E+04  0.26930366298E+04 0.  0.
        3    1    3    3  502    0  0.34343716023E+03 -0.18554279980E+03 -0.87590072202E+03  0.95894593102E+03  0.10100000352E+00 0. -1.
       -3    1    3    3    0  502 -0.34343716023E+03  0.18554279980E+03  0.18722218484E+04  0.19124826465E+04  0.10100000352E+00 0.  1.
</event>
<event>
 5   0  0.4487186E-06  0.2711436E+04  0.7818609E-02  0.8331304E-01
       -2   -1    0    0    0  501  0.00000000000E+00  0.00000000000E+00  0.10991990499E+04  0.10991990499E+04  0.25500000920E-02 0.  1.
        2   -1    0    0  501    0  0.00000000000E+00  0.00000000000E+00 -0.16721002963E+04  0.16721002963E+04  0.25500000920E-02 0. -1.
    10030    2    1    2    0    0  0.00000000000E+00  0.00000000000E+00 -0.57290124646E+03  0.27712993462E+04  0.27114358241E+04 0.  0.
        3    1    3    3  502    0 -0.26903444797E+03 -0.68958366815E+03 -0.14473379060E+04  0.16256359352E+04  0.10100000352E+00 0. -1.
       -3    1    3    3    0  502  0.26903444797E+03  0.68958366815E+03  0.87443665953E+03  0.11456634110E+04  0.10100000352E+00 0.  1.
</event>
<event>
 5   0  0.4439357E-06  0.2816882E+04  0.7818609E-02  0.8298046E-01
       -2   -1    0    0    0  501  0.00000000000E+00  0.00000000000E+00  0.80963704284E+03  0.80963704285E+03  0.25500000920E-02 0. -1.
        2   -1    0    0  501    0  0.00000000000E+00  0.00000000000E+00 -0.24501168852E+04  0.24501168852E+04  0.25500000920E-02 0.  1.
    10030    2    1    2    0    0  0.00000000000E+00  0.00000000000E+00 -0.16404798423E+04  0.32597539280E+04  0.28168815307E+04 0.  0.
        4    1    3    3  502    0  0.13219220179E+04 -0.16379220494E+03 -0.13497845547E+04  0.18963717106E+04  0.12699999809E+01 0.  1.
       -4    1    3    3    0  502 -0.13219220179E+04  0.16379220494E+03 -0.29069528764E+03  0.13633822174E+04  0.12699999809E+01 0. -1.
</event>
<event>
 5   0  0.1753474E-06  0.2705423E+04  0.7818609E-02  0.8333247E-01
        1   -1    0    0  501    0  0.00000000000E+00  0.00000000000E+00  0.11971886118E+04  0.11971886119E+04  0.50400001928E-02 0. -1.
       -1   -1    0    0    0  501  0.00000000000E+00  0.00000000000E+00 -0.15284380554E+04  0.15284380555E+04  0.50400001928E-02 0.  1.
    10030    2    1    2    0    0  0.00000000000E+00  0.00000000000E+00 -0.33124944360E+03  0.27256266673E+04  0.27054231713E+04 0.  0.
        3    1    3    3  502    0 -0.30135904815E+03 -0.12824296773E+04  0.14389172931E+03  0.13251973412E+04  0.10100000352E+00 0. -1.
       -3    1    3    3    0  502  0.30135904815E+03  0.12824296773E+04 -0.47514117290E+03  0.14004293261E+04  0.10100000352E+00 0.  1.
</event>
<event>
 5   0  0.1771016E-06  0.2686086E+04  0.7818609E-02  0.8339534E-01
       -1   -1    0    0    0  501  0.00000000000E+00  0.00000000000E+00  0.13410263044E+04  0.13410263044E+04  0.50400001928E-02 0.  1.
        1   -1    0    0  501    0  0.00000000000E+00  0.00000000000E+00 -0.13450627940E+04  0.13450627940E+04  0.50400001928E-02 0. -1.
    10030    2    1    2    0    0  0.00000000000E+00  0.00000000000E+00 -0.40364895824E+01  0.26860890984E+04  0.26860860655E+04 0.  0.
        2    1    3    3  502    0 -0.11104191629E+04  0.75473450458E+03  0.31293922818E+02  0.13429944897E+04  0.25500000920E-02 0.  1.
       -2    1    3    3    0  502  0.11104191629E+04 -0.75473450458E+03 -0.35330412400E+02  0.13430946087E+04  0.25500000920E-02 0. -1.
</event>
<event>
 5   0  0.1732312E-06  0.2705626E+04  0.7818609E-02  0.8333182E-01
        1   -1    0    0  501    0  0.00000000000E+00  0.00000000000E+00  0.18237991274E+04  0.18237991274E+04  0.50400001928E-02 0.  1.
       -1   -1    0    0    0  501  0.00000000000E+00  0.00000000000E+00 -0.10034563808E+04  0.10034563808E+04  0.50400001928E-02 0. -1.
    10030    2    1    2    0    0  0.00000000000E+00  0.00000000000E+00  0.82034274657E+03  0.28272555082E+04  0.27056258956E+04 0.  0.
        5    1    3    3  502    0 -0.13174614182E+04  0.22921370187E+03  0.19643472604E+03  0.13516109651E+04  0.46999998093E+01 0.  1.
       -5    1    3    3    0  502  0.13174614182E+04 -0.22921370187E+03  0.62390802053E+03  0.14756445431E+04  0.46999998093E+01 0. -1.
</event>
<event>
 5   0  0.4439357E-06  0.2710988E+04  0.7818609E-02  0.8331448E-01
        2   -1    0    0  501    0  0.00000000000E+00  0.00000000000E+00  0.22053825221E+04  0.22053825221E+04  0.25500000920E-02 0.  1.
       -2   -1    0    0    0  501  0.00000000000E+00  0.00000000000E+00 -0.83312727613E+03  0.83312727614E+03  0.25500000920E-02 0. -1.
    10030    2    1    2    0    0  0.00000000000E+00  0.00000000000E+00  0.13722552459E+04  0.30385097982E+04  0.27109882578E+04 0.  0.
        4    1    3    3  502    0 -0.39816849220E+03  0.99029252762E+03 -0.25036833748E+03  0.10963135299E+04  0.12699999809E+01 0. -1.
       -4    1    3    3    0  502  0.39816849220E+03 -0.99029252762E+03  0.16226235834E+04  0.19421962684E+04  0.12699999809E+01 0.  1.
</event>
<event>
 5   0  0.1723605E-06  0.2700073E+04  0.7818609E-02  0.8334981E-01
        1   -1    0    0  501    0  0.00000000000E+00  0.00000000000E+00  0.12565203729E+04  0.12565203729E+04  0.50400001928E-02 0. -1.
       -1   -1    0    0    0  501  0.00000000000E+00  0.00000000000E+00 -0.14505129299E+04  0.14505129299E+04  0.50400001928E-02 0.  1.
    10030    2    1    2    0    0  0.00000000000E+00  0.00000000000E+00 -0.19399255705E+03  0.27070333028E+04  0.27000733676E+04 0.  0.
        1    1    3    3  502    0 -0.18176764094E+03  0.52329497301E+03  0.11373238251E+04  0.12650622859E+04  0.50400001928E-02 0. -1.
       -1    1    3    3    0  502  0.18176764094E+03 -0.52329497301E+03 -0.13313163822E+04  0.14419710169E+04  0.50400001928E-02 0.  1.
</event>
<event>
 5   0  0.1732312E-06  0.2695145E+04  0.7818609E-02  0.8336582E-01
        1   -1    0    0  501    0  0.00000000000E+00  0.00000000000E+00  0.13096341236E+04  0.13096341237E+04  0.50400001928E-02 0. -1.
       -1   -1    0    0    0  501  0.00000000000E+00  0.00000000000E+00 -0.13866100285E+04  0.13866100285E+04  0.50400001928E-02 0.  1.
    10030    2    1    2    0    0  0.00000000000E+00  0.00000000000E+00 -0.76975904858E+02  0.26962441522E+04  0.26951451238E+04 0.  0.
        5    1    3    3  502    0 -0.10742566461E+04  0.81265621409E+03 -0.77133427759E+02  0.13492253777E+04  0.46999998093E+01 0. -1.
       -5    1    3    3    0  502  0.10742566461E+04 -0.81265621409E+03  0.15752290134E+00  0.13470187745E+04  0.46999998093E+01 0.  1.
</event>
<event>
 5   0  0.1723605E-06  0.2685777E+04  0.7818609E-02  0.8339635E-01
        1   -1    0    0  501    0  0.00000000000E+00  0.00000000000E+00  0.20931453448E+04  0.20931453448E+04  0.50400001928E-02 0. -1.
       -1   -1    0    0    0  501  0.00000000000E+00  0.00000000000E+00 -0.86154983641E+03  0.86154983642E+03  0.50400001928E-02 0.  1.
    10030    2    1    2    0    0  0.00000000000E+00  0.00000000000E+00  0.12315955084E+04  0.29546951813E+04  0.26857766322E+04 0.  0.
        1    1    3    3  502    0 -0.12150796174E+04  0.40460404511E+03  0.10602628089E+04  0.16626124425E+04  0.50400001928E-02 0.  1.
       -1    1    3    3    0  502  0.12150796174E+04 -0.40460404511E+03  0.17133269948E+03  0.12920827388E+04  0.50400001928E-02 0. -1.
</event>
<event>
 5   0  0.1771016E-06  0.2705736E+04  0.7818609E-02  0.8333146E-01
       -1   -1    0    0    0  501  0.00000000000E+00  0.00000000000E+00  0.15813136633E+04  0.15813136633E+04  0.50400001928E-02 0. -1.
        1   -1    0    0  501    0  0.00000000000E+00  0.00000000000E+00 -0.11574253016E+04  0.11574253016E+04  0.50400001928E-02 0.  1.
    10030    2    1    2    0    0  0.00000000000E+00  0.00000000000E+00  0.42388836174E+03  0.27387389649E+04  0.27057364570E+04 0.  0.
        2    1    3    3  502    0  0.90127218665E+03 -0.97865384144E+03 -0.36400319879E+02  0.13309319588E+04  0.25500000920E-02 0.  1.
       -2    1    3    3    0  502 -0.90127218665E+03  0.97865384144E+03  0.46028868161E+03  0.14078070060E+04  0.25500000920E-02 0. -1.
</event>
<event>
 5   0  0.4401659E-06  0.2655733E+04  0.7818609E-02  0.8349513E-01
        2   -1    0    0  501    0  0.00000000000E+00  0.00000000000E+00  0.19509240528E+04  0.19509240528E+04  0.25500000920E-02 0.  1.
       -2   -1    0    0    0  501  0.00000000000E+00  0.00000000000E+00 -0.90379195830E+03  0.90379195831E+03  0.25500000920E-02 0. -1.
    10030    2    1    2    0    0  0.00000000000E+00  0.00000000000E+00  0.10471320945E+04  0.28547160111E+04  0.26557330214E+04 0.  0.
        5    1    3    3  502    0 -0.88279008900E+03  0.64097921435E+03  0.13372747343E+04  0.17258326974E+04  0.46999998093E+01 0.  1.
       -5    1    3    3    0  502  0.88279008900E+03 -0.64097921435E+03 -0.29014263983E+03  0.11288833137E+04  0.46999998093E+01 0. -1.
</event>
<event>
 5   0  0.4439357E-06  0.2691483E+04  0.7818609E-02  0.8337774E-01
        2   -1    0    0  501    0  0.00000000000E+00  0.00000000000E+00  0.16827058026E+04  0.16827058026E+04  0.25500000920E-02 0. -1.
       -2   -1    0    0    0  501  0.00000000000E+00  0.00000000000E+00 -0.10762545093E+04  0.10762545093E+04  0.25500000920E-02 0.  1.
    10030    2    1    2    0    0  0.00000000000E+00  0.00000000000E+00  0.60645129333E+03  0.27589603119E+04  0.26914826456E+04 0.  0.
        4    1    3    3  502    0 -0.85402636152E+03 -0.10346915885E+04  0.41107939505E+03  0.14031876536E+04  0.12699999809E+01 0. -1.
       -4    1    3    3    0  502  0.85402636152E+03  0.10346915885E+04  0.19537189828E+03  0.13557726583E+04  0.12699999809E+01 0.  1.
</event>
<event>
 5   0  0.1732312E-06  0.2703971E+04  0.7818609E-02  0.8333718E-01
       -1   -1    0    0    0  501  0.00000000000E+00  0.00000000000E+00  0.10662509789E+04  0.10662509789E+04  0.50400001928E-02 0.  1.
        1   -1    0    0  501    0  0.00000000000E+00  0.00000000000E+00 -0.17142907635E+04  0.17142907635E+04  0.50400001928E-02 0. -1.
    10030    2    1    2    0    0  0.00000000000E+00  0.00000000000E+00 -0.64803978461E+03  0.27805417424E+04  0.27039705655E+04 0.  0.
        5    1    3    3  502    0  0.93308635967E+03 -0.95297334952E+03 -0.96313597229E+02  0.13372010913E+04  0.46999998093E+01 0.  1.
       -5    1    3    3    0  502 -0.93308635967E+03  0.95297334952E+03 -0.55172618738E+03  0.14433406512E+04  0.46999998093E+01 0. -1.
</event>
<event>
 5   0  0.1771016E-06  0.2698884E+04  0.7818609E-02  0.8335367E-01
       -1   -1    0    0    0  501  0.00000000000E+00  0.00000000000E+00  0.72732048252E+03  0.72732048254E+03  0.50400001928E-02 0. -1.
        1   -1    0    0  501    0  0.00000000000E+00  0.00000000000E+00 -0.25037016009E+04  0.25037016010E+04  0.50400001928E-02 0.  1.
    10030    2    1    2    0    0  0.00000000000E+00  0.00000000000E+00 -0.17763811184E+04  0.32310220835E+04  0.26988838111E+04 0.  0.
        2    1    3    3  502    0 -0.13194433539E+04  0.63024881115E+02 -0.55795706561E+03  0.14339522261E+04  0.25500000920E-02 0. -1.
       -2    1    3    3    0  502  0.13194433539E+04 -0.63024881115E+02 -0.12184240528E+04  0.17970698574E+04  0.25500000920E-02 0.  1.
</event>
<event>
 5   0  0.4439357E-06  0.2736461E+04  0.7818609E-02  0.8323271E-01
        2   -1    0    0  501    0  0.00000000000E+00  0.00000000000E+00  0.94800218887E+03  0.94800218887E+03  0.25500000920E-02 0. -1.
       -2   -1    0    0    0  501  0.00000000000E+00  0.00000000000E+00 -0.19747363187E+04  0.19747363187E+04  0.25500000920E-02 0.  1.
    10030    2    1    2    0    0  0.00000000000E+00  0.00000000000E+00 -0.10267341298E+04  0.29227385075E+04  0.27364607452E+04 0.  0.
        4    1    3    3  502    0  0.31088142907E+03 -0.52338973437E+03 -0.18221236358E+04  0.19211247316E+04  0.12699999809E+01 0.  1.
       -4    1    3    3    0  502 -0.31088142907E+03  0.52338973437E+03  0.79538950606E+03  0.10016137760E+04  0.12699999809E+01 0. -1.
</event>
<event>
 5   0  0.1723605E-06  0.2699328E+04  0.7818609E-02  0.8335223E-01
        1   -1    0    0  501    0  0.00000000000E+00  0.00000000000E+00  0.59253386817E+03  0.59253386819E+03  0.50400001928E-02 0. -1.
       -1   -1    0    0    0  501  0.00000000000E+00  0.00000000000E+00 -0.30742428036E+04  0.30742428036E+04  0.50400001928E-02 0.  1.
    10030    2    1    2    0    0  0.00000000000E+00  0.00000000000E+00 -0.24817089354E+04  0.36667766717E+04  0.26993280498E+04 0.  0.
        1    1    3    3  502    0 -0.31000284277E+03 -0.45347027259E+03  0.43381847316E+03  0.69995394015E+03  0.50400001928E-02 0. -1.
       -1    1    3    3    0  502  0.31000284277E+03  0.45347027259E+03 -0.29155274085E+04  0.29668227316E+04  0.50400001928E-02 0.  1.
</event>
<event>
 5   0  0.4655882E-06  0.2683491E+04  0.7818609E-02  0.8340382E-01
        2   -1    0    0  501    0  0.00000000000E+00  0.00000000000E+00  0.12967485738E+04  0.12967485738E+04  0.25500000920E-02 0. -1.
       -2   -1    0    0    0  501  0.00000000000E+00  0.00000000000E+00 -0.13883035088E+04  0.13883035088E+04  0.25500000920E-02 0.  1.
    10030    2    1    2    0    0  0.00000000000E+00  0.00000000000E+00 -0.91554935003E+02  0.26850520827E+04  0.26834907081E+04 0.  0.
        1    1    3    3  502    0  0.10658631953E+03  0.84043743930E+03  0.99530131003E+03  0.13070273259E+04  0.50400001928E-02 0. -1.
       -1    1    3    3    0  502 -0.10658631953E+03 -0.84043743930E+03 -0.10868562450E+04  0.13780247568E+04  0.50400001928E-02 0.  1.
</event>
<event>
 5   0  0.1723605E-06  0.2691923E+04  0.7818609E-02  0.8337630E-01
       -1   -1    0    0    0  501  0.00000000000E+00  0.00000000000E+00  0.10173914599E+04  0.10173914599E+04  0.50400001928E-02 0. -1.
        1   -1    0    0  501    0  0.00000000000E+00  0.00000000000E+00 -0.17806442161E+04  0.17806442161E+04  0.50400001928E-02 0.  1.
    10030    2    1    2    0    0  0.00000000000E+00  0.00000000000E+00 -0.76325275623E+03  0.27980356760E+04  0.26919228953E+04 0.  0.
        1    1    3    3  502    0 -0.25319524063E+03  0.52249005382E+03 -0.16437859824E+04  0.17433118029E+04  0.50400001928E-02 0.  1.
       -1    1    3    3    0  502  0.25319524063E+03 -0.52249005382E+03  0.88053322613E+03  0.10547238731E+04  0.50400001928E-02 0. -1.
</event>
<event>
 5   0  0.1723605E-06  0.2701914E+04  0.7818609E-02  0.8334384E-01
        1   -1    0    0  501    0  0.00000000000E+00  0.00000000000E+00  0.15180519154E+04  0.15180519154E+04  0.50400001928E-02 0.  1.
       -1   -1    0    0    0  501  0.00000000000E+00  0.00000000000E+00 -0.12022542408E+04  0.12022542408E+04  0.50400001928E-02 0. -1.
    10030    2    1    2    0    0  0.00000000000E+00  0.00000000000E+00  0.31579767456E+03  0.27203061563E+04  0.27019136575E+04 0.  0.
        1    1    3    3  502    0  0.76228428012E+02  0.12871773604E+04  0.56369088571E+03  0.14072610792E+04  0.50400001928E-02 0.  1.
       -1    1    3    3    0  502 -0.76228428012E+02 -0.12871773604E+04 -0.24789321114E+03  0.13130450771E+04  0.50400001928E-02 0. -1.
</event>
<event>
 5   0  0.4401659E-06  0.2702157E+04  0.7818609E-02  0.8334305E-01
        2   -1    0    0  501    0  0.00000000000E+00  0.00000000000E+00  0.15669611230E+04  0.15669611230E+04  0.25500000920E-02 0.  1.
       -2   -1    0    0    0  501  0.00000000000E+00  0.00000000000E+00 -0.11649386205E+04  0.11649386205E+04  0.25500000920E-02 0. -1.
    10030    2    1    2    0    0  0.00000000000E+00  0.00000000000E+00  0.40202250250E+03  0.27318997435E+04  0.27021573077E+04 0.  0.
        5    1    3    3  502    0 -0.11904496418E+03 -0.11817508345E+04 -0.45003693846E+03  0.12701425409E+04  0.46999998093E+01 0. -1.
       -5    1    3    3    0  502  0.11904496418E+03  0.11817508345E+04  0.85205944096E+03  0.14617572025E+04  0.46999998093E+01 0.  1.
</event>
<event>
 5   0  0.1482875E-06  0.2841112E+04  0.7818609E-02  0.8290617E-01
       -3   -1    0    0    0  501  0.00000000000E+00  0.00000000000E+00  0.65826697742E+03  0.65826698517E+03  0.10100000352E+00 0. -1.
        3   -1    0    0  501    0  0.00000000000E+00  0.00000000000E+00 -0.30655947313E+04  0.30655947330E+04  0.10100000352E+00 0.  1.
    10030    2    1    2    0    0  0.00000000000E+00  0.00000000000E+00 -0.24073277539E+04  0.37238617182E+04  0.28411123141E+04 0.  0.
        1    1    3    3  502    0 -0.35371971444E+01  0.46607038185E+03 -0.29625241275E+04  0.29989637075E+04  0.50400001928E-02 0.  1.
       -1    1    3    3    0  502  0.35371971444E+01 -0.46607038185E+03  0.55519637361E+03  0.72489801069E+03  0.50400001928E-02 0. -1.
</event>
<event>
 5   0  0.4487186E-06  0.2697712E+04  0.7818609E-02  0.8335748E-01
       -2   -1    0    0    0  501  0.00000000000E+00  0.00000000000E+00  0.13355286732E+04  0.13355286732E+04  0.25500000920E-02 0. -1.
        2   -1    0    0  501    0  0.00000000000E+00  0.00000000000E+00 -0.13623163440E+04  0.13623163440E+04  0.25500000920E-02 0.  1.
    10030    2    1    2    0    0  0.00000000000E+00  0.00000000000E+00 -0.26787670709E+02  0.26978450172E+04  0.26977120227E+04 0.  0.
        3    1    3    3  502    0 -0.89318741383E+03 -0.88170845180E+03  0.48081569418E+03  0.13440153616E+04  0.10100000352E+00 0. -1.
       -3    1    3    3    0  502  0.89318741383E+03  0.88170845180E+03 -0.50760336489E+03  0.13538296556E+04  0.10100000352E+00 0.  1.
</event>
<event>
 5   0  0.4439357E-06  0.2699998E+04  0.7818609E-02  0.8335006E-01
       -2   -1    0    0    0  501  0.00000000000E+00  0.00000000000E+00  0.95861468866E+03  0.95861468867E+03  0.25500000920E-02 0.  1.
        2   -1    0    0  501    0  0.00000000000E+00  0.00000000000E+00 -0.19011783039E+04  0.19011783039E+04  0.25500000920E-02 0. -1.
    10030    2    1    2    0    0  0.00000000000E+00  0.00000000000E+00 -0.94256361527E+03  0.28597929926E+04  0.26999981096E+04 0.  0.
        4    1    3    3  502    0 -0.11694718869E+03  0.13448539952E+04 -0.45680072779E+03  0.14251236547E+04  0.12699999809E+01 0.  1.
       -4    1    3    3    0  502  0.11694718869E+03 -0.13448539952E+04 -0.48576288748E+03  0.14346693379E+04  0.12699999809E+01 0. -1.
</event>
<event>
 5   0  0.4487186E-06  0.2723668E+04  0.7818609E-02  0.8327366E-01
       -2   -1    0    0    0  501  0.00000000000E+00  0.00000000000E+00  0.13967543318E+04  0.13967543318E+04  0.25500000920E-02 0.  1.
        2   -1    0    0  501    0  0.00000000000E+00  0.00000000000E+00 -0.13277869899E+04  0.13277869899E+04  0.25500000920E-02 0. -1.
    10030    2    1    2    0    0  0.00000000000E+00  0.00000000000E+00  0.68967341944E+02  0.27245413217E+04  0.27236682837E+04 0.  0.
        3    1    3    3  502    0 -0.92440769442E+03 -0.19503093073E+03  0.10156270855E+04  0.13871067141E+04  0.10100000352E+00 0.  1.
       -3    1    3    3    0  502  0.92440769442E+03  0.19503093073E+03 -0.94665974351E+03  0.13374346076E+04  0.10100000352E+00 0. -1.
</event>
<event>
 5   0  0.4655882E-06  0.2691123E+04  0.7818609E-02  0.8337891E-01
       -2   -1    0    0    0  501  0.00000000000E+00  0.00000000000E+00  0.14630592257E+04  0.14630592257E+04  0.25500000920E-02 0. -1.
        2   -1    0    0  501    0  0.00000000000E+00  0.00000000000E+00 -0.12374996838E+04  0.12374996838E+04  0.25500000920E-02 0.  1.
    10030    2    1    2    0    0  0.00000000000E+00  0.00000000000E+00  0.22555954196E+03  0.27005589095E+04  0.26911226871E+04 0.  0.
        1    1    3    3  502    0  0.31950673214E+03  0.21415858937E+03  0.14067143880E+04  0.14583531200E+04  0.50400001928E-02 0. -1.
       -1    1    3    3    0  502 -0.31950673214E+03 -0.21415858937E+03 -0.11811548460E+04  0.12422057895E+04  0.50400001928E-02 0.  1.
</event>
<event>
 5   0  0.1771016E-06  0.2708416E+04  0.7818609E-02  0.8332280E-01
        1   -1    0    0  501    0  0.00000000000E+00  0.00000000000E+00  0.16069760875E+04  0.16069760875E+04  0.50400001928E-02 0. -1.
       -1   -1    0    0    0  501  0.00000000000E+00  0.00000000000E+00 -0.11411986753E+04  0.11411986754E+04  0.50400001928E-02 0.  1.
    10030    2    1    2    0    0  0.00000000000E+00  0.00000000000E+00  0.46577741212E+03  0.27481747628E+04  0.27084157601E+04 0.  0.
        2    1    3    3  502    0 -0.40438663312E+02 -0.13420957753E+04  0.54170704824E+02  0.13437971651E+04  0.25500000920E-02 0.  1.
       -2    1    3    3    0  502  0.40438663312E+02  0.13420957753E+04  0.41160670730E+03  0.14043775978E+04  0.25500000920E-02 0. -1.
</event>
<event>
 5   0  0.1828511E-06  0.2768388E+04  0.7818609E-02  0.8313150E-01
       -1   -1    0    0    0  501  0.00000000000E+00  0.00000000000E+00  0.11177067158E+04  0.11177067158E+04  0.50400001928E-02 0.  1.
        1   -1    0    0  501    0  0.00000000000E+00  0.00000000000E+00 -0.17142180461E+04  0.17142180461E+04  0.50400001928E-02 0. -1.
    10030    2    1    2    0    0  0.00000000000E+00  0.00000000000E+00 -0.59651133034E+03  0.28319247619E+04  0.27683879948E+04 0.  0.
        4    1    3    3  502    0 -0.44391284741E+03 -0.14291802656E+03 -0.16314346333E+04  0.16967807030E+04  0.12699999809E+01 0. -1.
       -4    1    3    3    0  502  0.44391284741E+03  0.14291802656E+03  0.10349233030E+04  0.11351440589E+04  0.12699999809E+01 0.  1.
</event>
<event>
 5   0  0.4401659E-06  0.2706463E+04  0.7818609E-02  0.8332911E-01
       -2   -1    0    0    0  501  0.00000000000E+00  0.00000000000E+00  0.10565033428E+04  0.10565033428E+04  0.25500000920E-02 0. -1.
        2   -1    0    0  501    0  0.00000000000E+00  0.00000000000E+00 -0.17332978398E+04  0.17332978398E+04  0.25500000920E-02 0.  1.
    10030    2    1    2    0    0  0.00000000000E+00  0.00000000000E+00 -0.67679449694E+03  0.27898011826E+04  0.27064626078E+04 0.  0.
        5    1    3    3  502    0  0.81251532953E+03  0.83537043473E+03 -0.10474655322E+04  0.15669176925E+04  0.46999998093E+01 0.  1.
       -5    1    3    3    0  502 -0.81251532953E+03 -0.83537043473E+03  0.37067103526E+03  0.12228834901E+04  0.46999998093E+01 0. -1.
</event>
<event>
 5   0  0.1723605E-06  0.2743171E+04  0.7818609E-02  0.8321132E-01
       -1   -1    0    0    0  501  0.00000000000E+00  0.00000000000E+00  0.93561053605E+03  0.93561053607E+03  0.50400001928E-02 0. -1.
        1   -1    0    0  501    0  0.00000000000E+00  0.00000000000E+00 -0.20107150796E+04  0.20107150796E+04  0.50400001928E-02 0.  1.
    10030    2    1    2    0    0  0.00000000000E+00  0.00000000000E+00 -0.10751045435E+04  0.29463256156E+04  0.27431705842E+04 0.  0.
        1    1    3    3  502    0  0.10514330357E+04  0.66550701540E+03  0.82092157779E+02  0.12470565900E+04  0.50400001928E-02 0. -1.
       -1    1    3    3    0  502 -0.10514330357E+04 -0.66550701540E+03 -0.11571967013E+04  0.16992690257E+04  0.50400001928E-02 0.  1.
</event>
<event>
 5   0  0.1828511E-06  0.2698221E+04  0.7818609E-02  0.8335582E-01
       -1   -1    0    0    0  501  0.00000000000E+00  0.00000000000E+00  0.98104284800E+03  0.98104284802E+03  0.50400001928E-02 0.  1.
        1   -1    0    0  501    0  0.00000000000E+00  0.00000000000E+00 -0.18552697958E+04  0.18552697958E+04  0.50400001928E-02 0. -1.
    10030    2    1    2    0    0  0.00000000000E+00  0.00000000000E+00 -0.87422694779E+03  0.28363126438E+04  0.26982210171E+04 0.  0.
        4    1    3    3  502    0  0.70107477715E+03 -0.15259488379E+02 -0.16486437956E+04  0.17915821703E+04  0.12699999809E+01 0. -1.
       -4    1    3    3    0  502 -0.70107477715E+03  0.15259488379E+02  0.77441684785E+03  0.10447304735E+04  0.12699999809E+01 0.  1.
</event>
<event>
 5   0  0.1732312E-06  0.2606068E+04  0.7818609E-02  0.8366143E-01
       -1   -1    0    0    0  501  0.00000000000E+00  0.00000000000E+00  0.11583084498E+04  0.11583084498E+04  0.50400001928E-02 0.  1.
        1   -1    0    0  501    0  0.00000000000E+00  0.00000000000E+00 -0.14658426232E+04  0.14658426232E+04  0.50400001928E-02 0. -1.
    10030    2    1    2    0    0  0.00000000000E+00  0.00000000000E+00 -0.30753417340E+03  0.26241510730E+04  0.26060682236E+04 0.  0.
        5    1    3    3  502    0  0.12547598958E+04 -0.26733776319E+03  0.75814794715E+02  0.12851699689E+04  0.46999998093E+01 0.  1.
       -5    1    3    3    0  502 -0.12547598958E+04  0.26733776319E+03 -0.38334896812E+03  0.13389811041E+04  0.46999998093E+01 0. -1.
</event>
<event>
 5   0  0.4439357E-06  0.2696682E+04  0.7818609E-02  0.8336082E-01
        2   -1    0    0  501    0  0.00000000000E+00  0.00000000000E+00  0.99524269970E+03  0.99524269970E+03  0.25500000920E-02 0. -1.
       -2   -1    0    0    0  501  0.00000000000E+00  0.00000000000E+00 -0.18267139362E+04  0.18267139362E+04  0.25500000920E-02 0.  1.
    10030    2    1    2    0    0  0.00000000000E+00  0.00000000000E+00 -0.83147123652E+03  0.28219566359E+04  0.26966821908E+04 0.  0.
        4    1    3    3  502    0 -0.17156687283E+02 -0.86859220383E+03  0.66331902323E+03  0.10930418601E+04  0.12699999809E+01 0. -1.
       -4    1    3    3    0  502  0.17156687283E+02  0.86859220383E+03 -0.14947902598E+04  0.17289147758E+04  0.12699999809E+01 0.  1.
</event>
<event>
 5   0  0.1723605E-06  0.2709786E+04  0.7818609E-02  0.8331837E-01
       -1   -1    0    0    0  501  0.00000000000E+00  0.00000000000E+00  0.11420064737E+04  0.11420064737E+04  0.50400001928E-02 0.  1.
        1   -1    0    0  501    0  0.00000000000E+00  0.00000000000E+00 -0.16074644802E+04  0.16074644802E+04  0.50400001928E-02 0. -1.
    10030    2    1    2    0    0  0.00000000000E+00  0.00000000000E+00 -0.46545800649E+03  0.27494709540E+04  0.27097858533E+04 0.  0.
        1    1    3    3  502    0 -0.98394528717E+03 -0.46987957755E+03 -0.10487457446E+04  0.15128789715E+04  0.50400001928E-02 0. -1.
       -1    1    3    3    0  502  0.98394528717E+03  0.46987957755E+03  0.58328773815E+03  0.12365919824E+04  0.50400001928E-02 0.  1.
</event>
<event>
 5   0  0.4448804E-06  0.2699530E+04  0.7818609E-02  0.8335157E-01
       -2   -1    0    0    0  501  0.00000000000E+00  0.00000000000E+00  0.10123630132E+04  0.10123630132E+04  0.25500000920E-02 0.  1.
        2   -1    0    0  501    0  0.00000000000E+00  0.00000000000E+00 -0.17996170640E+04  0.17996170640E+04  0.25500000920E-02 0. -1.
    10030    2    1    2    0    0  0.00000000000E+00  0.00000000000E+00 -0.78725405079E+03  0.28119800773E+04  0.26995301470E+04 0.  0.
        2    1    3    3  502    0 -0.10387582921E+04  0.34957062447E+03  0.42700130838E+03  0.11762433967E+04  0.25500000920E-02 0.  1.
       -2    1    3    3    0  502  0.10387582921E+04 -0.34957062447E+03 -0.12142553592E+04  0.16357366806E+04  0.25500000920E-02 0. -1.
</event>
<event>
 5   0  0.4401659E-06  0.2696593E+04  0.7818609E-02  0.8336111E-01
        2   -1    0    0  501    0  0.00000000000E+00  0.00000000000E+00  0.12532233917E+04  0.12532233917E+04  0.25500000920E-02 0.  1.
       -2   -1    0    0    0  501  0.00000000000E+00  0.00000000000E+00 -0.14505822370E+04  0.14505822370E+04  0.25500000920E-02 0. -1.
    10030    2    1    2    0    0  0.00000000000E+00  0.00000000000E+00 -0.19735884530E+03  0.27038056286E+04  0.26965931031E+04 0.  0.
        5    1    3    3  502    0 -0.12175414060E+04 -0.57408909196E+03 -0.21687716663E+02  0.13462829598E+04  0.46999998093E+01 0. -1.
       -5    1    3    3    0  502  0.12175414060E+04  0.57408909196E+03 -0.17567112863E+03  0.13575226688E+04  0.46999998093E+01 0.  1.
</event>
<event>
 5   0  0.1753474E-06  0.2720172E+04  0.7818609E-02  0.8328490E-01
       -1   -1    0    0    0  501  0.00000000000E+00  0.00000000000E+00  0.13463037931E+04  0.13463037931E+04  0.50400001928E-02 0.  1.
        1   -1    0    0  501    0  0.00000000000E+00  0.00000000000E+00 -0.13740088070E+04  0.13740088070E+04  0.50400001928E-02 0. -1.
    10030    2    1    2    0    0  0.00000000000E+00  0.00000000000E+00 -0.27705013885E+02  0.27203126001E+04  0.27201715157E+04 0.  0.
        3    1    3    3  502    0 -0.73579834668E+03  0.10908157368E+04 -0.35818864804E+03  0.13636631903E+04  0.10100000352E+00 0. -1.
       -3    1    3    3    0  502  0.73579834668E+03 -0.10908157368E+04  0.33048363415E+03  0.13566494099E+04  0.10100000352E+00 0.  1.
</event>
<event>
 5   0  0.1732312E-06  0.2697080E+04  0.7818609E-02  0.8335953E-01
        1   -1    0    0  501    0  0.00000000000E+00  0.00000000000E+00  0.12473457212E+04  0.12473457212E+04  0.50400001928E-02 0. -1.
       -1   -1    0    0    0  501  0.00000000000E+00  0.00000000000E+00 -0.14579436775E+04  0.14579436775E+04  0.50400001928E-02 0.  1.
    10030    2    1    2    0    0  0.00000000000E+00  0.00000000000E+00 -0.21059795630E+03  0.27052893988E+04  0.26970797600E+04 0.  0.
        5    1    3    3  502    0  0.39500249154E+03 -0.51134184544E+03  0.10819594176E+04  0.12602205056E+04  0.46999998093E+01 0. -1.
       -5    1    3    3    0  502 -0.39500249154E+03  0.51134184544E+03 -0.12925573739E+04  0.14450688932E+04  0.46999998093E+01 0.  1.
</event>
<event>
 5   0  0.4448804E-06  0.2702991E+04  0.7818609E-02  0.8334035E-01
       -2   -1    0    0    0  501  0.00000000000E+00  0.00000000000E+00  0.99461368516E+03  0.99461368516E+03  0.25500000920E-02 0.  1.
        2   -1    0    0  501    0  0.00000000000E+00  0.00000000000E+00 -0.18364319090E+04  0.18364319090E+04  0.25500000920E-02 0. -1.
    10030    2    1    2    0    0  0.00000000000E+00  0.00000000000E+00 -0.84181822384E+03  0.28310455942E+04  0.27029911643E+04 0.  0.
        2    1    3    3  502    0  0.90688592328E+03  0.29088238145E+03 -0.14252351459E+04  0.17141615614E+04  0.25500000920E-02 0. -1.
       -2    1    3    3    0  502 -0.90688592328E+03 -0.29088238145E+03  0.58341692201E+03  0.11168840327E+04  0.25500000920E-02 0.  1.
</event>
<event>
 5   0  0.1828511E-06  0.2697383E+04  0.7818609E-02  0.8335855E-01
        1   -1    0    0  501    0  0.00000000000E+00  0.00000000000E+00  0.27451658816E+04  0.27451658816E+04  0.50400001928E-02 0. -1.
       -1   -1    0    0    0  501  0.00000000000E+00  0.00000000000E+00 -0.66260773814E+03  0.66260773816E+03  0.50400001928E-02 0.  1.
    10030    2    1    2    0    0  0.00000000000E+00  0.00000000000E+00  0.20825581435E+04  0.34077736198E+04  0.26973825503E+04 0.  0.
        4    1    3    3  502    0 -0.91272205260E+03  0.58063794571E+03  0.23691588520E+02  0.10820188878E+04  0.12699999809E+01 0.  1.
       -4    1    3    3    0  502  0.91272205260E+03 -0.58063794571E+03  0.20588665550E+04  0.23257547320E+04  0.12699999809E+01 0. -1.
</event>
<event>
 5   0  0.4487186E-06  0.2696688E+04  0.7818609E-02  0.8336080E-01
        2   -1    0    0  501    0  0.00000000000E+00  0.00000000000E+00  0.16894878488E+04  0.16894878488E+04  0.25500000920E-02 0. -1.
       -2   -1    0    0    0  501  0.00000000000E+00  0.00000000000E+00 -0.10760843591E+04  0.10760843591E+04  0.25500000920E-02 0.  1.
    10030    2    1    2    0    0  0.00000000000E+00  0.00000000000E+00  0.61340348966E+03  0.27655722079E+04  0.26966879308E+04 0.  0.
        3    1    3    3  502    0 -0.29319164373E+03  0.11915430336E+03 -0.10374545049E+04  0.10846524548E+04  0.10100000352E+00 0.  1.
       -3    1    3    3    0  502  0.29319164373E+03 -0.11915430336E+03  0.16508579945E+04  0.16809197531E+04  0.10100000352E+00 0. -1.
</event>
<event>
 5   0  0.4401659E-06  0.2703720E+04  0.7818609E-02  0.8333799E-01
        2   -1    0    0  501    0  0.00000000000E+00  0.00000000000E+00  0.11935855158E+04  0.11935855158E+04  0.25500000920E-02 0.  1.
       -2   -1    0    0    0  501  0.00000000000E+00  0.00000000000E+00 -0.15311224068E+04  0.15311224069E+04  0.25500000920E-02 0. -1.
    10030    2    1    2    0    0  0.00000000000E+00  0.00000000000E+00 -0.33753689104E+03  0.27247079227E+04  0.27037200504E+04 0.  0.
        5    1    3    3  502    0 -0.67874968324E+03  0.78485870435E+03 -0.10419812796E+04  0.14705275908E+04  0.46999998093E+01 0. -1.
       -5    1    3    3    0  502  0.67874968324E+03 -0.78485870435E+03  0.70444438854E+03  0.12541803319E+04  0.46999998093E+01 0.  1.
</event>
<event>
 5   0  0.4655882E-06  0.2700626E+04  0.7818609E-02  0.8334802E-01
        2   -1    0    0  501    0  0.00000000000E+00  0.00000000000E+00  0.15022639462E+04  0.15022639462E+04  0.25500000920E-02 0.  1.
       -2   -1    0    0    0  501  0.00000000000E+00  0.00000000000E+00 -0.12137318907E+04  0.12137318907E+04  0.25500000920E-02 0. -1.
    10030    2    1    2    0    0  0.00000000000E+00  0.00000000000E+00  0.28853205550E+03  0.27159958369E+04  0.27006263420E+04 0.  0.
        1    1    3    3  502    0 -0.93948126651E+03 -0.92662339875E+03  0.43240957548E+03  0.13886086613E+04  0.50400001928E-02 0.  1.
       -1    1    3    3    0  502  0.93948126651E+03  0.92662339875E+03 -0.14387751998E+03  0.13273871756E+04  0.50400001928E-02 0. -1.
</event>
<event>
 5   0  0.1723605E-06  0.2702905E+04  0.7818609E-02  0.8334063E-01
        1   -1    0    0  501    0  0.00000000000E+00  0.00000000000E+00  0.22603869451E+04  0.22603869451E+04  0.50400001928E-02 0. -1.
       -1   -1    0    0    0  501  0.00000000000E+00  0.00000000000E+00 -0.80801363810E+03  0.80801363812E+03  0.50400001928E-02 0.  1.
    10030    2    1    2    0    0  0.00000000000E+00  0.00000000000E+00  0.14523733070E+04  0.30684005832E+04  0.27029047183E+04 0.  0.
        1    1    3    3  502    0  0.25087402510E+03 -0.17417402925E+03 -0.76832492658E+03  0.82679958984E+03  0.50400001928E-02 0.  1.
       -1    1    3    3    0  502 -0.25087402510E+03  0.17417402925E+03  0.22206982336E+04  0.22416009934E+04  0.50400001928E-02 0. -1.
</event>
<event>
 5   0  0.4655882E-06  0.2696627E+04  0.7818609E-02  0.8336100E-01
        2   -1    0    0  501    0  0.00000000000E+00  0.00000000000E+00  0.20744456831E+04  0.20744456831E+04  0.25500000920E-02 0.  1.
       -2   -1    0    0    0  501  0.00000000000E+00  0.00000000000E+00 -0.87635399790E+03  0.87635399791E+03  0.25500000920E-02 0. -1.
    10030    2    1    2    0    0  0.00000000000E+00  0.00000000000E+00  0.11980916852E+04  0.29507996810E+04  0.26966266095E+04 0.  0.
        1    1    3    3  502    0  0.20246970819E+03 -0.83678475613E+03 -0.53642387727E+03  0.10143733469E+04  0.50400001928E-02 0. -1.
       -1    1    3    3    0  502 -0.20246970819E+03  0.83678475613E+03  0.17345155625E+04  0.19364263341E+04  0.50400001928E-02 0.  1.
</event>
<event>
 5   0  0.1723605E-06  0.2716680E+04  0.7818609E-02  0.8329613E-01
       -1   -1    0    0    0  501  0.00000000000E+00  0.00000000000E+00  0.14879176290E+04  0.14879176290E+04  0.50400001928E-02 0. -1.
        1   -1    0    0  501    0  0.00000000000E+00  0.00000000000E+00 -0.12400471756E+04  0.12400471756E+04  0.50400001928E-02 0.  1.
    10030    2    1    2    0    0  0.00000000000E+00  0.00000000000E+00  0.24787045341E+03  0.27279648047E+04  0.27166803665E+04 0.  0.
        1    1    3    3  502    0  0.82277518462E+03  0.68053369336E+03  0.96706744119E+03  0.14405917354E+04  0.50400001928E-02 0. -1.
       -1    1    3    3    0  502 -0.82277518462E+03 -0.68053369336E+03 -0.71919698778E+03  0.12873730693E+04  0.50400001928E-02 0.  1.
</event>
<event>
 5   0  0.4439357E-06  0.2701910E+04  0.7818609E-02  0.8334385E-01
        2   -1    0    0  501    0  0.00000000000E+00  0.00000000000E+00  0.11017605465E+04  0.11017605465E+04  0.25500000920E-02 0.  1.
       -2   -1    0    0    0  501  0.00000000000E+00  0.00000000000E+00 -0.16565123397E+04  0.16565123397E+04  0.25500000920E-02 0. -1.
    10030    2    1    2    0    0  0.00000000000E+00  0.00000000000E+00 -0.55475179321E+03  0.27582728862E+04  0.27019103913E+04 0.  0.
        4    1    3    3  502    0  0.46382453613E+02  0.97250941481E+03  0.67872521943E+03  0.11868426308E+04  0.12699999809E+01 0.  1.
       -4    1    3    3    0  502 -0.46382453613E+02 -0.97250941481E+03 -0.12334770126E+04  0.15714302554E+04  0.12699999809E+01 0. -1.
</event>
<event>
 5   0  0.1723605E-06  0.2695579E+04  0.7818609E-02  0.8336441E-01
       -1   -1    0    0    0  501  0.00000000000E+00  0.00000000000E+00  0.14667937097E+04  0.14667937097E+04  0.50400001928E-02 0.  1.
        1   -1    0    0  501    0  0.00000000000E+00  0.00000000000E+00 -0.12384401053E+04  0.12384401053E+04  0.50400001928E-02 0. -1.
    10030    2    1    2    0    0  0.00000000000E+00  0.00000000000E+00  0.22835360434E+03  0.27052338150E+04  0.26955787181E+04 0.  0.
        1    1    3    3  502    0 -0.12321418992E+04 -0.50672900150E+03  0.31883914066E+03  0.13698928200E+04  0.50400001928E-02 0. -1.
       -1    1    3    3    0  502  0.12321418992E+04  0.50672900150E+03 -0.90485536325E+02  0.13353409950E+04  0.50400001928E-02 0.  1.
</event>
<event>
 5   0  0.4401659E-06  0.2738670E+04  0.7818609E-02  0.8322566E-01
       -2   -1    0    0    0  501  0.00000000000E+00  0.00000000000E+00  0.10175029957E+04  0.10175029957E+04  0.25500000920E-02 0.  1.
        2   -1    0    0  501    0  0.00000000000E+00  0.00000000000E+00 -0.18428228089E+04  0.18428228089E+04  0.25500000920E-02 0. -1.
    10030    2    1    2    0    0  0.00000000000E+00  0.00000000000E+00 -0.82531981327E+03  0.28603258046E+04  0.27386695518E+04 0.  0.
        5    1    3    3  502    0 -0.11819262433E+04 -0.64529963118E+03 -0.15324276335E+03  0.13553105523E+04  0.46999998093E+01 0.  1.
       -5    1    3    3    0  502  0.11819262433E+04  0.64529963118E+03 -0.67207704991E+03  0.15050152523E+04  0.46999998093E+01 0. -1.
</event>
<event>
 5   0  0.4401659E-06  0.2706092E+04  0.7818609E-02  0.8333031E-01
        2   -1    0    0  501    0  0.00000000000E+00  0.00000000000E+00  0.13296609118E+04  0.13296609119E+04  0.25500000920E-02 0.  1.
       -2   -1    0    0    0  501  0.00000000000E+00  0.00000000000E+00 -0.13768420307E+04  0.13768420307E+04  0.25500000920E-02 0. -1.
    10030    2    1    2    0    0  0.00000000000E+00  0.00000000000E+00 -0.47181118897E+02  0.27065029426E+04  0.27060916689E+04 0.  0.
        5    1    3    3  502    0 -0.10805526622E+03 -0.90103866500E+03 -0.10273188524E+04  0.13707489671E+04  0.46999998093E+01 0. -1.
       -5    1    3    3    0  502  0.10805526622E+03  0.90103866500E+03  0.98013773349E+03  0.13357539755E+04  0.46999998093E+01 0.  1.
</event>
<event>
 5   0  0.4448804E-06  0.2685118E+04  0.7818609E-02  0.8339850E-01
        2   -1    0    0  501    0  0.00000000000E+00  0.00000000000E+00  0.17383315109E+04  0.17383315109E+04  0.25500000920E-02 0. -1.
       -2   -1    0    0    0  501  0.00000000000E+00  0.00000000000E+00 -0.10368932599E+04  0.10368932599E+04  0.25500000920E-02 0.  1.
    10030    2    1    2    0    0  0.00000000000E+00  0.00000000000E+00  0.70143825100E+03  0.27752247708E+04  0.26851176712E+04 0.  0.
        2    1    3    3  502    0  0.12207074223E+03  0.74760474040E+03  0.14963611945E+04  0.16771734968E+04  0.25500000920E-02 0. -1.
       -2    1    3    3    0  502 -0.12207074223E+03 -0.74760474040E+03 -0.79492294354E+03  0.10980512739E+04  0.25500000920E-02 0.  1.
</event>
<event>
 5   0  0.4448804E-06  0.2671691E+04  0.7818609E-02  0.8344249E-01
       -2   -1    0    0    0  501  0.00000000000E+00  0.00000000000E+00  0.71442666611E+03  0.71442666612E+03  0.25500000920E-02 0.  1.
        2   -1    0    0  501    0  0.00000000000E+00  0.00000000000E+00 -0.24977837516E+04  0.24977837516E+04  0.25500000920E-02 0. -1.
    10030    2    1    2    0    0  0.00000000000E+00  0.00000000000E+00 -0.17833570854E+04  0.32122104177E+04  0.26716910887E+04 0.  0.
        2    1    3    3  502    0 -0.81793493660E+03 -0.98104246125E+03 -0.42135805604E+03  0.13449923727E+04  0.25500000920E-02 0.  1.
       -2    1    3    3    0  502  0.81793493660E+03  0.98104246125E+03 -0.13619990294E+04  0.18672180450E+04  0.25500000920E-02 0. -1.
</event>
<event>
 5   0  0.4655882E-06  0.2700743E+04  0.7818609E-02  0.8334764E-01
        2   -1    0    0  501    0  0.00000000000E+00  0.00000000000E+00  0.19146316652E+04  0.19146316652E+04  0.25500000920E-02 0.  1.
       -2   -1    0    0    0  501  0.00000000000E+00  0.00000000000E+00 -0.95240406887E+03  0.95240406888E+03  0.25500000920E-02 0. -1.
    10030    2    1    2    0    0  0.00000000000E+00  0.00000000000E+00  0.96222759629E+03  0.28670357340E+04  0.27007428521E+04 0.  0.
        1    1    3    3  502    0  0.49018587318E+03 -0.12558135161E+04  0.39784145868E+03  0.14055702059E+04  0.50400001928E-02 0. -1.
       -1    1    3    3    0  502 -0.49018587318E+03  0.12558135161E+04  0.56438613761E+03  0.14614655281E+04  0.50400001928E-02 0.  1.
</event>
<event>
 5   0  0.1732312E-06  0.2707764E+04  0.7818609E-02  0.8332490E-01
       -1   -1    0    0    0  501  0.00000000000E+00  0.00000000000E+00  0.10329127831E+04  0.10329127831E+04  0.50400001928E-02 0.  1.
        1   -1    0    0  501    0  0.00000000000E+00  0.00000000000E+00 -0.17745904278E+04  0.17745904278E+04  0.50400001928E-02 0. -1.
    10030    2    1    2    0    0  0.00000000000E+00  0.00000000000E+00 -0.74167764469E+03  0.28075032110E+04  0.27077644933E+04 0.  0.
        5    1    3    3  502    0  0.39939998938E+03  0.34126728811E+03 -0.16645951005E+04  0.17455321974E+04  0.46999998093E+01 0. -1.
       -5    1    3    3    0  502 -0.39939998938E+03 -0.34126728811E+03  0.92291745582E+03  0.10619710136E+04  0.46999998093E+01 0.  1.
</event>
<event>
 5   0  0.1753474E-06  0.2651609E+04  0.7818609E-02  0.8350879E-01
       -1   -1    0    0    0  501  0.00000000000E+00  0.00000000000E+00  0.12586274709E+04  0.12586274709E+04  0.50400001928E-02 0. -1.
        1   -1    0    0  501    0  0.00000000000E+00  0.00000000000E+00 -0.13965674160E+04  0.13965674161E+04  0.50400001928E-02 0.  1.
    10030    2    1    2    0    0  0.00000000000E+00  0.00000000000E+00 -0.13793994516E+03  0.26551948870E+04  0.26516094093E+04 0.  0.
        3    1    3    3  502    0  0.11744583850E+04  0.22339144703E+03 -0.64289580578E+03  0.13574134462E+04  0.10100000352E+00 0.  1.
       -3    1    3    3    0  502 -0.11744583850E+04 -0.22339144703E+03  0.50495586062E+03  0.12977814408E+04  0.10100000352E+00 0. -1.
</event>
<event>
 5   0  0.4487186E-06  0.2714956E+04  0.7818609E-02  0.8330168E-01
       -2   -1    0    0    0  501  0.00000000000E+00  0.00000000000E+00  0.10247682447E+04  0.10247682448E+04  0.25500000920E-02 0.  1.
        2   -1    0    0  501    0  0.00000000000E+00  0.00000000000E+00 -0.17982084672E+04  0.17982084672E+04  0.25500000920E-02 0. -1.
    10030    2    1    2    0    0  0.00000000000E+00  0.00000000000E+00 -0.77344022250E+03  0.28229767120E+04  0.27149563051E+04 0.  0.
        3    1    3    3  502    0 -0.59321095596E+03 -0.11127301925E+04 -0.90939207125E+03  0.15546902164E+04  0.10100000352E+00 0. -1.
       -3    1    3    3    0  502  0.59321095596E+03  0.11127301925E+04  0.13595184875E+03  0.12682864956E+04  0.10100000352E+00 0.  1.
</event>
<event>
 5   0  0.1723605E-06  0.2702724E+04  0.7818609E-02  0.8334122E-01
        1   -1    0    0  501    0  0.00000000000E+00  0.00000000000E+00  0.16140417295E+04  0.16140417295E+04  0.50400001928E-02 0.  1.
       -1   -1    0    0    0  501  0.00000000000E+00  0.00000000000E+00 -0.11314325508E+04  0.11314325508E+04  0.50400001928E-02 0. -1.
    10030    2    1    2    0    0  0.00000000000E+00  0.00000000000E+00  0.48260917873E+03  0.27454742803E+04  0.27027240711E+04 0.  0.
        1    1    3    3  502    0 -0.23929795604E+03  0.64521156508E+03 -0.94011245262E+03  0.11650634743E+04  0.50400001928E-02 0. -1.
       -1    1    3    3    0  502  0.23929795604E+03 -0.64521156508E+03  0.14227216314E+04  0.15804108060E+04  0.50400001928E-02 0.  1.
</event>
<event>
 5   0  0.4448804E-06  0.2683791E+04  0.7818609E-02  0.8340284E-01
       -2   -1    0    0    0  501  0.00000000000E+00  0.00000000000E+00  0.55100871327E+03  0.55100871327E+03  0.25500000920E-02 0.  1.
        2   -1    0    0  501    0  0.00000000000E+00  0.00000000000E+00 -0.32679755372E+04  0.32679755372E+04  0.25500000920E-02 0. -1.
    10030    2    1    2    0    0  0.00000000000E+00  0.00000000000E+00 -0.27169668239E+04  0.38189842504E+04  0.26837905997E+04 0.  0.
        2    1    3    3  502    0 -0.39216710955E+02  0.13403923983E+04 -0.14295365651E+04  0.19600419696E+04  0.25500000920E-02 0.  1.
       -2    1    3    3    0  502  0.39216710955E+02 -0.13403923983E+04 -0.12874302588E+04  0.18589422808E+04  0.25500000920E-02 0. -1.
</event>
<event>
 5   0  0.1828511E-06  0.2700540E+04  0.7818609E-02  0.8334830E-01
        1   -1    0    0  501    0  0.00000000000E+00  0.00000000000E+00  0.16541603110E+04  0.16541603110E+04  0.50400001928E-02 0.  1.
       -1   -1    0    0    0  501  0.00000000000E+00  0.00000000000E+00 -0.11022082332E+04  0.11022082332E+04  0.50400001928E-02 0. -1.
    10030    2    1    2    0    0  0.00000000000E+00  0.00000000000E+00  0.55195207780E+03  0.27563685443E+04  0.27005400304E+04 0.  0.
        4    1    3    3  502    0 -0.43335850155E+03 -0.12527106745E+04  0.53847735588E+03  0.14307491396E+04  0.12699999809E+01 0.  1.
       -4    1    3    3    0  502  0.43335850155E+03  0.12527106745E+04  0.13474721922E+02  0.13256194046E+04  0.12699999809E+01 0. -1.
</event>
<event>
 5   0  0.1723605E-06  0.2732145E+04  0.7818609E-02  0.8324650E-01
        1   -1    0    0  501    0  0.00000000000E+00  0.00000000000E+00  0.17336380069E+04  0.17336380069E+04  0.50400001928E-02 0. -1.
       -1   -1    0    0    0  501  0.00000000000E+00  0.00000000000E+00 -0.10764379542E+04  0.10764379542E+04  0.50400001928E-02 0.  1.
    10030    2    1    2    0    0  0.00000000000E+00  0.00000000000E+00  0.65720005273E+03  0.28100759611E+04  0.27321447616E+04 0.  0.
        1    1    3    3  502    0  0.91555473894E+03 -0.73783703342E+03  0.10437827017E+04  0.15722996840E+04  0.50400001928E-02 0. -1.
       -1    1    3    3    0  502 -0.91555473894E+03  0.73783703342E+03 -0.38658264892E+03  0.12377762772E+04  0.50400001928E-02 0.  1.
</event>
<event>
 5   0  0.1771016E-06  0.2707147E+04  0.7818609E-02  0.8332690E-01
       -1   -1    0    0    0  501  0.00000000000E+00  0.00000000000E+00  0.12358724795E+04  0.12358724795E+04  0.50400001928E-02 0. -1.
        1   -1    0    0  501    0  0.00000000000E+00  0.00000000000E+00 -0.14824843158E+04  0.14824843158E+04  0.50400001928E-02 0.  1.
    10030    2    1    2    0    0  0.00000000000E+00  0.00000000000E+00 -0.24661183625E+03  0.27183567953E+04  0.27071472566E+04 0.  0.
        2    1    3    3  502    0 -0.11718018783E+04  0.35002002961E+03  0.45920640760E+03  0.13063323421E+04  0.25500000920E-02 0. -1.
       -2    1    3    3    0  502  0.11718018783E+04 -0.35002002961E+03 -0.70581824385E+03  0.14120244532E+04  0.25500000920E-02 0.  1.
</event>
<event>
 5   0  0.1732312E-06  0.2704875E+04  0.7818609E-02  0.8333425E-01
       -1   -1    0    0    0  501  0.00000000000E+00  0.00000000000E+00  0.88434554070E+03  0.88434554071E+03  0.50400001928E-02 0.  1.
        1   -1    0    0  501    0  0.00000000000E+00  0.00000000000E+00 -0.20682942145E+04  0.20682942145E+04  0.50400001928E-02 0. -1.
    10030    2    1    2    0    0  0.00000000000E+00  0.00000000000E+00 -0.11839486738E+04  0.29526397552E+04  0.27048746851E+04 0.  0.
        5    1    3    3  502    0 -0.12594293244E+04  0.15057685480E+03 -0.11042463494E+04  0.16817305677E+04  0.46999998093E+01 0. -1.
       -5    1    3    3    0  502  0.12594293244E+04 -0.15057685480E+03 -0.79702324473E+02  0.12709091875E+04  0.46999998093E+01 0.  1.
</event>
<event>
 5   0  0.4439357E-06  0.2785232E+04  0.7818609E-02  0.8307868E-01
       -2   -1    0    0    0  501  0.00000000000E+00  0.00000000000E+00  0.17160285723E+04  0.17160285723E+04  0.25500000920E-02 0. -1.
        2   -1    0    0  501    0  0.00000000000E+00  0.00000000000E+00 -0.11301559792E+04  0.11301559792E+04  0.25500000920E-02 0.  1.
    10030    2    1    2    0    0  0.00000000000E+00  0.00000000000E+00  0.58587259308E+03  0.28461845516E+04  0.27852324510E+04 0.  0.
        4    1    3    3  502    0  0.59088568647E+03 -0.10255878628E+04 -0.45688010276E+03  0.12687463891E+04  0.12699999809E+01 0.  1.
       -4    1    3    3    0  502 -0.59088568647E+03  0.10255878628E+04  0.10427526958E+04  0.15774381624E+04  0.12699999809E+01 0. -1.
</event>
<event>
 5   0  0.4439357E-06  0.2691131E+04  0.7818609E-02  0.8337888E-01
        2   -1    0    0  501    0  0.00000000000E+00  0.00000000000E+00  0.10194287640E+04  0.10194287640E+04  0.25500000920E-02 0. -1.
       -2   -1    0    0    0  501  0.00000000000E+00  0.00000000000E+00 -0.17760407967E+04  0.17760407967E+04  0.25500000920E-02 0.  1.
    10030    2    1    2    0    0  0.00000000000E+00  0.00000000000E+00 -0.75661203268E+03  0.27954695606E+04  0.26911314157E+04 0.  0.
        4    1    3    3  502    0  0.51556338599E+03  0.25205076970E+03 -0.16425422061E+04  0.17399085342E+04  0.12699999809E+01 0.  1.
       -4    1    3    3    0  502 -0.51556338599E+03 -0.25205076970E+03  0.88593017344E+03  0.10555610265E+04  0.12699999809E+01 0. -1.
</event>
<event>
 5   0  0.1771016E-06  0.2719520E+04  0.7818609E-02  0.8328699E-01
       -1   -1    0    0    0  501  0.00000000000E+00  0.00000000000E+00  0.15391947198E+04  0.15391947198E+04  0.50400001928E-02 0. -1.
        1   -1    0    0  501    0  0.00000000000E+00  0.00000000000E+00 -0.12012435977E+04  0.12012435977E+04  0.50400001928E-02 0.  1.
    10030    2    1    2    0    0  0.00000000000E+00  0.00000000000E+00  0.33795112204E+03  0.27404383175E+04  0.27195204010E+04 0.  0.
        2    1    3    3  502    0 -0.24530528825E+03 -0.85982769197E+01  0.15166852950E+04  0.15364188553E+04  0.25500000920E-02 0. -1.
       -2    1    3    3    0  502  0.24530528825E+03  0.85982769197E+01 -0.11787341730E+04  0.12040194622E+04  0.25500000920E-02 0.  1.
</event>
<event>
 5   0  0.4439357E-06  0.2726273E+04  0.7818609E-02  0.8326530E-01
       -2   -1    0    0    0  501  0.00000000000E+00  0.00000000000E+00  0.89252163079E+03  0.89252163080E+03  0.25500000920E-02 0. -1.
        2   -1    0    0  501    0  0.00000000000E+00  0.00000000000E+00 -0.20819000998E+04  0.20819000998E+04  0.25500000920E-02 0.  1.
    10030    2    1    2    0    0  0.00000000000E+00  0.00000000000E+00 -0.11893784690E+04  0.29744217306E+04  0.27262728200E+04 0.  0.
        4    1    3    3  502    0 -0.12283519771E+04 -0.26672657996E+03 -0.11700906141E+04  0.17172959285E+04  0.12699999809E+01 0.  1.
       -4    1    3    3    0  502  0.12283519771E+04  0.26672657996E+03 -0.19287854992E+02  0.12571258021E+04  0.12699999809E+01 0. -1.
</event>
<event>
 5   0  0.4655882E-06  0.2704248E+04  0.7818609E-02  0.8333628E-01
        2   -1    0    0  501    0  0.00000000000E+00  0.00000000000E+00  0.25997352226E+04  0.25997352226E+04  0.25500000920E-02 0.  1.
       -2   -1    0    0    0  501  0.00000000000E+00  0.00000000000E+00 -0.70324060578E+03  0.70324060579E+03  0.25500000920E-02 0. -1.
    10030    2    1    2    0    0  0.00000000000E+00  0.00000000000E+00  0.18964946168E+04  0.33029758284E+04  0.27042480454E+04 0.  0.
        1    1    3    3  502    0 -0.18001594647E+03 -0.70852475442E+03 -0.44105532579E+03  0.85378151130E+03  0.50400001928E-02 0. -1.
       -1    1    3    3    0  502  0.18001594647E+03  0.70852475442E+03  0.23375499426E+04  0.24491943171E+04  0.50400001928E-02 0.  1.
</event>
<event>
 5   0  0.4439357E-06  0.2639202E+04  0.7818609E-02  0.8355006E-01
        2   -1    0    0  501    0  0.00000000000E+00  0.00000000000E+00  0.19677059183E+04  0.19677059183E+04  0.25500000920E-02 0. -1.
       -2   -1    0    0    0  501  0.00000000000E+00  0.00000000000E+00 -0.88496263577E+03  0.88496263577E+03  0.25500000920E-02 0.  1.
    10030    2    1    2    0    0  0.00000000000E+00  0.00000000000E+00  0.10827432825E+04  0.28526685541E+04  0.26392015580E+04 0.  0.
        4    1    3    3  502    0  0.96288606748E+03  0.74250440644E+02  0.15133746656E+04  0.17952624316E+04  0.12699999809E+01 0. -1.
       -4    1    3    3    0  502 -0.96288606748E+03 -0.74250440644E+02 -0.43063138307E+03  0.10574061225E+04  0.12699999809E+01 0.  1.
</event>
<event>
 5   0  0.1732312E-06  0.2711787E+04  0.7818609E-02  0.8331191E-01
        1   -1    0    0  501    0  0.00000000000E+00  0.00000000000E+00  0.16656173262E+04  0.16656173262E+04  0.50400001928E-02 0.  1.
       -1   -1    0    0    0  501  0.00000000000E+00  0.00000000000E+00 -0.11037635285E+04  0.11037635285E+04  0.50400001928E-02 0. -1.
    10030    2    1    2    0    0  0.00000000000E+00  0.00000000000E+00  0.56185379764E+03  0.27693808547E+04  0.27117873494E+04 0.  0.
        5    1    3    3  502    0  0.10026265282E+04  0.82636982878E+03  0.67681778785E+03  0.14650090296E+04  0.46999998093E+01 0.  1.
       -5    1    3    3    0  502 -0.10026265282E+04 -0.82636982878E+03 -0.11496399021E+03  0.13043718251E+04  0.46999998093E+01 0. -1.
</event>
<event>
 5   0  0.4401659E-06  0.2611743E+04  0.7818609E-02  0.8364223E-01
        2   -1    0    0  501    0  0.00000000000E+00  0.00000000000E+00  0.80674426016E+03  0.80674426016E+03  0.25500000920E-02 0. -1.
       -2   -1    0    0    0  501  0.00000000000E+00  0.00000000000E+00 -0.21138049415E+04  0.21138049415E+04  0.25500000920E-02 0.  1.
    10030    2    1    2    0    0  0.00000000000E+00  0.00000000000E+00 -0.13070606813E+04  0.29205492016E+04  0.26117427160E+04 0.  0.
        5    1    3    3  502    0 -0.59018348440E+02  0.12271050522E+04 -0.11486053064E+04  0.16818401275E+04  0.46999998093E+01 0.  1.
       -5    1    3    3    0  502  0.59018348440E+02 -0.12271050522E+04 -0.15845537491E+03  0.12387090741E+04  0.46999998093E+01 0. -1.
</event>
<event>
 5   0  0.1732312E-06  0.2703939E+04  0.7818609E-02  0.8333728E-01
       -1   -1    0    0    0  501  0.00000000000E+00  0.00000000000E+00  0.10296940431E+04  0.10296940431E+04  0.50400001928E-02 0.  1.
        1   -1    0    0  501    0  0.00000000000E+00  0.00000000000E+00 -0.17751111833E+04  0.17751111834E+04  0.50400001928E-02 0. -1.
    10030    2    1    2    0    0  0.00000000000E+00  0.00000000000E+00 -0.74541714021E+03  0.28048052265E+04  0.27039389131E+04 0.  0.
        5    1    3    3  502    0  0.47012667574E+03 -0.12313094790E+04 -0.68503373358E+03  0.14854074964E+04  0.46999998093E+01 0. -1.
       -5    1    3    3    0  502 -0.47012667574E+03  0.12313094790E+04 -0.60383406625E+02  0.13193977301E+04  0.46999998093E+01 0.  1.
</event>
<event>
 5   0  0.1753474E-06  0.2643698E+04  0.7818609E-02  0.8353508E-01
       -1   -1    0    0    0  501  0.00000000000E+00  0.00000000000E+00  0.20354593252E+04  0.20354593252E+04  0.50400001928E-02 0.  1.
        1   -1    0    0  501    0  0.00000000000E+00  0.00000000000E+00 -0.85842281138E+03  0.85842281140E+03  0.50400001928E-02 0. -1.
    10030    2    1    2    0    0  0.00000000000E+00  0.00000000000E+00  0.11770365138E+04  0.28938821366E+04  0.26436979528E+04 0.  0.
        3    1    3    3  502    0 -0.80230784982E+03 -0.99108287406E+03  0.20721212791E+03  0.12918513944E+04  0.10100000352E+00 0. -1.
       -3    1    3    3    0  502  0.80230784982E+03  0.99108287406E+03  0.96982438587E+03  0.16020307421E+04  0.10100000352E+00 0.  1.
</event>
<event>
 5   0  0.4401659E-06  0.2695730E+04  0.7818609E-02  0.8336392E-01
       -2   -1    0    0    0  501  0.00000000000E+00  0.00000000000E+00  0.14270929222E+04  0.14270929222E+04  0.25500000920E-02 0.  1.
        2   -1    0    0  501    0  0.00000000000E+00  0.00000000000E+00 -0.12730356958E+04  0.12730356958E+04  0.25500000920E-02 0. -1.
    10030    2    1    2    0    0  0.00000000000E+00  0.00000000000E+00  0.15405722636E+03  0.27001286181E+04  0.26957301284E+04 0.  0.
        5    1    3    3  502    0  0.59777709652E+03 -0.69510568402E+03  0.10666735163E+04  0.14065290077E+04  0.46999998093E+01 0. -1.
       -5    1    3    3    0  502 -0.59777709652E+03  0.69510568402E+03 -0.91261628999E+03  0.12935996103E+04  0.46999998093E+01 0.  1.
</event>
<event>
 5   0  0.1723605E-06  0.2706346E+04  0.7818609E-02  0.8332949E-01
        1   -1    0    0  501    0  0.00000000000E+00  0.00000000000E+00  0.19224392083E+04  0.19224392083E+04  0.50400001928E-02 0. -1.
       -1   -1    0    0    0  501  0.00000000000E+00  0.00000000000E+00 -0.95247587211E+03  0.95247587212E+03  0.50400001928E-02 0.  1.
    10030    2    1    2    0    0  0.00000000000E+00  0.00000000000E+00  0.96996333623E+03  0.28749150805E+04  0.27063458475E+04 0.  0.
        1    1    3    3  502    0  0.12415578388E+04 -0.51969505191E+03  0.33653438627E+03  0.13873731319E+04  0.50400001928E-02 0.  1.
       -1    1    3    3    0  502 -0.12415578388E+04  0.51969505191E+03  0.63342894996E+03  0.14875419485E+04  0.50400001928E-02 0. -1.
</event>
<event>
 5   0  0.1828511E-06  0.2682701E+04  0.7818609E-02  0.8340640E-01
       -1   -1    0    0    0  501  0.00000000000E+00  0.00000000000E+00  0.69416618424E+03  0.69416618426E+03  0.50400001928E-02 0. -1.
        1   -1    0    0  501    0  0.00000000000E+00  0.00000000000E+00 -0.25919164506E+04  0.25919164506E+04  0.50400001928E-02 0.  1.
    10030    2    1    2    0    0  0.00000000000E+00  0.00000000000E+00 -0.18977502664E+04  0.32860826349E+04  0.26827006933E+04 0.  0.
        4    1    3    3  502    0  0.70781675441E+03  0.52429355516E+03 -0.21879977739E+04  0.23586487999E+04  0.12699999809E+01 0.  1.
       -4    1    3    3    0  502 -0.70781675441E+03 -0.52429355516E+03  0.29024750749E+03  0.92743383501E+03  0.12699999809E+01 0. -1.
</event>
<event>
 5   0  0.1732312E-06  0.2704239E+04  0.7818609E-02  0.8333631E-01
       -1   -1    0    0    0  501  0.00000000000E+00  0.00000000000E+00  0.14363522087E+04  0.14363522087E+04  0.50400001928E-02 0. -1.
        1   -1    0    0  501    0  0.00000000000E+00  0.00000000000E+00 -0.12728264196E+04  0.12728264196E+04  0.50400001928E-02 0.  1.
    10030    2    1    2    0    0  0.00000000000E+00  0.00000000000E+00  0.16352578913E+03  0.27091786284E+04  0.27042389237E+04 0.  0.
        5    1    3    3  502    0 -0.48769178441E+03 -0.29679107081E+03 -0.11461499771E+04  0.12804725988E+04  0.46999998093E+01 0.  1.
       -5    1    3    3    0  502  0.48769178441E+03  0.29679107081E+03  0.13096757662E+04  0.14287060296E+04  0.46999998093E+01 0. -1.
</event>
<event>
 5   0  0.1723605E-06  0.2700983E+04  0.7818609E-02  0.8334686E-01
       -1   -1    0    0    0  501  0.00000000000E+00  0.00000000000E+00  0.13498941410E+04  0.13498941410E+04  0.50400001928E-02 0.  1.
        1   -1    0    0  501    0  0.00000000000E+00  0.00000000000E+00 -0.13510893704E+04  0.13510893704E+04  0.50400001928E-02 0. -1.
    10030    2    1    2    0    0  0.00000000000E+00  0.00000000000E+00 -0.11952294247E+01  0.27009835115E+04  0.27009832470E+04 0.  0.
        1    1    3    3  502    0 -0.68433546154E+03 -0.10474500077E+04  0.50769475498E+03  0.13502668280E+04  0.50400001928E-02 0.  1.
       -1    1    3    3    0  502  0.68433546154E+03  0.10474500077E+04 -0.50888998441E+03  0.13507166834E+04  0.50400001928E-02 0. -1.
</event>
<event>
 5   0  0.1723605E-06  0.2717754E+04  0.7818609E-02  0.8329267E-01
        1   -1    0    0  501    0  0.00000000000E+00  0.00000000000E+00  0.97590422717E+03  0.97590422719E+03  0.50400001928E-02 0. -1.
       -1   -1    0    0    0  501  0.00000000000E+00  0.00000000000E+00 -0.18921387390E+04  0.18921387390E+04  0.50400001928E-02 0.  1.
    10030    2    1    2    0    0  0.00000000000E+00  0.00000000000E+00 -0.91623451185E+03  0.28680429662E+04  0.27177536267E+04 0.  0.
        1    1    3    3  502    0 -0.16506246036E+03  0.12186751775E+04  0.15188888597E+03  0.12391468992E+04  0.50400001928E-02 0. -1.
       -1    1    3    3    0  502  0.16506246036E+03 -0.12186751775E+04 -0.10681233978E+04  0.16288960670E+04  0.50400001928E-02 0.  1.
</event>
<event>
 5   0  0.4439357E-06  0.2576282E+04  0.7818609E-02  0.8376302E-01
       -2   -1    0    0    0  501  0.00000000000E+00  0.00000000000E+00  0.18082462224E+04  0.18082462224E+04  0.25500000920E-02 0. -1.
        2   -1    0    0  501    0  0.00000000000E+00  0.00000000000E+00 -0.91763367595E+03  0.91763367595E+03  0.25500000920E-02 0.  1.
    10030    2    1    2    0    0  0.00000000000E+00  0.00000000000E+00  0.89061254649E+03  0.27258798984E+04  0.25762823045E+04 0.  0.
        4    1    3    3  502    0  0.86758088271E+03  0.48022297348E+03 -0.42462533740E+03  0.10787117235E+04  0.12699999809E+01 0.  1.
       -4    1    3    3    0  502 -0.86758088271E+03 -0.48022297348E+03  0.13152378839E+04  0.16471681749E+04  0.12699999809E+01 0. -1.
</event>
<event>
 5   0  0.1828511E-06  0.2706278E+04  0.7818609E-02  0.8332971E-01
        1   -1    0    0  501    0  0.00000000000E+00  0.00000000000E+00  0.16957612120E+04  0.16957612120E+04  0.50400001928E-02 0.  1.
       -1   -1    0    0    0  501  0.00000000000E+00  0.00000000000E+00 -0.10797424696E+04  0.10797424696E+04  0.50400001928E-02 0. -1.
    10030    2    1    2    0    0  0.00000000000E+00  0.00000000000E+00  0.61601874239E+03  0.27755036817E+04  0.27062781816E+04 0.  0.
        4    1    3    3  502    0  0.11149066239E+04 -0.76675173141E+03  0.31587286342E+03  0.13894971307E+04  0.12699999809E+01 0. -1.
       -4    1    3    3    0  502 -0.11149066239E+04  0.76675173141E+03  0.30014587897E+03  0.13860065509E+04  0.12699999809E+01 0.  1.
</event>
<event>
 5   0  0.1723605E-06  0.2699148E+04  0.7818609E-02  0.8335281E-01
       -1   -1    0    0    0  501  0.00000000000E+00  0.00000000000E+00  0.11907413067E+04  0.11907413067E+04  0.50400001928E-02 0. -1.
        1   -1    0    0  501    0  0.00000000000E+00  0.00000000000E+00 -0.15295938378E+04  0.15295938379E+04  0.50400001928E-02 0.  1.
    10030    2    1    2    0    0  0.00000000000E+00  0.00000000000E+00 -0.33885253114E+03  0.27203351446E+04  0.26991484325E+04 0.  0.
        1    1    3    3  502    0 -0.37649126113E+03  0.71979542863E+03  0.91676209815E+03  0.12248689209E+04  0.50400001928E-02 0. -1.
       -1    1    3    3    0  502  0.37649126113E+03 -0.71979542863E+03 -0.12556146293E+04  0.14954662237E+04  0.50400001928E-02 0.  1.
</event>
<event>
 5   0  0.1753474E-06  0.2695491E+04  0.7818609E-02  0.8336469E-01
        1   -1    0    0  501    0  0.00000000000E+00  0.00000000000E+00  0.12306594185E+04  0.12306594185E+04  0.50400001928E-02 0. -1.
       -1   -1    0    0    0  501  0.00000000000E+00  0.00000000000E+00 -0.14759716636E+04  0.14759716636E+04  0.50400001928E-02 0.  1.
    10030    2    1    2    0    0  0.00000000000E+00  0.00000000000E+00 -0.24531224508E+03  0.27066310821E+04  0.26954913684E+04 0.  0.
        3    1    3    3  502    0  0.64061289498E+03 -0.29903250448E+03  0.10295235402E+04  0.12488891264E+04  0.10100000352E+00 0. -1.
       -3    1    3    3    0  502 -0.64061289498E+03  0.29903250448E+03 -0.12748357853E+04  0.14577419558E+04  0.10100000352E+00 0.  1.
</event>
<event>
 5   0  0.1732312E-06  0.2709617E+04  0.7818609E-02  0.8331891E-01
       -1   -1    0    0    0  501  0.00000000000E+00  0.00000000000E+00  0.13842650345E+04  0.13842650345E+04  0.50400001928E-02 0. -1.
        1   -1    0    0  501    0  0.00000000000E+00  0.00000000000E+00 -0.13259786340E+04  0.13259786340E+04  0.50400001928E-02 0.  1.
    10030    2    1    2    0    0  0.00000000000E+00  0.00000000000E+00  0.58286400499E+02  0.27102436686E+04  0.27096168435E+04 0.  0.
        5    1    3    3  502    0 -0.11210982738E+04 -0.74347933429E+03  0.18999367747E+03  0.13585810787E+04  0.46999998093E+01 0. -1.
       -5    1    3    3    0  502  0.11210982738E+04  0.74347933429E+03 -0.13170727697E+03  0.13516625899E+04  0.46999998093E+01 0.  1.
</event>
<event>
 5   0  0.4439357E-06  0.2694868E+04  0.7818609E-02  0.8336672E-01
        2   -1    0    0  501    0  0.00000000000E+00  0.00000000000E+00  0.65096431450E+03  0.65096431450E+03  0.25500000920E-02 0. -1.
       -2   -1    0    0    0  501  0.00000000000E+00  0.00000000000E+00 -0.27890607525E+04  0.27890607525E+04  0.25500000920E-02 0.  1.
    10030    2    1    2    0    0  0.00000000000E+00  0.00000000000E+00 -0.21380964380E+04  0.34400250670E+04  0.26948684724E+04 0.  0.
        4    1    3    3  502    0 -0.12781197947E+04 -0.14752791653E+03 -0.15800072423E+04  0.20375915181E+04  0.12699999809E+01 0. -1.
       -4    1    3    3    0  502  0.12781197947E+04  0.14752791653E+03 -0.55808919564E+03  0.14024335489E+04  0.12699999809E+01 0.  1.
</event>
<event>
 5   0  0.1771016E-06  0.2669891E+04  0.7818609E-02  0.8344841E-01
        1   -1    0    0  501    0  0.00000000000E+00  0.00000000000E+00  0.26052211808E+04  0.26052211808E+04  0.50400001928E-02 0.  1.
       -1   -1    0    0    0  501  0.00000000000E+00  0.00000000000E+00 -0.68404176668E+03  0.68404176669E+03  0.50400001928E-02 0. -1.
    10030    2    1    2    0    0  0.00000000000E+00  0.00000000000E+00  0.19211794141E+04  0.32892629475E+04  0.26698914578E+04 0.  0.
        2    1    3    3  502    0  0.47262678377E+03  0.23609692866E+03 -0.54976524940E+03  0.76246945244E+03  0.25500000920E-02 0. -1.
       -2    1    3    3    0  502 -0.47262678377E+03 -0.23609692866E+03  0.24709446635E+04  0.25267934950E+04  0.25500000920E-02 0.  1.
</event>
<event>
 5   0  0.1828511E-06  0.2706558E+04  0.7818609E-02  0.8332880E-01
        1   -1    0    0  501    0  0.00000000000E+00  0.00000000000E+00  0.10014385420E+04  0.10014385420E+04  0.50400001928E-02 0.  1.
       -1   -1    0    0    0  501  0.00000000000E+00  0.00000000000E+00 -0.18287339405E+04  0.18287339406E+04  0.50400001928E-02 0. -1.
    10030    2    1    2    0    0  0.00000000000E+00  0.00000000000E+00 -0.82729539851E+03  0.28301724826E+04  0.27065584429E+04 0.  0.
        4    1    3    3  502    0 -0.82405166060E+03 -0.49388509123E+03  0.58297124208E+03  0.11237618541E+04  0.12699999809E+01 0.  1.
       -4    1    3    3    0  502  0.82405166060E+03  0.49388509123E+03 -0.14102666406E+04  0.17064106285E+04  0.12699999809E+01 0. -1.
</event>
<event>
 5   0  0.4439357E-06  0.2701673E+04  0.7818609E-02  0.8334462E-01
        2   -1    0    0  501    0  0.00000000000E+00  0.00000000000E+00  0.12819733494E+04  0.12819733494E+04  0.25500000920E-02 0.  1.
       -2   -1    0    0    0  501  0.00000000000E+00  0.00000000000E+00 -0.14233987212E+04  0.14233987212E+04  0.25500000920E-02 0. -1.
    10030    2    1    2    0    0  0.00000000000E+00  0.00000000000E+00 -0.14142537176E+03  0.27053720706E+04  0.27016729825E+04 0.  0.
        4    1    3    3  502    0 -0.11045511402E+04  0.38629474044E+03  0.60511935559E+03  0.13173564040E+04  0.12699999809E+01 0.  1.
       -4    1    3    3    0  502  0.11045511402E+04 -0.38629474044E+03 -0.74654472735E+03  0.13880156666E+04  0.12699999809E+01 0. -1.
</event>
<event>
 5   0  0.4401659E-06  0.2699498E+04  0.7818609E-02  0.8335168E-01
       -2   -1    0    0    0  501  0.00000000000E+00  0.00000000000E+00  0.10032924826E+04  0.10032924826E+04  0.25500000920E-02 0. -1.
        2   -1    0    0  501    0  0.00000000000E+00  0.00000000000E+00 -0.18158431738E+04  0.18158431738E+04  0.25500000920E-02 0.  1.
    10030    2    1    2    0    0  0.00000000000E+00  0.00000000000E+00 -0.81255069116E+03  0.28191356564E+04  0.26994975872E+04 0.  0.
        5    1    3    3  502    0  0.10708462176E+02  0.70121489460E+03  0.79808384046E+03  0.10624391305E+04  0.46999998093E+01 0. -1.
       -5    1    3    3    0  502 -0.10708462176E+02 -0.70121489460E+03 -0.16106345316E+04  0.17566965259E+04  0.46999998093E+01 0.  1.
</event>
<event>
 5   0  0.1828511E-06  0.2688886E+04  0.7818609E-02  0.8338620E-01
       -1   -1    0    0    0  501  0.00000000000E+00  0.00000000000E+00  0.12151217283E+04  0.12151217283E+04  0.50400001928E-02 0. -1.
        1   -1    0    0  501    0  0.00000000000E+00  0.00000000000E+00 -0.14875277370E+04  0.14875277370E+04  0.50400001928E-02 0.  1.
    10030    2    1    2    0    0  0.00000000000E+00  0.00000000000E+00 -0.27240600876E+03  0.27026494653E+04  0.26888862190E+04 0.  0.
        4    1    3    3  502    0 -0.35399494475E+03 -0.10158601489E+04 -0.94670596191E+03  0.14330171159E+04  0.12699999809E+01 0.  1.
       -4    1    3    3    0  502  0.35399494475E+03  0.10158601489E+04  0.67429995315E+03  0.12696323495E+04  0.12699999809E+01 0. -1.
</event>
<event>
 5   0  0.4439357E-06  0.2717464E+04  0.7818609E-02  0.8329361E-01
       -2   -1    0    0    0  501  0.00000000000E+00  0.00000000000E+00  0.22680599536E+04  0.22680599536E+04  0.25500000920E-02 0.  1.
        2   -1    0    0  501    0  0.00000000000E+00  0.00000000000E+00 -0.81397848430E+03  0.81397848430E+03  0.25500000920E-02 0. -1.
    10030    2    1    2    0    0  0.00000000000E+00  0.00000000000E+00  0.14540814693E+04  0.30820384379E+04  0.27174635257E+04 0.  0.
        4    1    3    3  502    0 -0.10520329042E+04  0.56629307458E+03  0.14609126447E+04  0.18872542081E+04  0.12699999809E+01 0. -1.
       -4    1    3    3    0  502  0.10520329042E+04 -0.56629307458E+03 -0.68311753735E+01  0.11947842298E+04  0.12699999809E+01 0.  1.
</event>
<event>
 5   0  0.4487186E-06  0.2676674E+04  0.7818609E-02  0.8342613E-01
        2   -1    0    0  501    0  0.00000000000E+00  0.00000000000E+00  0.14860369603E+04  0.14860369603E+04  0.25500000920E-02 0. -1.
       -2   -1    0    0    0  501  0.00000000000E+00  0.00000000000E+00 -0.12053173656E+04  0.12053173656E+04  0.25500000920E-02 0.  1.
    10030    2    1    2    0    0  0.00000000000E+00  0.00000000000E+00  0.28071959470E+03  0.26913543258E+04  0.26766741707E+04 0.  0.
        3    1    3    3  502    0  0.22709413200E+03 -0.69788158609E+03 -0.98494565906E+03  0.12283030630E+04  0.10100000352E+00 0.  1.
       -3    1    3    3    0  502 -0.22709413200E+03  0.69788158609E+03  0.12656652538E+04  0.14630512629E+04  0.10100000352E+00 0. -1.
</event>
<event>
 5   0  0.1732312E-06  0.2700430E+04  0.7818609E-02  0.8334865E-01
        1   -1    0    0  501    0  0.00000000000E+00  0.00000000000E+00  0.20631221483E+04  0.20631221483E+04  0.50400001928E-02 0.  1.
       -1   -1    0    0    0  501  0.00000000000E+00  0.00000000000E+00 -0.88365137138E+03  0.88365137139E+03  0.50400001928E-02 0. -1.
    10030    2    1    2    0    0  0.00000000000E+00  0.00000000000E+00  0.11794707769E+04  0.29467735197E+04  0.27004301255E+04 0.  0.
        5    1    3    3  502    0 -0.32543739912E+03  0.11073518071E+04 -0.17483885521E+03  0.11673595164E+04  0.46999998093E+01 0. -1.
       -5    1    3    3    0  502  0.32543739912E+03 -0.11073518071E+04  0.13543096322E+04  0.17794140033E+04  0.46999998093E+01 0.  1.
</event>
<event>
 5   0  0.4448804E-06  0.2705134E+04  0.7818609E-02  0.8333341E-01
       -2   -1    0    0    0  501  0.00000000000E+00  0.00000000000E+00  0.69221399754E+03  0.69221399755E+03  0.25500000920E-02 0.  1.
        2   -1    0    0  501    0  0.00000000000E+00  0.00000000000E+00 -0.26428780291E+04  0.26428780291E+04  0.25500000920E-02 0. -1.
    10030    2    1    2    0    0  0.00000000000E+00  0.00000000000E+00 -0.19506640316E+04  0.33350920267E+04  0.27051337605E+04 0.  0.
        2    1    3    3  502    0 -0.28783226002E+02  0.12736569554E+04 -0.15354518114E+04  0.19951548259E+04  0.25500000920E-02 0. -1.
       -2    1    3    3    0  502  0.28783226002E+02 -0.12736569554E+04 -0.41521222015E+03  0.13399372007E+04  0.25500000920E-02 0.  1.
</event>
<event>
 5   0  0.1482875E-06  0.2733402E+04  0.7818609E-02  0.8324248E-01
       -3   -1    0    0    0  501  0.00000000000E+00  0.00000000000E+00  0.12427583608E+04  0.12427583650E+04  0.10100000352E+00 0. -1.
        3   -1    0    0  501    0  0.00000000000E+00  0.00000000000E+00 -0.15030050680E+04  0.15030050714E+04  0.10100000352E+00 0.  1.
    10030    2    1    2    0    0  0.00000000000E+00  0.00000000000E+00 -0.26024670713E+03  0.27457634363E+04  0.27334023670E+04 0.  0.
        5    1    3    3  502    0 -0.10860701023E+04 -0.66772870856E+03 -0.62473212513E+03  0.14197613227E+04  0.46999998093E+01 0.  1.
       -5    1    3    3    0  502  0.10860701023E+04  0.66772870856E+03  0.36448541800E+03  0.13260021136E+04  0.46999998093E+01 0. -1.
</event>
<event>
 5   0  0.4448804E-06  0.2715655E+04  0.7818609E-02  0.8329943E-01
        2   -1    0    0  501    0  0.00000000000E+00  0.00000000000E+00  0.19169642930E+04  0.19169642930E+04  0.25500000920E-02 0.  1.
       -2   -1    0    0    0  501  0.00000000000E+00  0.00000000000E+00 -0.96177876589E+03  0.96177876590E+03  0.25500000920E-02 0. -1.
    10030    2    1    2    0    0  0.00000000000E+00  0.00000000000E+00  0.95518552713E+03  0.28787430589E+04  0.27156550238E+04 0.  0.
        2    1    3    3  502    0 -0.65998673385E+03 -0.32378103644E+03 -0.73257892016E+03  0.10378287540E+04  0.25500000920E-02 0. -1.
       -2    1    3    3    0  502  0.65998673385E+03  0.32378103644E+03  0.16877644473E+04  0.18409143049E+04  0.25500000920E-02 0.  1.
</event>
<event>
 5   0  0.1753474E-06  0.2709715E+04  0.7818609E-02  0.8331860E-01
        1   -1    0    0  501    0  0.00000000000E+00  0.00000000000E+00  0.20764182077E+04  0.20764182077E+04  0.50400001928E-02 0.  1.
       -1   -1    0    0    0  501  0.00000000000E+00  0.00000000000E+00 -0.88404115654E+03  0.88404115655E+03  0.50400001928E-02 0. -1.
    10030    2    1    2    0    0  0.00000000000E+00  0.00000000000E+00  0.11923770511E+04  0.29604593642E+04  0.27097152277E+04 0.  0.
        3    1    3    3  502    0  0.12036471832E+04 -0.50667265115E+03  0.20203393218E+03  0.13214769908E+04  0.10100000352E+00 0.  1.
       -3    1    3    3    0  502 -0.12036471832E+04  0.50667265115E+03  0.99034311896E+03  0.16389823735E+04  0.10100000352E+00 0. -1.
</event>
<event>
 5   0  0.4487186E-06  0.2705336E+04  0.7818609E-02  0.8333276E-01
        2   -1    0    0  501    0  0.00000000000E+00  0.00000000000E+00  0.13766246052E+04  0.13766246052E+04  0.25500000920E-02 0. -1.
       -2   -1    0    0    0  501  0.00000000000E+00  0.00000000000E+00 -0.13291279063E+04  0.13291279063E+04  0.25500000920E-02 0.  1.
    10030    2    1    2    0    0  0.00000000000E+00  0.00000000000E+00  0.47496698914E+02  0.27057525115E+04  0.27053356015E+04 0.  0.
        3    1    3    3  502    0  0.83021814008E+03  0.35202502975E+03  0.10321330569E+04  0.13705774108E+04  0.10100000352E+00 0. -1.
       -3    1    3    3    0  502 -0.83021814008E+03 -0.35202502975E+03 -0.98463635801E+03  0.13351751007E+04  0.10100000352E+00 0.  1.
</event>
<event>
 5   0  0.1828511E-06  0.2700790E+04  0.7818609E-02  0.8334749E-01
       -1   -1    0    0    0  501  0.00000000000E+00  0.00000000000E+00  0.13444197815E+04  0.13444197815E+04  0.50400001928E-02 0.  1.
        1   -1    0    0  501    0  0.00000000000E+00  0.00000000000E+00 -0.13563967748E+04  0.13563967748E+04  0.50400001928E-02 0. -1.
    10030    2    1    2    0    0  0.00000000000E+00  0.00000000000E+00 -0.11976993254E+02  0.27008165563E+04  0.27007899997E+04 0.  0.
        4    1    3    3  502    0 -0.13245604629E+04 -0.43389172327E+02  0.25328611543E+03  0.13492585036E+04  0.12699999809E+01 0.  1.
       -4    1    3    3    0  502  0.13245604629E+04  0.43389172327E+02 -0.26526310868E+03  0.13515580528E+04  0.12699999809E+01 0. -1.
</event>
<event>
 5   0  0.1753474E-06  0.2667941E+04  0.7818609E-02  0.8345483E-01
        1   -1    0    0  501    0  0.00000000000E+00  0.00000000000E+00  0.16657418838E+04  0.16657418838E+04  0.50400001928E-02 0. -1.
       -1   -1    0    0    0  501  0.00000000000E+00  0.00000000000E+00 -0.10682791323E+04  0.10682791323E+04  0.50400001928E-02 0.  1.
    10030    2    1    2    0    0  0.00000000000E+00  0.00000000000E+00  0.59746275150E+03  0.27340210161E+04  0.26679409996E+04 0.  0.
        3    1    3    3  502    0  0.72512100490E+03 -0.83747948393E+03  0.10603105964E+04  0.15334376181E+04  0.10100000352E+00 0. -1.
       -3    1    3    3    0  502 -0.72512100490E+03  0.83747948393E+03 -0.46284784488E+03  0.12005833980E+04  0.10100000352E+00 0.  1.
</event>
<event>
 5   0  0.4448804E-06  0.2699703E+04  0.7818609E-02  0.8335101E-01
       -2   -1    0    0    0  501  0.00000000000E+00  0.00000000000E+00  0.11907730396E+04  0.11907730396E+04  0.25500000920E-02 0. -1.
        2   -1    0    0  501    0  0.00000000000E+00  0.00000000000E+00 -0.15301821098E+04  0.15301821098E+04  0.25500000920E-02 0.  1.
    10030    2    1    2    0    0  0.00000000000E+00  0.00000000000E+00 -0.33940907017E+03  0.27209551494E+04  0.26997033926E+04 0.  0.
        2    1    3    3  502    0 -0.52499931007E+03 -0.11414665429E+04  0.32766717774E+03  0.12984359528E+04  0.25500000920E-02 0.  1.
       -2    1    3    3    0  502  0.52499931007E+03  0.11414665429E+04 -0.66707624791E+03  0.14225191966E+04  0.25500000920E-02 0. -1.
</event>
<event>
 5   0  0.1732312E-06  0.2655407E+04  0.7818609E-02  0.8349620E-01
        1   -1    0    0  501    0  0.00000000000E+00  0.00000000000E+00  0.29210948670E+04  0.29210948670E+04  0.50400001928E-02 0.  1.
       -1   -1    0    0    0  501  0.00000000000E+00  0.00000000000E+00 -0.60347136130E+03  0.60347136132E+03  0.50400001928E-02 0. -1.
    10030    2    1    2    0    0  0.00000000000E+00  0.00000000000E+00  0.23176235057E+04  0.35245662283E+04  0.26554073856E+04 0.  0.
        5    1    3    3  502    0 -0.11320928453E+04  0.53473001520E+03  0.57237720485E+03  0.13766655928E+04  0.46999998093E+01 0. -1.
       -5    1    3    3    0  502  0.11320928453E+04 -0.53473001520E+03  0.17452463008E+04  0.21479006355E+04  0.46999998093E+01 0.  1.
</event>
<event>
 5   0  0.4439357E-06  0.2678491E+04  0.7818609E-02  0.8342018E-01
        2   -1    0    0  501    0  0.00000000000E+00  0.00000000000E+00  0.20020876453E+04  0.20020876453E+04  0.25500000920E-02 0. -1.
       -2   -1    0    0    0  501  0.00000000000E+00  0.00000000000E+00 -0.89585425177E+03  0.89585425177E+03  0.25500000920E-02 0.  1.
    10030    2    1    2    0    0  0.00000000000E+00  0.00000000000E+00  0.11062333936E+04  0.28979418971E+04  0.26784911644E+04 0.  0.
        4    1    3    3  502    0  0.11371049332E+04  0.52778618661E+03  0.43331845584E+02  0.12543704196E+04  0.12699999809E+01 0. -1.
       -4    1    3    3    0  502 -0.11371049332E+04 -0.52778618661E+03  0.10629015480E+04  0.16435714775E+04  0.12699999809E+01 0.  1.
</event>
<event>
 5   0  0.4487186E-06  0.2707669E+04  0.7818609E-02  0.8332521E-01
       -2   -1    0    0    0  501  0.00000000000E+00  0.00000000000E+00  0.83051962930E+03  0.83051962930E+03  0.25500000920E-02 0. -1.
        2   -1    0    0  501    0  0.00000000000E+00  0.00000000000E+00 -0.22068933670E+04  0.22068933670E+04  0.25500000920E-02 0.  1.
    10030    2    1    2    0    0  0.00000000000E+00  0.00000000000E+00 -0.13763737377E+04  0.30374129963E+04  0.27076693012E+04 0.  0.
        3    1    3    3  502    0  0.16304959887E+03 -0.10912621335E+03 -0.21908608827E+04  0.21996284049E+04  0.10100000352E+00 0.  1.
       -3    1    3    3    0  502 -0.16304959887E+03  0.10912621335E+03  0.81448714496E+03  0.83778459143E+03  0.10100000352E+00 0. -1.
</event>
<event>
 5   0  0.1482875E-06  0.2703025E+04  0.7818609E-02  0.8334024E-01
        4   -1    0    0  501    0  0.00000000000E+00  0.00000000000E+00  0.12341075982E+04  0.12341082517E+04  0.12699999809E+01 0.  1.
       -4   -1    0    0    0  501  0.00000000000E+00  0.00000000000E+00 -0.14800856846E+04  0.14800862294E+04  0.12699999809E+01 0. -1.
    10030    2    1    2    0    0  0.00000000000E+00  0.00000000000E+00 -0.24597808634E+03  0.27141944811E+04  0.27030254276E+04 0.  0.
        4    1    3    3  502    0 -0.45385111905E+03 -0.32376656601E+03 -0.13592462280E+04  0.14691349662E+04  0.12699999809E+01 0. -1.
       -4    1    3    3    0  502  0.45385111905E+03  0.32376656601E+03  0.11132681417E+04  0.12450595149E+04  0.12699999809E+01 0.  1.
</event>
<event>
 5   0  0.1828511E-06  0.2691533E+04  0.7818609E-02  0.8337758E-01
        1   -1    0    0  501    0  0.00000000000E+00  0.00000000000E+00  0.17403189364E+04  0.17403189364E+04  0.50400001928E-02 0. -1.
       -1   -1    0    0    0  501  0.00000000000E+00  0.00000000000E+00 -0.10406639431E+04  0.10406639431E+04  0.50400001928E-02 0.  1.
    10030    2    1    2    0    0  0.00000000000E+00  0.00000000000E+00  0.69965499326E+03  0.27809828795E+04  0.26915327727E+04 0.  0.
        4    1    3    3  502    0 -0.24880114577E+03  0.10370806945E+02 -0.10166515669E+04  0.10467051090E+04  0.12699999809E+01 0.  1.
       -4    1    3    3    0  502  0.24880114577E+03 -0.10370806945E+02  0.17163065602E+04  0.17342777705E+04  0.12699999809E+01 0. -1.
</event>
<event>
 5   0  0.1753474E-06  0.2700123E+04  0.7818609E-02  0.8334965E-01
       -1   -1    0    0    0  501  0.00000000000E+00  0.00000000000E+00  0.10582255669E+04  0.10582255669E+04  0.50400001928E-02 0. -1.
        1   -1    0    0  501    0  0.00000000000E+00  0.00000000000E+00 -0.17223791593E+04  0.17223791593E+04  0.50400001928E-02 0.  1.
    10030    2    1    2    0    0  0.00000000000E+00  0.00000000000E+00 -0.66415359244E+03  0.27806047262E+04  0.27001227100E+04 0.  0.
        3    1    3    3  502    0  0.94972827146E+03 -0.92546560489E+03 -0.59299674954E+03  0.14526236714E+04  0.10100000352E+00 0.  1.
       -3    1    3    3    0  502 -0.94972827146E+03  0.92546560489E+03 -0.71156842903E+02  0.13279810548E+04  0.10100000352E+00 0. -1.
</event>
<event>
 5   0  0.1732312E-06  0.2692698E+04  0.7818609E-02  0.8337378E-01
        1   -1    0    0  501    0  0.00000000000E+00  0.00000000000E+00  0.11615745463E+04  0.11615745463E+04  0.50400001928E-02 0.  1.
       -1   -1    0    0    0  501  0.00000000000E+00  0.00000000000E+00 -0.15605157086E+04  0.15605157086E+04  0.50400001928E-02 0. -1.
    10030    2    1    2    0    0  0.00000000000E+00  0.00000000000E+00 -0.39894116231E+03  0.27220902550E+04  0.26926977746E+04 0.  0.
        5    1    3    3  502    0  0.89347919810E+03  0.89794731285E+03 -0.66053985801E+03  0.14286180204E+04  0.46999998093E+01 0. -1.
       -5    1    3    3    0  502 -0.89347919810E+03 -0.89794731285E+03  0.26159869571E+03  0.12934722346E+04  0.46999998093E+01 0.  1.
</event>
<event>
 5   0  0.4439357E-06  0.2657938E+04  0.7818609E-02  0.8348783E-01
        2   -1    0    0  501    0  0.00000000000E+00  0.00000000000E+00  0.19923263010E+04  0.19923263010E+04  0.25500000920E-02 0.  1.
       -2   -1    0    0    0  501  0.00000000000E+00  0.00000000000E+00 -0.88648035861E+03  0.88648035862E+03  0.25500000920E-02 0. -1.
    10030    2    1    2    0    0  0.00000000000E+00  0.00000000000E+00  0.11058459424E+04  0.28788066596E+04  0.26579376470E+04 0.  0.
        4    1    3    3  502    0  0.12530858529E+03 -0.52177374143E+03  0.18697697795E+04  0.19452482412E+04  0.12699999809E+01 0.  1.
       -4    1    3    3    0  502 -0.12530858529E+03  0.52177374143E+03 -0.76392383709E+03  0.93355841840E+03  0.12699999809E+01 0. -1.
</event>
<event>
 5   0  0.4655882E-06  0.2692332E+04  0.7818609E-02  0.8337497E-01
        2   -1    0    0  501    0  0.00000000000E+00  0.00000000000E+00  0.28699447932E+04  0.28699447932E+04  0.25500000920E-02 0. -1.
       -2   -1    0    0    0  501  0.00000000000E+00  0.00000000000E+00 -0.63142770518E+03  0.63142770519E+03  0.25500000920E-02 0.  1.
    10030    2    1    2    0    0  0.00000000000E+00  0.00000000000E+00  0.22385170880E+04  0.35013724984E+04  0.26923318182E+04 0.  0.
        1    1    3    3  502    0 -0.12208593862E+04 -0.24427313710E+03  0.17849251513E+04  0.21762639551E+04  0.50400001928E-02 0. -1.
       -1    1    3    3    0  502  0.12208593862E+04  0.24427313710E+03  0.45359193673E+03  0.13251085433E+04  0.50400001928E-02 0.  1.
</event>
<event>
 5   0  0.4401659E-06  0.2729865E+04  0.7818609E-02  0.8325379E-01
        2   -1    0    0  501    0  0.00000000000E+00  0.00000000000E+00  0.13020750893E+04  0.13020750893E+04  0.25500000920E-02 0. -1.
       -2   -1    0    0    0  501  0.00000000000E+00  0.00000000000E+00 -0.14308239854E+04  0.14308239854E+04  0.25500000920E-02 0.  1.
    10030    2    1    2    0    0  0.00000000000E+00  0.00000000000E+00 -0.12874889614E+03  0.27328990748E+04  0.27298646623E+04 0.  0.
        5    1    3    3  502    0 -0.22903395063E+03 -0.42212536221E+03 -0.13434376939E+04  0.14267071526E+04  0.46999998093E+01 0.  1.
       -5    1    3    3    0  502  0.22903395063E+03  0.42212536221E+03  0.12146887978E+04  0.13061919221E+04  0.46999998093E+01 0. -1.
</event>
<event>
 5   0  0.4439357E-06  0.2679425E+04  0.7818609E-02  0.8341712E-01
       -2   -1    0    0    0  501  0.00000000000E+00  0.00000000000E+00  0.10000430168E+04  0.10000430168E+04  0.25500000920E-02 0.  1.
        2   -1    0    0  501    0  0.00000000000E+00  0.00000000000E+00 -0.17947522509E+04  0.17947522509E+04  0.25500000920E-02 0. -1.
    10030    2    1    2    0    0  0.00000000000E+00  0.00000000000E+00 -0.79470923404E+03  0.27947952677E+04  0.26794249050E+04 0.  0.
        4    1    3    3  502    0 -0.25069580758E+03  0.12069166092E+04 -0.94466861971E+03  0.15530281721E+04  0.12699999809E+01 0. -1.
       -4    1    3    3    0  502  0.25069580758E+03 -0.12069166092E+04  0.14995938567E+03  0.12417670956E+04  0.12699999809E+01 0.  1.
</event>
<event>
 5   0  0.4448804E-06  0.2697190E+04  0.7818609E-02  0.8335917E-01
        2   -1    0    0  501    0  0.00000000000E+00  0.00000000000E+00  0.13640694232E+04  0.13640694232E+04  0.25500000920E-02 0. -1.
       -2   -1    0    0    0  501  0.00000000000E+00  0.00000000000E+00 -0.13332963984E+04  0.13332963984E+04  0.25500000920E-02 0.  1.
    10030    2    1    2    0    0  0.00000000000E+00  0.00000000000E+00  0.30773024785E+02  0.26973658216E+04  0.26971902782E+04 0.  0.
        2    1    3    3  502    0 -0.11999518298E+04 -0.12961569300E+03 -0.58633713909E+03  0.13418181183E+04  0.25500000920E-02 0.  1.
       -2    1    3    3    0  502  0.11999518298E+04  0.12961569300E+03  0.61711016387E+03  0.13555477034E+04  0.25500000920E-02 0. -1.
</event>
<event>
 5   0  0.4401659E-06  0.2587748E+04  0.7818609E-02  0.8372375E-01
       -2   -1    0    0    0  501  0.00000000000E+00  0.00000000000E+00  0.89604080485E+03  0.89604080485E+03  0.25500000920E-02 0.  1.
        2   -1    0    0  501    0  0.00000000000E+00  0.00000000000E+00 -0.18683418299E+04  0.18683418300E+04  0.25500000920E-02 0. -1.
    10030    2    1    2    0    0  0.00000000000E+00  0.00000000000E+00 -0.97230102510E+03  0.27643826348E+04  0.25877484553E+04 0.  0.
        5    1    3    3  502    0  0.86565529202E+03  0.70635593434E+03  0.21091589083E+03  0.11370160041E+04  0.46999998093E+01 0.  1.
       -5    1    3    3    0  502 -0.86565529202E+03 -0.70635593434E+03 -0.11832169159E+04  0.16273666307E+04  0.46999998093E+01 0. -1.
</event>
<event>
 5   0  0.4401659E-06  0.2694737E+04  0.7818609E-02  0.8336715E-01
        2   -1    0    0  501    0  0.00000000000E+00  0.00000000000E+00  0.11161337118E+04  0.11161337118E+04  0.25500000920E-02 0. -1.
       -2   -1    0    0    0  501  0.00000000000E+00  0.00000000000E+00 -0.16265095089E+04  0.16265095089E+04  0.25500000920E-02 0.  1.
    10030    2    1    2    0    0  0.00000000000E+00  0.00000000000E+00 -0.51037579710E+03  0.27426432208E+04  0.26947371638E+04 0.  0.
        5    1    3    3  502    0  0.68792731924E+02  0.49539564673E+03 -0.15285211643E+04  0.16082749536E+04  0.46999998093E+01 0.  1.
       -5    1    3    3    0  502 -0.68792731924E+02 -0.49539564673E+03  0.10181453672E+04  0.11343682671E+04  0.46999998093E+01 0. -1.
</event>
<event>
 5   0  0.1771016E-06  0.2677576E+04  0.7818609E-02  0.8342318E-01
        1   -1    0    0  501    0  0.00000000000E+00  0.00000000000E+00  0.13856951994E+04  0.13856951994E+04  0.50400001928E-02 0.  1.
       -1   -1    0    0    0  501  0.00000000000E+00  0.00000000000E+00 -0.12934686005E+04  0.12934686005E+04  0.50400001928E-02 0. -1.
    10030    2    1    2    0    0  0.00000000000E+00  0.00000000000E+00  0.92226598894E+02  0.26791638000E+04  0.26775759413E+04 0.  0.
        2    1    3    3  502    0 -0.92125873436E+03 -0.21189544505E+03  0.99469231547E+03  0.13722354527E+04  0.25500000920E-02 0.  1.
       -2    1    3    3    0  502  0.92125873436E+03  0.21189544505E+03 -0.90246571658E+03  0.13069283473E+04  0.25500000920E-02 0. -1.
</event>
<event>
 5   0  0.1771016E-06  0.2708138E+04  0.7818609E-02  0.8332369E-01
       -1   -1    0    0    0  501  0.00000000000E+00  0.00000000000E+00  0.88713731510E+03  0.88713731512E+03  0.50400001928E-02 0.  1.
        1   -1    0    0  501    0  0.00000000000E+00  0.00000000000E+00 -0.20667637883E+04  0.20667637884E+04  0.50400001928E-02 0. -1.
    10030    2    1    2    0    0  0.00000000000E+00  0.00000000000E+00 -0.11796264732E+04  0.29539011035E+04  0.27081383112E+04 0.  0.
        2    1    3    3  502    0 -0.96811162216E+03  0.92099227984E+03 -0.82887508419E+03  0.15724187730E+04  0.25500000920E-02 0. -1.
       -2    1    3    3    0  502  0.96811162216E+03 -0.92099227984E+03 -0.35075138905E+03  0.13814823305E+04  0.25500000920E-02 0.  1.
</event>
<event>
 5   0  0.1771016E-06  0.2698518E+04  0.7818609E-02  0.8335486E-01
        1   -1    0    0  501    0  0.00000000000E+00  0.00000000000E+00  0.12241713195E+04  0.12241713195E+04  0.50400001928E-02 0.  1.
       -1   -1    0    0    0  501  0.00000000000E+00  0.00000000000E+00 -0.14871286945E+04  0.14871286945E+04  0.50400001928E-02 0. -1.
    10030    2    1    2    0    0  0.00000000000E+00  0.00000000000E+00 -0.26295737507E+03  0.27113000140E+04  0.26985183314E+04 0.  0.
        2    1    3    3  502    0  0.12960051901E+04  0.21903334413E+03  0.17475215483E+03  0.13259499893E+04  0.25500000920E-02 0. -1.
       -2    1    3    3    0  502 -0.12960051901E+04 -0.21903334413E+03 -0.43770952990E+03  0.13853500247E+04  0.25500000920E-02 0.  1.
</event>
<event>
 5   0  0.1732312E-06  0.2697251E+04  0.7818609E-02  0.8335898E-01
       -1   -1    0    0    0  501  0.00000000000E+00  0.00000000000E+00  0.13270303291E+04  0.13270303291E+04  0.50400001928E-02 0. -1.
        1   -1    0    0  501    0  0.00000000000E+00  0.00000000000E+00 -0.13705716919E+04  0.13705716919E+04  0.50400001928E-02 0.  1.
    10030    2    1    2    0    0  0.00000000000E+00  0.00000000000E+00 -0.43541362844E+02  0.26976020210E+04  0.26972506026E+04 0.  0.
        5    1    3    3  502    0  0.97398966512E+02 -0.93566759236E+03  0.94469248615E+03  0.13332015547E+04  0.46999998093E+01 0. -1.
       -5    1    3    3    0  502 -0.97398966512E+02  0.93566759236E+03 -0.98823384900E+03  0.13644004663E+04  0.46999998093E+01 0.  1.
</event>
<event>
 5   0  0.4487186E-06  0.2669495E+04  0.7818609E-02  0.8344971E-01
       -2   -1    0    0    0  501  0.00000000000E+00  0.00000000000E+00  0.88994838867E+03  0.88994838868E+03  0.25500000920E-02 0.  1.
        2   -1    0    0  501    0  0.00000000000E+00  0.00000000000E+00 -0.20018586858E+04  0.20018586858E+04  0.25500000920E-02 0. -1.
    10030    2    1    2    0    0  0.00000000000E+00  0.00000000000E+00 -0.11119102971E+04  0.28918070745E+04  0.26694950173E+04 0.  0.
        3    1    3    3  502    0  0.58120944595E+03  0.10864106739E+03  0.74033779714E+03  0.94747420316E+03  0.10100000352E+00 0.  1.
       -3    1    3    3    0  502 -0.58120944595E+03 -0.10864106739E+03 -0.18522480943E+04  0.19443328713E+04  0.10100000352E+00 0. -1.
</event>
<event>
 5   0  0.1753474E-06  0.2699804E+04  0.7818609E-02  0.8335069E-01
       -1   -1    0    0    0  501  0.00000000000E+00  0.00000000000E+00  0.15977035012E+04  0.15977035012E+04  0.50400001928E-02 0.  1.
        1   -1    0    0  501    0  0.00000000000E+00  0.00000000000E+00 -0.11405338958E+04  0.11405338958E+04  0.50400001928E-02 0. -1.
    10030    2    1    2    0    0  0.00000000000E+00  0.00000000000E+00  0.45716960543E+03  0.27382373971E+04  0.26998036956E+04 0.  0.
        3    1    3    3  502    0 -0.70886988786E+03 -0.37152580782E+03 -0.87395384594E+03  0.11850414671E+04  0.10100000352E+00 0. -1.
       -3    1    3    3    0  502  0.70886988786E+03  0.37152580782E+03  0.13311234514E+04  0.15531959299E+04  0.10100000352E+00 0.  1.
</event>
<event>
 5   0  0.1771016E-06  0.2704675E+04  0.7818609E-02  0.8333490E-01
       -1   -1    0    0    0  501  0.00000000000E+00  0.00000000000E+00  0.13442251347E+04  0.13442251347E+04  0.50400001928E-02 0.  1.
        1   -1    0    0  501    0  0.00000000000E+00  0.00000000000E+00 -0.13604989516E+04  0.13604989516E+04  0.50400001928E-02 0. -1.
    10030    2    1    2    0    0  0.00000000000E+00  0.00000000000E+00 -0.16273816892E+02  0.27047240862E+04  0.27046751276E+04 0.  0.
        2    1    3    3  502    0 -0.13386895537E+03  0.30890107033E+03  0.13016486556E+04  0.13444813094E+04  0.25500000920E-02 0.  1.
       -2    1    3    3    0  502  0.13386895537E+03 -0.30890107033E+03 -0.13179224725E+04  0.13602427769E+04  0.25500000920E-02 0. -1.
</event>
<event>
 5   0  0.1732312E-06  0.2713182E+04  0.7818609E-02  0.8330741E-01
        1   -1    0    0  501    0  0.00000000000E+00  0.00000000000E+00  0.14682374661E+04  0.14682374662E+04  0.50400001928E-02 0.  1.
       -1   -1    0    0    0  501  0.00000000000E+00  0.00000000000E+00 -0.12534339679E+04  0.12534339679E+04  0.50400001928E-02 0. -1.
    10030    2    1    2    0    0  0.00000000000E+00  0.00000000000E+00  0.21480349826E+03  0.27216714340E+04  0.27131816843E+04 0.  0.
        5    1    3    3  502    0  0.63615868842E+03  0.48173675955E+03 -0.99309459893E+03  0.12739808298E+04  0.46999998093E+01 0. -1.
       -5    1    3    3    0  502 -0.63615868842E+03 -0.48173675955E+03  0.12078980972E+04  0.14476906042E+04  0.46999998093E+01 0.  1.
</event>
<event>
 5   0  0.4448804E-06  0.2711707E+04  0.7818609E-02  0.8331217E-01
        2   -1    0    0  501    0  0.00000000000E+00  0.00000000000E+00  0.19959403620E+04  0.19959403620E+04  0.25500000920E-02 0. -1.
       -2   -1    0    0    0  501  0.00000000000E+00  0.00000000000E+00 -0.92103857311E+03  0.92103857311E+03  0.25500000920E-02 0.  1.
    10030    2    1    2    0    0  0.00000000000E+00  0.00000000000E+00  0.10749017889E+04  0.29169789351E+04  0.27117065203E+04 0.  0.
        2    1    3    3  502    0  0.10816034244E+03  0.87934942683E+03  0.16414887478E+04  0.18653255435E+04  0.25500000920E-02 0. -1.
       -2    1    3    3    0  502 -0.10816034244E+03 -0.87934942683E+03 -0.56658695887E+03  0.10516533916E+04  0.25500000920E-02 0.  1.
</event>
<event>
 5   0  0.4439357E-06  0.2692278E+04  0.7818609E-02  0.8337515E-01
        2   -1    0    0  501    0  0.00000000000E+00  0.00000000000E+00  0.12421378776E+04  0.12421378776E+04  0.25500000920E-02 0.  1.
       -2   -1    0    0    0  501  0.00000000000E+00  0.00000000000E+00 -0.14588476193E+04  0.14588476193E+04  0.25500000920E-02 0. -1.
    10030    2    1    2    0    0  0.00000000000E+00  0.00000000000E+00 -0.21670974169E+03  0.27009854970E+04  0.26922777611E+04 0.  0.
        4    1    3    3  502    0 -0.11547363887E+04 -0.16060387135E+02 -0.80226691166E+03  0.14061677972E+04  0.12699999809E+01 0. -1.
       -4    1    3    3    0  502  0.11547363887E+04  0.16060387135E+02  0.58555716997E+03  0.12948176998E+04  0.12699999809E+01 0.  1.
</event>
<event>
 5   0  0.1753474E-06  0.2712028E+04  0.7818609E-02  0.8331113E-01
       -1   -1    0    0    0  501  0.00000000000E+00  0.00000000000E+00  0.10694530371E+04  0.10694530371E+04  0.50400001928E-02 0.  1.
        1   -1    0    0  501    0  0.00000000000E+00  0.00000000000E+00 -0.17193596967E+04  0.17193596968E+04  0.50400001928E-02 0. -1.
    10030    2    1    2    0    0  0.00000000000E+00  0.00000000000E+00 -0.64990665966E+03  0.27888127339E+04  0.27120283550E+04 0.  0.
        3    1    3    3  502    0 -0.61182231197E+03 -0.39917007714E+03  0.84980592870E+03  0.11206397363E+04  0.10100000352E+00 0.  1.
       -3    1    3    3    0  502  0.61182231197E+03  0.39917007714E+03 -0.14997125884E+04  0.16681729976E+04  0.10100000352E+00 0. -1.
</event>
<event>
 5   0  0.4448804E-06  0.2690199E+04  0.7818609E-02  0.8338192E-01
       -2   -1    0    0    0  501  0.00000000000E+00  0.00000000000E+00  0.17327764589E+04  0.17327764590E+04  0.25500000920E-02 0.  1.
        2   -1    0    0  501    0  0.00000000000E+00  0.00000000000E+00 -0.10441578255E+04  0.10441578255E+04  0.25500000920E-02 0. -1.
    10030    2    1    2    0    0  0.00000000000E+00  0.00000000000E+00  0.68861863350E+03  0.27769342844E+04  0.26901985796E+04 0.  0.
        2    1    3    3  502    0  0.90385246950E+03 -0.85862370594E+03  0.86567618017E+03  0.15177546587E+04  0.25500000920E-02 0.  1.
       -2    1    3    3    0  502 -0.90385246950E+03  0.85862370594E+03 -0.17705754667E+03  0.12591796257E+04  0.25500000920E-02 0. -1.
</event>
<event>
 5   0  0.1732312E-06  0.2695891E+04  0.7818609E-02  0.8336339E-01
        1   -1    0    0  501    0  0.00000000000E+00  0.00000000000E+00  0.11835165361E+04  0.11835165361E+04  0.50400001928E-02 0. -1.
       -1   -1    0    0    0  501  0.00000000000E+00  0.00000000000E+00 -0.15352187545E+04  0.15352187545E+04  0.50400001928E-02 0.  1.
    10030    2    1    2    0    0  0.00000000000E+00  0.00000000000E+00 -0.35170221847E+03  0.27187352906E+04  0.26958907860E+04 0.  0.
        5    1    3    3  502    0  0.32502761281E+03 -0.13055712439E+04 -0.92840354679E+02  0.13486291719E+04  0.46999998093E+01 0. -1.
       -5    1    3    3    0  502 -0.32502761281E+03  0.13055712439E+04 -0.25886186379E+03  0.13701061187E+04  0.46999998093E+01 0.  1.
</event>
<event>
 5   0  0.1723605E-06  0.2629588E+04  0.7818609E-02  0.8358220E-01
        1   -1    0    0  501    0  0.00000000000E+00  0.00000000000E+00  0.13887109285E+04  0.13887109285E+04  0.50400001928E-02 0. -1.
       -1   -1    0    0    0  501  0.00000000000E+00  0.00000000000E+00 -0.12448116467E+04  0.12448116467E+04  0.50400001928E-02 0.  1.
    10030    2    1    2    0    0  0.00000000000E+00  0.00000000000E+00  0.14389928178E+03  0.26335225752E+04  0.26295882094E+04 0.  0.
        1    1    3    3  502    0 -0.11706549575E+03 -0.11844918463E+04 -0.48741827913E+03  0.12861966581E+04  0.50400001928E-02 0.  1.
       -1    1    3    3    0  502  0.11706549575E+03  0.11844918463E+04  0.63131756091E+03  0.13473259172E+04  0.50400001928E-02 0. -1.
</event>
<event>
 5   0  0.1828511E-06  0.2699571E+04  0.7818609E-02  0.8335144E-01
        1   -1    0    0  501    0  0.00000000000E+00  0.00000000000E+00  0.10257319912E+04  0.10257319912E+04  0.50400001928E-02 0. -1.
       -1   -1    0    0    0  501  0.00000000000E+00  0.00000000000E+00 -0.17762150981E+04  0.17762150981E+04  0.50400001928E-02 0.  1.
    10030    2    1    2    0    0  0.00000000000E+00  0.00000000000E+00 -0.75048310686E+03  0.28019470893E+04  0.26995708173E+04 0.  0.
        4    1    3    3  502    0 -0.55527865314E+03  0.10260394810E+04 -0.10798282905E+04  0.15896924700E+04  0.12699999809E+01 0.  1.
       -4    1    3    3    0  502  0.55527865314E+03 -0.10260394810E+04  0.32934518368E+03  0.12122546193E+04  0.12699999809E+01 0. -1.
</event>
<event>
 5   0  0.1732312E-06  0.2697129E+04  0.7818609E-02  0.8335937E-01
       -1   -1    0    0    0  501  0.00000000000E+00  0.00000000000E+00  0.21195426404E+04  0.21195426404E+04  0.50400001928E-02 0. -1.
        1   -1    0    0  501    0  0.00000000000E+00  0.00000000000E+00 -0.85802780275E+03  0.85802780276E+03  0.50400001928E-02 0.  1.
    10030    2    1    2    0    0  0.00000000000E+00  0.00000000000E+00  0.12615148376E+04  0.29775704431E+04  0.26971292254E+04 0.  0.
        5    1    3    3  502    0  0.54731510535E+03  0.72776825259E+03  0.17288706244E+04  0.19540256344E+04  0.46999998093E+01 0. -1.
       -5    1    3    3    0  502 -0.54731510535E+03 -0.72776825259E+03 -0.46735578678E+03  0.10235448087E+04  0.46999998093E+01 0.  1.
</event>
<event>
 5   0  0.1753474E-06  0.2707047E+04  0.7818609E-02  0.8332722E-01
        1   -1    0    0  501    0  0.00000000000E+00  0.00000000000E+00  0.80758686600E+03  0.80758686601E+03  0.50400001928E-02 0. -1.
       -1   -1    0    0    0  501  0.00000000000E+00  0.00000000000E+00 -0.22685184832E+04  0.22685184832E+04  0.50400001928E-02 0.  1.
    10030    2    1    2    0    0  0.00000000000E+00  0.00000000000E+00 -0.14609316172E+04  0.30761053492E+04  0.27070469019E+04 0.  0.
        3    1    3    3  502    0  0.36675116277E+03  0.96226424270E+03  0.26767589218E+03  0.10640062413E+04  0.10100000352E+00 0. -1.
       -3    1    3    3    0  502 -0.36675116277E+03 -0.96226424270E+03 -0.17286075093E+04  0.20120991078E+04  0.10100000352E+00 0.  1.
</event>
<event>
 5   0  0.4487186E-06  0.2699035E+04  0.7818609E-02  0.8335318E-01
        2   -1    0    0  501    0  0.00000000000E+00  0.00000000000E+00  0.25667421534E+04  0.25667421534E+04  0.25500000920E-02 0. -1.
       -2   -1    0    0    0  501  0.00000000000E+00  0.00000000000E+00 -0.70953644608E+03  0.70953644608E+03  0.25500000920E-02 0.  1.
    10030    2    1    2    0    0  0.00000000000E+00  0.00000000000E+00  0.18572057073E+04  0.32762785995E+04  0.26990347204E+04 0.  0.
        3    1    3    3  502    0  0.13784692285E+03 -0.61885764419E+02 -0.69923570596E+03  0.71537556896E+03  0.10100000352E+00 0.  1.
       -3    1    3    3    0  502 -0.13784692285E+03  0.61885764419E+02  0.25564414133E+04  0.25609030305E+04  0.10100000352E+00 0. -1.
</event>
<event>
 5   0  0.4487186E-06  0.2707629E+04  0.7818609E-02  0.8332534E-01
       -2   -1    0    0    0  501  0.00000000000E+00  0.00000000000E+00  0.11681546207E+04  0.11681546207E+04  0.25500000920E-02 0.  1.
        2   -1    0    0  501    0  0.00000000000E+00  0.00000000000E+00 -0.15689821447E+04  0.15689821447E+04  0.25500000920E-02 0. -1.
    10030    2    1    2    0    0  0.00000000000E+00  0.00000000000E+00 -0.40082752395E+03  0.27371367654E+04  0.27076290308E+04 0.  0.
        3    1    3    3  502    0 -0.12985243553E+03  0.87761953238E+03  0.83334302231E+03  0.12171845800E+04  0.10100000352E+00 0.  1.
       -3    1    3    3    0  502  0.12985243553E+03 -0.87761953238E+03 -0.12341705463E+04  0.15199521855E+04  0.10100000352E+00 0. -1.
</event>
<event>
 5   0  0.1732312E-06  0.2719116E+04  0.7818609E-02  0.8328829E-01
        1   -1    0    0  501    0  0.00000000000E+00  0.00000000000E+00  0.13296730234E+04  0.13296730234E+04  0.50400001928E-02 0. -1.
       -1   -1    0    0    0  501  0.00000000000E+00  0.00000000000E+00 -0.13901148079E+04  0.13901148079E+04  0.50400001928E-02 0.  1.
    10030    2    1    2    0    0  0.00000000000E+00  0.00000000000E+00 -0.60441784439E+02  0.27197878313E+04  0.27191161502E+04 0.  0.
        5    1    3    3  502    0 -0.10436087001E+04  0.81097361582E+03 -0.34901382760E+03  0.13669784440E+04  0.46999998093E+01 0. -1.
       -5    1    3    3    0  502  0.10436087001E+04 -0.81097361582E+03  0.28857204316E+03  0.13528093874E+04  0.46999998093E+01 0.  1.
</event>
<event>
 5   0  0.1753474E-06  0.2694172E+04  0.7818609E-02  0.8336899E-01
       -1   -1    0    0    0  501  0.00000000000E+00  0.00000000000E+00  0.10548338787E+04  0.10548338787E+04  0.50400001928E-02 0. -1.
        1   -1    0    0  501    0  0.00000000000E+00  0.00000000000E+00 -0.17203090211E+04  0.17203090211E+04  0.50400001928E-02 0.  1.
    10030    2    1    2    0    0  0.00000000000E+00  0.00000000000E+00 -0.66547514241E+03  0.27751428999E+04  0.26941716630E+04 0.  0.
        3    1    3    3  502    0 -0.98870105366E+03 -0.81080569394E+03 -0.76939380078E+03  0.14922809647E+04  0.10100000352E+00 0.  1.
       -3    1    3    3    0  502  0.98870105366E+03  0.81080569394E+03  0.10391865836E+03  0.12828619351E+04  0.10100000352E+00 0. -1.
</event>
<event>
 5   0  0.1753474E-06  0.2700960E+04  0.7818609E-02  0.8334694E-01
       -1   -1    0    0    0  501  0.00000000000E+00  0.00000000000E+00  0.13479286135E+04  0.13479286135E+04  0.50400001928E-02 0.  1.
        1   -1    0    0  501    0  0.00000000000E+00  0.00000000000E+00 -0.13530360085E+04  0.13530360085E+04  0.50400001928E-02 0. -1.
    10030    2    1    2    0    0  0.00000000000E+00  0.00000000000E+00 -0.51073949527E+01  0.27009646220E+04  0.27009597931E+04 0.  0.
        3    1    3    3  502    0  0.57825962997E+03  0.72512372080E+03 -0.98419048177E+03  0.13523385392E+04  0.10100000352E+00 0. -1.
       -3    1    3    3    0  502 -0.57825962997E+03 -0.72512372080E+03  0.97908308681E+03  0.13486260828E+04  0.10100000352E+00 0.  1.
</event>
<event>
 5   0  0.4448804E-06  0.2700276E+04  0.7818609E-02  0.8334915E-01
       -2   -1    0    0    0  501  0.00000000000E+00  0.00000000000E+00  0.11363094552E+04  0.11363094552E+04  0.25500000920E-02 0.  1.
        2   -1    0    0  501    0  0.00000000000E+00  0.00000000000E+00 -0.16042043101E+04  0.16042043101E+04  0.25500000920E-02 0. -1.
    10030    2    1    2    0    0  0.00000000000E+00  0.00000000000E+00 -0.46789485484E+03  0.27405137653E+04  0.27002759308E+04 0.  0.
        2    1    3    3  502    0  0.44159080747E+03  0.10915302707E+01 -0.15288394480E+04  0.15913370763E+04  0.25500000920E-02 0. -1.
       -2    1    3    3    0  502 -0.44159080747E+03 -0.10915302707E+01  0.10609445932E+04  0.11491766890E+04  0.25500000920E-02 0.  1.
</event>
<event>
 5   0  0.4448804E-06  0.2707186E+04  0.7818609E-02  0.8332677E-01
        2   -1    0    0  501    0  0.00000000000E+00  0.00000000000E+00  0.15932487603E+04  0.15932487603E+04  0.25500000920E-02 0.  1.
       -2   -1    0    0    0  501  0.00000000000E+00  0.00000000000E+00 -0.11499863879E+04  0.11499863879E+04  0.25500000920E-02 0. -1.
    10030    2    1    2    0    0  0.00000000000E+00  0.00000000000E+00  0.44326237238E+03  0.27432351483E+04  0.27071862788E+04 0.  0.
        2    1    3    3  502    0 -0.96011414742E+03  0.42478444704E+03 -0.64411873309E+03  0.12317264083E+04  0.25500000920E-02 0. -1.
       -2    1    3    3    0  502  0.96011414742E+03 -0.42478444704E+03  0.10873811055E+04  0.15115087400E+04  0.25500000920E-02 0.  1.
</event>
<event>
 5   0  0.1723605E-06  0.2696655E+04  0.7818609E-02  0.8336091E-01
       -1   -1    0    0    0  501  0.00000000000E+00  0.00000000000E+00  0.96898385584E+03  0.96898385585E+03  0.50400001928E-02 0. -1.
        1   -1    0    0  501    0  0.00000000000E+00  0.00000000000E+00 -0.18761783569E+04  0.18761783570E+04  0.50400001928E-02 0.  1.
    10030    2    1    2    0    0  0.00000000000E+00  0.00000000000E+00 -0.90719450111E+03  0.28451622128E+04  0.26966546227E+04 0.  0.
        1    1    3    3  502    0  0.20569503051E+03 -0.22151625310E+03  0.93277037625E+03  0.98053070875E+03  0.50400001928E-02 0. -1.
       -1    1    3    3    0  502 -0.20569503051E+03  0.22151625310E+03 -0.18399648774E+04  0.18646315041E+04  0.50400001928E-02 0.  1.
</event>
<event>
 5   0  0.4655882E-06  0.2698659E+04  0.7818609E-02  0.8335440E-01
        2   -1    0    0  501    0  0.00000000000E+00  0.00000000000E+00  0.24211181361E+04  0.24211181361E+04  0.25500000920E-02 0. -1.
       -2   -1    0    0    0  501  0.00000000000E+00  0.00000000000E+00 -0.75200363725E+03  0.75200363725E+03  0.25500000920E-02 0.  1.
    10030    2    1    2    0    0  0.00000000000E+00  0.00000000000E+00  0.16691144988E+04  0.31731217733E+04  0.26986586628E+04 0.  0.
        1    1    3    3  502    0 -0.84593665146E+03  0.88467201572E+03  0.16688901590E+03  0.12353563605E+04  0.50400001928E-02 0.  1.
       -1    1    3    3    0  502  0.84593665146E+03 -0.88467201572E+03  0.15022254829E+04  0.19377654129E+04  0.50400001928E-02 0. -1.
</event>
<event>
 5   0  0.1482875E-06  0.2709170E+04  0.7818609E-02  0.8332036E-01
        4   -1    0    0  501    0  0.00000000000E+00  0.00000000000E+00  0.17071505051E+04  0.17071509775E+04  0.12699999809E+01 0.  1.
       -4   -1    0    0    0  501  0.00000000000E+00  0.00000000000E+00 -0.10748311632E+04  0.10748319135E+04  0.12699999809E+01 0. -1.
    10030    2    1    2    0    0  0.00000000000E+00  0.00000000000E+00  0.63231934192E+03  0.27819828910E+04  0.27091698093E+04 0.  0.
        4    1    3    3  502    0 -0.22827988263E+03  0.76406814916E+03 -0.80825222126E+03  0.11354228760E+04  0.12699999809E+01 0. -1.
       -4    1    3    3    0  502  0.22827988263E+03 -0.76406814916E+03  0.14405715632E+04  0.16465600150E+04  0.12699999809E+01 0.  1.
</event>
<event>
 5   0  0.1482875E-06  0.2702663E+04  0.7818609E-02  0.8334142E-01
       -4   -1    0    0    0  501  0.00000000000E+00  0.00000000000E+00  0.11800658438E+04  0.11800665272E+04  0.12699999809E+01 0.  1.
        4   -1    0    0  501    0  0.00000000000E+00  0.00000000000E+00 -0.15474515956E+04  0.15474521168E+04  0.12699999809E+01 0. -1.
    10030    2    1    2    0    0  0.00000000000E+00  0.00000000000E+00 -0.36738575183E+03  0.27275186440E+04  0.27026626986E+04 0.  0.
        2    1    3    3  502    0 -0.47184565533E+03  0.69992365774E+03 -0.12486537683E+04  0.15072052555E+04  0.25500000920E-02 0. -1.
       -2    1    3    3    0  502  0.47184565533E+03 -0.69992365774E+03  0.88126801649E+03  0.12203133884E+04  0.25500000920E-02 0.  1.
</event>
<event>
 5   0  0.4448804E-06  0.2697165E+04  0.7818609E-02  0.8335925E-01
        2   -1    0    0  501    0  0.00000000000E+00  0.00000000000E+00  0.13779580414E+04  0.13779580414E+04  0.25500000920E-02 0. -1.
       -2   -1    0    0    0  501  0.00000000000E+00  0.00000000000E+00 -0.13198334230E+04  0.13198334230E+04  0.25500000920E-02 0.  1.
    10030    2    1    2    0    0  0.00000000000E+00  0.00000000000E+00  0.58124618367E+02  0.26977914644E+04  0.26971652367E+04 0.  0.
        2    1    3    3  502    0 -0.76973360262E+03  0.10541732809E+04  0.36811586903E+03  0.13562007293E+04  0.25500000920E-02 0. -1.
       -2    1    3    3    0  502  0.76973360262E+03 -0.10541732809E+04 -0.30999125067E+03  0.13415907351E+04  0.25500000920E-02 0.  1.
</event>
<event>
 5   0  0.1482875E-06  0.2710156E+04  0.7818609E-02  0.8331717E-01
       -3   -1    0    0    0  501  0.00000000000E+00  0.00000000000E+00  0.13129596502E+04  0.13129596541E+04  0.10100000352E+00 0. -1.
        3   -1    0    0  501    0  0.00000000000E+00  0.00000000000E+00 -0.13985470970E+04  0.13985471006E+04  0.10100000352E+00 0.  1.
    10030    2    1    2    0    0  0.00000000000E+00  0.00000000000E+00 -0.85587446730E+02  0.27115067547E+04  0.27101556542E+04 0.  0.
        1    1    3    3  502    0  0.52885042429E+03 -0.30258448561E+03  0.11681797839E+04  0.13175295631E+04  0.50400001928E-02 0. -1.
       -1    1    3    3    0  502 -0.52885042429E+03  0.30258448561E+03 -0.12537672306E+04  0.13939771916E+04  0.50400001928E-02 0.  1.
</event>
<event>
 5   0  0.4401659E-06  0.2724637E+04  0.7818609E-02  0.8327055E-01
       -2   -1    0    0    0  501  0.00000000000E+00  0.00000000000E+00  0.81360595906E+03  0.81360595907E+03  0.25500000920E-02 0.  1.
        2   -1    0    0  501    0  0.00000000000E+00  0.00000000000E+00 -0.22810945022E+04  0.22810945022E+04  0.25500000920E-02 0. -1.
    10030    2    1    2    0    0  0.00000000000E+00  0.00000000000E+00 -0.14674885431E+04  0.30947004613E+04  0.27246372824E+04 0.  0.
        5    1    3    3  502    0 -0.10315716811E+03  0.13479457078E+04 -0.54270011909E+03  0.14567582304E+04  0.46999998093E+01 0. -1.
       -5    1    3    3    0  502  0.10315716811E+03 -0.13479457078E+04 -0.92478842405E+03  0.16379422309E+04  0.46999998093E+01 0.  1.
</event>
<event>
 5   0  0.1753474E-06  0.2698848E+04  0.7818609E-02  0.8335379E-01
        1   -1    0    0  501    0  0.00000000000E+00  0.00000000000E+00  0.94454678096E+03  0.94454678098E+03  0.50400001928E-02 0.  1.
       -1   -1    0    0    0  501  0.00000000000E+00  0.00000000000E+00 -0.19278509850E+04  0.19278509850E+04  0.50400001928E-02 0. -1.
    10030    2    1    2    0    0  0.00000000000E+00  0.00000000000E+00 -0.98330420408E+03  0.28723977660E+04  0.26988482300E+04 0.  0.
        3    1    3    3  502    0 -0.10977644014E+04 -0.27317904319E+03 -0.12746450221E+04  0.17042398344E+04  0.10100000352E+00 0. -1.
       -3    1    3    3    0  502  0.10977644014E+04  0.27317904319E+03  0.29134081803E+03  0.11681579316E+04  0.10100000352E+00 0.  1.
</event>
<event>
 5   0  0.4439357E-06  0.2700435E+04  0.7818609E-02  0.8334864E-01
        2   -1    0    0  501    0  0.00000000000E+00  0.00000000000E+00  0.22526040750E+04  0.22526040750E+04  0.25500000920E-02 0.  1.
       -2   -1    0    0    0  501  0.00000000000E+00  0.00000000000E+00 -0.80932409485E+03  0.80932409485E+03  0.25500000920E-02 0. -1.
    10030    2    1    2    0    0  0.00000000000E+00  0.00000000000E+00  0.14432799802E+04  0.30619281699E+04  0.27004345977E+04 0.  0.
        4    1    3    3  502    0  0.27195104428E+03 -0.93357965766E+03 -0.34054204330E+03  0.10302906599E+04  0.12699999809E+01 0. -1.
       -4    1    3    3    0  502 -0.27195104428E+03  0.93357965766E+03  0.17838220235E+04  0.20316375100E+04  0.12699999809E+01 0.  1.
</event>
<event>
 5   0  0.1828511E-06  0.2706705E+04  0.7818609E-02  0.8332833E-01
        1   -1    0    0  501    0  0.00000000000E+00  0.00000000000E+00  0.13245296147E+04  0.13245296147E+04  0.50400001928E-02 0.  1.
       -1   -1    0    0    0  501  0.00000000000E+00  0.00000000000E+00 -0.13828023310E+04  0.13828023310E+04  0.50400001928E-02 0. -1.
    10030    2    1    2    0    0  0.00000000000E+00  0.00000000000E+00 -0.58272716331E+02  0.27073319457E+04  0.27067047410E+04 0.  0.
        4    1    3    3  502    0 -0.95822320974E+03  0.62283365070E+03 -0.75418193884E+03  0.13692718817E+04  0.12699999809E+01 0. -1.
       -4    1    3    3    0  502  0.95822320974E+03 -0.62283365070E+03  0.69590922251E+03  0.13380600640E+04  0.12699999809E+01 0.  1.
</event>
<event>
 5   0  0.1723605E-06  0.2694446E+04  0.7818609E-02  0.8336809E-01
        1   -1    0    0  501    0  0.00000000000E+00  0.00000000000E+00  0.25507835415E+04  0.25507835415E+04  0.50400001928E-02 0. -1.
       -1   -1    0    0    0  501  0.00000000000E+00  0.00000000000E+00 -0.71155015427E+03  0.71155015429E+03  0.50400001928E-02 0.  1.
    10030    2    1    2    0    0  0.00000000000E+00  0.00000000000E+00  0.18392333872E+04  0.32623336958E+04  0.26944464533E+04 0.  0.
        1    1    3    3  502    0 -0.55027189196E+03  0.97465138523E+02 -0.56459782296E+03  0.79439870973E+03  0.50400001928E-02 0.  1.
       -1    1    3    3    0  502  0.55027189196E+03 -0.97465138523E+02  0.24038312102E+04  0.24679349860E+04  0.50400001928E-02 0. -1.
</event>
<event>
 5   0  0.4401659E-06  0.2699906E+04  0.7818609E-02  0.8335036E-01
        2   -1    0    0  501    0  0.00000000000E+00  0.00000000000E+00  0.10363582086E+04  0.10363582086E+04  0.25500000920E-02 0.  1.
       -2   -1    0    0    0  501  0.00000000000E+00  0.00000000000E+00 -0.17584388696E+04  0.17584388696E+04  0.25500000920E-02 0. -1.
    10030    2    1    2    0    0  0.00000000000E+00  0.00000000000E+00 -0.72208066094E+03  0.27947970782E+04  0.26999055960E+04 0.  0.
        5    1    3    3  502    0 -0.72919184828E+03 -0.12360918174E+02 -0.15369577472E+04  0.17012156685E+04  0.46999998093E+01 0. -1.
       -5    1    3    3    0  502  0.72919184828E+03  0.12360918174E+02  0.81487708630E+03  0.10935814097E+04  0.46999998093E+01 0.  1.
</event>
<event>
 5   0  0.1732312E-06  0.2703998E+04  0.7818609E-02  0.8333709E-01
        1   -1    0    0  501    0  0.00000000000E+00  0.00000000000E+00  0.19598722404E+04  0.19598722404E+04  0.50400001928E-02 0. -1.
       -1   -1    0    0    0  501  0.00000000000E+00  0.00000000000E+00 -0.93266372917E+03  0.93266372918E+03  0.50400001928E-02 0.  1.
    10030    2    1    2    0    0  0.00000000000E+00  0.00000000000E+00  0.10272085112E+04  0.28925359696E+04  0.27039983376E+04 0.  0.
        5    1    3    3  502    0 -0.34084879772E+02  0.13154788192E+04  0.84544917425E+03  0.15641140301E+04  0.46999998093E+01 0. -1.
       -5    1    3    3    0  502  0.34084879772E+02 -0.13154788192E+04  0.18175933699E+03  0.13284219395E+04  0.46999998093E+01 0.  1.
</event>
<event>
 5   0  0.4487186E-06  0.2686437E+04  0.7818609E-02  0.8339419E-01
        2   -1    0    0  501    0  0.00000000000E+00  0.00000000000E+00  0.14480643774E+04  0.14480643774E+04  0.25500000920E-02 0.  1.
       -2   -1    0    0    0  501  0.00000000000E+00  0.00000000000E+00 -0.12459641616E+04  0.12459641616E+04  0.25500000920E-02 0. -1.
    10030    2    1    2    0    0  0.00000000000E+00  0.00000000000E+00  0.20210021573E+03  0.26940285390E+04  0.26864372823E+04 0.  0.
        3    1    3    3  502    0 -0.35690362112E+03  0.36084739650E+03 -0.11461060773E+04  0.12534553000E+04  0.10100000352E+00 0. -1.
       -3    1    3    3    0  502  0.35690362112E+03 -0.36084739650E+03  0.13482062930E+04  0.14405732391E+04  0.10100000352E+00 0.  1.
</event>
<event>
 5   0  0.4655882E-06  0.2690733E+04  0.7818609E-02  0.8338018E-01
       -2   -1    0    0    0  501  0.00000000000E+00  0.00000000000E+00  0.97356788192E+03  0.97356788193E+03  0.25500000920E-02 0.  1.
        2   -1    0    0  501    0  0.00000000000E+00  0.00000000000E+00 -0.18591524546E+04  0.18591524546E+04  0.25500000920E-02 0. -1.
    10030    2    1    2    0    0  0.00000000000E+00  0.00000000000E+00 -0.88558457269E+03  0.28327203365E+04  0.26907330729E+04 0.  0.
        1    1    3    3  502    0  0.79575720013E+03  0.25274566762E+03  0.66781723776E+03  0.10691537575E+04  0.50400001928E-02 0.  1.
       -1    1    3    3    0  502 -0.79575720013E+03 -0.25274566762E+03 -0.15534018104E+04  0.17635665791E+04  0.50400001928E-02 0. -1.
</event>
<event>
 5   0  0.1771016E-06  0.2689422E+04  0.7818609E-02  0.8338445E-01
        1   -1    0    0  501    0  0.00000000000E+00  0.00000000000E+00  0.15422660217E+04  0.15422660217E+04  0.50400001928E-02 0.  1.
       -1   -1    0    0    0  501  0.00000000000E+00  0.00000000000E+00 -0.11724618828E+04  0.11724618828E+04  0.50400001928E-02 0. -1.
    10030    2    1    2    0    0  0.00000000000E+00  0.00000000000E+00  0.36980413895E+03  0.27147279045E+04  0.26894223347E+04 0.  0.
        2    1    3    3  502    0  0.10344611802E+04 -0.15629815090E+03 -0.66786006959E+03  0.12411994674E+04  0.25500000920E-02 0. -1.
       -2    1    3    3    0  502 -0.10344611802E+04  0.15629815090E+03  0.10376642085E+04  0.14735284371E+04  0.25500000920E-02 0.  1.
</event>
<event>
 5   0  0.1771016E-06  0.2695628E+04  0.7818609E-02  0.8336425E-01
       -1   -1    0    0    0  501  0.00000000000E+00  0.00000000000E+00  0.18064579531E+04  0.18064579531E+04  0.50400001928E-02 0. -1.
        1   -1    0    0  501    0  0.00000000000E+00  0.00000000000E+00 -0.10056154152E+04  0.10056154152E+04  0.50400001928E-02 0.  1.
    10030    2    1    2    0    0  0.00000000000E+00  0.00000000000E+00  0.80084253798E+03  0.28120733683E+04  0.26956275444E+04 0.  0.
        2    1    3    3  502    0 -0.34987383803E+03  0.56816305346E+03 -0.82122599637E+03  0.10581271639E+04  0.25500000920E-02 0.  1.
       -2    1    3    3    0  502  0.34987383803E+03 -0.56816305346E+03  0.16220685343E+04  0.17539462044E+04  0.25500000920E-02 0. -1.
</event>
<event>
 5   0  0.4487186E-06  0.2693887E+04  0.7818609E-02  0.8336991E-01
       -2   -1    0    0    0  501  0.00000000000E+00  0.00000000000E+00  0.11545068187E+04  0.11545068187E+04  0.25500000920E-02 0. -1.
        2   -1    0    0  501    0  0.00000000000E+00  0.00000000000E+00 -0.15714560235E+04  0.15714560235E+04  0.25500000920E-02 0.  1.
    10030    2    1    2    0    0  0.00000000000E+00  0.00000000000E+00 -0.41694920481E+03  0.27259628422E+04  0.26938869274E+04 0.  0.
        3    1    3    3  502    0 -0.12598501468E+04  0.10419467410E+02  0.27356468542E+03  0.12892511799E+04  0.10100000352E+00 0.  1.
       -3    1    3    3    0  502  0.12598501468E+04 -0.10419467410E+02 -0.69051389023E+03  0.14367116622E+04  0.10100000352E+00 0. -1.
</event>
<event>
 5   0  0.4401659E-06  0.2692727E+04  0.7818609E-02  0.8337369E-01
        2   -1    0    0  501    0  0.00000000000E+00  0.00000000000E+00  0.20233714068E+04  0.20233714068E+04  0.25500000920E-02 0. -1.
       -2   -1    0    0    0  501  0.00000000000E+00  0.00000000000E+00 -0.89587840859E+03  0.89587840860E+03  0.25500000920E-02 0.  1.
    10030    2    1    2    0    0  0.00000000000E+00  0.00000000000E+00  0.11274929982E+04  0.29192498154E+04  0.26927270607E+04 0.  0.
        5    1    3    3  502    0 -0.43534534581E+03  0.99286183394E+03 -0.30177045346E+03  0.11253389214E+04  0.46999998093E+01 0.  1.
       -5    1    3    3    0  502  0.43534534581E+03 -0.99286183394E+03  0.14292634517E+04  0.17939108940E+04  0.46999998093E+01 0. -1.
</event>
<event>
 5   0  0.1828511E-06  0.2685604E+04  0.7818609E-02  0.8339691E-01
        1   -1    0    0  501    0  0.00000000000E+00  0.00000000000E+00  0.18879510704E+04  0.18879510704E+04  0.50400001928E-02 0.  1.
       -1   -1    0    0    0  501  0.00000000000E+00  0.00000000000E+00 -0.95506596072E+03  0.95506596074E+03  0.50400001928E-02 0. -1.
    10030    2    1    2    0    0  0.00000000000E+00  0.00000000000E+00  0.93288510965E+03  0.28430170311E+04  0.26856044406E+04 0.  0.
        4    1    3    3  502    0  0.46787398467E+03 -0.51475560394E+03  0.16823451699E+04  0.18204851773E+04  0.12699999809E+01 0.  1.
       -4    1    3    3    0  502 -0.46787398467E+03  0.51475560394E+03 -0.74946006021E+03  0.10225318538E+04  0.12699999809E+01 0. -1.
</event>
<event>
 5   0  0.1828511E-06  0.2697221E+04  0.7818609E-02  0.8335907E-01
       -1   -1    0    0    0  501  0.00000000000E+00  0.00000000000E+00  0.19628008496E+04  0.19628008496E+04  0.50400001928E-02 0.  1.
        1   -1    0    0  501    0  0.00000000000E+00  0.00000000000E+00 -0.92660998091E+03  0.92660998092E+03  0.50400001928E-02 0. -1.
    10030    2    1    2    0    0  0.00000000000E+00  0.00000000000E+00  0.10361908687E+04  0.28894108305E+04  0.26972214279E+04 0.  0.
        4    1    3    3  502    0 -0.10584030415E+04  0.99909034393E+01  0.14133672094E+04  0.17657647913E+04  0.12699999809E+01 0.  1.
       -4    1    3    3    0  502  0.10584030415E+04 -0.99909034393E+01 -0.37717634078E+03  0.11236460392E+04  0.12699999809E+01 0. -1.
</event>
<event>
 5   0  0.1723605E-06  0.2782990E+04  0.7818609E-02  0.8308569E-01
        1   -1    0    0  501    0  0.00000000000E+00  0.00000000000E+00  0.99158925621E+03  0.99158925622E+03  0.50400001928E-02 0.  1.
       -1   -1    0    0    0  501  0.00000000000E+00  0.00000000000E+00 -0.19526816597E+04  0.19526816597E+04  0.50400001928E-02 0. -1.
    10030    2    1    2    0    0  0.00000000000E+00  0.00000000000E+00 -0.96109240353E+03  0.29442709160E+04  0.27829898703E+04 0.  0.
        1    1    3    3  502    0  0.79282053811E+03 -0.18713764439E+03 -0.16740521876E+04  0.18617292044E+04  0.50400001928E-02 0. -1.
       -1    1    3    3    0  502 -0.79282053811E+03  0.18713764439E+03  0.71295978407E+03  0.10825417116E+04  0.50400001928E-02 0.  1.
</event>
<event>
 5   0  0.1723605E-06  0.2704084E+04  0.7818609E-02  0.8333681E-01
        1   -1    0    0  501    0  0.00000000000E+00  0.00000000000E+00  0.18259673963E+04  0.18259673963E+04  0.50400001928E-02 0. -1.
       -1   -1    0    0    0  501  0.00000000000E+00  0.00000000000E+00 -0.10011230612E+04  0.10011230612E+04  0.50400001928E-02 0.  1.
    10030    2    1    2    0    0  0.00000000000E+00  0.00000000000E+00  0.82484433507E+03  0.28270904575E+04  0.27040843696E+04 0.  0.
        1    1    3    3  502    0  0.60576326678E+03 -0.77203609531E+03 -0.55995522072E+03  0.11298401290E+04  0.50400001928E-02 0.  1.
       -1    1    3    3    0  502 -0.60576326678E+03  0.77203609531E+03  0.13847995558E+04  0.16972503285E+04  0.50400001928E-02 0. -1.
</event>
<event>
 5   0  0.1771016E-06  0.2702335E+04  0.7818609E-02  0.8334248E-01
       -1   -1    0    0    0  501  0.00000000000E+00  0.00000000000E+00  0.10496843237E+04  0.10496843237E+04  0.50400001928E-02 0.  1.
        1   -1    0    0  501    0  0.00000000000E+00  0.00000000000E+00 -0.17392405352E+04  0.17392405352E+04  0.50400001928E-02 0. -1.
    10030    2    1    2    0    0  0.00000000000E+00  0.00000000000E+00 -0.68955621142E+03  0.27889248589E+04  0.27023349348E+04 0.  0.
        2    1    3    3  502    0 -0.11927323419E+03  0.13807397088E+03  0.10369119206E+04  0.10528422754E+04  0.25500000920E-02 0.  1.
       -2    1    3    3    0  502  0.11927323419E+03 -0.13807397088E+03 -0.17264681320E+04  0.17360825835E+04  0.25500000920E-02 0. -1.
</event>
<event>
 5   0  0.1732312E-06  0.2738242E+04  0.7818609E-02  0.8322702E-01
        1   -1    0    0  501    0  0.00000000000E+00  0.00000000000E+00  0.81440418276E+03  0.81440418277E+03  0.50400001928E-02 0.  1.
       -1   -1    0    0    0  501  0.00000000000E+00  0.00000000000E+00 -0.23016733587E+04  0.23016733587E+04  0.50400001928E-02 0. -1.
    10030    2    1    2    0    0  0.00000000000E+00  0.00000000000E+00 -0.14872691759E+04  0.31160775415E+04  0.27382420716E+04 0.  0.
        5    1    3    3  502    0  0.89017044326E+03 -0.40745859937E+03 -0.18328020976E+04  0.20778863172E+04  0.46999998093E+01 0. -1.
       -5    1    3    3    0  502 -0.89017044326E+03  0.40745859937E+03  0.34553292164E+03  0.10381912243E+04  0.46999998093E+01 0.  1.
</event>
<event>
 5   0  0.1771016E-06  0.2698391E+04  0.7818609E-02  0.8335527E-01
       -1   -1    0    0    0  501  0.00000000000E+00  0.00000000000E+00  0.12273117219E+04  0.12273117219E+04  0.50400001928E-02 0. -1.
        1   -1    0    0  501    0  0.00000000000E+00  0.00000000000E+00 -0.14831832571E+04  0.14831832571E+04  0.50400001928E-02 0.  1.
    10030    2    1    2    0    0  0.00000000000E+00  0.00000000000E+00 -0.25587153518E+03  0.27104949790E+04  0.26983907776E+04 0.  0.
        2    1    3    3  502    0 -0.12916362047E+04 -0.80045545369E+02 -0.51121890397E+03  0.13914295320E+04  0.25500000920E-02 0.  1.
       -2    1    3    3    0  502  0.12916362047E+04  0.80045545369E+02  0.25534736879E+03  0.13190654470E+04  0.25500000920E-02 0. -1.
</event>
<event>
 5   0  0.4655882E-06  0.2669704E+04  0.7818609E-02  0.8344903E-01
       -2   -1    0    0    0  501  0.00000000000E+00  0.00000000000E+00  0.75587305659E+03  0.75587305660E+03  0.25500000920E-02 0.  1.
        2   -1    0    0  501    0  0.00000000000E+00  0.00000000000E+00 -0.23573129462E+04  0.23573129462E+04  0.25500000920E-02 0. -1.
    10030    2    1    2    0    0  0.00000000000E+00  0.00000000000E+00 -0.16014398896E+04  0.31131860028E+04  0.26697036105E+04 0.  0.
        1    1    3    3  502    0  0.15646038369E+03  0.13253476356E+04 -0.76767262041E+03  0.15395932772E+04  0.50400001928E-02 0. -1.
       -1    1    3    3    0  502 -0.15646038369E+03 -0.13253476356E+04 -0.83376726922E+03  0.15735927256E+04  0.50400001928E-02 0.  1.
</event>
<event>
 5   0  0.4655882E-06  0.2702459E+04  0.7818609E-02  0.8334207E-01
       -2   -1    0    0    0  501  0.00000000000E+00  0.00000000000E+00  0.86481612318E+03  0.86481612318E+03  0.25500000920E-02 0.  1.
        2   -1    0    0  501    0  0.00000000000E+00  0.00000000000E+00 -0.21112251760E+04  0.21112251760E+04  0.25500000920E-02 0. -1.
    10030    2    1    2    0    0  0.00000000000E+00  0.00000000000E+00 -0.12464090528E+04  0.29760412992E+04  0.27024593036E+04 0.  0.
        1    1    3    3  502    0 -0.90191541924E+03  0.97871217352E+03 -0.88027291463E+03  0.15956846011E+04  0.50400001928E-02 0.  1.
       -1    1    3    3    0  502  0.90191541924E+03 -0.97871217352E+03 -0.36613613817E+03  0.13803566980E+04  0.50400001928E-02 0. -1.
</event>
<event>
 5   0  0.4448804E-06  0.2697782E+04  0.7818609E-02  0.8335725E-01
        2   -1    0    0  501    0  0.00000000000E+00  0.00000000000E+00  0.14140848771E+04  0.14140848771E+04  0.25500000920E-02 0.  1.
       -2   -1    0    0    0  501  0.00000000000E+00  0.00000000000E+00 -0.12867027957E+04  0.12867027957E+04  0.25500000920E-02 0. -1.
    10030    2    1    2    0    0  0.00000000000E+00  0.00000000000E+00  0.12738208146E+03  0.27007876728E+04  0.26977820258E+04 0.  0.
        2    1    3    3  502    0 -0.32781675290E+03 -0.12435448911E+03  0.13676701763E+04  0.14118957375E+04  0.25500000920E-02 0.  1.
       -2    1    3    3    0  502  0.32781675290E+03  0.12435448911E+03 -0.12402880949E+04  0.12888919352E+04  0.25500000920E-02 0. -1.
</event>
<event>
 5   0  0.1828511E-06  0.2697192E+04  0.7818609E-02  0.8335917E-01
       -1   -1    0    0    0  501  0.00000000000E+00  0.00000000000E+00  0.12196441661E+04  0.12196441661E+04  0.50400001928E-02 0. -1.
        1   -1    0    0  501    0  0.00000000000E+00  0.00000000000E+00 -0.14911815092E+04  0.14911815092E+04  0.50400001928E-02 0.  1.
    10030    2    1    2    0    0  0.00000000000E+00  0.00000000000E+00 -0.27153734309E+03  0.27108256753E+04  0.26971917458E+04 0.  0.
        4    1    3    3  502    0 -0.84136689413E+03  0.94638658661E+03  0.33043314472E+03  0.13087144447E+04  0.12699999809E+01 0. -1.
       -4    1    3    3    0  502  0.84136689413E+03 -0.94638658661E+03 -0.60197048781E+03  0.14021112306E+04  0.12699999809E+01 0.  1.
</event>
<event>
 5   0  0.1828511E-06  0.2686437E+04  0.7818609E-02  0.8339419E-01
       -1   -1    0    0    0  501  0.00000000000E+00  0.00000000000E+00  0.19387705383E+04  0.19387705383E+04  0.50400001928E-02 0.  1.
        1   -1    0    0  501    0  0.00000000000E+00  0.00000000000E+00 -0.93060800259E+03  0.93060800261E+03  0.50400001928E-02 0. -1.
    10030    2    1    2    0    0  0.00000000000E+00  0.00000000000E+00  0.10081625357E+04  0.28693785410E+04  0.26864365827E+04 0.  0.
        4    1    3    3  502    0  0.48262114060E+03 -0.48665338099E+02 -0.83379126369E+03  0.96462477927E+03  0.12699999809E+01 0. -1.
       -4    1    3    3    0  502 -0.48262114060E+03  0.48665338099E+02  0.18419537994E+04  0.19047537617E+04  0.12699999809E+01 0.  1.
</event>
<event>
 5   0  0.1723605E-06  0.2706889E+04  0.7818609E-02  0.8332773E-01
        1   -1    0    0  501    0  0.00000000000E+00  0.00000000000E+00  0.25181893584E+04  0.25181893584E+04  0.50400001928E-02 0.  1.
       -1   -1    0    0    0  501  0.00000000000E+00  0.00000000000E+00 -0.72743196069E+03  0.72743196070E+03  0.50400001928E-02 0. -1.
    10030    2    1    2    0    0  0.00000000000E+00  0.00000000000E+00  0.17907573977E+04  0.32456213191E+04  0.27068885624E+04 0.  0.
        1    1    3    3  502    0  0.55114789158E+03 -0.81742657487E+03  0.20072170526E+04  0.22362626187E+04  0.50400001928E-02 0.  1.
       -1    1    3    3    0  502 -0.55114789158E+03  0.81742657487E+03 -0.21645965493E+03  0.10093587003E+04  0.50400001928E-02 0. -1.
</event>
<event>
 5   0  0.1771016E-06  0.2697606E+04  0.7818609E-02  0.8335782E-01
       -1   -1    0    0    0  501  0.00000000000E+00  0.00000000000E+00  0.13465836523E+04  0.13465836523E+04  0.50400001928E-02 0. -1.
        1   -1    0    0  501    0  0.00000000000E+00  0.00000000000E+00 -0.13510261604E+04  0.13510261604E+04  0.50400001928E-02 0.  1.
    10030    2    1    2    0    0  0.00000000000E+00  0.00000000000E+00 -0.44425080380E+01  0.26976098127E+04  0.26976061547E+04 0.  0.
        2    1    3    3  502    0  0.49653573245E+03 -0.27014285186E+03  0.12224211080E+04  0.13467881271E+04  0.25500000920E-02 0. -1.
       -2    1    3    3    0  502 -0.49653573245E+03  0.27014285186E+03 -0.12268636160E+04  0.13508216856E+04  0.25500000920E-02 0.  1.
</event>
<event>
 5   0  0.1771016E-06  0.2672986E+04  0.7818609E-02  0.8343824E-01
        1   -1    0    0  501    0  0.00000000000E+00  0.00000000000E+00  0.21192068702E+04  0.21192068702E+04  0.50400001928E-02 0. -1.
       -1   -1    0    0    0  501  0.00000000000E+00  0.00000000000E+00 -0.84286870856E+03  0.84286870858E+03  0.50400001928E-02 0.  1.
    10030    2    1    2    0    0  0.00000000000E+00  0.00000000000E+00  0.12763381616E+04  0.29620755788E+04  0.26729857148E+04 0.  0.
        2    1    3    3  502    0  0.53612101604E+03  0.54177312748E+03  0.18547515211E+04  0.20052548642E+04  0.25500000920E-02 0. -1.
       -2    1    3    3    0  502 -0.53612101604E+03 -0.54177312748E+03 -0.57841335942E+03  0.95682071459E+03  0.25500000920E-02 0.  1.
</event>
<event>
 5   0  0.4487186E-06  0.2696847E+04  0.7818609E-02  0.8336029E-01
        2   -1    0    0  501    0  0.00000000000E+00  0.00000000000E+00  0.21735859986E+04  0.21735859986E+04  0.25500000920E-02 0. -1.
       -2   -1    0    0    0  501  0.00000000000E+00  0.00000000000E+00 -0.83651912059E+03  0.83651912059E+03  0.25500000920E-02 0.  1.
    10030    2    1    2    0    0  0.00000000000E+00  0.00000000000E+00  0.13370668780E+04  0.30101051192E+04  0.26968472319E+04 0.  0.
        3    1    3    3  502    0  0.11604769997E+04 -0.53089970449E+03  0.18241547779E+03  0.12891224844E+04  0.10100000352E+00 0. -1.
       -3    1    3    3    0  502 -0.11604769997E+04  0.53089970449E+03  0.11546514002E+04  0.17209826348E+04  0.10100000352E+00 0.  1.
</event>
<event>
 5   0  0.4655882E-06  0.2510631E+04  0.7818609E-02  0.8399208E-01
       -2   -1    0    0    0  501  0.00000000000E+00  0.00000000000E+00  0.88937440278E+03  0.88937440278E+03  0.25500000920E-02 0.  1.
        2   -1    0    0  501    0  0.00000000000E+00  0.00000000000E+00 -0.17718258610E+04  0.17718258610E+04  0.25500000920E-02 0. -1.
    10030    2    1    2    0    0  0.00000000000E+00  0.00000000000E+00 -0.88245145821E+03  0.26612002638E+04  0.25106306514E+04 0.  0.
        1    1    3    3  502    0  0.68394304136E+03  0.10248984846E+04 -0.18678460228E+03  0.12462276980E+04  0.50400001928E-02 0.  1.
       -1    1    3    3    0  502 -0.68394304136E+03 -0.10248984846E+04 -0.69566685593E+03  0.14149725658E+04  0.50400001928E-02 0. -1.
</event>
<event>
 5   0  0.4487186E-06  0.2695438E+04  0.7818609E-02  0.8336487E-01
        2   -1    0    0  501    0  0.00000000000E+00  0.00000000000E+00  0.28112008539E+04  0.28112008539E+04  0.25500000920E-02 0. -1.
       -2   -1    0    0    0  501  0.00000000000E+00  0.00000000000E+00 -0.64611039564E+03  0.64611039564E+03  0.25500000920E-02 0.  1.
    10030    2    1    2    0    0  0.00000000000E+00  0.00000000000E+00  0.21650904583E+04  0.34573112495E+04  0.26954376980E+04 0.  0.
        3    1    3    3  502    0 -0.11023101247E+04  0.20248795387E+03  0.20426151580E+04  0.23298853354E+04  0.10100000352E+00 0.  1.
       -3    1    3    3    0  502  0.11023101247E+04 -0.20248795387E+03  0.12247530031E+03  0.11274259141E+04  0.10100000352E+00 0. -1.
</event>
<event>
 5   0  0.1723605E-06  0.2688678E+04  0.7818609E-02  0.8338688E-01
        1   -1    0    0  501    0  0.00000000000E+00  0.00000000000E+00  0.25662384098E+04  0.25662384098E+04  0.50400001928E-02 0.  1.
       -1   -1    0    0    0  501  0.00000000000E+00  0.00000000000E+00 -0.70423960654E+03  0.70423960655E+03  0.50400001928E-02 0. -1.
    10030    2    1    2    0    0  0.00000000000E+00  0.00000000000E+00  0.18619988033E+04  0.32704780164E+04  0.26886775396E+04 0.  0.
        1    1    3    3  502    0 -0.82155878821E+03  0.25882103180E+03  0.21864753252E+04  0.23500258545E+04  0.50400001928E-02 0.  1.
       -1    1    3    3    0  502  0.82155878821E+03 -0.25882103180E+03 -0.32447652194E+03  0.92045216188E+03  0.50400001928E-02 0. -1.
</event>
<event>
 5   0  0.4448804E-06  0.2699590E+04  0.7818609E-02  0.8335138E-01
        2   -1    0    0  501    0  0.00000000000E+00  0.00000000000E+00  0.97525795480E+03  0.97525795480E+03  0.25500000920E-02 0. -1.
       -2   -1    0    0    0  501  0.00000000000E+00  0.00000000000E+00 -0.18681687414E+04  0.18681687414E+04  0.25500000920E-02 0.  1.
    10030    2    1    2    0    0  0.00000000000E+00  0.00000000000E+00 -0.89291078663E+03  0.28434266962E+04  0.26995899140E+04 0.  0.
        2    1    3    3  502    0  0.32853722583E+03 -0.28928887381E+03  0.89841641414E+03  0.99938822010E+03  0.25500000920E-02 0. -1.
       -2    1    3    3    0  502 -0.32853722583E+03  0.28928887381E+03 -0.17913272008E+04  0.18440384761E+04  0.25500000920E-02 0.  1.
</event>
<event>
 5   0  0.4448804E-06  0.2696719E+04  0.7818609E-02  0.8336070E-01
       -2   -1    0    0    0  501  0.00000000000E+00  0.00000000000E+00  0.17429396625E+04  0.17429396625E+04  0.25500000920E-02 0. -1.
        2   -1    0    0  501    0  0.00000000000E+00  0.00000000000E+00 -0.10431071779E+04  0.10431071779E+04  0.25500000920E-02 0.  1.
    10030    2    1    2    0    0  0.00000000000E+00  0.00000000000E+00  0.69983248460E+03  0.27860468404E+04  0.26967186524E+04 0.  0.
        2    1    3    3  502    0 -0.11642923996E+04  0.38808381983E+03  0.92688385021E+03  0.15379530275E+04  0.25500000920E-02 0. -1.
       -2    1    3    3    0  502  0.11642923996E+04 -0.38808381983E+03 -0.22705136561E+03  0.12480938129E+04  0.25500000920E-02 0.  1.
</event>
<event>
 5   0  0.1723605E-06  0.2685890E+04  0.7818609E-02  0.8339598E-01
        1   -1    0    0  501    0  0.00000000000E+00  0.00000000000E+00  0.22085960219E+04  0.22085960219E+04  0.50400001928E-02 0.  1.
       -1   -1    0    0    0  501  0.00000000000E+00  0.00000000000E+00 -0.81658288843E+03  0.81658288845E+03  0.50400001928E-02 0. -1.
    10030    2    1    2    0    0  0.00000000000E+00  0.00000000000E+00  0.13920131334E+04  0.30251789103E+04  0.26858903320E+04 0.  0.
        1    1    3    3  502    0  0.11499793576E+04  0.36776437474E+03  0.13583364937E+04  0.18173555481E+04  0.50400001928E-02 0.  1.
       -1    1    3    3    0  502 -0.11499793576E+04 -0.36776437474E+03  0.33676639769E+02  0.12078233622E+04  0.50400001928E-02 0. -1.
</event>
<event>
 5   0  0.1828511E-06  0.2706054E+04  0.7818609E-02  0.8333043E-01
       -1   -1    0    0    0  501  0.00000000000E+00  0.00000000000E+00  0.17908231500E+04  0.17908231500E+04  0.50400001928E-02 0. -1.
        1   -1    0    0  501    0  0.00000000000E+00  0.00000000000E+00 -0.10222576676E+04  0.10222576676E+04  0.50400001928E-02 0.  1.
    10030    2    1    2    0    0  0.00000000000E+00  0.00000000000E+00  0.76856548244E+03  0.28130808176E+04  0.27060544683E+04 0.  0.
        4    1    3    3  502    0 -0.11409507518E+04  0.33576797632E+03  0.10549116599E+04  0.15897638111E+04  0.12699999809E+01 0.  1.
       -4    1    3    3    0  502  0.11409507518E+04 -0.33576797632E+03 -0.28634617748E+03  0.12233170065E+04  0.12699999809E+01 0. -1.
</event>
<event>
 5   0  0.1732312E-06  0.2694111E+04  0.7818609E-02  0.8336918E-01
       -1   -1    0    0    0  501  0.00000000000E+00  0.00000000000E+00  0.22551887037E+04  0.22551887037E+04  0.50400001928E-02 0.  1.
        1   -1    0    0  501    0  0.00000000000E+00  0.00000000000E+00 -0.80461481490E+03  0.80461481491E+03  0.50400001928E-02 0. -1.
    10030    2    1    2    0    0  0.00000000000E+00  0.00000000000E+00  0.14505738888E+04  0.30598035186E+04  0.26941107931E+04 0.  0.
        5    1    3    3  502    0 -0.10974838222E+04  0.50823942848E+02  0.16104941000E+04  0.19495556287E+04  0.46999998093E+01 0.  1.
       -5    1    3    3    0  502  0.10974838222E+04 -0.50823942848E+02 -0.15992021115E+03  0.11102478900E+04  0.46999998093E+01 0. -1.
</event>
<event>
 5   0  0.4439357E-06  0.2688440E+04  0.7818609E-02  0.8338765E-01
        2   -1    0    0  501    0  0.00000000000E+00  0.00000000000E+00  0.93506345100E+03  0.93506345100E+03  0.25500000920E-02 0. -1.
       -2   -1    0    0    0  501  0.00000000000E+00  0.00000000000E+00 -0.19324119494E+04  0.19324119494E+04  0.25500000920E-02 0.  1.
    10030    2    1    2    0    0  0.00000000000E+00  0.00000000000E+00 -0.99734849841E+03  0.28674754004E+04  0.26884402810E+04 0.  0.
        4    1    3    3  502    0  0.90029345005E+03  0.31911027297E+03  0.51012703147E+03  0.10828623475E+04  0.12699999809E+01 0. -1.
       -4    1    3    3    0  502 -0.90029345005E+03 -0.31911027297E+03 -0.15074755299E+04  0.17846130529E+04  0.12699999809E+01 0.  1.
</event>
<event>
 5   0  0.1732312E-06  0.2703113E+04  0.7818609E-02  0.8333996E-01
       -1   -1    0    0    0  501  0.00000000000E+00  0.00000000000E+00  0.90676839845E+03  0.90676839846E+03  0.50400001928E-02 0. -1.
        1   -1    0    0  501    0  0.00000000000E+00  0.00000000000E+00 -0.20145215882E+04  0.20145215882E+04  0.50400001928E-02 0.  1.
    10030    2    1    2    0    0  0.00000000000E+00  0.00000000000E+00 -0.11077531898E+04  0.29212899867E+04  0.27031126608E+04 0.  0.
        5    1    3    3  502    0  0.28022711959E+03  0.83847489783E+03  0.55094605834E+03  0.10416962331E+04  0.46999998093E+01 0. -1.
       -5    1    3    3    0  502 -0.28022711959E+03 -0.83847489783E+03 -0.16586992481E+04  0.18795937536E+04  0.46999998093E+01 0.  1.
</event>
<event>
 5   0  0.4487186E-06  0.2702112E+04  0.7818609E-02  0.8334320E-01
       -2   -1    0    0    0  501  0.00000000000E+00  0.00000000000E+00  0.18888536619E+04  0.18888536619E+04  0.25500000920E-02 0.  1.
        2   -1    0    0  501    0  0.00000000000E+00  0.00000000000E+00 -0.96638125331E+03  0.96638125332E+03  0.25500000920E-02 0. -1.
    10030    2    1    2    0    0  0.00000000000E+00  0.00000000000E+00  0.92247240859E+03  0.28552349152E+04  0.27021123360E+04 0.  0.
        3    1    3    3  502    0 -0.87727095957E+03  0.10266078627E+04  0.41609881935E+03  0.14130344221E+04  0.10100000352E+00 0. -1.
       -3    1    3    3    0  502  0.87727095957E+03 -0.10266078627E+04  0.50637358924E+03  0.14422004931E+04  0.10100000352E+00 0.  1.
</event>
<event>
 5   0  0.1732312E-06  0.2704196E+04  0.7818609E-02  0.8333645E-01
        1   -1    0    0  501    0  0.00000000000E+00  0.00000000000E+00  0.27436450228E+04  0.27436450228E+04  0.50400001928E-02 0.  1.
       -1   -1    0    0    0  501  0.00000000000E+00  0.00000000000E+00 -0.66632876635E+03  0.66632876636E+03  0.50400001928E-02 0. -1.
    10030    2    1    2    0    0  0.00000000000E+00  0.00000000000E+00  0.20773162565E+04  0.34099737892E+04  0.27041964451E+04 0.  0.
        5    1    3    3  502    0  0.81599881677E+02 -0.74502915468E+03 -0.38040519209E+03  0.84051007262E+03  0.46999998093E+01 0. -1.
       -5    1    3    3    0  502 -0.81599881677E+02  0.74502915468E+03  0.24577214486E+04  0.25694637166E+04  0.46999998093E+01 0.  1.
</event>
<event>
 5   0  0.1753474E-06  0.2704626E+04  0.7818609E-02  0.8333505E-01
       -1   -1    0    0    0  501  0.00000000000E+00  0.00000000000E+00  0.12000793405E+04  0.12000793405E+04  0.50400001928E-02 0.  1.
        1   -1    0    0  501    0  0.00000000000E+00  0.00000000000E+00 -0.15238584135E+04  0.15238584135E+04  0.50400001928E-02 0. -1.
    10030    2    1    2    0    0  0.00000000000E+00  0.00000000000E+00 -0.32377907292E+03  0.27239377540E+04  0.27046264067E+04 0.  0.
        3    1    3    3  502    0 -0.75429412361E+02 -0.10407265585E+04 -0.10282347335E+04  0.14649464301E+04  0.10100000352E+00 0. -1.
       -3    1    3    3    0  502  0.75429412361E+02  0.10407265585E+04  0.70445566056E+03  0.12589913239E+04  0.10100000352E+00 0.  1.
</event>
<event>
 5   0  0.1753474E-06  0.2696002E+04  0.7818609E-02  0.8336303E-01
        1   -1    0    0  501    0  0.00000000000E+00  0.00000000000E+00  0.20366335953E+04  0.20366335953E+04  0.50400001928E-02 0. -1.
       -1   -1    0    0    0  501  0.00000000000E+00  0.00000000000E+00 -0.89221095401E+03  0.89221095403E+03  0.50400001928E-02 0.  1.
    10030    2    1    2    0    0  0.00000000000E+00  0.00000000000E+00  0.11444226413E+04  0.29288445494E+04  0.26960020794E+04 0.  0.
        3    1    3    3  502    0 -0.64177220276E+03  0.84135452868E+03  0.14794131707E+04  0.18189041599E+04  0.10100000352E+00 0. -1.
       -3    1    3    3    0  502  0.64177220276E+03 -0.84135452868E+03 -0.33499052937E+03  0.11099403894E+04  0.10100000352E+00 0.  1.
</event>
<event>
 5   0  0.1482875E-06  0.2709150E+04  0.7818609E-02  0.8332042E-01
       -3   -1    0    0    0  501  0.00000000000E+00  0.00000000000E+00  0.11966633514E+04  0.11966633557E+04  0.10100000352E+00 0. -1.
        3   -1    0    0  501    0  0.00000000000E+00  0.00000000000E+00 -0.15333250279E+04  0.15333250313E+04  0.10100000352E+00 0.  1.
    10030    2    1    2    0    0  0.00000000000E+00  0.00000000000E+00 -0.33666167655E+03  0.27299883869E+04  0.27091503296E+04 0.  0.
        4    1    3    3  502    0  0.12546851322E+04  0.44302936490E+02  0.34418194231E+03  0.13017912096E+04  0.12699999809E+01 0.  1.
       -4    1    3    3    0  502 -0.12546851322E+04 -0.44302936490E+02 -0.68084361886E+03  0.14281971773E+04  0.12699999809E+01 0. -1.
</event>
<event>
 5   0  0.4439357E-06  0.2684314E+04  0.7818609E-02  0.8340113E-01
       -2   -1    0    0    0  501  0.00000000000E+00  0.00000000000E+00  0.12469812102E+04  0.12469812102E+04  0.25500000920E-02 0. -1.
        2   -1    0    0  501    0  0.00000000000E+00  0.00000000000E+00 -0.14445968719E+04  0.14445968719E+04  0.25500000920E-02 0.  1.
    10030    2    1    2    0    0  0.00000000000E+00  0.00000000000E+00 -0.19761566164E+03  0.26915780821E+04  0.26843138085E+04 0.  0.
        4    1    3    3  502    0  0.22261704511E+03 -0.40648970712E+03  0.11642005535E+04  0.12530589660E+04  0.12699999809E+01 0. -1.
       -4    1    3    3    0  502 -0.22261704511E+03  0.40648970712E+03 -0.13618162151E+04  0.14385191161E+04  0.12699999809E+01 0.  1.
</event>
<event>
 5   0  0.4487186E-06  0.2709693E+04  0.7818609E-02  0.8331867E-01
       -2   -1    0    0    0  501  0.00000000000E+00  0.00000000000E+00  0.76194559130E+03  0.76194559131E+03  0.25500000920E-02 0. -1.
        2   -1    0    0  501    0  0.00000000000E+00  0.00000000000E+00 -0.24091070915E+04  0.24091070915E+04  0.25500000920E-02 0.  1.
    10030    2    1    2    0    0  0.00000000000E+00  0.00000000000E+00 -0.16471615002E+04  0.31710526828E+04  0.27096926227E+04 0.  0.
        3    1    3    3  502    0  0.11729190684E+04 -0.62161249067E+01 -0.16171456070E+04  0.19977331418E+04  0.10100000352E+00 0.  1.
       -3    1    3    3    0  502 -0.11729190684E+04  0.62161249067E+01 -0.30015893211E+02  0.11733195410E+04  0.10100000352E+00 0. -1.
</event>
<event>
 5   0  0.4448804E-06  0.2652830E+04  0.7818609E-02  0.8350474E-01
        2   -1    0    0  501    0  0.00000000000E+00  0.00000000000E+00  0.15171931941E+04  0.15171931941E+04  0.25500000920E-02 0. -1.
       -2   -1    0    0    0  501  0.00000000000E+00  0.00000000000E+00 -0.11596263582E+04  0.11596263582E+04  0.25500000920E-02 0.  1.
    10030    2    1    2    0    0  0.00000000000E+00  0.00000000000E+00  0.35756683583E+03  0.26768195523E+04  0.26528303514E+04 0.  0.
        2    1    3    3  502    0  0.33794016033E+03 -0.10216011308E+04 -0.60379734013E+03  0.12338734337E+04  0.25500000920E-02 0.  1.
       -2    1    3    3    0  502 -0.33794016033E+03  0.10216011308E+04  0.96136417596E+03  0.14429461186E+04  0.25500000920E-02 0. -1.
</event>
<event>
 5   0  0.4655882E-06  0.2684678E+04  0.7818609E-02  0.8339994E-01
       -2   -1    0    0    0  501  0.00000000000E+00  0.00000000000E+00  0.22555599757E+04  0.22555599757E+04  0.25500000920E-02 0. -1.
        2   -1    0    0  501    0  0.00000000000E+00  0.00000000000E+00 -0.79885857675E+03  0.79885857675E+03  0.25500000920E-02 0.  1.
    10030    2    1    2    0    0  0.00000000000E+00  0.00000000000E+00  0.14567013990E+04  0.30544185525E+04  0.26846775836E+04 0.  0.
        1    1    3    3  502    0  0.99267218524E+02 -0.37126800332E+03  0.21916316954E+04  0.22250715493E+04  0.50400001928E-02 0. -1.
       -1    1    3    3    0  502 -0.99267218524E+02  0.37126800332E+03 -0.73493029648E+03  0.82934700318E+03  0.50400001928E-02 0.  1.
</event>
<event>
 5   0  0.4401659E-06  0.2705942E+04  0.7818609E-02  0.8333079E-01
       -2   -1    0    0    0  501  0.00000000000E+00  0.00000000000E+00  0.95443403940E+03  0.95443403941E+03  0.25500000920E-02 0. -1.
        2   -1    0    0  501    0  0.00000000000E+00  0.00000000000E+00 -0.19179228917E+04  0.19179228917E+04  0.25500000920E-02 0.  1.
    10030    2    1    2    0    0  0.00000000000E+00  0.00000000000E+00 -0.96348885227E+03  0.28723569311E+04  0.27059422705E+04 0.  0.
        5    1    3    3  502    0  0.88459556939E+03  0.16027833203E+03  0.59153117204E+03  0.10761643381E+04  0.46999998093E+01 0. -1.
       -5    1    3    3    0  502 -0.88459556939E+03 -0.16027833203E+03 -0.15550200243E+04  0.17961925930E+04  0.46999998093E+01 0.  1.
</event>
<event>
 5   0  0.4487186E-06  0.2676822E+04  0.7818609E-02  0.8342565E-01
       -2   -1    0    0    0  501  0.00000000000E+00  0.00000000000E+00  0.81211791238E+03  0.81211791239E+03  0.25500000920E-02 0.  1.
        2   -1    0    0  501    0  0.00000000000E+00  0.00000000000E+00 -0.22057688070E+04  0.22057688070E+04  0.25500000920E-02 0. -1.
    10030    2    1    2    0    0  0.00000000000E+00  0.00000000000E+00 -0.13936508946E+04  0.30178867194E+04  0.26768222644E+04 0.  0.
        3    1    3    3  502    0  0.50474486590E+03  0.85572439934E+03 -0.17079295367E+04  0.19758681484E+04  0.10100000352E+00 0. -1.
       -3    1    3    3    0  502 -0.50474486590E+03 -0.85572439934E+03  0.31427864207E+03  0.10420185710E+04  0.10100000352E+00 0.  1.
</event>
<event>
 5   0  0.1753474E-06  0.2713937E+04  0.7818609E-02  0.8330497E-01
        1   -1    0    0  501    0  0.00000000000E+00  0.00000000000E+00  0.15019571793E+04  0.15019571793E+04  0.50400001928E-02 0.  1.
       -1   -1    0    0    0  501  0.00000000000E+00  0.00000000000E+00 -0.12259760241E+04  0.12259760241E+04  0.50400001928E-02 0. -1.
    10030    2    1    2    0    0  0.00000000000E+00  0.00000000000E+00  0.27598115520E+03  0.27279332035E+04  0.27139369861E+04 0.  0.
        3    1    3    3  502    0  0.11490585418E+04  0.53479718579E+03 -0.34929808589E+03  0.13146682948E+04  0.10100000352E+00 0. -1.
       -3    1    3    3    0  502 -0.11490585418E+04 -0.53479718579E+03  0.62527924109E+03  0.14132649086E+04  0.10100000352E+00 0.  1.
</event>
<event>
 5   0  0.1753474E-06  0.2703502E+04  0.7818609E-02  0.8333869E-01
        1   -1    0    0  501    0  0.00000000000E+00  0.00000000000E+00  0.22884406786E+04  0.22884406786E+04  0.50400001928E-02 0. -1.
       -1   -1    0    0    0  501  0.00000000000E+00  0.00000000000E+00 -0.79846124189E+03  0.79846124191E+03  0.50400001928E-02 0.  1.
    10030    2    1    2    0    0  0.00000000000E+00  0.00000000000E+00  0.14899794367E+04  0.30869019205E+04  0.27035023109E+04 0.  0.
        3    1    3    3  502    0  0.12209221162E+03  0.37143062603E+03 -0.73248826943E+03  0.83030493985E+03  0.10100000352E+00 0.  1.
       -3    1    3    3    0  502 -0.12209221162E+03 -0.37143062603E+03  0.22224677061E+04  0.22565969806E+04  0.10100000352E+00 0. -1.
</event>
<event>
 5   0  0.1732312E-06  0.2701572E+04  0.7818609E-02  0.8334495E-01
       -1   -1    0    0    0  501  0.00000000000E+00  0.00000000000E+00  0.16789188302E+04  0.16789188302E+04  0.50400001928E-02 0. -1.
        1   -1    0    0  501    0  0.00000000000E+00  0.00000000000E+00 -0.10867847103E+04  0.10867847103E+04  0.50400001928E-02 0.  1.
    10030    2    1    2    0    0  0.00000000000E+00  0.00000000000E+00  0.59213411992E+03  0.27657035405E+04  0.27015723677E+04 0.  0.
        5    1    3    3  502    0 -0.68507489815E+03  0.51053829074E+03 -0.77501206481E+03  0.11535348946E+04  0.46999998093E+01 0.  1.
       -5    1    3    3    0  502  0.68507489815E+03 -0.51053829074E+03  0.13671461847E+04  0.16121686459E+04  0.46999998093E+01 0. -1.
</event>
<event>
 5   0  0.1753474E-06  0.2621099E+04  0.7818609E-02  0.8361069E-01
        1   -1    0    0  501    0  0.00000000000E+00  0.00000000000E+00  0.11073792418E+04  0.11073792418E+04  0.50400001928E-02 0. -1.
       -1   -1    0    0    0  501  0.00000000000E+00  0.00000000000E+00 -0.15509957293E+04  0.15509957293E+04  0.50400001928E-02 0.  1.
    10030    2    1    2    0    0  0.00000000000E+00  0.00000000000E+00 -0.44361648758E+03  0.26583749711E+04  0.26210993684E+04 0.  0.
        3    1    3    3  502    0  0.14820203142E+03 -0.65396891561E+03 -0.13638328824E+04  0.15197629177E+04  0.10100000352E+00 0.  1.
       -3    1    3    3    0  502 -0.14820203142E+03  0.65396891561E+03  0.92021639481E+03  0.11386120534E+04  0.10100000352E+00 0. -1.
</event>
<event>
 5   0  0.4448804E-06  0.2721784E+04  0.7818609E-02  0.8327971E-01
        2   -1    0    0  501    0  0.00000000000E+00  0.00000000000E+00  0.33395098244E+04  0.33395098244E+04  0.25500000920E-02 0. -1.
       -2   -1    0    0    0  501  0.00000000000E+00  0.00000000000E+00 -0.55458065777E+03  0.55458065778E+03  0.25500000920E-02 0.  1.
    10030    2    1    2    0    0  0.00000000000E+00  0.00000000000E+00  0.27849291666E+04  0.38940904821E+04  0.27217843817E+04 0.  0.
        2    1    3    3  502    0  0.99490401276E+03 -0.78190638296E+03  0.21089872152E+04  0.24594793474E+04  0.25500000920E-02 0. -1.
       -2    1    3    3    0  502 -0.99490401276E+03  0.78190638296E+03  0.67594195138E+03  0.14346111348E+04  0.25500000920E-02 0.  1.
</event>
<event>
 5   0  0.4487186E-06  0.2696215E+04  0.7818609E-02  0.8336234E-01
        2   -1    0    0  501    0  0.00000000000E+00  0.00000000000E+00  0.13504667999E+04  0.13504667999E+04  0.25500000920E-02 0. -1.
       -2   -1    0    0    0  501  0.00000000000E+00  0.00000000000E+00 -0.13457524807E+04  0.13457524807E+04  0.25500000920E-02 0.  1.
    10030    2    1    2    0    0  0.00000000000E+00  0.00000000000E+00  0.47143191352E+01  0.26962192806E+04  0.26962151591E+04 0.  0.
        3    1    3    3  502    0 -0.27567272620E+03  0.11818369977E+04 -0.58472115586E+03  0.13470831383E+04  0.10100000352E+00 0.  1.
       -3    1    3    3    0  502  0.27567272620E+03 -0.11818369977E+04  0.58943547499E+03  0.13491361423E+04  0.10100000352E+00 0. -1.
</event>
<event>
 5   0  0.1753474E-06  0.2698854E+04  0.7818609E-02  0.8335377E-01
        1   -1    0    0  501    0  0.00000000000E+00  0.00000000000E+00  0.20919451482E+04  0.20919451482E+04  0.50400001928E-02 0. -1.
       -1   -1    0    0    0  501  0.00000000000E+00  0.00000000000E+00 -0.87045915780E+03  0.87045915782E+03  0.50400001928E-02 0.  1.
    10030    2    1    2    0    0  0.00000000000E+00  0.00000000000E+00  0.12214859904E+04  0.29624043060E+04  0.26988536914E+04 0.  0.
        3    1    3    3  502    0  0.49883043729E+03  0.55385611535E+03  0.18454752539E+04  0.19903183978E+04  0.10100000352E+00 0. -1.
       -3    1    3    3    0  502 -0.49883043729E+03 -0.55385611535E+03 -0.62398926354E+03  0.97208590818E+03  0.10100000352E+00 0.  1.
</event>
<event>
 5   0  0.1771016E-06  0.2689604E+04  0.7818609E-02  0.8338386E-01
       -1   -1    0    0    0  501  0.00000000000E+00  0.00000000000E+00  0.16080315130E+04  0.16080315130E+04  0.50400001928E-02 0.  1.
        1   -1    0    0  501    0  0.00000000000E+00  0.00000000000E+00 -0.11246624715E+04  0.11246624715E+04  0.50400001928E-02 0. -1.
    10030    2    1    2    0    0  0.00000000000E+00  0.00000000000E+00  0.48336904147E+03  0.27326939845E+04  0.26896042055E+04 0.  0.
        2    1    3    3  502    0 -0.71998012182E+03  0.90858330837E+03  0.93421859953E+03  0.14888449872E+04  0.25500000920E-02 0.  1.
       -2    1    3    3    0  502  0.71998012182E+03 -0.90858330837E+03 -0.45084955806E+03  0.12438489973E+04  0.25500000920E-02 0. -1.
</event>
<event>
 5   0  0.4448804E-06  0.2692890E+04  0.7818609E-02  0.8337315E-01
        2   -1    0    0  501    0  0.00000000000E+00  0.00000000000E+00  0.13483774863E+04  0.13483774863E+04  0.25500000920E-02 0.  1.
       -2   -1    0    0    0  501  0.00000000000E+00  0.00000000000E+00 -0.13445156820E+04  0.13445156820E+04  0.25500000920E-02 0. -1.
    10030    2    1    2    0    0  0.00000000000E+00  0.00000000000E+00  0.38618042622E+01  0.26928931683E+04  0.26928903993E+04 0.  0.
        2    1    3    3  502    0 -0.39975496369E+03  0.50582440745E+03 -0.11801245902E+04  0.13447514308E+04  0.25500000920E-02 0. -1.
       -2    1    3    3    0  502  0.39975496369E+03 -0.50582440745E+03  0.11839863945E+04  0.13481417375E+04  0.25500000920E-02 0.  1.
</event>
<event>
 5   0  0.1828511E-06  0.2722221E+04  0.7818609E-02  0.8327831E-01
        1   -1    0    0  501    0  0.00000000000E+00  0.00000000000E+00  0.14702719385E+04  0.14702719385E+04  0.50400001928E-02 0. -1.
       -1   -1    0    0    0  501  0.00000000000E+00  0.00000000000E+00 -0.12600536385E+04  0.12600536385E+04  0.50400001928E-02 0.  1.
    10030    2    1    2    0    0  0.00000000000E+00  0.00000000000E+00  0.21021829997E+03  0.27303255770E+04  0.27222207888E+04 0.  0.
        4    1    3    3  502    0  0.46848142637E+03  0.75988578705E+03  0.11356499376E+04  0.14445080996E+04  0.12699999809E+01 0. -1.
       -4    1    3    3    0  502 -0.46848142637E+03 -0.75988578705E+03 -0.92543163765E+03  0.12858174774E+04  0.12699999809E+01 0.  1.
</event>
<event>
 5   0  0.4655882E-06  0.2691296E+04  0.7818609E-02  0.8337835E-01
        2   -1    0    0  501    0  0.00000000000E+00  0.00000000000E+00  0.15493394802E+04  0.15493394802E+04  0.25500000920E-02 0.  1.
       -2   -1    0    0    0  501  0.00000000000E+00  0.00000000000E+00 -0.11687357559E+04  0.11687357559E+04  0.25500000920E-02 0. -1.
    10030    2    1    2    0    0  0.00000000000E+00  0.00000000000E+00  0.38060372423E+03  0.27180752361E+04  0.26912959321E+04 0.  0.
        1    1    3    3  502    0  0.12537362352E+04 -0.41126430042E+03 -0.76477195822E+02  0.13216813662E+04  0.50400001928E-02 0.  1.
       -1    1    3    3    0  502 -0.12537362352E+04  0.41126430042E+03  0.45708092005E+03  0.13963938699E+04  0.50400001928E-02 0. -1.
</event>
<event>
 5   0  0.1828511E-06  0.2698416E+04  0.7818609E-02  0.8335519E-01
        1   -1    0    0  501    0  0.00000000000E+00  0.00000000000E+00  0.17486458655E+04  0.17486458656E+04  0.50400001928E-02 0. -1.
       -1   -1    0    0    0  501  0.00000000000E+00  0.00000000000E+00 -0.10410128799E+04  0.10410128799E+04  0.50400001928E-02 0.  1.
    10030    2    1    2    0    0  0.00000000000E+00  0.00000000000E+00  0.70763298565E+03  0.27896587455E+04  0.26984164752E+04 0.  0.
        4    1    3    3  502    0 -0.21475714671E+03 -0.85152515245E+03  0.14127287349E+04  0.16634361450E+04  0.12699999809E+01 0. -1.
       -4    1    3    3    0  502  0.21475714671E+03  0.85152515245E+03 -0.70509574921E+03  0.11262226005E+04  0.12699999809E+01 0.  1.
</event>
<event>
 5   0  0.1753474E-06  0.2698528E+04  0.7818609E-02  0.8335483E-01
        1   -1    0    0  501    0  0.00000000000E+00  0.00000000000E+00  0.31914839443E+04  0.31914839443E+04  0.50400001928E-02 0. -1.
       -1   -1    0    0    0  501  0.00000000000E+00  0.00000000000E+00 -0.57042868289E+03  0.57042868291E+03  0.50400001928E-02 0.  1.
    10030    2    1    2    0    0  0.00000000000E+00  0.00000000000E+00  0.26210552614E+04  0.37619126272E+04  0.26985284752E+04 0.  0.
        3    1    3    3  502    0  0.31093899961E+03 -0.24443489387E+03  0.31088565377E+04  0.31339145586E+04  0.10100000352E+00 0. -1.
       -3    1    3    3    0  502 -0.31093899961E+03  0.24443489387E+03 -0.48780127625E+03  0.62799806858E+03  0.10100000352E+00 0.  1.
</event>
<event>
 5   0  0.1771016E-06  0.2703927E+04  0.7818609E-02  0.8333732E-01
       -1   -1    0    0    0  501  0.00000000000E+00  0.00000000000E+00  0.12404209001E+04  0.12404209001E+04  0.50400001928E-02 0. -1.
        1   -1    0    0  501    0  0.00000000000E+00  0.00000000000E+00 -0.14735359410E+04  0.14735359410E+04  0.50400001928E-02 0.  1.
    10030    2    1    2    0    0  0.00000000000E+00  0.00000000000E+00 -0.23311504091E+03  0.27139568411E+04  0.27039266102E+04 0.  0.
        2    1    3    3  502    0 -0.13263093960E+04 -0.26197475476E+03 -0.12538744470E+03  0.13577368660E+04  0.25500000920E-02 0.  1.
       -2    1    3    3    0  502  0.13263093960E+04  0.26197475476E+03 -0.10772759621E+03  0.13562199751E+04  0.25500000920E-02 0. -1.
</event>
<event>
 5   0  0.4655882E-06  0.2713870E+04  0.7818609E-02  0.8330519E-01
       -2   -1    0    0    0  501  0.00000000000E+00  0.00000000000E+00  0.74953652604E+03  0.74953652604E+03  0.25500000920E-02 0.  1.
        2   -1    0    0  501    0  0.00000000000E+00  0.00000000000E+00 -0.24565479475E+04  0.24565479475E+04  0.25500000920E-02 0. -1.
    10030    2    1    2    0    0  0.00000000000E+00  0.00000000000E+00 -0.17070114215E+04  0.32060844736E+04  0.27138698677E+04 0.  0.
        1    1    3    3  502    0 -0.11902050025E+03 -0.12701500871E+04 -0.30722548758E+03  0.13121869621E+04  0.50400001928E-02 0.  1.
       -1    1    3    3    0  502  0.11902050025E+03  0.12701500871E+04 -0.13997859339E+04  0.18938975115E+04  0.50400001928E-02 0. -1.
</event>
<event>
 5   0  0.4401659E-06  0.2704108E+04  0.7818609E-02  0.8333673E-01
       -2   -1    0    0    0  501  0.00000000000E+00  0.00000000000E+00  0.74558632244E+03  0.74558632244E+03  0.25500000920E-02 0.  1.
        2   -1    0    0  501    0  0.00000000000E+00  0.00000000000E+00 -0.24518292965E+04  0.24518292965E+04  0.25500000920E-02 0. -1.
    10030    2    1    2    0    0  0.00000000000E+00  0.00000000000E+00 -0.17062429740E+04  0.31974156189E+04  0.27041082733E+04 0.  0.
        5    1    3    3  502    0  0.38185340585E+03 -0.54899329440E+03 -0.22425748184E+04  0.23401644316E+04  0.46999998093E+01 0. -1.
       -5    1    3    3    0  502 -0.38185340585E+03  0.54899329440E+03  0.53633184437E+03  0.85725118730E+03  0.46999998093E+01 0.  1.
</event>
<event>
 5   0  0.1732312E-06  0.2746402E+04  0.7818609E-02  0.8320104E-01
        1   -1    0    0  501    0  0.00000000000E+00  0.00000000000E+00  0.26896068139E+04  0.26896068139E+04  0.50400001928E-02 0.  1.
       -1   -1    0    0    0  501  0.00000000000E+00  0.00000000000E+00 -0.70109900448E+03  0.70109900450E+03  0.50400001928E-02 0. -1.
    10030    2    1    2    0    0  0.00000000000E+00  0.00000000000E+00  0.19885078094E+04  0.33907058184E+04  0.27464017621E+04 0.  0.
        5    1    3    3  502    0  0.13352986294E+03  0.13579564641E+04  0.11846489271E+04  0.18070116638E+04  0.46999998093E+01 0. -1.
       -5    1    3    3    0  502 -0.13352986294E+03 -0.13579564641E+04  0.80385888236E+03  0.15836941546E+04  0.46999998093E+01 0.  1.
</event>
<event>
 5   0  0.4439357E-06  0.2698364E+04  0.7818609E-02  0.8335536E-01
       -2   -1    0    0    0  501  0.00000000000E+00  0.00000000000E+00  0.20334954223E+04  0.20334954223E+04  0.25500000920E-02 0.  1.
        2   -1    0    0  501    0  0.00000000000E+00  0.00000000000E+00 -0.89515436627E+03  0.89515436627E+03  0.25500000920E-02 0. -1.
    10030    2    1    2    0    0  0.00000000000E+00  0.00000000000E+00  0.11383410560E+04  0.29286497886E+04  0.26983641756E+04 0.  0.
        4    1    3    3  502    0  0.95428373118E+03  0.93450684670E+03  0.36229895570E+03  0.13839156883E+04  0.12699999809E+01 0. -1.
       -4    1    3    3    0  502 -0.95428373118E+03 -0.93450684670E+03  0.77604210031E+03  0.15447341003E+04  0.12699999809E+01 0.  1.
</event>
<event>
 5   0  0.1723605E-06  0.2705055E+04  0.7818609E-02  0.8333367E-01
        1   -1    0    0  501    0  0.00000000000E+00  0.00000000000E+00  0.20357712844E+04  0.20357712844E+04  0.50400001928E-02 0. -1.
       -1   -1    0    0    0  501  0.00000000000E+00  0.00000000000E+00 -0.89859344621E+03  0.89859344623E+03  0.50400001928E-02 0.  1.
    10030    2    1    2    0    0  0.00000000000E+00  0.00000000000E+00  0.11371778382E+04  0.29343647306E+04  0.27050550709E+04 0.  0.
        1    1    3    3  502    0  0.12896460483E+04  0.36492410957E+03  0.37160756990E+03  0.13908446073E+04  0.50400001928E-02 0.  1.
       -1    1    3    3    0  502 -0.12896460483E+04 -0.36492410957E+03  0.76557026827E+03  0.15435201234E+04  0.50400001928E-02 0. -1.
</event>
<event>
 5   0  0.1732312E-06  0.2706483E+04  0.7818609E-02  0.8332905E-01
        1   -1    0    0  501    0  0.00000000000E+00  0.00000000000E+00  0.13969983583E+04  0.13969983583E+04  0.50400001928E-02 0.  1.
       -1   -1    0    0    0  501  0.00000000000E+00  0.00000000000E+00 -0.13108548812E+04  0.13108548812E+04  0.50400001928E-02 0. -1.
    10030    2    1    2    0    0  0.00000000000E+00  0.00000000000E+00  0.86143477082E+02  0.27078532394E+04  0.27064826746E+04 0.  0.
        5    1    3    3  502    0  0.17096243027E+03 -0.10503120480E+04 -0.79332796149E+03  0.13273186864E+04  0.46999998093E+01 0. -1.
       -5    1    3    3    0  502 -0.17096243027E+03  0.10503120480E+04  0.87947143857E+03  0.13805345530E+04  0.46999998093E+01 0.  1.
</event>
<event>
 5   0  0.1771016E-06  0.2699172E+04  0.7818609E-02  0.8335274E-01
        1   -1    0    0  501    0  0.00000000000E+00  0.00000000000E+00  0.12084381068E+04  0.12084381068E+04  0.50400001928E-02 0. -1.
       -1   -1    0    0    0  501  0.00000000000E+00  0.00000000000E+00 -0.15072205307E+04  0.15072205307E+04  0.50400001928E-02 0.  1.
    10030    2    1    2    0    0  0.00000000000E+00  0.00000000000E+00 -0.29878242394E+03  0.27156586375E+04  0.26991722618E+04 0.  0.
        2    1    3    3  502    0 -0.68109882658E+03 -0.72065644274E+03  0.77170123936E+03  0.12564888073E+04  0.25500000920E-02 0.  1.
       -2    1    3    3    0  502  0.68109882658E+03  0.72065644274E+03 -0.10704836633E+04  0.14591698302E+04  0.25500000920E-02 0. -1.
</event>
<event>
 5   0  0.1771016E-06  0.2691958E+04  0.7818609E-02  0.8337619E-01
        1   -1    0    0  501    0  0.00000000000E+00  0.00000000000E+00  0.16694274417E+04  0.16694274417E+04  0.50400001928E-02 0.  1.
       -1   -1    0    0    0  501  0.00000000000E+00  0.00000000000E+00 -0.10851977032E+04  0.10851977032E+04  0.50400001928E-02 0. -1.
    10030    2    1    2    0    0  0.00000000000E+00  0.00000000000E+00  0.58422973850E+03  0.27546251449E+04  0.26919575223E+04 0.  0.
        2    1    3    3  502    0  0.19611514640E+03 -0.13314327823E+04  0.31463680726E+03  0.13820892609E+04  0.25500000920E-02 0. -1.
       -2    1    3    3    0  502 -0.19611514640E+03  0.13314327823E+04  0.26959293124E+03  0.13725358841E+04  0.25500000920E-02 0.  1.
</event>
<event>
 5   0  0.1482875E-06  0.2740992E+04  0.7818609E-02  0.8321826E-01
       -3   -1    0    0    0  501  0.00000000000E+00  0.00000000000E+00  0.17360419183E+04  0.17360419212E+04  0.10100000352E+00 0. -1.
        3   -1    0    0  501    0  0.00000000000E+00  0.00000000000E+00 -0.10819201397E+04  0.10819201444E+04  0.10100000352E+00 0.  1.
    10030    2    1    2    0    0  0.00000000000E+00  0.00000000000E+00  0.65412177862E+03  0.28179620656E+04  0.27409915910E+04 0.  0.
        4    1    3    3  502    0  0.45931028448E+03 -0.46243789855E+03  0.15665032835E+04  0.16966876252E+04  0.12699999809E+01 0. -1.
       -4    1    3    3    0  502 -0.45931028448E+03  0.46243789855E+03 -0.91238150485E+03  0.11212744404E+04  0.12699999809E+01 0.  1.
</event>
<event>
 5   0  0.1482875E-06  0.2699481E+04  0.7818609E-02  0.8335173E-01
       -3   -1    0    0    0  501  0.00000000000E+00  0.00000000000E+00  0.15027800706E+04  0.15027800740E+04  0.10100000352E+00 0. -1.
        3   -1    0    0  501    0  0.00000000000E+00  0.00000000000E+00 -0.12122862359E+04  0.12122862401E+04  0.10100000352E+00 0.  1.
    10030    2    1    2    0    0  0.00000000000E+00  0.00000000000E+00  0.29049383468E+03  0.27150663141E+04  0.26994811394E+04 0.  0.
        2    1    3    3  502    0  0.81149715516E+03 -0.10365413734E+04  0.44505167677E+03  0.13896102499E+04  0.25500000920E-02 0. -1.
       -2    1    3    3    0  502 -0.81149715516E+03  0.10365413734E+04 -0.15455784209E+03  0.13254560642E+04  0.25500000920E-02 0.  1.
</event>
<event>
 5   0  0.1771016E-06  0.2710579E+04  0.7818609E-02  0.8331581E-01
       -1   -1    0    0    0  501  0.00000000000E+00  0.00000000000E+00  0.10746502563E+04  0.10746502563E+04  0.50400001928E-02 0. -1.
        1   -1    0    0  501    0  0.00000000000E+00  0.00000000000E+00 -0.17092165353E+04  0.17092165353E+04  0.50400001928E-02 0.  1.
    10030    2    1    2    0    0  0.00000000000E+00  0.00000000000E+00 -0.63456627900E+03  0.27838667917E+04  0.27105792649E+04 0.  0.
        2    1    3    3  502    0  0.10559641547E+04 -0.76450860842E+03  0.63242643850E+02  0.13051947519E+04  0.25500000920E-02 0. -1.
       -2    1    3    3    0  502 -0.10559641547E+04  0.76450860842E+03 -0.69780892285E+03  0.14786720398E+04  0.25500000920E-02 0.  1.
</event>
<event>
 5   0  0.1771016E-06  0.2700884E+04  0.7818609E-02  0.8334718E-01
       -1   -1    0    0    0  501  0.00000000000E+00  0.00000000000E+00  0.14721848517E+04  0.14721848517E+04  0.50400001928E-02 0.  1.
        1   -1    0    0  501    0  0.00000000000E+00  0.00000000000E+00 -0.12387664470E+04  0.12387664471E+04  0.50400001928E-02 0. -1.
    10030    2    1    2    0    0  0.00000000000E+00  0.00000000000E+00  0.23341840466E+03  0.27109512988E+04  0.27008837059E+04 0.  0.
        2    1    3    3  502    0  0.13449651068E+04 -0.61140554388E+02  0.22209529655E+03  0.13645496058E+04  0.25500000920E-02 0. -1.
       -2    1    3    3    0  502 -0.13449651068E+04  0.61140554388E+02  0.11323108112E+02  0.13464016929E+04  0.25500000920E-02 0.  1.
</event>
<event>
 5   0  0.1771016E-06  0.2704554E+04  0.7818609E-02  0.8333529E-01
       -1   -1    0    0    0  501  0.00000000000E+00  0.00000000000E+00  0.20936664274E+04  0.20936664274E+04  0.50400001928E-02 0. -1.
        1   -1    0    0  501    0  0.00000000000E+00  0.00000000000E+00 -0.87342166933E+03  0.87342166935E+03  0.50400001928E-02 0.  1.
    10030    2    1    2    0    0  0.00000000000E+00  0.00000000000E+00  0.12202447581E+04  0.29670880968E+04  0.27045544003E+04 0.  0.
        2    1    3    3  502    0 -0.11499941556E+04  0.52729528531E+03  0.86132586748E+02  0.12680479874E+04  0.25500000920E-02 0.  1.
       -2    1    3    3    0  502  0.11499941556E+04 -0.52729528531E+03  0.11341121714E+04  0.16990401093E+04  0.25500000920E-02 0. -1.
</event>
<event>
 5   0  0.4655882E-06  0.2709256E+04  0.7818609E-02  0.8332008E-01
        2   -1    0    0  501    0  0.00000000000E+00  0.00000000000E+00  0.16734709288E+04  0.16734709288E+04  0.25500000920E-02 0. -1.
       -2   -1    0    0    0  501  0.00000000000E+00  0.00000000000E+00 -0.10965332046E+04  0.10965332046E+04  0.25500000920E-02 0.  1.
    10030    2    1    2    0    0  0.00000000000E+00  0.00000000000E+00  0.57693772412E+03  0.27700041334E+04  0.27092555733E+04 0.  0.
        1    1    3    3  502    0  0.95455915275E+03  0.48788210230E+03  0.11351707915E+04  0.15613535307E+04  0.50400001928E-02 0. -1.
       -1    1    3    3    0  502 -0.95455915275E+03 -0.48788210230E+03 -0.55823306740E+03  0.12086506027E+04  0.50400001928E-02 0.  1.
</event>
<event>
 5   0  0.1732312E-06  0.2677668E+04  0.7818609E-02  0.8342288E-01
        1   -1    0    0  501    0  0.00000000000E+00  0.00000000000E+00  0.19422796550E+04  0.19422796550E+04  0.50400001928E-02 0. -1.
       -1   -1    0    0    0  501  0.00000000000E+00  0.00000000000E+00 -0.92287229057E+03  0.92287229058E+03  0.50400001928E-02 0.  1.
    10030    2    1    2    0    0  0.00000000000E+00  0.00000000000E+00  0.10194073644E+04  0.28651519456E+04  0.26776676972E+04 0.  0.
        5    1    3    3  502    0  0.45093289398E+02 -0.13236083746E+04  0.29980162542E+03  0.13578938245E+04  0.46999998093E+01 0. -1.
       -5    1    3    3    0  502 -0.45093289398E+02  0.13236083746E+04  0.71960573900E+03  0.15072581211E+04  0.46999998093E+01 0.  1.
</event>
<event>
 5   0  0.1771016E-06  0.2698689E+04  0.7818609E-02  0.8335430E-01
       -1   -1    0    0    0  501  0.00000000000E+00  0.00000000000E+00  0.77976688133E+03  0.77976688134E+03  0.50400001928E-02 0.  1.
        1   -1    0    0  501    0  0.00000000000E+00  0.00000000000E+00 -0.23349681272E+04  0.23349681272E+04  0.50400001928E-02 0. -1.
    10030    2    1    2    0    0  0.00000000000E+00  0.00000000000E+00 -0.15552012458E+04  0.31147350085E+04  0.26986891741E+04 0.  0.
        2    1    3    3  502    0 -0.11270662160E+04  0.12781111806E+03  0.65901904060E+02  0.11362028860E+04  0.25500000920E-02 0.  1.
       -2    1    3    3    0  502  0.11270662160E+04 -0.12781111806E+03 -0.16211031499E+04  0.19785321225E+04  0.25500000920E-02 0. -1.
</event>
<event>
 5   0  0.1723605E-06  0.2687993E+04  0.7818609E-02  0.8338911E-01
        1   -1    0    0  501    0  0.00000000000E+00  0.00000000000E+00  0.16361126664E+04  0.16361126664E+04  0.50400001928E-02 0.  1.
       -1   -1    0    0    0  501  0.00000000000E+00  0.00000000000E+00 -0.11040359083E+04  0.11040359083E+04  0.50400001928E-02 0. -1.
    10030    2    1    2    0    0  0.00000000000E+00  0.00000000000E+00  0.53207675811E+03  0.27401485747E+04  0.26879934030E+04 0.  0.
        1    1    3    3  502    0  0.93532086468E+03  0.21114850688E+03  0.12260748377E+04  0.15564923127E+04  0.50400001928E-02 0.  1.
       -1    1    3    3    0  502 -0.93532086468E+03 -0.21114850688E+03 -0.69399807963E+03  0.11836562619E+04  0.50400001928E-02 0. -1.
</event>
<event>
 5   0  0.4401659E-06  0.2689119E+04  0.7818609E-02  0.8338544E-01
        2   -1    0    0  501    0  0.00000000000E+00  0.00000000000E+00  0.12750066471E+04  0.12750066471E+04  0.25500000920E-02 0.  1.
       -2   -1    0    0    0  501  0.00000000000E+00  0.00000000000E+00 -0.14179061570E+04  0.14179061570E+04  0.25500000920E-02 0. -1.
    10030    2    1    2    0    0  0.00000000000E+00  0.00000000000E+00 -0.14289950990E+03  0.26929128041E+04  0.26891186475E+04 0.  0.
        5    1    3    3  502    0 -0.95985574659E+03  0.16537939548E+02 -0.10141711786E+04  0.13964819466E+04  0.46999998093E+01 0. -1.
       -5    1    3    3    0  502  0.95985574659E+03 -0.16537939548E+02  0.87127166866E+03  0.12964308575E+04  0.46999998093E+01 0.  1.
</event>
<event>
 5   0  0.4401659E-06  0.2619353E+04  0.7818609E-02  0.8361657E-01
       -2   -1    0    0    0  501  0.00000000000E+00  0.00000000000E+00  0.11881607253E+04  0.11881607253E+04  0.25500000920E-02 0. -1.
        2   -1    0    0  501    0  0.00000000000E+00  0.00000000000E+00 -0.14436201914E+04  0.14436201914E+04  0.25500000920E-02 0.  1.
    10030    2    1    2    0    0  0.00000000000E+00  0.00000000000E+00 -0.25545946606E+03  0.26317809167E+04  0.26193532130E+04 0.  0.
        5    1    3    3  502    0  0.38252299358E+03  0.32267285661E+03  0.10882972700E+04  0.11978541860E+04  0.46999998093E+01 0. -1.
       -5    1    3    3    0  502 -0.38252299358E+03 -0.32267285661E+03 -0.13437567361E+04  0.14339267306E+04  0.46999998093E+01 0.  1.
</event>
<event>
 5   0  0.4439357E-06  0.2706928E+04  0.7818609E-02  0.8332761E-01
       -2   -1    0    0    0  501  0.00000000000E+00  0.00000000000E+00  0.11476541105E+04  0.11476541105E+04  0.25500000920E-02 0. -1.
        2   -1    0    0  501    0  0.00000000000E+00  0.00000000000E+00 -0.15961815682E+04  0.15961815682E+04  0.25500000920E-02 0.  1.
    10030    2    1    2    0    0  0.00000000000E+00  0.00000000000E+00 -0.44852745773E+03  0.27438356788E+04  0.27069276591E+04 0.  0.
        4    1    3    3  502    0 -0.10684442118E+04  0.36736855537E+03  0.53110157256E+03  0.12484402999E+04  0.12699999809E+01 0. -1.
       -4    1    3    3    0  502  0.10684442118E+04 -0.36736855537E+03 -0.97962903028E+03  0.14953953788E+04  0.12699999809E+01 0.  1.
</event>
<event>
 5   0  0.1732312E-06  0.2692740E+04  0.7818609E-02  0.8337365E-01
        1   -1    0    0  501    0  0.00000000000E+00  0.00000000000E+00  0.12662361859E+04  0.12662361860E+04  0.50400001928E-02 0. -1.
       -1   -1    0    0    0  501  0.00000000000E+00  0.00000000000E+00 -0.14315746139E+04  0.14315746140E+04  0.50400001928E-02 0.  1.
    10030    2    1    2    0    0  0.00000000000E+00  0.00000000000E+00 -0.16533842800E+03  0.26978107999E+04  0.26927395560E+04 0.  0.
        5    1    3    3  502    0  0.32781316214E+03  0.57589993065E+03  0.10915308745E+04  0.12769432013E+04  0.46999998093E+01 0. -1.
       -5    1    3    3    0  502 -0.32781316214E+03 -0.57589993065E+03 -0.12568693025E+04  0.14208675986E+04  0.46999998093E+01 0.  1.
</event>
<event>
 5   0  0.4448804E-06  0.2699095E+04  0.7818609E-02  0.8335299E-01
        2   -1    0    0  501    0  0.00000000000E+00  0.00000000000E+00  0.14916900022E+04  0.14916900022E+04  0.25500000920E-02 0. -1.
       -2   -1    0    0    0  501  0.00000000000E+00  0.00000000000E+00 -0.12209495117E+04  0.12209495117E+04  0.25500000920E-02 0.  1.
    10030    2    1    2    0    0  0.00000000000E+00  0.00000000000E+00  0.27074049049E+03  0.27126395140E+04  0.26990947963E+04 0.  0.
        2    1    3    3  502    0  0.10916650263E+04 -0.61223411451E+02  0.93041358470E+03  0.14356706706E+04  0.25500000920E-02 0. -1.
       -2    1    3    3    0  502 -0.10916650263E+04  0.61223411451E+02 -0.65967309421E+03  0.12769688434E+04  0.25500000920E-02 0.  1.
</event>
<event>
 5   0  0.1771016E-06  0.2704174E+04  0.7818609E-02  0.8333652E-01
        1   -1    0    0  501    0  0.00000000000E+00  0.00000000000E+00  0.19474706373E+04  0.19474706373E+04  0.50400001928E-02 0.  1.
       -1   -1    0    0    0  501  0.00000000000E+00  0.00000000000E+00 -0.93872471469E+03  0.93872471471E+03  0.50400001928E-02 0. -1.
    10030    2    1    2    0    0  0.00000000000E+00  0.00000000000E+00  0.10087459226E+04  0.28861953520E+04  0.27041736767E+04 0.  0.
        2    1    3    3  502    0  0.11994289035E+03  0.46946859749E+03 -0.84287325915E+03  0.97222548412E+03  0.25500000920E-02 0. -1.
       -2    1    3    3    0  502 -0.11994289035E+03 -0.46946859749E+03  0.18516191818E+04  0.19139698679E+04  0.25500000920E-02 0.  1.
</event>
<event>
 5   0  0.4448804E-06  0.2695252E+04  0.7818609E-02  0.8336547E-01
        2   -1    0    0  501    0  0.00000000000E+00  0.00000000000E+00  0.14105853932E+04  0.14105853932E+04  0.25500000920E-02 0. -1.
       -2   -1    0    0    0  501  0.00000000000E+00  0.00000000000E+00 -0.12874771041E+04  0.12874771041E+04  0.25500000920E-02 0.  1.
    10030    2    1    2    0    0  0.00000000000E+00  0.00000000000E+00  0.12310828912E+03  0.26980624973E+04  0.26952524165E+04 0.  0.
        2    1    3    3  502    0 -0.40548801523E+03  0.12493129924E+04  0.36335298986E+03  0.13628018487E+04  0.25500000920E-02 0. -1.
       -2    1    3    3    0  502  0.40548801523E+03 -0.12493129924E+04 -0.24024470074E+03  0.13352606486E+04  0.25500000920E-02 0.  1.
</event>
<event>
 5   0  0.1732312E-06  0.2710424E+04  0.7818609E-02  0.8331631E-01
        1   -1    0    0  501    0  0.00000000000E+00  0.00000000000E+00  0.10438450614E+04  0.10438450614E+04  0.50400001928E-02 0.  1.
       -1   -1    0    0    0  501  0.00000000000E+00  0.00000000000E+00 -0.17594562543E+04  0.17594562543E+04  0.50400001928E-02 0. -1.
    10030    2    1    2    0    0  0.00000000000E+00  0.00000000000E+00 -0.71561119295E+03  0.28033013157E+04  0.27104241158E+04 0.  0.
        5    1    3    3  502    0 -0.10672358937E+04 -0.42091376147E+03  0.38831353419E+03  0.12111855094E+04  0.46999998093E+01 0.  1.
       -5    1    3    3    0  502  0.10672358937E+04  0.42091376147E+03 -0.11039247271E+04  0.15921158063E+04  0.46999998093E+01 0. -1.
</event>
<event>
 5   0  0.4439357E-06  0.2705062E+04  0.7818609E-02  0.8333364E-01
        2   -1    0    0  501    0  0.00000000000E+00  0.00000000000E+00  0.22609650224E+04  0.22609650225E+04  0.25500000920E-02 0. -1.
       -2   -1    0    0    0  501  0.00000000000E+00  0.00000000000E+00 -0.80909708232E+03  0.80909708233E+03  0.25500000920E-02 0.  1.
    10030    2    1    2    0    0  0.00000000000E+00  0.00000000000E+00  0.14518679401E+04  0.30700621048E+04  0.27050620717E+04 0.  0.
        4    1    3    3  502    0 -0.43076351158E+03 -0.27435583728E+03  0.21473251233E+04  0.22072233975E+04  0.12699999809E+01 0. -1.
       -4    1    3    3    0  502  0.43076351158E+03  0.27435583728E+03 -0.69545718314E+03  0.86283870732E+03  0.12699999809E+01 0.  1.
</event>
<event>
 5   0  0.1723605E-06  0.2691977E+04  0.7818609E-02  0.8337613E-01
        1   -1    0    0  501    0  0.00000000000E+00  0.00000000000E+00  0.18474406160E+04  0.18474406160E+04  0.50400001928E-02 0. -1.
       -1   -1    0    0    0  501  0.00000000000E+00  0.00000000000E+00 -0.98064576538E+03  0.98064576539E+03  0.50400001928E-02 0.  1.
    10030    2    1    2    0    0  0.00000000000E+00  0.00000000000E+00  0.86679485063E+03  0.28280863814E+04  0.26919768327E+04 0.  0.
        1    1    3    3  502    0  0.74428626308E+03  0.89516391928E+03 -0.27633758988E+03  0.11965128279E+04  0.50400001928E-02 0.  1.
       -1    1    3    3    0  502 -0.74428626308E+03 -0.89516391928E+03  0.11431324405E+04  0.16315735535E+04  0.50400001928E-02 0. -1.
</event>
<event>
 5   0  0.1732312E-06  0.2690549E+04  0.7818609E-02  0.8338078E-01
       -1   -1    0    0    0  501  0.00000000000E+00  0.00000000000E+00  0.13419773254E+04  0.13419773254E+04  0.50400001928E-02 0.  1.
        1   -1    0    0  501    0  0.00000000000E+00  0.00000000000E+00 -0.13485793614E+04  0.13485793614E+04  0.50400001928E-02 0. -1.
    10030    2    1    2    0    0  0.00000000000E+00  0.00000000000E+00 -0.66020360115E+01  0.26905566867E+04  0.26905485868E+04 0.  0.
        5    1    3    3  502    0 -0.75938403317E+02  0.30401882373E+03 -0.13115659199E+04  0.13484885385E+04  0.46999998093E+01 0. -1.
       -5    1    3    3    0  502  0.75938403317E+02 -0.30401882373E+03  0.13049638839E+04  0.13420681482E+04  0.46999998093E+01 0.  1.
</event>
<event>
 5   0  0.1723605E-06  0.2713073E+04  0.7818609E-02  0.8330776E-01
       -1   -1    0    0    0  501  0.00000000000E+00  0.00000000000E+00  0.13466409391E+04  0.13466409391E+04  0.50400001928E-02 0.  1.
        1   -1    0    0  501    0  0.00000000000E+00  0.00000000000E+00 -0.13665050167E+04  0.13665050167E+04  0.50400001928E-02 0. -1.
    10030    2    1    2    0    0  0.00000000000E+00  0.00000000000E+00 -0.19864077635E+02  0.27131459558E+04  0.27130732382E+04 0.  0.
        1    1    3    3  502    0 -0.60031656955E+03  0.12152490906E+04  0.44670367403E+02  0.13561732108E+04  0.50400001928E-02 0.  1.
       -1    1    3    3    0  502  0.60031656955E+03 -0.12152490906E+04 -0.64534445038E+02  0.13569727450E+04  0.50400001928E-02 0. -1.
</event>
<event>
 5   0  0.4448804E-06  0.2694308E+04  0.7818609E-02  0.8336854E-01
        2   -1    0    0  501    0  0.00000000000E+00  0.00000000000E+00  0.18583264157E+04  0.18583264157E+04  0.25500000920E-02 0. -1.
       -2   -1    0    0    0  501  0.00000000000E+00  0.00000000000E+00 -0.97659022060E+03  0.97659022061E+03  0.25500000920E-02 0.  1.
    10030    2    1    2    0    0  0.00000000000E+00  0.00000000000E+00  0.88173619513E+03  0.28349166363E+04  0.26943076323E+04 0.  0.
        2    1    3    3  502    0 -0.74591813801E+03 -0.96896157803E+03 -0.15391382800E+03  0.12324649588E+04  0.25500000920E-02 0.  1.
       -2    1    3    3    0  502  0.74591813801E+03  0.96896157803E+03  0.10356500231E+04  0.16024516775E+04  0.25500000920E-02 0. -1.
</event>
<event>
 5   0  0.4487186E-06  0.2731855E+04  0.7818609E-02  0.8324743E-01
        2   -1    0    0  501    0  0.00000000000E+00  0.00000000000E+00  0.21802793626E+04  0.21802793626E+04  0.25500000920E-02 0. -1.
       -2   -1    0    0    0  501  0.00000000000E+00  0.00000000000E+00 -0.85574260701E+03  0.85574260701E+03  0.25500000920E-02 0.  1.
    10030    2    1    2    0    0  0.00000000000E+00  0.00000000000E+00  0.13245367556E+04  0.30360219696E+04  0.27318550077E+04 0.  0.
        3    1    3    3  502    0  0.31569653746E+03 -0.97766159441E+03  0.16626426862E+04  0.19544480574E+04  0.10100000352E+00 0. -1.
       -3    1    3    3    0  502 -0.31569653746E+03  0.97766159441E+03 -0.33810593064E+03  0.10815739122E+04  0.10100000352E+00 0.  1.
</event>
<event>
 5   0  0.1732312E-06  0.2709698E+04  0.7818609E-02  0.8331865E-01
       -1   -1    0    0    0  501  0.00000000000E+00  0.00000000000E+00  0.13383001950E+04  0.13383001950E+04  0.50400001928E-02 0. -1.
        1   -1    0    0  501    0  0.00000000000E+00  0.00000000000E+00 -0.13716023812E+04  0.13716023812E+04  0.50400001928E-02 0.  1.
    10030    2    1    2    0    0  0.00000000000E+00  0.00000000000E+00 -0.33302186178E+02  0.27099025762E+04  0.27096979420E+04 0.  0.
        5    1    3    3  502    0 -0.13458645000E+04 -0.15531263159E+03 -0.56785589028E+01  0.13548164458E+04  0.46999998093E+01 0.  1.
       -5    1    3    3    0  502  0.13458645000E+04  0.15531263159E+03 -0.27623627276E+02  0.13550861303E+04  0.46999998093E+01 0. -1.
</event>
<event>
 5   0  0.4401659E-06  0.2674023E+04  0.7818609E-02  0.8343483E-01
        2   -1    0    0  501    0  0.00000000000E+00  0.00000000000E+00  0.15179202811E+04  0.15179202811E+04  0.25500000920E-02 0.  1.
       -2   -1    0    0    0  501  0.00000000000E+00  0.00000000000E+00 -0.11776635300E+04  0.11776635300E+04  0.25500000920E-02 0. -1.
    10030    2    1    2    0    0  0.00000000000E+00  0.00000000000E+00  0.34025675109E+03  0.26955838110E+04  0.26740227048E+04 0.  0.
        5    1    3    3  502    0 -0.13354606477E+04  0.63810078252E+02  0.16297192461E+03  0.13468885648E+04  0.46999998093E+01 0. -1.
       -5    1    3    3    0  502  0.13354606477E+04 -0.63810078252E+02  0.17728482649E+03  0.13486952463E+04  0.46999998093E+01 0.  1.
</event>
<event>
 5   0  0.4401659E-06  0.2698656E+04  0.7818609E-02  0.8335441E-01
       -2   -1    0    0    0  501  0.00000000000E+00  0.00000000000E+00  0.14215304316E+04  0.14215304316E+04  0.25500000920E-02 0.  1.
        2   -1    0    0  501    0  0.00000000000E+00  0.00000000000E+00 -0.12807924744E+04  0.12807924744E+04  0.25500000920E-02 0. -1.
    10030    2    1    2    0    0  0.00000000000E+00  0.00000000000E+00  0.14073795725E+03  0.27023229060E+04  0.26986555756E+04 0.  0.
        5    1    3    3  502    0 -0.17870856980E+03 -0.22534851999E+03  0.13904717928E+04  0.14199128864E+04  0.46999998093E+01 0.  1.
       -5    1    3    3    0  502  0.17870856980E+03  0.22534851999E+03 -0.12497338356E+04  0.12824100195E+04  0.46999998093E+01 0. -1.
</event>
<event>
 5   0  0.4401659E-06  0.2675120E+04  0.7818609E-02  0.8343123E-01
       -2   -1    0    0    0  501  0.00000000000E+00  0.00000000000E+00  0.66202894814E+03  0.66202894814E+03  0.25500000920E-02 0.  1.
        2   -1    0    0  501    0  0.00000000000E+00  0.00000000000E+00 -0.27023990885E+04  0.27023990885E+04  0.25500000920E-02 0. -1.
    10030    2    1    2    0    0  0.00000000000E+00  0.00000000000E+00 -0.20403701404E+04  0.33644280367E+04  0.26751197551E+04 0.  0.
        5    1    3    3  502    0 -0.11312928959E+03 -0.39667518017E+02  0.65524820065E+03  0.66614115817E+03  0.46999998093E+01 0.  1.
       -5    1    3    3    0  502  0.11312928959E+03  0.39667518017E+02 -0.26956183410E+04  0.26982868785E+04  0.46999998093E+01 0. -1.
</event>
<event>
 5   0  0.1723605E-06  0.2698132E+04  0.7818609E-02  0.8335611E-01
        1   -1    0    0  501    0  0.00000000000E+00  0.00000000000E+00  0.22646980102E+04  0.22646980102E+04  0.50400001928E-02 0.  1.
       -1   -1    0    0    0  501  0.00000000000E+00  0.00000000000E+00 -0.80363012113E+03  0.80363012115E+03  0.50400001928E-02 0. -1.
    10030    2    1    2    0    0  0.00000000000E+00  0.00000000000E+00  0.14610678891E+04  0.30683281314E+04  0.26981323439E+04 0.  0.
        1    1    3    3  502    0 -0.87986125970E+03  0.97877215625E+03  0.39351295882E+03  0.13736823574E+04  0.50400001928E-02 0. -1.
       -1    1    3    3    0  502  0.87986125970E+03 -0.97877215625E+03  0.10675549303E+04  0.16946457740E+04  0.50400001928E-02 0.  1.
</event>
<event>
 5   0  0.4439357E-06  0.2703430E+04  0.7818609E-02  0.8333893E-01
        2   -1    0    0  501    0  0.00000000000E+00  0.00000000000E+00  0.11977579607E+04  0.11977579607E+04  0.25500000920E-02 0. -1.
       -2   -1    0    0    0  501  0.00000000000E+00  0.00000000000E+00 -0.15254614869E+04  0.15254614869E+04  0.25500000920E-02 0.  1.
    10030    2    1    2    0    0  0.00000000000E+00  0.00000000000E+00 -0.32770352618E+03  0.27232194477E+04  0.27034301469E+04 0.  0.
        4    1    3    3  502    0 -0.12396338529E+04 -0.16048079237E+02 -0.70648078674E+03  0.14269079665E+04  0.12699999809E+01 0.  1.
       -4    1    3    3    0  502  0.12396338529E+04  0.16048079237E+02  0.37877726056E+03  0.12963114811E+04  0.12699999809E+01 0. -1.
</event>
<event>
 5   0  0.1723605E-06  0.2699593E+04  0.7818609E-02  0.8335137E-01
       -1   -1    0    0    0  501  0.00000000000E+00  0.00000000000E+00  0.10683880130E+04  0.10683880130E+04  0.50400001928E-02 0. -1.
        1   -1    0    0  501    0  0.00000000000E+00  0.00000000000E+00 -0.17053262819E+04  0.17053262819E+04  0.50400001928E-02 0.  1.
    10030    2    1    2    0    0  0.00000000000E+00  0.00000000000E+00 -0.63693826891E+03  0.27737142949E+04  0.26995926787E+04 0.  0.
        1    1    3    3  502    0 -0.11533521190E+04 -0.70118231351E+03 -0.32721221897E+03  0.13888648543E+04  0.50400001928E-02 0.  1.
       -1    1    3    3    0  502  0.11533521190E+04  0.70118231351E+03 -0.30972604994E+03  0.13848494406E+04  0.50400001928E-02 0. -1.
</event>
<event>
 5   0  0.1753474E-06  0.2692238E+04  0.7818609E-02  0.8337528E-01
        1   -1    0    0  501    0  0.00000000000E+00  0.00000000000E+00  0.13821836575E+04  0.13821836575E+04  0.50400001928E-02 0. -1.
       -1   -1    0    0    0  501  0.00000000000E+00  0.00000000000E+00 -0.13109955941E+04  0.13109955942E+04  0.50400001928E-02 0.  1.
    10030    2    1    2    0    0  0.00000000000E+00  0.00000000000E+00  0.71188063361E+02  0.26931792517E+04  0.26922382401E+04 0.  0.
        3    1    3    3  502    0  0.48657386256E+03  0.36532253390E+03  0.12367726558E+04  0.13783400487E+04  0.10100000352E+00 0. -1.
       -3    1    3    3    0  502 -0.48657386256E+03 -0.36532253390E+03 -0.11655845924E+04  0.13148392030E+04  0.10100000352E+00 0.  1.
</event>
<event>
 5   0  0.1828511E-06  0.2704533E+04  0.7818609E-02  0.8333536E-01
       -1   -1    0    0    0  501  0.00000000000E+00  0.00000000000E+00  0.80696898783E+03  0.80696898785E+03  0.50400001928E-02 0.  1.
        1   -1    0    0  501    0  0.00000000000E+00  0.00000000000E+00 -0.22660401203E+04  0.22660401203E+04  0.50400001928E-02 0. -1.
    10030    2    1    2    0    0  0.00000000000E+00  0.00000000000E+00 -0.14590711325E+04  0.30730091081E+04  0.27045325676E+04 0.  0.
        4    1    3    3  502    0 -0.70225884546E+03  0.68125378113E+02 -0.20403170625E+04  0.21588663418E+04  0.12699999809E+01 0. -1.
       -4    1    3    3    0  502  0.70225884546E+03 -0.68125378113E+02  0.58124593006E+03  0.91414276636E+03  0.12699999809E+01 0.  1.
</event>
<event>
 5   0  0.4439357E-06  0.2698065E+04  0.7818609E-02  0.8335633E-01
        2   -1    0    0  501    0  0.00000000000E+00  0.00000000000E+00  0.96256107396E+03  0.96256107396E+03  0.25500000920E-02 0. -1.
       -2   -1    0    0    0  501  0.00000000000E+00  0.00000000000E+00 -0.18906740120E+04  0.18906740120E+04  0.25500000920E-02 0.  1.
    10030    2    1    2    0    0  0.00000000000E+00  0.00000000000E+00 -0.92811293802E+03  0.28532350859E+04  0.26980653865E+04 0.  0.
        4    1    3    3  502    0  0.26633651184E+02  0.10602548363E+04  0.41757957434E+03  0.11398350684E+04  0.12699999809E+01 0. -1.
       -4    1    3    3    0  502 -0.26633651184E+02 -0.10602548363E+04 -0.13456925124E+04  0.17134000175E+04  0.12699999809E+01 0.  1.
</event>
<event>
 5   0  0.1828511E-06  0.2701289E+04  0.7818609E-02  0.8334587E-01
        1   -1    0    0  501    0  0.00000000000E+00  0.00000000000E+00  0.11214850023E+04  0.11214850023E+04  0.50400001928E-02 0.  1.
       -1   -1    0    0    0  501  0.00000000000E+00  0.00000000000E+00 -0.16266298603E+04  0.16266298603E+04  0.50400001928E-02 0. -1.
    10030    2    1    2    0    0  0.00000000000E+00  0.00000000000E+00 -0.50514485800E+03  0.27481148625E+04  0.27012893163E+04 0.  0.
        4    1    3    3  502    0  0.56238978342E+03  0.63927849223E+03  0.81406781901E+03  0.11779929057E+04  0.12699999809E+01 0.  1.
       -4    1    3    3    0  502 -0.56238978342E+03 -0.63927849223E+03 -0.13192126770E+04  0.15701219568E+04  0.12699999809E+01 0. -1.
</event>
<event>
 5   0  0.1753474E-06  0.2695846E+04  0.7818609E-02  0.8336354E-01
       -1   -1    0    0    0  501  0.00000000000E+00  0.00000000000E+00  0.99269127546E+03  0.99269127547E+03  0.50400001928E-02 0. -1.
        1   -1    0    0  501    0  0.00000000000E+00  0.00000000000E+00 -0.18302739889E+04  0.18302739889E+04  0.50400001928E-02 0.  1.
    10030    2    1    2    0    0  0.00000000000E+00  0.00000000000E+00 -0.83758271346E+03  0.28229652644E+04  0.26958464500E+04 0.  0.
        3    1    3    3  502    0  0.73943410077E+03 -0.46521210540E+03  0.65611672555E+03  0.10925540079E+04  0.10100000352E+00 0. -1.
       -3    1    3    3    0  502 -0.73943410077E+03  0.46521210540E+03 -0.14936994390E+04  0.17304112565E+04  0.10100000352E+00 0.  1.
</event>
<event>
 5   0  0.4655882E-06  0.2697458E+04  0.7818609E-02  0.8335830E-01
        2   -1    0    0  501    0  0.00000000000E+00  0.00000000000E+00  0.28881352919E+04  0.28881352919E+04  0.25500000920E-02 0.  1.
       -2   -1    0    0    0  501  0.00000000000E+00  0.00000000000E+00 -0.62984234713E+03  0.62984234713E+03  0.25500000920E-02 0. -1.
    10030    2    1    2    0    0  0.00000000000E+00  0.00000000000E+00  0.22582929448E+04  0.35179776390E+04  0.26974579968E+04 0.  0.
        1    1    3    3  502    0 -0.77480014700E+03 -0.97231880593E+03  0.18110117018E+04  0.21966980931E+04  0.50400001928E-02 0.  1.
       -1    1    3    3    0  502  0.77480014700E+03  0.97231880593E+03  0.44728124298E+03  0.13212795459E+04  0.50400001928E-02 0. -1.
</event>
<event>
 5   0  0.4401659E-06  0.2698941E+04  0.7818609E-02  0.8335349E-01
        2   -1    0    0  501    0  0.00000000000E+00  0.00000000000E+00  0.14164526601E+04  0.14164526601E+04  0.25500000920E-02 0. -1.
       -2   -1    0    0    0  501  0.00000000000E+00  0.00000000000E+00 -0.12856560587E+04  0.12856560587E+04  0.25500000920E-02 0.  1.
    10030    2    1    2    0    0  0.00000000000E+00  0.00000000000E+00  0.13079660141E+03  0.27021087188E+04  0.26989412327E+04 0.  0.
        5    1    3    3  502    0 -0.50662027157E+03  0.61145978961E+03  0.11577799526E+04  0.14039315092E+04  0.46999998093E+01 0.  1.
       -5    1    3    3    0  502  0.50662027157E+03 -0.61145978961E+03 -0.10269833512E+04  0.12981772096E+04  0.46999998093E+01 0. -1.
</event>
<event>
 5   0  0.1828511E-06  0.2709775E+04  0.7818609E-02  0.8331840E-01
        1   -1    0    0  501    0  0.00000000000E+00  0.00000000000E+00  0.20894170936E+04  0.20894170936E+04  0.50400001928E-02 0. -1.
       -1   -1    0    0    0  501  0.00000000000E+00  0.00000000000E+00 -0.87857995364E+03  0.87857995365E+03  0.50400001928E-02 0.  1.
    10030    2    1    2    0    0  0.00000000000E+00  0.00000000000E+00  0.12108371399E+04  0.29679970472E+04  0.27097748786E+04 0.  0.
        4    1    3    3  502    0  0.30999927869E+03  0.39579813379E+03 -0.77263336572E+03  0.92180239001E+03  0.12699999809E+01 0.  1.
       -4    1    3    3    0  502 -0.30999927869E+03 -0.39579813379E+03  0.19834705057E+04  0.20461946572E+04  0.12699999809E+01 0. -1.
</event>
<event>
 5   0  0.4439357E-06  0.2693459E+04  0.7818609E-02  0.8337130E-01
       -2   -1    0    0    0  501  0.00000000000E+00  0.00000000000E+00  0.61843114121E+03  0.61843114121E+03  0.25500000920E-02 0. -1.
        2   -1    0    0  501    0  0.00000000000E+00  0.00000000000E+00 -0.29327124555E+04  0.29327124555E+04  0.25500000920E-02 0.  1.
    10030    2    1    2    0    0  0.00000000000E+00  0.00000000000E+00 -0.23142813143E+04  0.35511435967E+04  0.26934592707E+04 0.  0.
        4    1    3    3  502    0 -0.77075117060E+03  0.96234819427E+03 -0.44286218827E+03  0.13100763125E+04  0.12699999809E+01 0. -1.
       -4    1    3    3    0  502  0.77075117060E+03 -0.96234819427E+03 -0.18714191260E+04  0.22410672841E+04  0.12699999809E+01 0.  1.
</event>
<event>
 5   0  0.4448804E-06  0.2697327E+04  0.7818609E-02  0.8335873E-01
        2   -1    0    0  501    0  0.00000000000E+00  0.00000000000E+00  0.20982538573E+04  0.20982538573E+04  0.25500000920E-02 0. -1.
       -2   -1    0    0    0  501  0.00000000000E+00  0.00000000000E+00 -0.86686071466E+03  0.86686071466E+03  0.25500000920E-02 0.  1.
    10030    2    1    2    0    0  0.00000000000E+00  0.00000000000E+00  0.12313931427E+04  0.29651145720E+04  0.26973274464E+04 0.  0.
        2    1    3    3  502    0 -0.11006748693E+04  0.34784314884E+03 -0.15097746827E+03  0.11641624543E+04  0.25500000920E-02 0.  1.
       -2    1    3    3    0  502  0.11006748693E+04 -0.34784314884E+03  0.13823706110E+04  0.18009521177E+04  0.25500000920E-02 0. -1.
</event>
<event>
 5   0  0.1723605E-06  0.2699518E+04  0.7818609E-02  0.8335161E-01
       -1   -1    0    0    0  501  0.00000000000E+00  0.00000000000E+00  0.13064883149E+04  0.13064883149E+04  0.50400001928E-02 0.  1.
        1   -1    0    0  501    0  0.00000000000E+00  0.00000000000E+00 -0.13944625947E+04  0.13944625947E+04  0.50400001928E-02 0. -1.
    10030    2    1    2    0    0  0.00000000000E+00  0.00000000000E+00 -0.87974279825E+02  0.27009509096E+04  0.26995177981E+04 0.  0.
        1    1    3    3  502    0  0.61093031684E+03 -0.44730999705E+03  0.10739810976E+04  0.13140614459E+04  0.50400001928E-02 0.  1.
       -1    1    3    3    0  502 -0.61093031684E+03  0.44730999705E+03 -0.11619553774E+04  0.13868894637E+04  0.50400001928E-02 0. -1.
</event>
<event>
 5   0  0.4448804E-06  0.2700784E+04  0.7818609E-02  0.8334751E-01
        2   -1    0    0  501    0  0.00000000000E+00  0.00000000000E+00  0.11697552807E+04  0.11697552807E+04  0.25500000920E-02 0. -1.
       -2   -1    0    0    0  501  0.00000000000E+00  0.00000000000E+00 -0.15589227192E+04  0.15589227192E+04  0.25500000920E-02 0.  1.
    10030    2    1    2    0    0  0.00000000000E+00  0.00000000000E+00 -0.38916743843E+03  0.27286779999E+04  0.27007836515E+04 0.  0.
        2    1    3    3  502    0 -0.18698640410E+03  0.61745783876E+03 -0.13931498654E+04  0.15352799893E+04  0.25500000920E-02 0.  1.
       -2    1    3    3    0  502  0.18698640410E+03 -0.61745783876E+03  0.10039824270E+04  0.11933980106E+04  0.25500000920E-02 0. -1.
</event>
<event>
 5   0  0.1828511E-06  0.2702081E+04  0.7818609E-02  0.8334330E-01
        1   -1    0    0  501    0  0.00000000000E+00  0.00000000000E+00  0.17049709717E+04  0.17049709717E+04  0.50400001928E-02 0.  1.
       -1   -1    0    0    0  501  0.00000000000E+00  0.00000000000E+00 -0.10705814956E+04  0.10705814956E+04  0.50400001928E-02 0. -1.
    10030    2    1    2    0    0  0.00000000000E+00  0.00000000000E+00  0.63438947614E+03  0.27755524673E+04  0.27020809557E+04 0.  0.
        4    1    3    3  502    0  0.17782818288E+03  0.11356486753E+04  0.10464191110E+04  0.15544501746E+04  0.12699999809E+01 0.  1.
       -4    1    3    3    0  502 -0.17782818288E+03 -0.11356486753E+04 -0.41202963488E+03  0.12211022927E+04  0.12699999809E+01 0. -1.
</event>
<event>
 5   0  0.1723605E-06  0.2717618E+04  0.7818609E-02  0.8329311E-01
       -1   -1    0    0    0  501  0.00000000000E+00  0.00000000000E+00  0.98318000099E+03  0.98318000100E+03  0.50400001928E-02 0.  1.
        1   -1    0    0  501    0  0.00000000000E+00  0.00000000000E+00 -0.18779486992E+04  0.18779486993E+04  0.50400001928E-02 0. -1.
    10030    2    1    2    0    0  0.00000000000E+00  0.00000000000E+00 -0.89476869826E+03  0.28611287003E+04  0.27176177833E+04 0.  0.
        1    1    3    3  502    0 -0.11006183042E+04  0.35622340737E+03 -0.11978418622E+04  0.16652570055E+04  0.50400001928E-02 0.  1.
       -1    1    3    3    0  502  0.11006183042E+04 -0.35622340737E+03  0.30307316396E+03  0.11958716947E+04  0.50400001928E-02 0. -1.
</event>
<event>
 5   0  0.4655882E-06  0.2704898E+04  0.7818609E-02  0.8333418E-01
        2   -1    0    0  501    0  0.00000000000E+00  0.00000000000E+00  0.16569094186E+04  0.16569094186E+04  0.25500000920E-02 0. -1.
       -2   -1    0    0    0  501  0.00000000000E+00  0.00000000000E+00 -0.11039337072E+04  0.11039337072E+04  0.25500000920E-02 0.  1.
    10030    2    1    2    0    0  0.00000000000E+00  0.00000000000E+00  0.55297571138E+03  0.27608431258E+04  0.27048978960E+04 0.  0.
        1    1    3    3  502    0 -0.13454091722E+04 -0.13547652746E+03  0.25069814815E+03  0.13752560822E+04  0.50400001928E-02 0. -1.
       -1    1    3    3    0  502  0.13454091722E+04  0.13547652746E+03  0.30227756322E+03  0.13855870436E+04  0.50400001928E-02 0.  1.
</event>
<event>
 5   0  0.4448804E-06  0.2704244E+04  0.7818609E-02  0.8333629E-01
       -2   -1    0    0    0  501  0.00000000000E+00  0.00000000000E+00  0.11869369180E+04  0.11869369180E+04  0.25500000920E-02 0. -1.
        2   -1    0    0  501    0  0.00000000000E+00  0.00000000000E+00 -0.15402962042E+04  0.15402962042E+04  0.25500000920E-02 0.  1.
    10030    2    1    2    0    0  0.00000000000E+00  0.00000000000E+00 -0.35335928622E+03  0.27272331222E+04  0.27042443894E+04 0.  0.
        2    1    3    3  502    0 -0.99665375198E+02 -0.12084541050E+03  0.11777554341E+04  0.11881265349E+04  0.25500000920E-02 0. -1.
       -2    1    3    3    0  502  0.99665375198E+02  0.12084541050E+03 -0.15311147203E+04  0.15391065873E+04  0.25500000920E-02 0.  1.
</event>
<event>
 5   0  0.1723605E-06  0.2595007E+04  0.7818609E-02  0.8369899E-01
        1   -1    0    0  501    0  0.00000000000E+00  0.00000000000E+00  0.15848855042E+04  0.15848855042E+04  0.50400001928E-02 0. -1.
       -1   -1    0    0    0  501  0.00000000000E+00  0.00000000000E+00 -0.10622317085E+04  0.10622317085E+04  0.50400001928E-02 0.  1.
    10030    2    1    2    0    0  0.00000000000E+00  0.00000000000E+00  0.52265379571E+03  0.26471172127E+04  0.25950072346E+04 0.  0.
        1    1    3    3  502    0 -0.33965492646E+02  0.10806535028E+04  0.99305272750E+03  0.14680324817E+04  0.50400001928E-02 0. -1.
       -1    1    3    3    0  502  0.33965492646E+02 -0.10806535028E+04 -0.47039893179E+03  0.11790847310E+04  0.50400001928E-02 0.  1.
</event>
<event>
 5   0  0.1771016E-06  0.2703773E+04  0.7818609E-02  0.8333782E-01
       -1   -1    0    0    0  501  0.00000000000E+00  0.00000000000E+00  0.15225908869E+04  0.15225908869E+04  0.50400001928E-02 0.  1.
        1   -1    0    0  501    0  0.00000000000E+00  0.00000000000E+00 -0.12003209295E+04  0.12003209295E+04  0.50400001928E-02 0. -1.
    10030    2    1    2    0    0  0.00000000000E+00  0.00000000000E+00  0.32226995737E+03  0.27229118164E+04  0.27037734437E+04 0.  0.
        2    1    3    3  502    0 -0.10531595861E+04  0.83553930749E+03  0.17554203193E+02  0.13444624198E+04  0.25500000920E-02 0.  1.
       -2    1    3    3    0  502  0.10531595861E+04 -0.83553930749E+03  0.30471575417E+03  0.13784493966E+04  0.25500000920E-02 0. -1.
</event>
<event>
 5   0  0.4655882E-06  0.2668763E+04  0.7818609E-02  0.8345212E-01
        2   -1    0    0  501    0  0.00000000000E+00  0.00000000000E+00  0.20093410969E+04  0.20093410969E+04  0.25500000920E-02 0.  1.
       -2   -1    0    0    0  501  0.00000000000E+00  0.00000000000E+00 -0.88614837055E+03  0.88614837056E+03  0.25500000920E-02 0. -1.
    10030    2    1    2    0    0  0.00000000000E+00  0.00000000000E+00  0.11231927263E+04  0.28954894674E+04  0.26687632633E+04 0.  0.
        1    1    3    3  502    0  0.67956110316E+03 -0.97091089324E+03 -0.10377696147E+03  0.11896389844E+04  0.50400001928E-02 0. -1.
       -1    1    3    3    0  502 -0.67956110316E+03  0.97091089324E+03  0.12269696878E+04  0.17058504830E+04  0.50400001928E-02 0.  1.
</event>
<event>
 5   0  0.1771016E-06  0.2699329E+04  0.7818609E-02  0.8335223E-01
       -1   -1    0    0    0  501  0.00000000000E+00  0.00000000000E+00  0.93525966333E+03  0.93525966335E+03  0.50400001928E-02 0.  1.
        1   -1    0    0  501    0  0.00000000000E+00  0.00000000000E+00 -0.19476881290E+04  0.19476881290E+04  0.50400001928E-02 0. -1.
    10030    2    1    2    0    0  0.00000000000E+00  0.00000000000E+00 -0.10124284657E+04  0.28829477924E+04  0.26993289120E+04 0.  0.
        2    1    3    3  502    0 -0.87686372629E+01  0.77538949222E+03 -0.16860246083E+04  0.18557976003E+04  0.25500000920E-02 0.  1.
       -2    1    3    3    0  502  0.87686372629E+01 -0.77538949222E+03  0.67359614261E+03  0.10271501920E+04  0.25500000920E-02 0. -1.
</event>
<event>
 5   0  0.1753474E-06  0.2691071E+04  0.7818609E-02  0.8337908E-01
       -1   -1    0    0    0  501  0.00000000000E+00  0.00000000000E+00  0.14624656403E+04  0.14624656403E+04  0.50400001928E-02 0. -1.
        1   -1    0    0  501    0  0.00000000000E+00  0.00000000000E+00 -0.12379542675E+04  0.12379542675E+04  0.50400001928E-02 0.  1.
    10030    2    1    2    0    0  0.00000000000E+00  0.00000000000E+00  0.22451137277E+03  0.27004199078E+04  0.26910708504E+04 0.  0.
        3    1    3    3  502    0 -0.41132369865E+03 -0.92183297412E+03  0.10050106513E+04  0.14244330931E+04  0.10100000352E+00 0. -1.
       -3    1    3    3    0  502  0.41132369865E+03  0.92183297412E+03 -0.78049927854E+03  0.12759868147E+04  0.10100000352E+00 0.  1.
</event>
<event>
 5   0  0.4439357E-06  0.2703255E+04  0.7818609E-02  0.8333949E-01
        2   -1    0    0  501    0  0.00000000000E+00  0.00000000000E+00  0.14094815612E+04  0.14094815612E+04  0.25500000920E-02 0. -1.
       -2   -1    0    0    0  501  0.00000000000E+00  0.00000000000E+00 -0.12961485714E+04  0.12961485715E+04  0.25500000920E-02 0.  1.
    10030    2    1    2    0    0  0.00000000000E+00  0.00000000000E+00  0.11333298979E+03  0.27056301327E+04  0.27032554538E+04 0.  0.
        4    1    3    3  502    0  0.45371944664E+03 -0.96143142822E+03  0.89207580532E+03  0.13878085541E+04  0.12699999809E+01 0. -1.
       -4    1    3    3    0  502 -0.45371944664E+03  0.96143142822E+03 -0.77874281553E+03  0.13178215786E+04  0.12699999809E+01 0.  1.
</event>
<event>
 5   0  0.4439357E-06  0.2692319E+04  0.7818609E-02  0.8337502E-01
       -2   -1    0    0    0  501  0.00000000000E+00  0.00000000000E+00  0.14346466039E+04  0.14346466039E+04  0.25500000920E-02 0.  1.
        2   -1    0    0  501    0  0.00000000000E+00  0.00000000000E+00 -0.12631298440E+04  0.12631298440E+04  0.25500000920E-02 0. -1.
    10030    2    1    2    0    0  0.00000000000E+00  0.00000000000E+00  0.17151675995E+03  0.26977764479E+04  0.26923186594E+04 0.  0.
        4    1    3    3  502    0 -0.63516165901E+03 -0.77286100567E+03 -0.81684445771E+03  0.12915033675E+04  0.12699999809E+01 0. -1.
       -4    1    3    3    0  502  0.63516165901E+03  0.77286100567E+03  0.98836121767E+03  0.14062730804E+04  0.12699999809E+01 0.  1.
</event>
<event>
 5   0  0.4439357E-06  0.2698375E+04  0.7818609E-02  0.8335532E-01
        2   -1    0    0  501    0  0.00000000000E+00  0.00000000000E+00  0.13904081356E+04  0.13904081356E+04  0.25500000920E-02 0.  1.
       -2   -1    0    0    0  501  0.00000000000E+00  0.00000000000E+00 -0.13091892982E+04  0.13091892982E+04  0.25500000920E-02 0. -1.
    10030    2    1    2    0    0  0.00000000000E+00  0.00000000000E+00  0.81218837346E+02  0.26995974338E+04  0.26983754011E+04 0.  0.
        4    1    3    3  502    0 -0.12132747514E+04 -0.39790232544E+03  0.47663239614E+03  0.13629167021E+04  0.12699999809E+01 0. -1.
       -4    1    3    3    0  502  0.12132747514E+04  0.39790232544E+03 -0.39541355879E+03  0.13366807317E+04  0.12699999809E+01 0.  1.
</event>
<event>
 5   0  0.4487186E-06  0.2685032E+04  0.7818609E-02  0.8339878E-01
       -2   -1    0    0    0  501  0.00000000000E+00  0.00000000000E+00  0.10073860522E+04  0.10073860522E+04  0.25500000920E-02 0.  1.
        2   -1    0    0  501    0  0.00000000000E+00  0.00000000000E+00 -0.17891342451E+04  0.17891342451E+04  0.25500000920E-02 0. -1.
    10030    2    1    2    0    0  0.00000000000E+00  0.00000000000E+00 -0.78174819284E+03  0.27965202973E+04  0.26850317570E+04 0.  0.
        3    1    3    3  502    0 -0.10885236117E+03 -0.90705587192E+03 -0.14154639904E+04  0.16846772717E+04  0.10100000352E+00 0. -1.
       -3    1    3    3    0  502  0.10885236117E+03  0.90705587192E+03  0.63371579757E+03  0.11118430256E+04  0.10100000352E+00 0.  1.
</event>
<event>
 5   0  0.1723605E-06  0.2690782E+04  0.7818609E-02  0.8338002E-01
        1   -1    0    0  501    0  0.00000000000E+00  0.00000000000E+00  0.14263392300E+04  0.14263392300E+04  0.50400001928E-02 0. -1.
       -1   -1    0    0    0  501  0.00000000000E+00  0.00000000000E+00 -0.12690366348E+04  0.12690366348E+04  0.50400001928E-02 0.  1.
    10030    2    1    2    0    0  0.00000000000E+00  0.00000000000E+00  0.15730259519E+03  0.26953758649E+04  0.26907818467E+04 0.  0.
        1    1    3    3  502    0  0.26395195245E+03 -0.62036973569E+03 -0.10876163153E+04  0.12796243556E+04  0.50400001928E-02 0.  1.
       -1    1    3    3    0  502 -0.26395195245E+03  0.62036973569E+03  0.12449189105E+04  0.14157515092E+04  0.50400001928E-02 0. -1.
</event>
<event>
 5   0  0.4448804E-06  0.2695936E+04  0.7818609E-02  0.8336325E-01
       -2   -1    0    0    0  501  0.00000000000E+00  0.00000000000E+00  0.13606515923E+04  0.13606515923E+04  0.25500000920E-02 0.  1.
        2   -1    0    0  501    0  0.00000000000E+00  0.00000000000E+00 -0.13354029061E+04  0.13354029061E+04  0.25500000920E-02 0. -1.
    10030    2    1    2    0    0  0.00000000000E+00  0.00000000000E+00  0.25248686140E+02  0.26960544984E+04  0.26959362682E+04 0.  0.
        2    1    3    3  502    0  0.11791802648E+04  0.58152676695E+03 -0.28467410101E+03  0.13452430343E+04  0.25500000920E-02 0. -1.
       -2    1    3    3    0  502 -0.11791802648E+04 -0.58152676695E+03  0.30992278715E+03  0.13508114641E+04  0.25500000920E-02 0.  1.
</event>
<event>
 5   0  0.4655882E-06  0.2698080E+04  0.7818609E-02  0.8335628E-01
        2   -1    0    0  501    0  0.00000000000E+00  0.00000000000E+00  0.14133389225E+04  0.14133389225E+04  0.25500000920E-02 0. -1.
       -2   -1    0    0    0  501  0.00000000000E+00  0.00000000000E+00 -0.12876659701E+04  0.12876659701E+04  0.25500000920E-02 0.  1.
    10030    2    1    2    0    0  0.00000000000E+00  0.00000000000E+00  0.12567295238E+03  0.27010048926E+04  0.26980796391E+04 0.  0.
        1    1    3    3  502    0 -0.77774058209E+03  0.87211009683E+03 -0.61202496668E+03  0.13191023440E+04  0.50400001928E-02 0.  1.
       -1    1    3    3    0  502  0.77774058209E+03 -0.87211009683E+03  0.73769791906E+03  0.13819025486E+04  0.50400001928E-02 0. -1.
</event>
<event>
 5   0  0.1771016E-06  0.2691596E+04  0.7818609E-02  0.8337737E-01
        1   -1    0    0  501    0  0.00000000000E+00  0.00000000000E+00  0.16777271278E+04  0.16777271278E+04  0.50400001928E-02 0.  1.
       -1   -1    0    0    0  501  0.00000000000E+00  0.00000000000E+00 -0.10795393239E+04  0.10795393239E+04  0.50400001928E-02 0. -1.
    10030    2    1    2    0    0  0.00000000000E+00  0.00000000000E+00  0.59818780390E+03  0.27572664518E+04  0.26915961133E+04 0.  0.
        2    1    3    3  502    0  0.42210443049E+03  0.36171379953E+03 -0.95643706944E+03  0.11062463066E+04  0.25500000920E-02 0. -1.
       -2    1    3    3    0  502 -0.42210443049E+03 -0.36171379953E+03  0.15546248733E+04  0.16510201452E+04  0.25500000920E-02 0.  1.
</event>
<event>
 5   0  0.1771016E-06  0.2698464E+04  0.7818609E-02  0.8335504E-01
        1   -1    0    0  501    0  0.00000000000E+00  0.00000000000E+00  0.13091969551E+04  0.13091969551E+04  0.50400001928E-02 0.  1.
       -1   -1    0    0    0  501  0.00000000000E+00  0.00000000000E+00 -0.13904912763E+04  0.13904912763E+04  0.50400001928E-02 0. -1.
    10030    2    1    2    0    0  0.00000000000E+00  0.00000000000E+00 -0.81294321214E+02  0.26996882314E+04  0.26984639668E+04 0.  0.
        2    1    3    3  502    0 -0.11733421941E+04 -0.62857601720E+03  0.17987795860E+03  0.13432035564E+04  0.25500000920E-02 0.  1.
       -2    1    3    3    0  502  0.11733421941E+04  0.62857601720E+03 -0.26117227982E+03  0.13564846750E+04  0.25500000920E-02 0. -1.
</event>
<event>
 5   0  0.4655882E-06  0.2708392E+04  0.7818609E-02  0.8332287E-01
       -2   -1    0    0    0  501  0.00000000000E+00  0.00000000000E+00  0.12074871464E+04  0.12074871464E+04  0.25500000920E-02 0. -1.
        2   -1    0    0  501    0  0.00000000000E+00  0.00000000000E+00 -0.15187302651E+04  0.15187302651E+04  0.25500000920E-02 0.  1.
    10030    2    1    2    0    0  0.00000000000E+00  0.00000000000E+00 -0.31124311863E+03  0.27262174115E+04  0.27083923453E+04 0.  0.
        1    1    3    3  502    0 -0.70411837219E+03  0.23760495949E+02  0.10084932384E+04  0.12302056150E+04  0.50400001928E-02 0. -1.
       -1    1    3    3    0  502  0.70411837219E+03 -0.23760495949E+02 -0.13197363570E+04  0.14960117965E+04  0.50400001928E-02 0.  1.
</event>
<event>
 5   0  0.4439357E-06  0.2689099E+04  0.7818609E-02  0.8338551E-01
        2   -1    0    0  501    0  0.00000000000E+00  0.00000000000E+00  0.15252485993E+04  0.15252485993E+04  0.25500000920E-02 0.  1.
       -2   -1    0    0    0  501  0.00000000000E+00  0.00000000000E+00 -0.11852580769E+04  0.11852580769E+04  0.25500000920E-02 0. -1.
    10030    2    1    2    0    0  0.00000000000E+00  0.00000000000E+00  0.33999052238E+03  0.27105066763E+04  0.26890988987E+04 0.  0.
        4    1    3    3  502    0 -0.12478079132E+04  0.13822340550E+03 -0.31516945286E+03  0.12943970392E+04  0.12699999809E+01 0. -1.
       -4    1    3    3    0  502  0.12478079132E+04 -0.13822340550E+03  0.65515997524E+03  0.14161096371E+04  0.12699999809E+01 0.  1.
</event>
<event>
 5   0  0.4439357E-06  0.2697899E+04  0.7818609E-02  0.8335687E-01
       -2   -1    0    0    0  501  0.00000000000E+00  0.00000000000E+00  0.10188371196E+04  0.10188371196E+04  0.25500000920E-02 0. -1.
        2   -1    0    0  501    0  0.00000000000E+00  0.00000000000E+00 -0.17860211548E+04  0.17860211548E+04  0.25500000920E-02 0.  1.
    10030    2    1    2    0    0  0.00000000000E+00  0.00000000000E+00 -0.76718403520E+03  0.28048582744E+04  0.26978989224E+04 0.  0.
        4    1    3    3  502    0 -0.10564028419E+04  0.15605776323E+02 -0.12555518349E+04  0.16409273377E+04  0.12699999809E+01 0.  1.
       -4    1    3    3    0  502  0.10564028419E+04 -0.15605776323E+02  0.48836779968E+03  0.11639309367E+04  0.12699999809E+01 0. -1.
</event>
<event>
 5   0  0.1753474E-06  0.2695970E+04  0.7818609E-02  0.8336314E-01
        1   -1    0    0  501    0  0.00000000000E+00  0.00000000000E+00  0.12658587795E+04  0.12658587795E+04  0.50400001928E-02 0. -1.
       -1   -1    0    0    0  501  0.00000000000E+00  0.00000000000E+00 -0.14354397709E+04  0.14354397709E+04  0.50400001928E-02 0.  1.
    10030    2    1    2    0    0  0.00000000000E+00  0.00000000000E+00 -0.16958099136E+03  0.27012985504E+04  0.26959703533E+04 0.  0.
        3    1    3    3  502    0  0.10094598518E+04 -0.52035758488E+03 -0.81236803399E+03  0.13963248338E+04  0.10100000352E+00 0.  1.
       -3    1    3    3    0  502 -0.10094598518E+04  0.52035758488E+03  0.64278704263E+03  0.13049737166E+04  0.10100000352E+00 0. -1.
</event>
<event>
 5   0  0.1732312E-06  0.2699261E+04  0.7818609E-02  0.8335245E-01
       -1   -1    0    0    0  501  0.00000000000E+00  0.00000000000E+00  0.73982767167E+03  0.73982767169E+03  0.50400001928E-02 0.  1.
        1   -1    0    0  501    0  0.00000000000E+00  0.00000000000E+00 -0.24620627661E+04  0.24620627661E+04  0.50400001928E-02 0. -1.
    10030    2    1    2    0    0  0.00000000000E+00  0.00000000000E+00 -0.17222350944E+04  0.32018904378E+04  0.26992607609E+04 0.  0.
        5    1    3    3  502    0  0.28422405720E+02  0.13352219543E+03 -0.24538422206E+04  0.24576410933E+04  0.46999998093E+01 0. -1.
       -5    1    3    3    0  502 -0.28422405720E+02 -0.13352219543E+03  0.73160712614E+03  0.74424934453E+03  0.46999998093E+01 0.  1.
</event>
<event>
 5   0  0.4448804E-06  0.2694638E+04  0.7818609E-02  0.8336747E-01
        2   -1    0    0  501    0  0.00000000000E+00  0.00000000000E+00  0.16375649580E+04  0.16375649580E+04  0.25500000920E-02 0.  1.
       -2   -1    0    0    0  501  0.00000000000E+00  0.00000000000E+00 -0.11085168842E+04  0.11085168842E+04  0.25500000920E-02 0. -1.
    10030    2    1    2    0    0  0.00000000000E+00  0.00000000000E+00  0.52904807383E+03  0.27460818422E+04  0.26946379385E+04 0.  0.
        2    1    3    3  502    0  0.60614822249E+03 -0.11445785451E+04 -0.11376708418E+03  0.13001610142E+04  0.25500000920E-02 0. -1.
       -2    1    3    3    0  502 -0.60614822249E+03  0.11445785451E+04  0.64281515800E+03  0.14459208280E+04  0.25500000920E-02 0.  1.
</event>
<event>
 5   0  0.1771016E-06  0.2694164E+04  0.7818609E-02  0.8336901E-01
       -1   -1    0    0    0  501  0.00000000000E+00  0.00000000000E+00  0.13964705485E+04  0.13964705485E+04  0.50400001928E-02 0. -1.
        1   -1    0    0  501    0  0.00000000000E+00  0.00000000000E+00 -0.12994401533E+04  0.12994401533E+04  0.50400001928E-02 0.  1.
    10030    2    1    2    0    0  0.00000000000E+00  0.00000000000E+00  0.97030395204E+02  0.26959107018E+04  0.26941639917E+04 0.  0.
        2    1    3    3  502    0  0.39160717491E+03 -0.63087722640E+03 -0.10761652955E+04  0.13074761938E+04  0.25500000920E-02 0.  1.
       -2    1    3    3    0  502 -0.39160717491E+03  0.63087722640E+03  0.11731956907E+04  0.13884345080E+04  0.25500000920E-02 0. -1.
</event>
<event>
 5   0  0.1771016E-06  0.2705688E+04  0.7818609E-02  0.8333162E-01
        1   -1    0    0  501    0  0.00000000000E+00  0.00000000000E+00  0.21128744189E+04  0.21128744189E+04  0.50400001928E-02 0. -1.
       -1   -1    0    0    0  501  0.00000000000E+00  0.00000000000E+00 -0.86620739089E+03  0.86620739090E+03  0.50400001928E-02 0.  1.
    10030    2    1    2    0    0  0.00000000000E+00  0.00000000000E+00  0.12466670280E+04  0.29790818098E+04  0.27056884061E+04 0.  0.
        2    1    3    3  502    0  0.15281607412E+03  0.12395011860E+03 -0.85036805747E+03  0.87283573345E+03  0.25500000920E-02 0.  1.
       -2    1    3    3    0  502 -0.15281607412E+03 -0.12395011860E+03  0.20970350855E+04  0.21062460764E+04  0.25500000920E-02 0. -1.
</event>
<event>
 5   0  0.1723605E-06  0.2698274E+04  0.7818609E-02  0.8335565E-01
       -1   -1    0    0    0  501  0.00000000000E+00  0.00000000000E+00  0.12358620386E+04  0.12358620386E+04  0.50400001928E-02 0. -1.
        1   -1    0    0  501    0  0.00000000000E+00  0.00000000000E+00 -0.14727942081E+04  0.14727942081E+04  0.50400001928E-02 0.  1.
    10030    2    1    2    0    0  0.00000000000E+00  0.00000000000E+00 -0.23693216953E+03  0.27086562467E+04  0.26982738574E+04 0.  0.
        1    1    3    3  502    0  0.57073549403E+03 -0.92283289513E+03  0.68637378428E+03  0.12839269949E+04  0.50400001928E-02 0.  1.
       -1    1    3    3    0  502 -0.57073549403E+03  0.92283289513E+03 -0.92330595381E+03  0.14247292518E+04  0.50400001928E-02 0. -1.
</event>
<event>
 5   0  0.4448804E-06  0.2693267E+04  0.7818609E-02  0.8337193E-01
        2   -1    0    0  501    0  0.00000000000E+00  0.00000000000E+00  0.14107680310E+04  0.14107680310E+04  0.25500000920E-02 0.  1.
       -2   -1    0    0    0  501  0.00000000000E+00  0.00000000000E+00 -0.12854142477E+04  0.12854142477E+04  0.25500000920E-02 0. -1.
    10030    2    1    2    0    0  0.00000000000E+00  0.00000000000E+00  0.12535378327E+03  0.26961822787E+04  0.26932666613E+04 0.  0.
        2    1    3    3  502    0  0.12217348901E+04 -0.28904734069E+03 -0.42492001524E+03  0.13254212637E+04  0.25500000920E-02 0. -1.
       -2    1    3    3    0  502 -0.12217348901E+04  0.28904734069E+03  0.55027379850E+03  0.13707610150E+04  0.25500000920E-02 0.  1.
</event>
<event>
 5   0  0.4439357E-06  0.2693425E+04  0.7818609E-02  0.8337142E-01
        2   -1    0    0  501    0  0.00000000000E+00  0.00000000000E+00  0.14984077702E+04  0.14984077702E+04  0.25500000920E-02 0. -1.
       -2   -1    0    0    0  501  0.00000000000E+00  0.00000000000E+00 -0.12103742050E+04  0.12103742050E+04  0.25500000920E-02 0.  1.
    10030    2    1    2    0    0  0.00000000000E+00  0.00000000000E+00  0.28803356522E+03  0.27087819752E+04  0.26934246703E+04 0.  0.
        4    1    3    3  502    0 -0.31211261955E+03  0.28740231740E+03 -0.11414015465E+04  0.12177082913E+04  0.12699999809E+01 0.  1.
       -4    1    3    3    0  502  0.31211261955E+03 -0.28740231740E+03  0.14294351117E+04  0.14910736839E+04  0.12699999809E+01 0. -1.
</event>
<event>
 5   0  0.1753474E-06  0.2695245E+04  0.7818609E-02  0.8336549E-01
        1   -1    0    0  501    0  0.00000000000E+00  0.00000000000E+00  0.10318145599E+04  0.10318145600E+04  0.50400001928E-02 0.  1.
       -1   -1    0    0    0  501  0.00000000000E+00  0.00000000000E+00 -0.17600899039E+04  0.17600899039E+04  0.50400001928E-02 0. -1.
    10030    2    1    2    0    0  0.00000000000E+00  0.00000000000E+00 -0.72827534396E+03  0.27919044639E+04  0.26952449905E+04 0.  0.
        3    1    3    3  502    0  0.98901886337E+03 -0.66272252670E+03  0.28995620632E+03  0.12253301887E+04  0.10100000352E+00 0.  1.
       -3    1    3    3    0  502 -0.98901886337E+03  0.66272252670E+03 -0.10182315503E+04  0.15665742752E+04  0.10100000352E+00 0. -1.
</event>
<event>
 5   0  0.4655882E-06  0.2681734E+04  0.7818609E-02  0.8340956E-01
       -2   -1    0    0    0  501  0.00000000000E+00  0.00000000000E+00  0.18899894059E+04  0.18899894059E+04  0.25500000920E-02 0. -1.
        2   -1    0    0  501    0  0.00000000000E+00  0.00000000000E+00 -0.95128788232E+03  0.95128788232E+03  0.25500000920E-02 0.  1.
    10030    2    1    2    0    0  0.00000000000E+00  0.00000000000E+00  0.93870152359E+03  0.28412772882E+04  0.26817337821E+04 0.  0.
        1    1    3    3  502    0  0.76371379158E+03  0.28176266701E+03 -0.65953112892E+03  0.10476785127E+04  0.50400001928E-02 0.  1.
       -1    1    3    3    0  502 -0.76371379158E+03 -0.28176266701E+03  0.15982326525E+04  0.17935987755E+04  0.50400001928E-02 0. -1.
</event>
<event>
 5   0  0.1771016E-06  0.2699014E+04  0.7818609E-02  0.8335325E-01
        1   -1    0    0  501    0  0.00000000000E+00  0.00000000000E+00  0.28231307914E+04  0.28231307914E+04  0.50400001928E-02 0. -1.
       -1   -1    0    0    0  501  0.00000000000E+00  0.00000000000E+00 -0.64508843442E+03  0.64508843444E+03  0.50400001928E-02 0.  1.
    10030    2    1    2    0    0  0.00000000000E+00  0.00000000000E+00  0.21780423570E+04  0.34682192258E+04  0.26990139106E+04 0.  0.
        2    1    3    3  502    0  0.35849196283E+03  0.92801213355E+03  0.22607266193E+04  0.24699408605E+04  0.25500000920E-02 0. -1.
       -2    1    3    3    0  502 -0.35849196283E+03 -0.92801213355E+03 -0.82684262283E+02  0.99827836532E+03  0.25500000920E-02 0.  1.
</event>
<event>
 5   0  0.1723605E-06  0.2701299E+04  0.7818609E-02  0.8334583E-01
        1   -1    0    0  501    0  0.00000000000E+00  0.00000000000E+00  0.17185097513E+04  0.17185097513E+04  0.50400001928E-02 0. -1.
       -1   -1    0    0    0  501  0.00000000000E+00  0.00000000000E+00 -0.10615328770E+04  0.10615328770E+04  0.50400001928E-02 0.  1.
    10030    2    1    2    0    0  0.00000000000E+00  0.00000000000E+00  0.65697687434E+03  0.27800426283E+04  0.27012993914E+04 0.  0.
        1    1    3    3  502    0 -0.32322976814E+03 -0.65018966021E+03  0.15005592005E+04  0.16670038966E+04  0.50400001928E-02 0. -1.
       -1    1    3    3    0  502  0.32322976814E+03  0.65018966021E+03 -0.84358232612E+03  0.11130387317E+04  0.50400001928E-02 0.  1.
</event>
<event>
 5   0  0.1753474E-06  0.2706396E+04  0.7818609E-02  0.8332933E-01
       -1   -1    0    0    0  501  0.00000000000E+00  0.00000000000E+00  0.18967667665E+04  0.18967667665E+04  0.50400001928E-02 0.  1.
        1   -1    0    0  501    0  0.00000000000E+00  0.00000000000E+00 -0.96540293745E+03  0.96540293746E+03  0.50400001928E-02 0. -1.
    10030    2    1    2    0    0  0.00000000000E+00  0.00000000000E+00  0.93136382904E+03  0.28621697039E+04  0.27063955424E+04 0.  0.
        3    1    3    3  502    0 -0.51466476154E+03  0.12378407294E+04  0.27063571374E+03  0.13676158773E+04  0.10100000352E+00 0.  1.
       -3    1    3    3    0  502  0.51466476154E+03 -0.12378407294E+04  0.66072811530E+03  0.14945538266E+04  0.10100000352E+00 0. -1.
</event>
<event>
 5   0  0.1723605E-06  0.2691080E+04  0.7818609E-02  0.8337905E-01
       -1   -1    0    0    0  501  0.00000000000E+00  0.00000000000E+00  0.98345419823E+03  0.98345419824E+03  0.50400001928E-02 0.  1.
        1   -1    0    0  501    0  0.00000000000E+00  0.00000000000E+00 -0.18409370607E+04  0.18409370607E+04  0.50400001928E-02 0. -1.
    10030    2    1    2    0    0  0.00000000000E+00  0.00000000000E+00 -0.85748286247E+03  0.28243912589E+04  0.26910795462E+04 0.  0.
        1    1    3    3  502    0 -0.11634886375E+03 -0.12812386254E+04 -0.84243506940E+03  0.15377926777E+04  0.50400001928E-02 0. -1.
       -1    1    3    3    0  502  0.11634886375E+03  0.12812386254E+04 -0.15047793077E+02  0.12865985813E+04  0.50400001928E-02 0.  1.
</event>
<event>
 5   0  0.1723605E-06  0.2712677E+04  0.7818609E-02  0.8330903E-01
       -1   -1    0    0    0  501  0.00000000000E+00  0.00000000000E+00  0.15406049468E+04  0.15406049468E+04  0.50400001928E-02 0.  1.
        1   -1    0    0  501    0  0.00000000000E+00  0.00000000000E+00 -0.11941114319E+04  0.11941114320E+04  0.50400001928E-02 0. -1.
    10030    2    1    2    0    0  0.00000000000E+00  0.00000000000E+00  0.34649351487E+03  0.27347163788E+04  0.27126768913E+04 0.  0.
        1    1    3    3  502    0 -0.87461804480E+03  0.96580365919E+03  0.55303093008E+03  0.14154775315E+04  0.50400001928E-02 0.  1.
       -1    1    3    3    0  502  0.87461804480E+03 -0.96580365919E+03 -0.20653741521E+03  0.13192388473E+04  0.50400001928E-02 0. -1.
</event>
<event>
 5   0  0.1771016E-06  0.2698634E+04  0.7818609E-02  0.8335448E-01
        1   -1    0    0  501    0  0.00000000000E+00  0.00000000000E+00  0.19252044759E+04  0.19252044759E+04  0.50400001928E-02 0. -1.
       -1   -1    0    0    0  501  0.00000000000E+00  0.00000000000E+00 -0.94569532567E+03  0.94569532568E+03  0.50400001928E-02 0.  1.
    10030    2    1    2    0    0  0.00000000000E+00  0.00000000000E+00  0.97950915020E+03  0.28708998016E+04  0.26986343760E+04 0.  0.
        2    1    3    3  502    0  0.92225068543E+03 -0.57767052590E+03  0.13384298837E+04  0.17250055411E+04  0.25500000920E-02 0. -1.
       -2    1    3    3    0  502 -0.92225068543E+03  0.57767052590E+03 -0.35892073347E+03  0.11458942605E+04  0.25500000920E-02 0.  1.
</event>
<event>
 5   0  0.1723605E-06  0.2698191E+04  0.7818609E-02  0.8335592E-01
        1   -1    0    0  501    0  0.00000000000E+00  0.00000000000E+00  0.15506551879E+04  0.15506551879E+04  0.50400001928E-02 0. -1.
       -1   -1    0    0    0  501  0.00000000000E+00  0.00000000000E+00 -0.11737349833E+04  0.11737349833E+04  0.50400001928E-02 0.  1.
    10030    2    1    2    0    0  0.00000000000E+00  0.00000000000E+00  0.37692020459E+03  0.27243901712E+04  0.26981906835E+04 0.  0.
        1    1    3    3  502    0  0.37133375331E+03 -0.57323727836E+03  0.13631866598E+04  0.15247188603E+04  0.50400001928E-02 0. -1.
       -1    1    3    3    0  502 -0.37133375331E+03  0.57323727836E+03 -0.98626645516E+03  0.11996713109E+04  0.50400001928E-02 0.  1.
</event>
<event>
 5   0  0.4448804E-06  0.2713761E+04  0.7818609E-02  0.8330554E-01
       -2   -1    0    0    0  501  0.00000000000E+00  0.00000000000E+00  0.12173827718E+04  0.12173827718E+04  0.25500000920E-02 0. -1.
        2   -1    0    0  501    0  0.00000000000E+00  0.00000000000E+00 -0.15123630019E+04  0.15123630019E+04  0.25500000920E-02 0.  1.
    10030    2    1    2    0    0  0.00000000000E+00  0.00000000000E+00 -0.29498023008E+03  0.27297457736E+04  0.27137609793E+04 0.  0.
        2    1    3    3  502    0  0.10869565894E+04 -0.80282909868E+03 -0.27115929923E+03  0.13782367556E+04  0.25500000920E-02 0.  1.
       -2    1    3    3    0  502 -0.10869565894E+04  0.80282909868E+03 -0.23820930844E+02  0.13515090180E+04  0.25500000920E-02 0. -1.
</event>
<event>
 5   0  0.1771016E-06  0.2706265E+04  0.7818609E-02  0.8332975E-01
        1   -1    0    0  501    0  0.00000000000E+00  0.00000000000E+00  0.14193236127E+04  0.14193236127E+04  0.50400001928E-02 0.  1.
       -1   -1    0    0    0  501  0.00000000000E+00  0.00000000000E+00 -0.12900278908E+04  0.12900278908E+04  0.50400001928E-02 0. -1.
    10030    2    1    2    0    0  0.00000000000E+00  0.00000000000E+00  0.12929572187E+03  0.27093515035E+04  0.27062646186E+04 0.  0.
        2    1    3    3  502    0 -0.23634251460E+03  0.69895096721E+03  0.12002153553E+04  0.14088673244E+04  0.25500000920E-02 0.  1.
       -2    1    3    3    0  502  0.23634251460E+03 -0.69895096721E+03 -0.10709196334E+04  0.13004841791E+04  0.25500000920E-02 0. -1.
</event>
<event>
 5   0  0.1732312E-06  0.2700592E+04  0.7818609E-02  0.8334813E-01
       -1   -1    0    0    0  501  0.00000000000E+00  0.00000000000E+00  0.13424631011E+04  0.13424631011E+04  0.50400001928E-02 0.  1.
        1   -1    0    0  501    0  0.00000000000E+00  0.00000000000E+00 -0.13581743712E+04  0.13581743712E+04  0.50400001928E-02 0. -1.
    10030    2    1    2    0    0  0.00000000000E+00  0.00000000000E+00 -0.15711270150E+02  0.27006374723E+04  0.27005917709E+04 0.  0.
        5    1    3    3  502    0  0.17242601163E+03  0.12875979566E+04 -0.37615205331E+03  0.13524613431E+04  0.46999998093E+01 0. -1.
       -5    1    3    3    0  502 -0.17242601163E+03 -0.12875979566E+04  0.36044078316E+03  0.13481761292E+04  0.46999998093E+01 0.  1.
</event>
<event>
 5   0  0.4655882E-06  0.2694038E+04  0.7818609E-02  0.8336942E-01
       -2   -1    0    0    0  501  0.00000000000E+00  0.00000000000E+00  0.11386148572E+04  0.11386148572E+04  0.25500000920E-02 0. -1.
        2   -1    0    0  501    0  0.00000000000E+00  0.00000000000E+00 -0.15935685232E+04  0.15935685232E+04  0.25500000920E-02 0.  1.
    10030    2    1    2    0    0  0.00000000000E+00  0.00000000000E+00 -0.45495366600E+03  0.27321833805E+04  0.26940384530E+04 0.  0.
        1    1    3    3  502    0  0.10549066342E+04 -0.64006222318E+02  0.61953478260E+03  0.12250502644E+04  0.50400001928E-02 0. -1.
       -1    1    3    3    0  502 -0.10549066342E+04  0.64006222318E+02 -0.10744884486E+04  0.15071331161E+04  0.50400001928E-02 0.  1.
</event>
<event>
 5   0  0.4655882E-06  0.2702960E+04  0.7818609E-02  0.8334045E-01
       -2   -1    0    0    0  501  0.00000000000E+00  0.00000000000E+00  0.74885031327E+03  0.74885031327E+03  0.25500000920E-02 0. -1.
        2   -1    0    0  501    0  0.00000000000E+00  0.00000000000E+00 -0.24390704367E+04  0.24390704367E+04  0.25500000920E-02 0.  1.
    10030    2    1    2    0    0  0.00000000000E+00  0.00000000000E+00 -0.16902201234E+04  0.31879207500E+04  0.27029603479E+04 0.  0.
        1    1    3    3  502    0 -0.20338185613E+03 -0.26222646406E+03 -0.23902702945E+04  0.24131968379E+04  0.50400001928E-02 0.  1.
       -1    1    3    3    0  502  0.20338185613E+03  0.26222646406E+03  0.70005017106E+03  0.77472391204E+03  0.50400001928E-02 0. -1.
</event>
<event>
 5   0  0.4448804E-06  0.2693500E+04  0.7818609E-02  0.8337117E-01
        2   -1    0    0  501    0  0.00000000000E+00  0.00000000000E+00  0.10426027669E+04  0.10426027669E+04  0.25500000920E-02 0. -1.
       -2   -1    0    0    0  501  0.00000000000E+00  0.00000000000E+00 -0.17396222864E+04  0.17396222864E+04  0.25500000920E-02 0.  1.
    10030    2    1    2    0    0  0.00000000000E+00  0.00000000000E+00 -0.69701951954E+03  0.27822250533E+04  0.26934995891E+04 0.  0.
        2    1    3    3  502    0  0.16312289315E+03  0.87158309640E+03 -0.13955410791E+04  0.16534210219E+04  0.25500000920E-02 0.  1.
       -2    1    3    3    0  502 -0.16312289315E+03 -0.87158309640E+03  0.69852155953E+03  0.11288040314E+04  0.25500000920E-02 0. -1.
</event>
<event>
 5   0  0.4401659E-06  0.2596431E+04  0.7818609E-02  0.8369414E-01
        2   -1    0    0  501    0  0.00000000000E+00  0.00000000000E+00  0.14732931798E+04  0.14732931798E+04  0.25500000920E-02 0.  1.
       -2   -1    0    0    0  501  0.00000000000E+00  0.00000000000E+00 -0.11439432226E+04  0.11439432226E+04  0.25500000920E-02 0. -1.
    10030    2    1    2    0    0  0.00000000000E+00  0.00000000000E+00  0.32934995719E+03  0.26172364025E+04  0.25964312030E+04 0.  0.
        5    1    3    3  502    0 -0.29785451952E+03 -0.11063280590E+04  0.78002754930E+03  0.13860534465E+04  0.46999998093E+01 0.  1.
       -5    1    3    3    0  502  0.29785451952E+03  0.11063280590E+04 -0.45067759211E+03  0.12311829559E+04  0.46999998093E+01 0. -1.
</event>
<event>
 5   0  0.1828511E-06  0.2687760E+04  0.7818609E-02  0.8338987E-01
        1   -1    0    0  501    0  0.00000000000E+00  0.00000000000E+00  0.18905774933E+04  0.18905774933E+04  0.50400001928E-02 0. -1.
       -1   -1    0    0    0  501  0.00000000000E+00  0.00000000000E+00 -0.95527055685E+03  0.95527055686E+03  0.50400001928E-02 0.  1.
    10030    2    1    2    0    0  0.00000000000E+00  0.00000000000E+00  0.93530693645E+03  0.28458480502E+04  0.26877596729E+04 0.  0.
        4    1    3    3  502    0  0.13376039376E+03 -0.69312918076E+03  0.16784576840E+04  0.18208629037E+04  0.12699999809E+01 0. -1.
       -4    1    3    3    0  502 -0.13376039376E+03  0.69312918076E+03 -0.74315074750E+03  0.10249851465E+04  0.12699999809E+01 0.  1.
</event>
<event>
 5   0  0.4655882E-06  0.2675063E+04  0.7818609E-02  0.8343142E-01
       -2   -1    0    0    0  501  0.00000000000E+00  0.00000000000E+00  0.11833093190E+04  0.11833093190E+04  0.25500000920E-02 0.  1.
        2   -1    0    0  501    0  0.00000000000E+00  0.00000000000E+00 -0.15118538271E+04  0.15118538271E+04  0.25500000920E-02 0. -1.
    10030    2    1    2    0    0  0.00000000000E+00  0.00000000000E+00 -0.32854450816E+03  0.26951631461E+04  0.26750631563E+04 0.  0.
        1    1    3    3  502    0  0.13442488450E+03  0.13128371445E+04 -0.38357565247E+03  0.13743149926E+04  0.50400001928E-02 0. -1.
       -1    1    3    3    0  502 -0.13442488450E+03 -0.13128371445E+04  0.55031144313E+02  0.13208481535E+04  0.50400001928E-02 0.  1.
</event>
<event>
 5   0  0.1723605E-06  0.2698864E+04  0.7818609E-02  0.8335374E-01
        1   -1    0    0  501    0  0.00000000000E+00  0.00000000000E+00  0.18327180673E+04  0.18327180673E+04  0.50400001928E-02 0. -1.
       -1   -1    0    0    0  501  0.00000000000E+00  0.00000000000E+00 -0.99358777889E+03  0.99358777890E+03  0.50400001928E-02 0.  1.
    10030    2    1    2    0    0  0.00000000000E+00  0.00000000000E+00  0.83913028839E+03  0.28263058462E+04  0.26988636674E+04 0.  0.
        1    1    3    3  502    0  0.17014893152E+03  0.13380715272E+04  0.46119401842E+03  0.14255125371E+04  0.50400001928E-02 0. -1.
       -1    1    3    3    0  502 -0.17014893152E+03 -0.13380715272E+04  0.37793626997E+03  0.14007933091E+04  0.50400001928E-02 0.  1.
</event>
<event>
 5   0  0.1771016E-06  0.2701353E+04  0.7818609E-02  0.8334566E-01
       -1   -1    0    0    0  501  0.00000000000E+00  0.00000000000E+00  0.93563558895E+03  0.93563558896E+03  0.50400001928E-02 0.  1.
        1   -1    0    0  501    0  0.00000000000E+00  0.00000000000E+00 -0.19498267545E+04  0.19498267545E+04  0.50400001928E-02 0. -1.
    10030    2    1    2    0    0  0.00000000000E+00  0.00000000000E+00 -0.10141911656E+04  0.28854623435E+04  0.27013532193E+04 0.  0.
        2    1    3    3  502    0 -0.12179496113E+04 -0.54496540624E+03 -0.28319361716E+03  0.13640334213E+04  0.25500000920E-02 0.  1.
       -2    1    3    3    0  502  0.12179496113E+04  0.54496540624E+03 -0.73099754842E+03  0.15214289222E+04  0.25500000920E-02 0. -1.
</event>
<event>
 5   0  0.1753474E-06  0.2691879E+04  0.7818609E-02  0.8337645E-01
       -1   -1    0    0    0  501  0.00000000000E+00  0.00000000000E+00  0.99871887708E+03  0.99871887709E+03  0.50400001928E-02 0.  1.
        1   -1    0    0  501    0  0.00000000000E+00  0.00000000000E+00 -0.18138764495E+04  0.18138764495E+04  0.50400001928E-02 0. -1.
    10030    2    1    2    0    0  0.00000000000E+00  0.00000000000E+00 -0.81515757246E+03  0.28125953266E+04  0.26918786383E+04 0.  0.
        3    1    3    3  502    0  0.59257768282E+02  0.13730582750E+02  0.99728199029E+03  0.99913532134E+03  0.10100000352E+00 0.  1.
       -3    1    3    3    0  502 -0.59257768282E+02 -0.13730582750E+02 -0.18124395627E+04  0.18134600053E+04  0.10100000352E+00 0. -1.
</event>
<event>
 5   0  0.1732312E-06  0.2700626E+04  0.7818609E-02  0.8334802E-01
       -1   -1    0    0    0  501  0.00000000000E+00  0.00000000000E+00  0.10897601949E+04  0.10897601949E+04  0.50400001928E-02 0.  1.
        1   -1    0    0  501    0  0.00000000000E+00  0.00000000000E+00 -0.16731614334E+04  0.16731614334E+04  0.50400001928E-02 0. -1.
    10030    2    1    2    0    0  0.00000000000E+00  0.00000000000E+00 -0.58340123851E+03  0.27629216284E+04  0.27006256533E+04 0.  0.
        5    1    3    3  502    0 -0.17459088035E+03  0.12752808005E+04 -0.70915661383E+03  0.14696082092E+04  0.46999998093E+01 0. -1.
       -5    1    3    3    0  502  0.17459088035E+03 -0.12752808005E+04  0.12575537531E+03  0.12933134191E+04  0.46999998093E+01 0.  1.
</event>
<event>
 5   0  0.1771016E-06  0.2700537E+04  0.7818609E-02  0.8334831E-01
        1   -1    0    0  501    0  0.00000000000E+00  0.00000000000E+00  0.16717333354E+04  0.16717333355E+04  0.50400001928E-02 0.  1.
       -1   -1    0    0    0  501  0.00000000000E+00  0.00000000000E+00 -0.10906199259E+04  0.10906199259E+04  0.50400001928E-02 0. -1.
    10030    2    1    2    0    0  0.00000000000E+00  0.00000000000E+00  0.58111340957E+03  0.27623532613E+04  0.27005374920E+04 0.  0.
        2    1    3    3  502    0  0.44365662756E+03 -0.37841509339E+03 -0.95518599891E+03  0.11191110216E+04  0.25500000920E-02 0. -1.
       -2    1    3    3    0  502 -0.44365662756E+03  0.37841509339E+03  0.15362994085E+04  0.16432422398E+04  0.25500000920E-02 0.  1.
</event>
<event>
 5   0  0.4655882E-06  0.2679285E+04  0.7818609E-02  0.8341758E-01
       -2   -1    0    0    0  501  0.00000000000E+00  0.00000000000E+00  0.65672802478E+03  0.65672802478E+03  0.25500000920E-02 0.  1.
        2   -1    0    0  501    0  0.00000000000E+00  0.00000000000E+00 -0.27327021669E+04  0.27327021669E+04  0.25500000920E-02 0. -1.
    10030    2    1    2    0    0  0.00000000000E+00  0.00000000000E+00 -0.20759741421E+04  0.33894301917E+04  0.26792850512E+04 0.  0.
        1    1    3    3  502    0 -0.13858182026E+03 -0.72737209082E+02  0.64512244261E+03  0.66383626632E+03  0.50400001928E-02 0.  1.
       -1    1    3    3    0  502  0.13858182026E+03  0.72737209082E+02 -0.27210965847E+04  0.27255939254E+04  0.50400001928E-02 0. -1.
</event>
<event>
 5   0  0.4487186E-06  0.2676307E+04  0.7818609E-02  0.8342734E-01
        2   -1    0    0  501    0  0.00000000000E+00  0.00000000000E+00  0.15544351951E+04  0.15544351951E+04  0.25500000920E-02 0.  1.
       -2   -1    0    0    0  501  0.00000000000E+00  0.00000000000E+00 -0.11519653005E+04  0.11519653005E+04  0.25500000920E-02 0. -1.
    10030    2    1    2    0    0  0.00000000000E+00  0.00000000000E+00  0.40246989456E+03  0.27064004956E+04  0.26763074611E+04 0.  0.
        3    1    3    3  502    0 -0.14332926338E+03 -0.79262511358E+03 -0.87935773699E+03  0.11925048797E+04  0.10100000352E+00 0. -1.
       -3    1    3    3    0  502  0.14332926338E+03  0.79262511358E+03  0.12818276316E+04  0.15138956158E+04  0.10100000352E+00 0.  1.
</event>
<event>
 5   0  0.1723605E-06  0.2704506E+04  0.7818609E-02  0.8333544E-01
       -1   -1    0    0    0  501  0.00000000000E+00  0.00000000000E+00  0.22590989173E+04  0.22590989173E+04  0.50400001928E-02 0. -1.
        1   -1    0    0  501    0  0.00000000000E+00  0.00000000000E+00 -0.80943249220E+03  0.80943249222E+03  0.50400001928E-02 0.  1.
    10030    2    1    2    0    0  0.00000000000E+00  0.00000000000E+00  0.14496664251E+04  0.30685314095E+04  0.27045059192E+04 0.  0.
        1    1    3    3  502    0  0.51474175591E+03  0.57953028186E+03  0.19820257370E+04  0.21282012229E+04  0.50400001928E-02 0. -1.
       -1    1    3    3    0  502 -0.51474175591E+03 -0.57953028186E+03 -0.53235931193E+03  0.94033018663E+03  0.50400001928E-02 0.  1.
</event>
<event>
 5   0  0.1771016E-06  0.2697905E+04  0.7818609E-02  0.8335685E-01
        1   -1    0    0  501    0  0.00000000000E+00  0.00000000000E+00  0.14295946493E+04  0.14295946493E+04  0.50400001928E-02 0. -1.
       -1   -1    0    0    0  501  0.00000000000E+00  0.00000000000E+00 -0.12728588483E+04  0.12728588483E+04  0.50400001928E-02 0.  1.
    10030    2    1    2    0    0  0.00000000000E+00  0.00000000000E+00  0.15673580095E+03  0.27024534976E+04  0.26979045194E+04 0.  0.
        2    1    3    3  502    0  0.39762464114E+03  0.19530470693E+03  0.13546523857E+04  0.14252481783E+04  0.25500000920E-02 0. -1.
       -2    1    3    3    0  502 -0.39762464114E+03 -0.19530470693E+03 -0.11979165847E+04  0.12772053193E+04  0.25500000920E-02 0.  1.
</event>
<event>
 5   0  0.1723605E-06  0.2700208E+04  0.7818609E-02  0.8334937E-01
        1   -1    0    0  501    0  0.00000000000E+00  0.00000000000E+00  0.18828837576E+04  0.18828837576E+04  0.50400001928E-02 0.  1.
       -1   -1    0    0    0  501  0.00000000000E+00  0.00000000000E+00 -0.96807940598E+03  0.96807940599E+03  0.50400001928E-02 0. -1.
    10030    2    1    2    0    0  0.00000000000E+00  0.00000000000E+00  0.91480435161E+03  0.28509631636E+04  0.27002081324E+04 0.  0.
        1    1    3    3  502    0 -0.86184347490E+03 -0.94843518231E+03  0.90594707417E+03  0.15694086694E+04  0.50400001928E-02 0.  1.
       -1    1    3    3    0  502  0.86184347490E+03  0.94843518231E+03  0.88572774396E+01  0.12815544942E+04  0.50400001928E-02 0. -1.
</event>
<event>
 5   0  0.1828511E-06  0.2652424E+04  0.7818609E-02  0.8350609E-01
       -1   -1    0    0    0  501  0.00000000000E+00  0.00000000000E+00  0.76897544018E+03  0.76897544019E+03  0.50400001928E-02 0.  1.
        1   -1    0    0  501    0  0.00000000000E+00  0.00000000000E+00 -0.22872481674E+04  0.22872481674E+04  0.50400001928E-02 0. -1.
    10030    2    1    2    0    0  0.00000000000E+00  0.00000000000E+00 -0.15182727272E+04  0.30562236076E+04  0.26524235456E+04 0.  0.
        4    1    3    3  502    0  0.90822679672E+03 -0.44087999158E+03 -0.17500511081E+04  0.20203790672E+04  0.12699999809E+01 0. -1.
       -4    1    3    3    0  502 -0.90822679672E+03  0.44087999158E+03  0.23177838083E+03  0.10358445405E+04  0.12699999809E+01 0.  1.
</event>
<event>
 5   0  0.1732312E-06  0.2675389E+04  0.7818609E-02  0.8343035E-01
       -1   -1    0    0    0  501  0.00000000000E+00  0.00000000000E+00  0.64770927037E+03  0.64770927039E+03  0.50400001928E-02 0. -1.
        1   -1    0    0  501    0  0.00000000000E+00  0.00000000000E+00 -0.27627003281E+04  0.27627003281E+04  0.50400001928E-02 0.  1.
    10030    2    1    2    0    0  0.00000000000E+00  0.00000000000E+00 -0.21149910578E+04  0.34104095985E+04  0.26753890288E+04 0.  0.
        5    1    3    3  502    0  0.12548562155E+04  0.84436656273E+02 -0.16383196272E+04  0.20654072144E+04  0.46999998093E+01 0.  1.
       -5    1    3    3    0  502 -0.12548562155E+04 -0.84436656273E+02 -0.47667143056E+03  0.13450023841E+04  0.46999998093E+01 0. -1.
</event>
<event>
 5   0  0.4655882E-06  0.2705098E+04  0.7818609E-02  0.8333353E-01
        2   -1    0    0  501    0  0.00000000000E+00  0.00000000000E+00  0.11467479783E+04  0.11467479783E+04  0.25500000920E-02 0. -1.
       -2   -1    0    0    0  501  0.00000000000E+00  0.00000000000E+00 -0.15952837542E+04  0.15952837542E+04  0.25500000920E-02 0.  1.
    10030    2    1    2    0    0  0.00000000000E+00  0.00000000000E+00 -0.44853577588E+03  0.27420317325E+04  0.27050977209E+04 0.  0.
        1    1    3    3  502    0  0.18043415082E+03 -0.86227911152E+03 -0.12645878579E+04  0.15411892159E+04  0.50400001928E-02 0.  1.
       -1    1    3    3    0  502 -0.18043415082E+03  0.86227911152E+03  0.81605208201E+03  0.12008425165E+04  0.50400001928E-02 0. -1.
</event>
<event>
 5   0  0.1732312E-06  0.2702356E+04  0.7818609E-02  0.8334241E-01
       -1   -1    0    0    0  501  0.00000000000E+00  0.00000000000E+00  0.15043097762E+04  0.15043097762E+04  0.50400001928E-02 0. -1.
        1   -1    0    0  501    0  0.00000000000E+00  0.00000000000E+00 -0.12136346223E+04  0.12136346223E+04  0.50400001928E-02 0.  1.
    10030    2    1    2    0    0  0.00000000000E+00  0.00000000000E+00  0.29067515388E+03  0.27179443986E+04  0.27023563252E+04 0.  0.
        5    1    3    3  502    0 -0.17657835708E+03 -0.54760514864E+03 -0.10842564774E+04  0.12274711866E+04  0.46999998093E+01 0.  1.
       -5    1    3    3    0  502  0.17657835708E+03  0.54760514864E+03  0.13749316313E+04  0.14904732120E+04  0.46999998093E+01 0. -1.
</event>
<event>
 5   0  0.4448804E-06  0.2695106E+04  0.7818609E-02  0.8336594E-01
       -2   -1    0    0    0  501  0.00000000000E+00  0.00000000000E+00  0.14879170672E+04  0.14879170672E+04  0.25500000920E-02 0.  1.
        2   -1    0    0  501    0  0.00000000000E+00  0.00000000000E+00 -0.12204307119E+04  0.12204307119E+04  0.25500000920E-02 0. -1.
    10030    2    1    2    0    0  0.00000000000E+00  0.00000000000E+00  0.26748635527E+03  0.27083477791E+04  0.26951064436E+04 0.  0.
        2    1    3    3  502    0 -0.66912589947E+03 -0.30873134801E+03 -0.10000086616E+04  0.12422004016E+04  0.25500000920E-02 0. -1.
       -2    1    3    3    0  502  0.66912589947E+03  0.30873134801E+03  0.12674950169E+04  0.14661473774E+04  0.25500000920E-02 0.  1.
</event>
<event>
 5   0  0.1828511E-06  0.2694644E+04  0.7818609E-02  0.8336745E-01
       -1   -1    0    0    0  501  0.00000000000E+00  0.00000000000E+00  0.20182705894E+04  0.20182705894E+04  0.50400001928E-02 0.  1.
        1   -1    0    0  501    0  0.00000000000E+00  0.00000000000E+00 -0.89942172417E+03  0.89942172418E+03  0.50400001928E-02 0. -1.
    10030    2    1    2    0    0  0.00000000000E+00  0.00000000000E+00  0.11188488653E+04  0.29176923136E+04  0.26946438825E+04 0.  0.
        4    1    3    3  502    0  0.28996508088E+03 -0.32396684596E+03 -0.82137469572E+03  0.92935045547E+03  0.12699999809E+01 0. -1.
       -4    1    3    3    0  502 -0.28996508088E+03  0.32396684596E+03  0.19402235610E+04  0.19883418582E+04  0.12699999809E+01 0.  1.
</event>
<event>
 5   0  0.4487186E-06  0.2716202E+04  0.7818609E-02  0.8329767E-01
       -2   -1    0    0    0  501  0.00000000000E+00  0.00000000000E+00  0.10205276581E+04  0.10205276581E+04  0.25500000920E-02 0. -1.
        2   -1    0    0  501    0  0.00000000000E+00  0.00000000000E+00 -0.18073381172E+04  0.18073381172E+04  0.25500000920E-02 0.  1.
    10030    2    1    2    0    0  0.00000000000E+00  0.00000000000E+00 -0.78681045904E+03  0.28278657753E+04  0.27162021546E+04 0.  0.
        3    1    3    3  502    0  0.10124397606E+04 -0.61269223417E+02 -0.13336668577E+04  0.16755463241E+04  0.10100000352E+00 0.  1.
       -3    1    3    3    0  502 -0.10124397606E+04  0.61269223417E+02  0.54685639869E+03  0.11523194512E+04  0.10100000352E+00 0. -1.
</event>
<event>
 5   0  0.1723605E-06  0.2703548E+04  0.7818609E-02  0.8333855E-01
       -1   -1    0    0    0  501  0.00000000000E+00  0.00000000000E+00  0.84426350946E+03  0.84426350947E+03  0.50400001928E-02 0. -1.
        1   -1    0    0  501    0  0.00000000000E+00  0.00000000000E+00 -0.21643627044E+04  0.21643627044E+04  0.50400001928E-02 0.  1.
    10030    2    1    2    0    0  0.00000000000E+00  0.00000000000E+00 -0.13200991950E+04  0.30086262139E+04  0.27035476342E+04 0.  0.
        1    1    3    3  502    0  0.23428398635E+03  0.83260622827E+03  0.49600729833E+03  0.99706838162E+03  0.50400001928E-02 0. -1.
       -1    1    3    3    0  502 -0.23428398635E+03 -0.83260622827E+03 -0.18161064933E+04  0.20115578323E+04  0.50400001928E-02 0.  1.
</event>
<event>
 5   0  0.4487186E-06  0.2701651E+04  0.7818609E-02  0.8334470E-01
       -2   -1    0    0    0  501  0.00000000000E+00  0.00000000000E+00  0.80743661550E+03  0.80743661550E+03  0.25500000920E-02 0. -1.
        2   -1    0    0  501    0  0.00000000000E+00  0.00000000000E+00 -0.22599039400E+04  0.22599039400E+04  0.25500000920E-02 0.  1.
    10030    2    1    2    0    0  0.00000000000E+00  0.00000000000E+00 -0.14524673245E+04  0.30673405555E+04  0.27016507462E+04 0.  0.
        3    1    3    3  502    0  0.12214925767E+04 -0.55134971783E+03 -0.91857063863E+03  0.16247469510E+04  0.10100000352E+00 0.  1.
       -3    1    3    3    0  502 -0.12214925767E+04  0.55134971783E+03 -0.53389668583E+03  0.14425936045E+04  0.10100000352E+00 0. -1.
</event>
<event>
 5   0  0.1732312E-06  0.2713532E+04  0.7818609E-02  0.8330628E-01
       -1   -1    0    0    0  501  0.00000000000E+00  0.00000000000E+00  0.17471698391E+04  0.17471698391E+04  0.50400001928E-02 0. -1.
        1   -1    0    0  501    0  0.00000000000E+00  0.00000000000E+00 -0.10535974231E+04  0.10535974231E+04  0.50400001928E-02 0.  1.
    10030    2    1    2    0    0  0.00000000000E+00  0.00000000000E+00  0.69357241595E+03  0.28007672622E+04  0.27135317505E+04 0.  0.
        5    1    3    3  502    0  0.80510366700E+03  0.58340852660E+03 -0.60605728909E+03  0.11644247297E+04  0.46999998093E+01 0.  1.
       -5    1    3    3    0  502 -0.80510366700E+03 -0.58340852660E+03  0.12996297050E+04  0.16363425325E+04  0.46999998093E+01 0. -1.
</event>
<event>
 5   0  0.1732312E-06  0.2706369E+04  0.7818609E-02  0.8332941E-01
       -1   -1    0    0    0  501  0.00000000000E+00  0.00000000000E+00  0.12469102662E+04  0.12469102662E+04  0.50400001928E-02 0.  1.
        1   -1    0    0  501    0  0.00000000000E+00  0.00000000000E+00 -0.14685168071E+04  0.14685168071E+04  0.50400001928E-02 0. -1.
    10030    2    1    2    0    0  0.00000000000E+00  0.00000000000E+00 -0.22160654090E+03  0.27154270733E+04  0.27063692895E+04 0.  0.
        5    1    3    3  502    0  0.66224104763E+01 -0.11818994354E+03 -0.14633035983E+04  0.14680913561E+04  0.46999998093E+01 0. -1.
       -5    1    3    3    0  502 -0.66224104763E+01  0.11818994354E+03  0.12416970574E+04  0.12473357172E+04  0.46999998093E+01 0.  1.
</event>
<event>
 5   0  0.1753474E-06  0.2702025E+04  0.7818609E-02  0.8334348E-01
       -1   -1    0    0    0  501  0.00000000000E+00  0.00000000000E+00  0.95244528897E+03  0.95244528898E+03  0.50400001928E-02 0. -1.
        1   -1    0    0  501    0  0.00000000000E+00  0.00000000000E+00 -0.19163674545E+04  0.19163674545E+04  0.50400001928E-02 0.  1.
    10030    2    1    2    0    0  0.00000000000E+00  0.00000000000E+00 -0.96392216556E+03  0.28688127435E+04  0.27020252804E+04 0.  0.
        3    1    3    3  502    0 -0.18979276061E+03  0.13166210993E+04 -0.23133342445E+03  0.13501953839E+04  0.10100000352E+00 0.  1.
       -3    1    3    3    0  502  0.18979276061E+03 -0.13166210993E+04 -0.73258874112E+03  0.15186173596E+04  0.10100000352E+00 0. -1.
</event>
<event>
 5   0  0.4401659E-06  0.2619656E+04  0.7818609E-02  0.8361555E-01
        2   -1    0    0  501    0  0.00000000000E+00  0.00000000000E+00  0.18012230890E+04  0.18012230890E+04  0.25500000920E-02 0. -1.
       -2   -1    0    0    0  501  0.00000000000E+00  0.00000000000E+00 -0.95249128896E+03  0.95249128896E+03  0.25500000920E-02 0.  1.
    10030    2    1    2    0    0  0.00000000000E+00  0.00000000000E+00  0.84873180000E+03  0.27537143779E+04  0.26196559329E+04 0.  0.
        5    1    3    3  502    0  0.11974268327E+04 -0.48281422273E+03  0.19242387591E+03  0.13053695383E+04  0.46999998093E+01 0.  1.
       -5    1    3    3    0  502 -0.11974268327E+04  0.48281422273E+03  0.65630792409E+03  0.14483448397E+04  0.46999998093E+01 0. -1.
</event>
<event>
 5   0  0.4655882E-06  0.2708803E+04  0.7818609E-02  0.8332154E-01
        2   -1    0    0  501    0  0.00000000000E+00  0.00000000000E+00  0.10860378145E+04  0.10860378145E+04  0.25500000920E-02 0.  1.
       -2   -1    0    0    0  501  0.00000000000E+00  0.00000000000E+00 -0.16890790968E+04  0.16890790968E+04  0.25500000920E-02 0. -1.
    10030    2    1    2    0    0  0.00000000000E+00  0.00000000000E+00 -0.60304128225E+03  0.27751169113E+04  0.27088032567E+04 0.  0.
        1    1    3    3  502    0  0.11590575101E+04 -0.17917801016E+03  0.39247318968E+03  0.12367515012E+04  0.50400001928E-02 0.  1.
       -1    1    3    3    0  502 -0.11590575101E+04  0.17917801016E+03 -0.99551447193E+03  0.15383654101E+04  0.50400001928E-02 0. -1.
</event>
<event>
 5   0  0.4655882E-06  0.2697422E+04  0.7818609E-02  0.8335842E-01
        2   -1    0    0  501    0  0.00000000000E+00  0.00000000000E+00  0.10188207392E+04  0.10188207392E+04  0.25500000920E-02 0.  1.
       -2   -1    0    0    0  501  0.00000000000E+00  0.00000000000E+00 -0.17854186629E+04  0.17854186629E+04  0.25500000920E-02 0. -1.
    10030    2    1    2    0    0  0.00000000000E+00  0.00000000000E+00 -0.76659792373E+03  0.28042394021E+04  0.26974221486E+04 0.  0.
        1    1    3    3  502    0 -0.65089343262E+03 -0.78424239113E+03 -0.13016387906E+04  0.16531672420E+04  0.50400001928E-02 0. -1.
       -1    1    3    3    0  502  0.65089343262E+03  0.78424239113E+03  0.53504086686E+03  0.11510721602E+04  0.50400001928E-02 0.  1.
</event>
<event>
 5   0  0.1771016E-06  0.2702190E+04  0.7818609E-02  0.8334295E-01
        1   -1    0    0  501    0  0.00000000000E+00  0.00000000000E+00  0.16336801963E+04  0.16336801963E+04  0.50400001928E-02 0.  1.
       -1   -1    0    0    0  501  0.00000000000E+00  0.00000000000E+00 -0.11173900492E+04  0.11173900492E+04  0.50400001928E-02 0. -1.
    10030    2    1    2    0    0  0.00000000000E+00  0.00000000000E+00  0.51629014711E+03  0.27510702455E+04  0.27021902190E+04 0.  0.
        2    1    3    3  502    0  0.11545244055E+03  0.29676408023E+03  0.15949311889E+04  0.16264082152E+04  0.25500000920E-02 0.  1.
       -2    1    3    3    0  502 -0.11545244055E+03 -0.29676408023E+03 -0.10786410418E+04  0.11246620303E+04  0.25500000920E-02 0. -1.
</event>
<event>
 5   0  0.1771016E-06  0.2631784E+04  0.7818609E-02  0.8357484E-01
       -1   -1    0    0    0  501  0.00000000000E+00  0.00000000000E+00  0.11867966128E+04  0.11867966128E+04  0.50400001928E-02 0.  1.
        1   -1    0    0  501    0  0.00000000000E+00  0.00000000000E+00 -0.14590295418E+04  0.14590295418E+04  0.50400001928E-02 0. -1.
    10030    2    1    2    0    0  0.00000000000E+00  0.00000000000E+00 -0.27223292901E+03  0.26458261547E+04  0.26317836676E+04 0.  0.
        2    1    3    3  502    0  0.45596066481E+03  0.57857558995E+01  0.11048269397E+04  0.11952305926E+04  0.25500000920E-02 0.  1.
       -2    1    3    3    0  502 -0.45596066481E+03 -0.57857558995E+01 -0.13770598687E+04  0.14505955621E+04  0.25500000920E-02 0. -1.
</event>
<event>
 5   0  0.4448804E-06  0.2578949E+04  0.7818609E-02  0.8375387E-01
        2   -1    0    0  501    0  0.00000000000E+00  0.00000000000E+00  0.99865736496E+03  0.99865736496E+03  0.25500000920E-02 0. -1.
       -2   -1    0    0    0  501  0.00000000000E+00  0.00000000000E+00 -0.16649802752E+04  0.16649802752E+04  0.25500000920E-02 0.  1.
    10030    2    1    2    0    0  0.00000000000E+00  0.00000000000E+00 -0.66632291020E+03  0.26636376401E+04  0.25789492545E+04 0.  0.
        2    1    3    3  502    0 -0.12348848878E+04  0.32082718686E+03 -0.52603981516E+03  0.13800683523E+04  0.25500000920E-02 0.  1.
       -2    1    3    3    0  502  0.12348848878E+04 -0.32082718686E+03 -0.14028309504E+03  0.12835692878E+04  0.25500000920E-02 0. -1.
</event>
<event>
 5   0  0.1732312E-06  0.2688963E+04  0.7818609E-02  0.8338595E-01
       -1   -1    0    0    0  501  0.00000000000E+00  0.00000000000E+00  0.14059870859E+04  0.14059870859E+04  0.50400001928E-02 0.  1.
        1   -1    0    0  501    0  0.00000000000E+00  0.00000000000E+00 -0.12856663716E+04  0.12856663716E+04  0.50400001928E-02 0. -1.
    10030    2    1    2    0    0  0.00000000000E+00  0.00000000000E+00  0.12032071423E+03  0.26916534575E+04  0.26889628597E+04 0.  0.
        5    1    3    3  502    0  0.58699634198E+03 -0.93935413643E+02 -0.11469565889E+04  0.12918668950E+04  0.46999998093E+01 0. -1.
       -5    1    3    3    0  502 -0.58699634198E+03  0.93935413643E+02  0.12672773032E+04  0.13997865625E+04  0.46999998093E+01 0.  1.
</event>
<event>
 5   0  0.1828511E-06  0.2719679E+04  0.7818609E-02  0.8328648E-01
       -1   -1    0    0    0  501  0.00000000000E+00  0.00000000000E+00  0.11741958187E+04  0.11741958187E+04  0.50400001928E-02 0.  1.
        1   -1    0    0  501    0  0.00000000000E+00  0.00000000000E+00 -0.15748338947E+04  0.15748338948E+04  0.50400001928E-02 0. -1.
    10030    2    1    2    0    0  0.00000000000E+00  0.00000000000E+00 -0.40063807608E+03  0.27490297134E+04  0.27196789328E+04 0.  0.
        4    1    3    3  502    0 -0.81250027895E+03 -0.57281907852E+03 -0.11381702716E+04  0.15111954142E+04  0.12699999809E+01 0. -1.
       -4    1    3    3    0  502  0.81250027895E+03  0.57281907852E+03  0.73753219548E+03  0.12378342992E+04  0.12699999809E+01 0.  1.
</event>
<event>
 5   0  0.1753474E-06  0.2675999E+04  0.7818609E-02  0.8342835E-01
        1   -1    0    0  501    0  0.00000000000E+00  0.00000000000E+00  0.17705827005E+04  0.17705827005E+04  0.50400001928E-02 0. -1.
       -1   -1    0    0    0  501  0.00000000000E+00  0.00000000000E+00 -0.10111039981E+04  0.10111039981E+04  0.50400001928E-02 0.  1.
    10030    2    1    2    0    0  0.00000000000E+00  0.00000000000E+00  0.75947870240E+03  0.27816866987E+04  0.26759994376E+04 0.  0.
        3    1    3    3  502    0 -0.23411816798E+03  0.52571356445E+03  0.16353597147E+04  0.17336630223E+04  0.10100000352E+00 0. -1.
       -3    1    3    3    0  502  0.23411816798E+03 -0.52571356445E+03 -0.87588101225E+03  0.10480236764E+04  0.10100000352E+00 0.  1.
</event>
<event>
 5   0  0.1732312E-06  0.2696113E+04  0.7818609E-02  0.8336267E-01
       -1   -1    0    0    0  501  0.00000000000E+00  0.00000000000E+00  0.10216474692E+04  0.10216474692E+04  0.50400001928E-02 0.  1.
        1   -1    0    0  501    0  0.00000000000E+00  0.00000000000E+00 -0.17787512407E+04  0.17787512408E+04  0.50400001928E-02 0. -1.
    10030    2    1    2    0    0  0.00000000000E+00  0.00000000000E+00 -0.75710377153E+03  0.28003987100E+04  0.26961132792E+04 0.  0.
        5    1    3    3  502    0 -0.25737678753E+03  0.91430002876E+02  0.99259701671E+03  0.10295014248E+04  0.46999998093E+01 0.  1.
       -5    1    3    3    0  502  0.25737678753E+03 -0.91430002876E+02 -0.17497007882E+04  0.17708972851E+04  0.46999998093E+01 0. -1.
</event>
<event>
 5   0  0.4448804E-06  0.2683275E+04  0.7818609E-02  0.8340452E-01
       -2   -1    0    0    0  501  0.00000000000E+00  0.00000000000E+00  0.15524426702E+04  0.15524426702E+04  0.25500000920E-02 0. -1.
        2   -1    0    0  501    0  0.00000000000E+00  0.00000000000E+00 -0.11594577974E+04  0.11594577974E+04  0.25500000920E-02 0.  1.
    10030    2    1    2    0    0  0.00000000000E+00  0.00000000000E+00  0.39298487282E+03  0.27119004676E+04  0.26832754305E+04 0.  0.
        2    1    3    3  502    0 -0.10246406996E+04 -0.57215595584E+03  0.85361374871E+03  0.14511745012E+04  0.25500000920E-02 0. -1.
       -2    1    3    3    0  502  0.10246406996E+04  0.57215595584E+03 -0.46062887589E+03  0.12607259664E+04  0.25500000920E-02 0.  1.
</event>
<event>
 5   0  0.4448804E-06  0.2619137E+04  0.7818609E-02  0.8361730E-01
       -2   -1    0    0    0  501  0.00000000000E+00  0.00000000000E+00  0.92952755452E+03  0.92952755452E+03  0.25500000920E-02 0.  1.
        2   -1    0    0  501    0  0.00000000000E+00  0.00000000000E+00 -0.18449910262E+04  0.18449910262E+04  0.25500000920E-02 0. -1.
    10030    2    1    2    0    0  0.00000000000E+00  0.00000000000E+00 -0.91546347170E+03  0.27745185807E+04  0.26191372600E+04 0.  0.
        2    1    3    3  502    0  0.85540586515E+03  0.40302386240E+03 -0.14174726807E+04  0.17039296430E+04  0.25500000920E-02 0. -1.
       -2    1    3    3    0  502 -0.85540586515E+03 -0.40302386240E+03  0.50200920895E+03  0.10705889378E+04  0.25500000920E-02 0.  1.
</event>
<event>
 5   0  0.1828511E-06  0.2698019E+04  0.7818609E-02  0.8335648E-01
       -1   -1    0    0    0  501  0.00000000000E+00  0.00000000000E+00  0.76263191948E+03  0.76263191949E+03  0.50400001928E-02 0. -1.
        1   -1    0    0  501    0  0.00000000000E+00  0.00000000000E+00 -0.23862451252E+04  0.23862451252E+04  0.50400001928E-02 0.  1.
    10030    2    1    2    0    0  0.00000000000E+00  0.00000000000E+00 -0.16236132057E+04  0.31488770447E+04  0.26980190512E+04 0.  0.
        4    1    3    3  502    0 -0.13010913092E+04  0.62854550290E+02 -0.12211864279E+04  0.17855215468E+04  0.12699999809E+01 0.  1.
       -4    1    3    3    0  502  0.13010913092E+04 -0.62854550290E+02 -0.40242677782E+03  0.13633554979E+04  0.12699999809E+01 0. -1.
</event>
<event>
 5   0  0.1753474E-06  0.2702116E+04  0.7818609E-02  0.8334319E-01
        1   -1    0    0  501    0  0.00000000000E+00  0.00000000000E+00  0.18043235141E+04  0.18043235141E+04  0.50400001928E-02 0. -1.
       -1   -1    0    0    0  501  0.00000000000E+00  0.00000000000E+00 -0.10116579456E+04  0.10116579457E+04  0.50400001928E-02 0.  1.
    10030    2    1    2    0    0  0.00000000000E+00  0.00000000000E+00  0.79266556842E+03  0.28159814597E+04  0.27021163702E+04 0.  0.
        3    1    3    3  502    0  0.87161880544E+03  0.69651787469E+03 -0.39768000388E+03  0.11844854948E+04  0.10100000352E+00 0.  1.
       -3    1    3    3    0  502 -0.87161880544E+03 -0.69651787469E+03  0.11903455723E+04  0.16314959649E+04  0.10100000352E+00 0. -1.
</event>
<event>
 5   0  0.1723605E-06  0.2688964E+04  0.7818609E-02  0.8338594E-01
       -1   -1    0    0    0  501  0.00000000000E+00  0.00000000000E+00  0.12985725446E+04  0.12985725446E+04  0.50400001928E-02 0.  1.
        1   -1    0    0  501    0  0.00000000000E+00  0.00000000000E+00 -0.13920150445E+04  0.13920150445E+04  0.50400001928E-02 0. -1.
    10030    2    1    2    0    0  0.00000000000E+00  0.00000000000E+00 -0.93442499908E+02  0.26905875891E+04  0.26889644984E+04 0.  0.
        1    1    3    3  502    0  0.58399583516E+03  0.49448962237E+03 -0.11528573821E+04  0.13837092417E+04  0.50400001928E-02 0. -1.
       -1    1    3    3    0  502 -0.58399583516E+03 -0.49448962237E+03  0.10594148822E+04  0.13068783474E+04  0.50400001928E-02 0.  1.
</event>
<event>
 5   0  0.1732312E-06  0.2700545E+04  0.7818609E-02  0.8334828E-01
       -1   -1    0    0    0  501  0.00000000000E+00  0.00000000000E+00  0.12477030616E+04  0.12477030616E+04  0.50400001928E-02 0. -1.
        1   -1    0    0  501    0  0.00000000000E+00  0.00000000000E+00 -0.14612738441E+04  0.14612738441E+04  0.50400001928E-02 0.  1.
    10030    2    1    2    0    0  0.00000000000E+00  0.00000000000E+00 -0.21357078245E+03  0.27089769057E+04  0.27005450184E+04 0.  0.
        5    1    3    3  502    0  0.10172014884E+04  0.56014895373E+03 -0.79795633382E+03  0.14089791053E+04  0.46999998093E+01 0.  1.
       -5    1    3    3    0  502 -0.10172014884E+04 -0.56014895373E+03  0.58438555137E+03  0.12999978004E+04  0.46999998093E+01 0. -1.
</event>
<event>
 5   0  0.4655882E-06  0.2712611E+04  0.7818609E-02  0.8330925E-01
       -2   -1    0    0    0  501  0.00000000000E+00  0.00000000000E+00  0.13751721549E+04  0.13751721549E+04  0.25500000920E-02 0.  1.
        2   -1    0    0  501    0  0.00000000000E+00  0.00000000000E+00 -0.13376975043E+04  0.13376975043E+04  0.25500000920E-02 0. -1.
    10030    2    1    2    0    0  0.00000000000E+00  0.00000000000E+00  0.37474650571E+02  0.27128696592E+04  0.27126108159E+04 0.  0.
        1    1    3    3  502    0  0.59705758850E+03 -0.10829613724E+04 -0.53834478690E+03  0.13487394885E+04  0.50400001928E-02 0. -1.
       -1    1    3    3    0  502 -0.59705758850E+03  0.10829613724E+04  0.57581943747E+03  0.13641301707E+04  0.50400001928E-02 0.  1.
</event>
<event>
 5   0  0.4487186E-06  0.2699829E+04  0.7818609E-02  0.8335060E-01
        2   -1    0    0  501    0  0.00000000000E+00  0.00000000000E+00  0.10966051328E+04  0.10966051328E+04  0.25500000920E-02 0. -1.
       -2   -1    0    0    0  501  0.00000000000E+00  0.00000000000E+00 -0.16617370153E+04  0.16617370153E+04  0.25500000920E-02 0.  1.
    10030    2    1    2    0    0  0.00000000000E+00  0.00000000000E+00 -0.56513188254E+03  0.27583421481E+04  0.26998291356E+04 0.  0.
        3    1    3    3  502    0 -0.19070728616E+03  0.64442398278E+03 -0.14786729585E+04  0.16242306693E+04  0.10100000352E+00 0.  1.
       -3    1    3    3    0  502  0.19070728616E+03 -0.64442398278E+03  0.91354107600E+03  0.11341114788E+04  0.10100000352E+00 0. -1.
</event>
<event>
 5   0  0.4655882E-06  0.2685783E+04  0.7818609E-02  0.8339633E-01
       -2   -1    0    0    0  501  0.00000000000E+00  0.00000000000E+00  0.79699795629E+03  0.79699795630E+03  0.25500000920E-02 0.  1.
        2   -1    0    0  501    0  0.00000000000E+00  0.00000000000E+00 -0.22626880460E+04  0.22626880460E+04  0.25500000920E-02 0. -1.
    10030    2    1    2    0    0  0.00000000000E+00  0.00000000000E+00 -0.14656900897E+04  0.30596860023E+04  0.26857831248E+04 0.  0.
        1    1    3    3  502    0  0.31002325321E+03 -0.11212889503E+04 -0.14970153905E+04  0.18959056957E+04  0.50400001928E-02 0. -1.
       -1    1    3    3    0  502 -0.31002325321E+03  0.11212889503E+04  0.31325300839E+02  0.11637803066E+04  0.50400001928E-02 0.  1.
</event>
<event>
 5   0  0.4487186E-06  0.2614073E+04  0.7818609E-02  0.8363437E-01
        2   -1    0    0  501    0  0.00000000000E+00  0.00000000000E+00  0.26746567516E+04  0.26746567516E+04  0.25500000920E-02 0. -1.
       -2   -1    0    0    0  501  0.00000000000E+00  0.00000000000E+00 -0.63871532189E+03  0.63871532190E+03  0.25500000920E-02 0.  1.
    10030    2    1    2    0    0  0.00000000000E+00  0.00000000000E+00  0.20359414297E+04  0.33133720735E+04  0.26140728743E+04 0.  0.
        3    1    3    3  502    0 -0.86560615826E+03 -0.85651142437E+03  0.41612423602E+03  0.12868742096E+04  0.10100000352E+00 0. -1.
       -3    1    3    3    0  502  0.86560615826E+03  0.85651142437E+03  0.16198171937E+04  0.20264978639E+04  0.10100000352E+00 0.  1.
</event>
<event>
 5   0  0.4401659E-06  0.2708593E+04  0.7818609E-02  0.8332222E-01
        2   -1    0    0  501    0  0.00000000000E+00  0.00000000000E+00  0.12707432005E+04  0.12707432005E+04  0.25500000920E-02 0.  1.
       -2   -1    0    0    0  501  0.00000000000E+00  0.00000000000E+00 -0.14433434856E+04  0.14433434856E+04  0.25500000920E-02 0. -1.
    10030    2    1    2    0    0  0.00000000000E+00  0.00000000000E+00 -0.17260028512E+03  0.27140866861E+04  0.27085929339E+04 0.  0.
        5    1    3    3  502    0  0.10122769033E+04 -0.25102030450E+03 -0.95198594037E+03  0.14120959751E+04  0.46999998093E+01 0. -1.
       -5    1    3    3    0  502 -0.10122769033E+04  0.25102030450E+03  0.77938565524E+03  0.13019907111E+04  0.46999998093E+01 0.  1.
</event>
<event>
 5   0  0.1771016E-06  0.2698646E+04  0.7818609E-02  0.8335444E-01
        1   -1    0    0  501    0  0.00000000000E+00  0.00000000000E+00  0.18224670154E+04  0.18224670154E+04  0.50400001928E-02 0. -1.
       -1   -1    0    0    0  501  0.00000000000E+00  0.00000000000E+00 -0.99901533920E+03  0.99901533921E+03  0.50400001928E-02 0.  1.
    10030    2    1    2    0    0  0.00000000000E+00  0.00000000000E+00  0.82345167616E+03  0.28214823546E+04  0.26986459594E+04 0.  0.
        2    1    3    3  502    0  0.12383293345E+04 -0.47495791066E+03  0.15217629265E+03  0.13349914538E+04  0.25500000920E-02 0.  1.
       -2    1    3    3    0  502 -0.12383293345E+04  0.47495791066E+03  0.67127538351E+03  0.14864909008E+04  0.25500000920E-02 0. -1.
</event>
<event>
 5   0  0.1753474E-06  0.2717927E+04  0.7818609E-02  0.8329212E-01
        1   -1    0    0  501    0  0.00000000000E+00  0.00000000000E+00  0.16624859872E+04  0.16624859872E+04  0.50400001928E-02 0.  1.
       -1   -1    0    0    0  501  0.00000000000E+00  0.00000000000E+00 -0.11108558213E+04  0.11108558213E+04  0.50400001928E-02 0. -1.
    10030    2    1    2    0    0  0.00000000000E+00  0.00000000000E+00  0.55163016591E+03  0.27733418085E+04  0.27179273256E+04 0.  0.
        3    1    3    3  502    0  0.10661471920E+03 -0.34845118508E+03 -0.10600746912E+04  0.11209564166E+04  0.10100000352E+00 0. -1.
       -3    1    3    3    0  502 -0.10661471920E+03  0.34845118508E+03  0.16117048571E+04  0.16523853919E+04  0.10100000352E+00 0.  1.
</event>
<event>
 5   0  0.4655882E-06  0.2688026E+04  0.7818609E-02  0.8338901E-01
        2   -1    0    0  501    0  0.00000000000E+00  0.00000000000E+00  0.14773107498E+04  0.14773107498E+04  0.25500000920E-02 0. -1.
       -2   -1    0    0    0  501  0.00000000000E+00  0.00000000000E+00 -0.12227425508E+04  0.12227425508E+04  0.25500000920E-02 0.  1.
    10030    2    1    2    0    0  0.00000000000E+00  0.00000000000E+00  0.25456819905E+03  0.27000533006E+04  0.26880258291E+04 0.  0.
        1    1    3    3  502    0  0.12857383744E+04  0.77738126799E+02  0.51267299214E+03  0.13863621390E+04  0.50400001928E-02 0. -1.
       -1    1    3    3    0  502 -0.12857383744E+04 -0.77738126799E+02 -0.25810479309E+03  0.13136911615E+04  0.50400001928E-02 0.  1.
</event>
<event>
 5   0  0.1753474E-06  0.2705486E+04  0.7818609E-02  0.8333227E-01
        1   -1    0    0  501    0  0.00000000000E+00  0.00000000000E+00  0.69462502330E+03  0.69462502332E+03  0.50400001928E-02 0.  1.
       -1   -1    0    0    0  501  0.00000000000E+00  0.00000000000E+00 -0.26343898564E+04  0.26343898564E+04  0.50400001928E-02 0. -1.
    10030    2    1    2    0    0  0.00000000000E+00  0.00000000000E+00 -0.19397648331E+04  0.33290148798E+04  0.27054856240E+04 0.  0.
        3    1    3    3  502    0 -0.11264864507E+04  0.65044889488E+03 -0.51301951983E+03  0.13983005851E+04  0.10100000352E+00 0.  1.
       -3    1    3    3    0  502  0.11264864507E+04 -0.65044889488E+03 -0.14267453133E+04  0.19307142947E+04  0.10100000352E+00 0. -1.
</event>
<event>
 5   0  0.1771016E-06  0.2684768E+04  0.7818609E-02  0.8339964E-01
       -1   -1    0    0    0  501  0.00000000000E+00  0.00000000000E+00  0.14522197326E+04  0.14522197326E+04  0.50400001928E-02 0.  1.
        1   -1    0    0  501    0  0.00000000000E+00  0.00000000000E+00 -0.12408556686E+04  0.12408556686E+04  0.50400001928E-02 0. -1.
    10030    2    1    2    0    0  0.00000000000E+00  0.00000000000E+00  0.21136406402E+03  0.26930754012E+04  0.26847682114E+04 0.  0.
        2    1    3    3  502    0  0.18370169903E+03 -0.12429899560E+04  0.57961059231E+03  0.13837336390E+04  0.25500000920E-02 0.  1.
       -2    1    3    3    0  502 -0.18370169903E+03  0.12429899560E+04 -0.36824652829E+03  0.13093417623E+04  0.25500000920E-02 0. -1.
</event>
<event>
 5   0  0.1828511E-06  0.2703975E+04  0.7818609E-02  0.8333716E-01
       -1   -1    0    0    0  501  0.00000000000E+00  0.00000000000E+00  0.15933481621E+04  0.15933481621E+04  0.50400001928E-02 0.  1.
        1   -1    0    0  501    0  0.00000000000E+00  0.00000000000E+00 -0.11471882669E+04  0.11471882669E+04  0.50400001928E-02 0. -1.
    10030    2    1    2    0    0  0.00000000000E+00  0.00000000000E+00  0.44615989518E+03  0.27405364289E+04  0.27039750861E+04 0.  0.
        4    1    3    3  502    0  0.11450913465E+04  0.38805697161E+03  0.83627819293E+03  0.14700970151E+04  0.12699999809E+01 0.  1.
       -4    1    3    3    0  502 -0.11450913465E+04 -0.38805697161E+03 -0.39011829775E+03  0.12704394138E+04  0.12699999809E+01 0. -1.
</event>
<event>
 5   0  0.4439357E-06  0.2695922E+04  0.7818609E-02  0.8336329E-01
       -2   -1    0    0    0  501  0.00000000000E+00  0.00000000000E+00  0.10174692892E+04  0.10174692892E+04  0.25500000920E-02 0. -1.
        2   -1    0    0  501    0  0.00000000000E+00  0.00000000000E+00 -0.17858020500E+04  0.17858020500E+04  0.25500000920E-02 0.  1.
    10030    2    1    2    0    0  0.00000000000E+00  0.00000000000E+00 -0.76833276078E+03  0.28032713393E+04  0.26959219147E+04 0.  0.
        4    1    3    3  502    0 -0.10270900631E+04  0.87245636393E+03 -0.41541333587E+03  0.14101999706E+04  0.12699999809E+01 0. -1.
       -4    1    3    3    0  502  0.10270900631E+04 -0.87245636393E+03 -0.35291942490E+03  0.13930713686E+04  0.12699999809E+01 0.  1.
</event>
<event>
 5   0  0.1482875E-06  0.2668579E+04  0.7818609E-02  0.8345272E-01
       -3   -1    0    0    0  501  0.00000000000E+00  0.00000000000E+00  0.21848881666E+04  0.21848881689E+04  0.10100000352E+00 0.  1.
        3   -1    0    0  501    0  0.00000000000E+00  0.00000000000E+00 -0.81483747181E+03  0.81483747807E+03  0.10100000352E+00 0. -1.
    10030    2    1    2    0    0  0.00000000000E+00  0.00000000000E+00  0.13700506948E+04  0.29997256470E+04  0.26685792195E+04 0.  0.
        4    1    3    3  502    0  0.92596446543E+03 -0.24247776308E+01 -0.39486924435E+03  0.10066476066E+04  0.12699999809E+01 0. -1.
       -4    1    3    3    0  502 -0.92596446543E+03  0.24247776308E+01  0.17649199391E+04  0.19930780404E+04  0.12699999809E+01 0.  1.
</event>
<event>
 5   0  0.1732312E-06  0.2709600E+04  0.7818609E-02  0.8331897E-01
       -1   -1    0    0    0  501  0.00000000000E+00  0.00000000000E+00  0.65733644209E+03  0.65733644211E+03  0.50400001928E-02 0. -1.
        1   -1    0    0  501    0  0.00000000000E+00  0.00000000000E+00 -0.27923030266E+04  0.27923030266E+04  0.50400001928E-02 0.  1.
    10030    2    1    2    0    0  0.00000000000E+00  0.00000000000E+00 -0.21349665845E+04  0.34496394687E+04  0.27095996286E+04 0.  0.
        5    1    3    3  502    0 -0.95077059063E+03  0.12044526110E+03  0.15164825298E+03  0.97030462205E+03  0.46999998093E+01 0. -1.
       -5    1    3    3    0  502  0.95077059063E+03 -0.12044526110E+03 -0.22866148375E+04  0.24793348467E+04  0.46999998093E+01 0.  1.
</event>
<event>
 5   0  0.1732312E-06  0.2680192E+04  0.7818609E-02  0.8341461E-01
        1   -1    0    0  501    0  0.00000000000E+00  0.00000000000E+00  0.10222097398E+04  0.10222097398E+04  0.50400001928E-02 0.  1.
       -1   -1    0    0    0  501  0.00000000000E+00  0.00000000000E+00 -0.17568388816E+04  0.17568388816E+04  0.50400001928E-02 0. -1.
    10030    2    1    2    0    0  0.00000000000E+00  0.00000000000E+00 -0.73462914184E+03  0.27790486214E+04  0.26801923931E+04 0.  0.
        5    1    3    3  502    0  0.60582978313E+03  0.27934952956E+03  0.83777923018E+03  0.10709631246E+04  0.46999998093E+01 0.  1.
       -5    1    3    3    0  502 -0.60582978313E+03 -0.27934952956E+03 -0.15724083720E+04  0.17080854967E+04  0.46999998093E+01 0. -1.
</event>
<event>
 5   0  0.4401659E-06  0.2645237E+04  0.7818609E-02  0.8352996E-01
       -2   -1    0    0    0  501  0.00000000000E+00  0.00000000000E+00  0.99879065205E+03  0.99879065205E+03  0.25500000920E-02 0.  1.
        2   -1    0    0  501    0  0.00000000000E+00  0.00000000000E+00 -0.17514373369E+04  0.17514373369E+04  0.25500000920E-02 0. -1.
    10030    2    1    2    0    0  0.00000000000E+00  0.00000000000E+00 -0.75264668489E+03  0.27502279890E+04  0.26452366547E+04 0.  0.
        5    1    3    3  502    0  0.11832217631E+04  0.23826858058E+03  0.18598643166E+03  0.12212283570E+04  0.46999998093E+01 0.  1.
       -5    1    3    3    0  502 -0.11832217631E+04 -0.23826858058E+03 -0.93863311656E+03  0.15289996320E+04  0.46999998093E+01 0. -1.
</event>
<event>
 5   0  0.4487186E-06  0.2702990E+04  0.7818609E-02  0.8334035E-01
       -2   -1    0    0    0  501  0.00000000000E+00  0.00000000000E+00  0.87320543067E+03  0.87320543067E+03  0.25500000920E-02 0. -1.
        2   -1    0    0  501    0  0.00000000000E+00  0.00000000000E+00 -0.20917633525E+04  0.20917633525E+04  0.25500000920E-02 0.  1.
    10030    2    1    2    0    0  0.00000000000E+00  0.00000000000E+00 -0.12185579218E+04  0.29649687832E+04  0.27029902842E+04 0.  0.
        3    1    3    3  502    0  0.87951375135E+03 -0.36243004698E+03 -0.16623461792E+04  0.19152793027E+04  0.10100000352E+00 0.  1.
       -3    1    3    3    0  502 -0.87951375135E+03  0.36243004698E+03  0.44378825737E+03  0.10496894804E+04  0.10100000352E+00 0. -1.
</event>
<event>
 5   0  0.1771016E-06  0.2695901E+04  0.7818609E-02  0.8336336E-01
       -1   -1    0    0    0  501  0.00000000000E+00  0.00000000000E+00  0.17552103330E+04  0.17552103330E+04  0.50400001928E-02 0. -1.
        1   -1    0    0  501    0  0.00000000000E+00  0.00000000000E+00 -0.10351868948E+04  0.10351868948E+04  0.50400001928E-02 0.  1.
    10030    2    1    2    0    0  0.00000000000E+00  0.00000000000E+00  0.72002343823E+03  0.27903972278E+04  0.26959011364E+04 0.  0.
        2    1    3    3  502    0  0.12142761756E+04  0.16403938633E+03  0.94148163925E+03  0.15452388902E+04  0.25500000920E-02 0. -1.
       -2    1    3    3    0  502 -0.12142761756E+04 -0.16403938633E+03 -0.22145820102E+03  0.12451583376E+04  0.25500000920E-02 0.  1.
</event>
<event>
 5   0  0.1771016E-06  0.2696823E+04  0.7818609E-02  0.8336036E-01
       -1   -1    0    0    0  501  0.00000000000E+00  0.00000000000E+00  0.15391735675E+04  0.15391735675E+04  0.50400001928E-02 0. -1.
        1   -1    0    0  501    0  0.00000000000E+00  0.00000000000E+00 -0.11812922618E+04  0.11812922619E+04  0.50400001928E-02 0.  1.
    10030    2    1    2    0    0  0.00000000000E+00  0.00000000000E+00  0.35788130567E+03  0.27204658294E+04  0.26968231866E+04 0.  0.
        2    1    3    3  502    0 -0.10232407399E+04  0.43313355332E+03 -0.59168561163E+03  0.12588558892E+04  0.25500000920E-02 0.  1.
       -2    1    3    3    0  502  0.10232407399E+04 -0.43313355332E+03  0.94956691730E+03  0.14616099402E+04  0.25500000920E-02 0. -1.
</event>
<event>
 5   0  0.4655882E-06  0.2688541E+04  0.7818609E-02  0.8338733E-01
       -2   -1    0    0    0  501  0.00000000000E+00  0.00000000000E+00  0.10287512588E+04  0.10287512588E+04  0.25500000920E-02 0.  1.
        2   -1    0    0  501    0  0.00000000000E+00  0.00000000000E+00 -0.17565596249E+04  0.17565596249E+04  0.25500000920E-02 0. -1.
    10030    2    1    2    0    0  0.00000000000E+00  0.00000000000E+00 -0.72780836605E+03  0.27853108837E+04  0.26885408127E+04 0.  0.
        1    1    3    3  502    0  0.77935247044E+03  0.98783910892E+01 -0.14985772811E+04  0.16891482242E+04  0.50400001928E-02 0. -1.
       -1    1    3    3    0  502 -0.77935247044E+03 -0.98783910892E+01  0.77076891504E+03  0.10961626596E+04  0.50400001928E-02 0.  1.
</event>
<event>
 5   0  0.4655882E-06  0.2703116E+04  0.7818609E-02  0.8333995E-01
       -2   -1    0    0    0  501  0.00000000000E+00  0.00000000000E+00  0.81949537892E+03  0.81949537893E+03  0.25500000920E-02 0.  1.
        2   -1    0    0  501    0  0.00000000000E+00  0.00000000000E+00 -0.22290663330E+04  0.22290663330E+04  0.25500000920E-02 0. -1.
    10030    2    1    2    0    0  0.00000000000E+00  0.00000000000E+00 -0.14095709541E+04  0.30485617120E+04  0.27031163935E+04 0.  0.
        1    1    3    3  502    0 -0.43242139838E+03  0.46521790172E+03 -0.20502662385E+04  0.21463940949E+04  0.50400001928E-02 0. -1.
       -1    1    3    3    0  502  0.43242139838E+03 -0.46521790172E+03  0.64069528438E+03  0.90216761708E+03  0.50400001928E-02 0.  1.
</event>
<event>
 5   0  0.4487186E-06  0.2726677E+04  0.7818609E-02  0.8326401E-01
       -2   -1    0    0    0  501  0.00000000000E+00  0.00000000000E+00  0.88943719350E+03  0.88943719351E+03  0.25500000920E-02 0. -1.
        2   -1    0    0  501    0  0.00000000000E+00  0.00000000000E+00 -0.20897398287E+04  0.20897398287E+04  0.25500000920E-02 0.  1.
    10030    2    1    2    0    0  0.00000000000E+00  0.00000000000E+00 -0.12003026352E+04  0.29791770222E+04  0.27266773395E+04 0.  0.
        3    1    3    3  502    0  0.47593198549E+03  0.46014880082E+03 -0.19023421730E+04  0.20142378030E+04  0.10100000352E+00 0.  1.
       -3    1    3    3    0  502 -0.47593198549E+03 -0.46014880082E+03  0.70203953786E+03  0.96493921914E+03  0.10100000352E+00 0. -1.
</event>
<event>
 5   0  0.1828511E-06  0.2739711E+04  0.7818609E-02  0.8322234E-01
       -1   -1    0    0    0  501  0.00000000000E+00  0.00000000000E+00  0.29299756819E+04  0.29299756819E+04  0.50400001928E-02 0. -1.
        1   -1    0    0  501    0  0.00000000000E+00  0.00000000000E+00 -0.64045029468E+03  0.64045029470E+03  0.50400001928E-02 0.  1.
    10030    2    1    2    0    0  0.00000000000E+00  0.00000000000E+00  0.22895253873E+04  0.35704259766E+04  0.27397107796E+04 0.  0.
        4    1    3    3  502    0 -0.22029187453E+03  0.27123151022E+03 -0.58139515538E+03  0.67831923290E+03  0.12699999809E+01 0.  1.
       -4    1    3    3    0  502  0.22029187453E+03 -0.27123151022E+03  0.28709205426E+04  0.28921067437E+04  0.12699999809E+01 0. -1.
</event>
<event>
 5   0  0.1828511E-06  0.2696322E+04  0.7818609E-02  0.8336199E-01
       -1   -1    0    0    0  501  0.00000000000E+00  0.00000000000E+00  0.95839335319E+03  0.95839335320E+03  0.50400001928E-02 0.  1.
        1   -1    0    0  501    0  0.00000000000E+00  0.00000000000E+00 -0.18964429741E+04  0.18964429741E+04  0.50400001928E-02 0. -1.
    10030    2    1    2    0    0  0.00000000000E+00  0.00000000000E+00 -0.93804962093E+03  0.28548363273E+04  0.26963221923E+04 0.  0.
        4    1    3    3  502    0 -0.11280461774E+04 -0.66771057184E+03 -0.13552956040E+03  0.13178374182E+04  0.12699999809E+01 0. -1.
       -4    1    3    3    0  502  0.11280461774E+04  0.66771057184E+03 -0.80252006053E+03  0.15369989091E+04  0.12699999809E+01 0.  1.
</event>
<event>
 5   0  0.1723605E-06  0.2632578E+04  0.7818609E-02  0.8357219E-01
        1   -1    0    0  501    0  0.00000000000E+00  0.00000000000E+00  0.11322074766E+04  0.11322074766E+04  0.50400001928E-02 0. -1.
       -1   -1    0    0    0  501  0.00000000000E+00  0.00000000000E+00 -0.15302996923E+04  0.15302996923E+04  0.50400001928E-02 0.  1.
    10030    2    1    2    0    0  0.00000000000E+00  0.00000000000E+00 -0.39809221568E+03  0.26625071689E+04  0.26325780164E+04 0.  0.
        1    1    3    3  502    0  0.75782173987E+02  0.32327939425E+03  0.10891551507E+04  0.11386445657E+04  0.50400001928E-02 0. -1.
       -1    1    3    3    0  502 -0.75782173987E+02 -0.32327939425E+03 -0.14872473664E+04  0.15238626032E+04  0.50400001928E-02 0.  1.
</event>
<event>
 5   0  0.4401659E-06  0.2756787E+04  0.7818609E-02  0.8316811E-01
        2   -1    0    0  501    0  0.00000000000E+00  0.00000000000E+00  0.18721322646E+04  0.18721322646E+04  0.25500000920E-02 0.  1.
       -2   -1    0    0    0  501  0.00000000000E+00  0.00000000000E+00 -0.10148688069E+04  0.10148688069E+04  0.25500000920E-02 0. -1.
    10030    2    1    2    0    0  0.00000000000E+00  0.00000000000E+00  0.85726345771E+03  0.28870010714E+04  0.27567869977E+04 0.  0.
        5    1    3    3  502    0  0.36301378629E+03  0.24510405276E+03  0.17973034822E+04  0.18499126744E+04  0.46999998093E+01 0.  1.
       -5    1    3    3    0  502 -0.36301378629E+03 -0.24510405276E+03 -0.94004002447E+03  0.10370883971E+04  0.46999998093E+01 0. -1.
</event>
<event>
 5   0  0.1753474E-06  0.2679339E+04  0.7818609E-02  0.8341740E-01
        1   -1    0    0  501    0  0.00000000000E+00  0.00000000000E+00  0.19512583405E+04  0.19512583405E+04  0.50400001928E-02 0.  1.
       -1   -1    0    0    0  501  0.00000000000E+00  0.00000000000E+00 -0.91977267163E+03  0.91977267165E+03  0.50400001928E-02 0. -1.
    10030    2    1    2    0    0  0.00000000000E+00  0.00000000000E+00  0.10314856688E+04  0.28710310121E+04  0.26793387967E+04 0.  0.
        3    1    3    3  502    0  0.21931971978E+03  0.13165077466E+04  0.63987701191E+03  0.14801136398E+04  0.10100000352E+00 0.  1.
       -3    1    3    3    0  502 -0.21931971978E+03 -0.13165077466E+04  0.39160865694E+03  0.13909173723E+04  0.10100000352E+00 0. -1.
</event>
<event>
 5   0  0.4401659E-06  0.2699485E+04  0.7818609E-02  0.8335172E-01
       -2   -1    0    0    0  501  0.00000000000E+00  0.00000000000E+00  0.89333396092E+03  0.89333396093E+03  0.25500000920E-02 0.  1.
        2   -1    0    0  501    0  0.00000000000E+00  0.00000000000E+00 -0.20393322820E+04  0.20393322820E+04  0.25500000920E-02 0. -1.
    10030    2    1    2    0    0  0.00000000000E+00  0.00000000000E+00 -0.11459983211E+04  0.29326662429E+04  0.26994849769E+04 0.  0.
        5    1    3    3  502    0  0.65866768090E+03  0.29858322100E+03  0.66508680037E+03  0.98252612980E+03  0.46999998093E+01 0.  1.
       -5    1    3    3    0  502 -0.65866768090E+03 -0.29858322100E+03 -0.18110851214E+04  0.19501401131E+04  0.46999998093E+01 0. -1.
</event>
<event>
 5   0  0.4655882E-06  0.2712413E+04  0.7818609E-02  0.8330989E-01
        2   -1    0    0  501    0  0.00000000000E+00  0.00000000000E+00  0.26632979610E+04  0.26632979610E+04  0.25500000920E-02 0.  1.
       -2   -1    0    0    0  501  0.00000000000E+00  0.00000000000E+00 -0.69060828219E+03  0.69060828219E+03  0.25500000920E-02 0. -1.
    10030    2    1    2    0    0  0.00000000000E+00  0.00000000000E+00  0.19726896788E+04  0.33539062432E+04  0.27124126750E+04 0.  0.
        1    1    3    3  502    0  0.20679336531E+03  0.12653633672E+04  0.15329122637E+04  0.19984313737E+04  0.50400001928E-02 0. -1.
       -1    1    3    3    0  502 -0.20679336531E+03 -0.12653633672E+04  0.43977741510E+03  0.13554748695E+04  0.50400001928E-02 0.  1.
</event>
<event>
 5   0  0.4439357E-06  0.2702440E+04  0.7818609E-02  0.8334214E-01
        2   -1    0    0  501    0  0.00000000000E+00  0.00000000000E+00  0.18353670603E+04  0.18353670603E+04  0.25500000920E-02 0. -1.
       -2   -1    0    0    0  501  0.00000000000E+00  0.00000000000E+00 -0.99478479341E+03  0.99478479341E+03  0.25500000920E-02 0.  1.
    10030    2    1    2    0    0  0.00000000000E+00  0.00000000000E+00  0.84058226690E+03  0.28301518537E+04  0.27024398176E+04 0.  0.
        4    1    3    3  502    0 -0.10045527621E+03  0.10188851812E+04  0.13437657250E+04  0.16893567449E+04  0.12699999809E+01 0. -1.
       -4    1    3    3    0  502  0.10045527621E+03 -0.10188851812E+04 -0.50318345810E+03  0.11407951088E+04  0.12699999809E+01 0.  1.
</event>
<event>
 5   0  0.4401659E-06  0.2708834E+04  0.7818609E-02  0.8332144E-01
        2   -1    0    0  501    0  0.00000000000E+00  0.00000000000E+00  0.13643143592E+04  0.13643143592E+04  0.25500000920E-02 0.  1.
       -2   -1    0    0    0  501  0.00000000000E+00  0.00000000000E+00 -0.13445915707E+04  0.13445915707E+04  0.25500000920E-02 0. -1.
    10030    2    1    2    0    0  0.00000000000E+00  0.00000000000E+00  0.19722788569E+02  0.27089059299E+04  0.27088341309E+04 0.  0.
        5    1    3    3  502    0  0.74210986245E+03 -0.45220496167E+03  0.10487378703E+04  0.13620167348E+04  0.46999998093E+01 0.  1.
       -5    1    3    3    0  502 -0.74210986245E+03  0.45220496167E+03 -0.10290150818E+04  0.13468891951E+04  0.46999998093E+01 0. -1.
</event>
<event>
 5   0  0.1828511E-06  0.2691822E+04  0.7818609E-02  0.8337663E-01
       -1   -1    0    0    0  501  0.00000000000E+00  0.00000000000E+00  0.14659322206E+04  0.14659322206E+04  0.50400001928E-02 0. -1.
        1   -1    0    0  501    0  0.00000000000E+00  0.00000000000E+00 -0.12357167700E+04  0.12357167700E+04  0.50400001928E-02 0.  1.
    10030    2    1    2    0    0  0.00000000000E+00  0.00000000000E+00  0.23021545060E+03  0.27016489907E+04  0.26918224524E+04 0.  0.
        4    1    3    3  502    0 -0.39294069801E+03 -0.66576040745E+03 -0.99065650516E+03  0.12565990754E+04  0.12699999809E+01 0.  1.
       -4    1    3    3    0  502  0.39294069801E+03  0.66576040745E+03  0.12208719558E+04  0.14450499152E+04  0.12699999809E+01 0. -1.
</event>
<event>
 5   0  0.4655882E-06  0.2657813E+04  0.7818609E-02  0.8348824E-01
        2   -1    0    0  501    0  0.00000000000E+00  0.00000000000E+00  0.17833662843E+04  0.17833662843E+04  0.25500000920E-02 0. -1.
       -2   -1    0    0    0  501  0.00000000000E+00  0.00000000000E+00 -0.99025769639E+03  0.99025769639E+03  0.25500000920E-02 0.  1.
    10030    2    1    2    0    0  0.00000000000E+00  0.00000000000E+00  0.79310858788E+03  0.27736239807E+04  0.26578127763E+04 0.  0.
        1    1    3    3  502    0  0.40559688152E+03 -0.12653332785E+04  0.41781485291E+03  0.13928913767E+04  0.50400001928E-02 0. -1.
       -1    1    3    3    0  502 -0.40559688152E+03  0.12653332785E+04  0.37529373497E+03  0.13807326039E+04  0.50400001928E-02 0.  1.
</event>
<event>
 5   0  0.1723605E-06  0.2699453E+04  0.7818609E-02  0.8335182E-01
       -1   -1    0    0    0  501  0.00000000000E+00  0.00000000000E+00  0.95210124800E+03  0.95210124801E+03  0.50400001928E-02 0.  1.
        1   -1    0    0  501    0  0.00000000000E+00  0.00000000000E+00 -0.19134121195E+04  0.19134121195E+04  0.50400001928E-02 0. -1.
    10030    2    1    2    0    0  0.00000000000E+00  0.00000000000E+00 -0.96131087154E+03  0.28655133676E+04  0.26994533276E+04 0.  0.
        1    1    3    3  502    0  0.26580618262E+03 -0.72957141914E+03 -0.16525782744E+04  0.18259086328E+04  0.50400001928E-02 0. -1.
       -1    1    3    3    0  502 -0.26580618262E+03  0.72957141914E+03  0.69126740282E+03  0.10396047348E+04  0.50400001928E-02 0.  1.
</event>
<event>
 5   0  0.1771016E-06  0.2675987E+04  0.7818609E-02  0.8342839E-01
        1   -1    0    0  501    0  0.00000000000E+00  0.00000000000E+00  0.18228330099E+04  0.18228330099E+04  0.50400001928E-02 0.  1.
       -1   -1    0    0    0  501  0.00000000000E+00  0.00000000000E+00 -0.98211238625E+03  0.98211238627E+03  0.50400001928E-02 0. -1.
    10030    2    1    2    0    0  0.00000000000E+00  0.00000000000E+00  0.84072062367E+03  0.28049453962E+04  0.26759872026E+04 0.  0.
        2    1    3    3  502    0  0.72560836372E+03  0.97086546236E+03 -0.17364090259E+03  0.12244339127E+04  0.25500000920E-02 0. -1.
       -2    1    3    3    0  502 -0.72560836372E+03 -0.97086546236E+03  0.10143615263E+04  0.15805114835E+04  0.25500000920E-02 0.  1.
</event>
<event>
 5   0  0.1771016E-06  0.2512370E+04  0.7818609E-02  0.8398592E-01
        1   -1    0    0  501    0  0.00000000000E+00  0.00000000000E+00  0.20875242722E+04  0.20875242722E+04  0.50400001928E-02 0.  1.
       -1   -1    0    0    0  501  0.00000000000E+00  0.00000000000E+00 -0.75591979067E+03  0.75591979069E+03  0.50400001928E-02 0. -1.
    10030    2    1    2    0    0  0.00000000000E+00  0.00000000000E+00  0.13316044815E+04  0.28434440629E+04  0.25123701247E+04 0.  0.
        2    1    3    3  502    0 -0.12666679271E+03  0.66728343234E+03  0.18617913842E+04  0.19818120026E+04  0.25500000920E-02 0.  1.
       -2    1    3    3    0  502  0.12666679271E+03 -0.66728343234E+03 -0.53018690270E+03  0.86163206025E+03  0.25500000920E-02 0. -1.
</event>
<event>
 5   0  0.1723605E-06  0.2697717E+04  0.7818609E-02  0.8335746E-01
        1   -1    0    0  501    0  0.00000000000E+00  0.00000000000E+00  0.15609309091E+04  0.15609309091E+04  0.50400001928E-02 0.  1.
       -1   -1    0    0    0  501  0.00000000000E+00  0.00000000000E+00 -0.11655984815E+04  0.11655984815E+04  0.50400001928E-02 0. -1.
    10030    2    1    2    0    0  0.00000000000E+00  0.00000000000E+00  0.39533242763E+03  0.27265293906E+04  0.26977165880E+04 0.  0.
        1    1    3    3  502    0  0.38527982117E+03  0.12253959764E+04  0.61362335911E+03  0.14235762946E+04  0.50400001928E-02 0.  1.
       -1    1    3    3    0  502 -0.38527982117E+03 -0.12253959764E+04 -0.21829093148E+03  0.13029530960E+04  0.50400001928E-02 0. -1.
</event>
<event>
 5   0  0.1828511E-06  0.2693681E+04  0.7818609E-02  0.8337058E-01
       -1   -1    0    0    0  501  0.00000000000E+00  0.00000000000E+00  0.11739769060E+04  0.11739769061E+04  0.50400001928E-02 0. -1.
        1   -1    0    0  501    0  0.00000000000E+00  0.00000000000E+00 -0.15451570738E+04  0.15451570738E+04  0.50400001928E-02 0.  1.
    10030    2    1    2    0    0  0.00000000000E+00  0.00000000000E+00 -0.37118016775E+03  0.27191339799E+04  0.26936805459E+04 0.  0.
        4    1    3    3  502    0  0.16799274624E+03 -0.10035987309E+04  0.70509958354E+03  0.12379818299E+04  0.12699999809E+01 0. -1.
       -4    1    3    3    0  502 -0.16799274624E+03  0.10035987309E+04 -0.10762797513E+04  0.14811521500E+04  0.12699999809E+01 0.  1.
</event>
<event>
 5   0  0.4439357E-06  0.2689388E+04  0.7818609E-02  0.8338457E-01
       -2   -1    0    0    0  501  0.00000000000E+00  0.00000000000E+00  0.72893167400E+03  0.72893167400E+03  0.25500000920E-02 0. -1.
        2   -1    0    0  501    0  0.00000000000E+00  0.00000000000E+00 -0.24806185522E+04  0.24806185522E+04  0.25500000920E-02 0.  1.
    10030    2    1    2    0    0  0.00000000000E+00  0.00000000000E+00 -0.17516868782E+04  0.32095502262E+04  0.26893876134E+04 0.  0.
        4    1    3    3  502    0 -0.52542520186E+02 -0.12884891180E+04 -0.13306495244E+04  0.18529961396E+04  0.12699999809E+01 0.  1.
       -4    1    3    3    0  502  0.52542520186E+02  0.12884891180E+04 -0.42103735376E+03  0.13565540866E+04  0.12699999809E+01 0. -1.
</event>
<event>
 5   0  0.4439357E-06  0.2697604E+04  0.7818609E-02  0.8335783E-01
       -2   -1    0    0    0  501  0.00000000000E+00  0.00000000000E+00  0.28672345664E+04  0.28672345664E+04  0.25500000920E-02 0.  1.
        2   -1    0    0  501    0  0.00000000000E+00  0.00000000000E+00 -0.63450219880E+03  0.63450219881E+03  0.25500000920E-02 0. -1.
    10030    2    1    2    0    0  0.00000000000E+00  0.00000000000E+00  0.22327323676E+04  0.35017367652E+04  0.26976038529E+04 0.  0.
        4    1    3    3  502    0  0.28699561989E+03 -0.12568581547E+04  0.60168292358E+03  0.14227026605E+04  0.12699999809E+01 0.  1.
       -4    1    3    3    0  502 -0.28699561989E+03  0.12568581547E+04  0.16310494440E+04  0.20790341047E+04  0.12699999809E+01 0. -1.
</event>
<event>
 5   0  0.1732312E-06  0.2702680E+04  0.7818609E-02  0.8334136E-01
       -1   -1    0    0    0  501  0.00000000000E+00  0.00000000000E+00  0.16963721823E+04  0.16963721824E+04  0.50400001928E-02 0.  1.
        1   -1    0    0  501    0  0.00000000000E+00  0.00000000000E+00 -0.10764852734E+04  0.10764852734E+04  0.50400001928E-02 0. -1.
    10030    2    1    2    0    0  0.00000000000E+00  0.00000000000E+00  0.61988690892E+03  0.27728574558E+04  0.27026799090E+04 0.  0.
        5    1    3    3  502    0 -0.78275028148E+02  0.42102284271E+02  0.16933617633E+04  0.16956991873E+04  0.46999998093E+01 0.  1.
       -5    1    3    3    0  502  0.78275028148E+02 -0.42102284271E+02 -0.10734748544E+04  0.10771582685E+04  0.46999998093E+01 0. -1.
</event>
<event>
 5   0  0.4448804E-06  0.2699095E+04  0.7818609E-02  0.8335299E-01
       -2   -1    0    0    0  501  0.00000000000E+00  0.00000000000E+00  0.67940490115E+03  0.67940490116E+03  0.25500000920E-02 0.  1.
        2   -1    0    0  501    0  0.00000000000E+00  0.00000000000E+00 -0.26806957914E+04  0.26806957914E+04  0.25500000920E-02 0. -1.
    10030    2    1    2    0    0  0.00000000000E+00  0.00000000000E+00 -0.20012908903E+04  0.33601006926E+04  0.26990945587E+04 0.  0.
        2    1    3    3  502    0  0.33172172499E+03 -0.29657890374E+03  0.58545558023E+03  0.73536153380E+03  0.25500000920E-02 0.  1.
       -2    1    3    3    0  502 -0.33172172499E+03  0.29657890374E+03 -0.25867464705E+04  0.26247391588E+04  0.25500000920E-02 0. -1.
</event>
<event>
 5   0  0.1482875E-06  0.2709032E+04  0.7818609E-02  0.8332080E-01
        3   -1    0    0  501    0  0.00000000000E+00  0.00000000000E+00  0.73525789654E+03  0.73525790348E+03  0.10100000352E+00 0. -1.
       -3   -1    0    0    0  501  0.00000000000E+00  0.00000000000E+00 -0.24953330954E+04  0.24953330975E+04  0.10100000352E+00 0.  1.
    10030    2    1    2    0    0  0.00000000000E+00  0.00000000000E+00 -0.17600751989E+04  0.32305910010E+04  0.27090318399E+04 0.  0.
        4    1    3    3  502    0  0.12206601462E+04  0.51357538439E+03 -0.12193126118E+04  0.18001376965E+04  0.12699999809E+01 0.  1.
       -4    1    3    3    0  502 -0.12206601462E+04 -0.51357538439E+03 -0.54076258704E+03  0.14304533045E+04  0.12699999809E+01 0. -1.
</event>
<event>
 5   0  0.4655882E-06  0.2696231E+04  0.7818609E-02  0.8336229E-01
        2   -1    0    0  501    0  0.00000000000E+00  0.00000000000E+00  0.15149961946E+04  0.15149961946E+04  0.25500000920E-02 0.  1.
       -2   -1    0    0    0  501  0.00000000000E+00  0.00000000000E+00 -0.11996174344E+04  0.11996174344E+04  0.25500000920E-02 0. -1.
    10030    2    1    2    0    0  0.00000000000E+00  0.00000000000E+00  0.31537876018E+03  0.27146136291E+04  0.26962313315E+04 0.  0.
        1    1    3    3  502    0  0.91124747096E+03  0.93406953867E+03  0.49846111864E+03  0.13968970410E+04  0.50400001928E-02 0. -1.
       -1    1    3    3    0  502 -0.91124747096E+03 -0.93406953867E+03 -0.18308235846E+03  0.13177165880E+04  0.50400001928E-02 0.  1.
</event>
<event>
 5   0  0.4439357E-06  0.2694483E+04  0.7818609E-02  0.8336797E-01
        2   -1    0    0  501    0  0.00000000000E+00  0.00000000000E+00  0.20688989609E+04  0.20688989609E+04  0.25500000920E-02 0. -1.
       -2   -1    0    0    0  501  0.00000000000E+00  0.00000000000E+00 -0.87730703100E+03  0.87730703100E+03  0.25500000920E-02 0.  1.
    10030    2    1    2    0    0  0.00000000000E+00  0.00000000000E+00  0.11915919299E+04  0.29462059919E+04  0.26944829595E+04 0.  0.
        4    1    3    3  502    0  0.12469073278E+04 -0.24699609578E+03  0.10769244873E+03  0.12756897083E+04  0.12699999809E+01 0. -1.
       -4    1    3    3    0  502 -0.12469073278E+04  0.24699609578E+03  0.10838994811E+04  0.16705162835E+04  0.12699999809E+01 0.  1.
</event>
<event>
 5   0  0.1732312E-06  0.2704260E+04  0.7818609E-02  0.8333624E-01
        1   -1    0    0  501    0  0.00000000000E+00  0.00000000000E+00  0.17166694680E+04  0.17166694680E+04  0.50400001928E-02 0.  1.
       -1   -1    0    0    0  501  0.00000000000E+00  0.00000000000E+00 -0.10650014073E+04  0.10650014073E+04  0.50400001928E-02 0. -1.
    10030    2    1    2    0    0  0.00000000000E+00  0.00000000000E+00  0.65166806071E+03  0.27816708753E+04  0.27042598982E+04 0.  0.
        5    1    3    3  502    0  0.61075517866E+03  0.71644288767E+03  0.13241420442E+04  0.16247112183E+04  0.46999998093E+01 0.  1.
       -5    1    3    3    0  502 -0.61075517866E+03 -0.71644288767E+03 -0.67247398347E+03  0.11569596570E+04  0.46999998093E+01 0. -1.
</event>
<event>
 5   0  0.4439357E-06  0.2702030E+04  0.7818609E-02  0.8334347E-01
       -2   -1    0    0    0  501  0.00000000000E+00  0.00000000000E+00  0.72312100666E+03  0.72312100666E+03  0.25500000920E-02 0.  1.
        2   -1    0    0  501    0  0.00000000000E+00  0.00000000000E+00 -0.25241160338E+04  0.25241160338E+04  0.25500000920E-02 0. -1.
    10030    2    1    2    0    0  0.00000000000E+00  0.00000000000E+00 -0.18009950272E+04  0.32472370405E+04  0.27020298498E+04 0.  0.
        4    1    3    3  502    0  0.32136460153E+03 -0.10588392167E+04 -0.18320289022E+04  0.21402680219E+04  0.12699999809E+01 0. -1.
       -4    1    3    3    0  502 -0.32136460153E+03  0.10588392167E+04  0.31033875084E+02  0.11069690186E+04  0.12699999809E+01 0.  1.
</event>
<event>
 5   0  0.4401659E-06  0.2700261E+04  0.7818609E-02  0.8334920E-01
       -2   -1    0    0    0  501  0.00000000000E+00  0.00000000000E+00  0.88666423435E+03  0.88666423436E+03  0.25500000920E-02 0. -1.
        2   -1    0    0  501    0  0.00000000000E+00  0.00000000000E+00 -0.20558548323E+04  0.20558548323E+04  0.25500000920E-02 0.  1.
    10030    2    1    2    0    0  0.00000000000E+00  0.00000000000E+00 -0.11691905979E+04  0.29425190667E+04  0.27002614324E+04 0.  0.
        5    1    3    3  502    0 -0.29915257294E+03  0.42079266903E+03  0.77483279872E+03  0.93109971978E+03  0.46999998093E+01 0. -1.
       -5    1    3    3    0  502  0.29915257294E+03 -0.42079266903E+03 -0.19440233967E+04  0.20114193469E+04  0.46999998093E+01 0.  1.
</event>
<event>
 5   0  0.4655882E-06  0.2704874E+04  0.7818609E-02  0.8333425E-01
        2   -1    0    0  501    0  0.00000000000E+00  0.00000000000E+00  0.75764326175E+03  0.75764326175E+03  0.25500000920E-02 0. -1.
       -2   -1    0    0    0  501  0.00000000000E+00  0.00000000000E+00 -0.24141785557E+04  0.24141785557E+04  0.25500000920E-02 0.  1.
    10030    2    1    2    0    0  0.00000000000E+00  0.00000000000E+00 -0.16565352940E+04  0.31718218175E+04  0.27048742044E+04 0.  0.
        1    1    3    3  502    0 -0.21013993897E+03 -0.13339350078E+04 -0.91558516528E+03  0.16315138963E+04  0.50400001928E-02 0. -1.
       -1    1    3    3    0  502  0.21013993897E+03  0.13339350078E+04 -0.74095012871E+03  0.15403079212E+04  0.50400001928E-02 0.  1.
</event>
<event>
 5   0  0.1828511E-06  0.2667005E+04  0.7818609E-02  0.8345791E-01
        1   -1    0    0  501    0  0.00000000000E+00  0.00000000000E+00  0.22161988950E+04  0.22161988950E+04  0.50400001928E-02 0.  1.
       -1   -1    0    0    0  501  0.00000000000E+00  0.00000000000E+00 -0.80237793012E+03  0.80237793014E+03  0.50400001928E-02 0. -1.
    10030    2    1    2    0    0  0.00000000000E+00  0.00000000000E+00  0.14138209649E+04  0.30185768251E+04  0.26670051235E+04 0.  0.
        4    1    3    3  502    0  0.10985598947E+04  0.55875924997E+03  0.13070077097E+03  0.12394071349E+04  0.12699999809E+01 0. -1.
       -4    1    3    3    0  502 -0.10985598947E+04 -0.55875924997E+03  0.12831201939E+04  0.17791696902E+04  0.12699999809E+01 0.  1.
</event>
<event>
 5   0  0.4655882E-06  0.2647504E+04  0.7818609E-02  0.8352242E-01
       -2   -1    0    0    0  501  0.00000000000E+00  0.00000000000E+00  0.79761254002E+03  0.79761254003E+03  0.25500000920E-02 0.  1.
        2   -1    0    0  501    0  0.00000000000E+00  0.00000000000E+00 -0.21969558073E+04  0.21969558073E+04  0.25500000920E-02 0. -1.
    10030    2    1    2    0    0  0.00000000000E+00  0.00000000000E+00 -0.13993432673E+04  0.29945683473E+04  0.26475041090E+04 0.  0.
        1    1    3    3  502    0 -0.48256028831E+02 -0.12903262123E+04 -0.36980946673E+03  0.13431416233E+04  0.50400001928E-02 0.  1.
       -1    1    3    3    0  502  0.48256028831E+02  0.12903262123E+04 -0.10295338006E+04  0.16514267241E+04  0.50400001928E-02 0. -1.
</event>
<event>
 5   0  0.1828511E-06  0.2715856E+04  0.7818609E-02  0.8329878E-01
       -1   -1    0    0    0  501  0.00000000000E+00  0.00000000000E+00  0.94830612859E+03  0.94830612860E+03  0.50400001928E-02 0. -1.
        1   -1    0    0  501    0  0.00000000000E+00  0.00000000000E+00 -0.19444868922E+04  0.19444868922E+04  0.50400001928E-02 0.  1.
    10030    2    1    2    0    0  0.00000000000E+00  0.00000000000E+00 -0.99618076364E+03  0.28927930208E+04  0.27158562826E+04 0.  0.
        4    1    3    3  502    0 -0.56579049585E+03 -0.11640281500E+04 -0.93582252294E+03  0.15971367588E+04  0.12699999809E+01 0.  1.
       -4    1    3    3    0  502  0.56579049585E+03  0.11640281500E+04 -0.60358240704E+02  0.12956562620E+04  0.12699999809E+01 0. -1.
</event>
<event>
 5   0  0.4487186E-06  0.2702107E+04  0.7818609E-02  0.8334322E-01
        2   -1    0    0  501    0  0.00000000000E+00  0.00000000000E+00  0.24737692961E+04  0.24737692961E+04  0.25500000920E-02 0. -1.
       -2   -1    0    0    0  501  0.00000000000E+00  0.00000000000E+00 -0.73788049918E+03  0.73788049919E+03  0.25500000920E-02 0.  1.
    10030    2    1    2    0    0  0.00000000000E+00  0.00000000000E+00  0.17358887970E+04  0.32116497953E+04  0.27021074169E+04 0.  0.
        3    1    3    3  502    0  0.39884933327E+03  0.11306494613E+04  0.16082036601E+04  0.20059332037E+04  0.10100000352E+00 0. -1.
       -3    1    3    3    0  502 -0.39884933327E+03 -0.11306494613E+04  0.12768513680E+03  0.12057165916E+04  0.10100000352E+00 0.  1.
</event>
<event>
 5   0  0.1828511E-06  0.2705179E+04  0.7818609E-02  0.8333327E-01
        1   -1    0    0  501    0  0.00000000000E+00  0.00000000000E+00  0.17248151022E+04  0.17248151022E+04  0.50400001928E-02 0. -1.
       -1   -1    0    0    0  501  0.00000000000E+00  0.00000000000E+00 -0.10606921526E+04  0.10606921526E+04  0.50400001928E-02 0.  1.
    10030    2    1    2    0    0  0.00000000000E+00  0.00000000000E+00  0.66412294963E+03  0.27855072548E+04  0.27051786216E+04 0.  0.
        4    1    3    3  502    0  0.21099629571E+03 -0.88755510742E+03 -0.69620205046E+03  0.11475941850E+04  0.12699999809E+01 0.  1.
       -4    1    3    3    0  502 -0.21099629571E+03  0.88755510742E+03  0.13603250001E+04  0.16379130698E+04  0.12699999809E+01 0. -1.
</event>
<event>
 5   0  0.1723605E-06  0.2712745E+04  0.7818609E-02  0.8330881E-01
       -1   -1    0    0    0  501  0.00000000000E+00  0.00000000000E+00  0.13764793918E+04  0.13764793919E+04  0.50400001928E-02 0. -1.
        1   -1    0    0  501    0  0.00000000000E+00  0.00000000000E+00 -0.13365593016E+04  0.13365593016E+04  0.50400001928E-02 0.  1.
    10030    2    1    2    0    0  0.00000000000E+00  0.00000000000E+00  0.39920090236E+02  0.27130386935E+04  0.27127449822E+04 0.  0.
        1    1    3    3  502    0  0.11415372790E+04 -0.44158926088E+03  0.60452131899E+03  0.13651206759E+04  0.50400001928E-02 0. -1.
       -1    1    3    3    0  502 -0.11415372790E+04  0.44158926088E+03 -0.56460122875E+03  0.13479180176E+04  0.50400001928E-02 0.  1.
</event>
<event>
 5   0  0.4487186E-06  0.2664449E+04  0.7818609E-02  0.8346633E-01
       -2   -1    0    0    0  501  0.00000000000E+00  0.00000000000E+00  0.66814917825E+03  0.66814917826E+03  0.25500000920E-02 0.  1.
        2   -1    0    0  501    0  0.00000000000E+00  0.00000000000E+00 -0.26563267009E+04  0.26563267009E+04  0.25500000920E-02 0. -1.
    10030    2    1    2    0    0  0.00000000000E+00  0.00000000000E+00 -0.19881775227E+04  0.33244758792E+04  0.26644492882E+04 0.  0.
        3    1    3    3  502    0 -0.11769828179E+04  0.20644300776E+03 -0.17289873381E+04  0.21017384458E+04  0.10100000352E+00 0. -1.
       -3    1    3    3    0  502  0.11769828179E+04 -0.20644300776E+03 -0.25919018459E+03  0.12227374334E+04  0.10100000352E+00 0.  1.
</event>
<event>
 5   0  0.4439357E-06  0.2690833E+04  0.7818609E-02  0.8337985E-01
        2   -1    0    0  501    0  0.00000000000E+00  0.00000000000E+00  0.15988705634E+04  0.15988705634E+04  0.25500000920E-02 0. -1.
       -2   -1    0    0    0  501  0.00000000000E+00  0.00000000000E+00 -0.11321400885E+04  0.11321400885E+04  0.25500000920E-02 0.  1.
    10030    2    1    2    0    0  0.00000000000E+00  0.00000000000E+00  0.46673047496E+03  0.27310106519E+04  0.26908329276E+04 0.  0.
        4    1    3    3  502    0  0.31989779986E+03  0.13022823770E+04  0.34394085957E+03  0.13844027303E+04  0.12699999809E+01 0. -1.
       -4    1    3    3    0  502 -0.31989779986E+03 -0.13022823770E+04  0.12278961539E+03  0.13466079216E+04  0.12699999809E+01 0.  1.
</event>
<event>
 5   0  0.1482875E-06  0.2699521E+04  0.7818609E-02  0.8335161E-01
        3   -1    0    0  501    0  0.00000000000E+00  0.00000000000E+00  0.17734542634E+04  0.17734542663E+04  0.10100000352E+00 0.  1.
       -3   -1    0    0    0  501  0.00000000000E+00  0.00000000000E+00 -0.10272906041E+04  0.10272906091E+04  0.10100000352E+00 0. -1.
    10030    2    1    2    0    0  0.00000000000E+00  0.00000000000E+00  0.74616365932E+03  0.28007448753E+04  0.26995206334E+04 0.  0.
        4    1    3    3  502    0 -0.10765289176E+04  0.31447993555E+03  0.11522685226E+04  0.16079603545E+04  0.12699999809E+01 0.  1.
       -4    1    3    3    0  502  0.10765289176E+04 -0.31447993555E+03 -0.40610486333E+03  0.11927845209E+04  0.12699999809E+01 0. -1.
</event>
<event>
 5   0  0.4655882E-06  0.2704671E+04  0.7818609E-02  0.8333491E-01
       -2   -1    0    0    0  501  0.00000000000E+00  0.00000000000E+00  0.90728665336E+03  0.90728665337E+03  0.25500000920E-02 0. -1.
        2   -1    0    0  501    0  0.00000000000E+00  0.00000000000E+00 -0.20156929396E+04  0.20156929396E+04  0.25500000920E-02 0.  1.
    10030    2    1    2    0    0  0.00000000000E+00  0.00000000000E+00 -0.11084062863E+04  0.29229795930E+04  0.27046709977E+04 0.  0.
        1    1    3    3  502    0  0.84005625027E+03 -0.92793869503E+03 -0.11074265973E+04  0.16712744819E+04  0.50400001928E-02 0.  1.
       -1    1    3    3    0  502 -0.84005625027E+03  0.92793869503E+03 -0.97968894342E+00  0.12517051111E+04  0.50400001928E-02 0. -1.
</event>
<event>
 5   0  0.4487186E-06  0.2680740E+04  0.7818609E-02  0.8341281E-01
       -2   -1    0    0    0  501  0.00000000000E+00  0.00000000000E+00  0.66306096357E+03  0.66306096357E+03  0.25500000920E-02 0.  1.
        2   -1    0    0  501    0  0.00000000000E+00  0.00000000000E+00 -0.27095424553E+04  0.27095424553E+04  0.25500000920E-02 0. -1.
    10030    2    1    2    0    0  0.00000000000E+00  0.00000000000E+00 -0.20464814918E+04  0.33726034189E+04  0.26807400704E+04 0.  0.
        3    1    3    3  502    0 -0.13145453421E+04 -0.11410263857E+03 -0.72674050491E+03  0.15063866171E+04  0.10100000352E+00 0.  1.
       -3    1    3    3    0  502  0.13145453421E+04  0.11410263857E+03 -0.13197409869E+04  0.18662168018E+04  0.10100000352E+00 0. -1.
</event>
<event>
 5   0  0.1723605E-06  0.2704304E+04  0.7818609E-02  0.8333610E-01
        1   -1    0    0  501    0  0.00000000000E+00  0.00000000000E+00  0.29478024084E+04  0.29478024084E+04  0.50400001928E-02 0. -1.
       -1   -1    0    0    0  501  0.00000000000E+00  0.00000000000E+00 -0.62022996183E+03  0.62022996185E+03  0.50400001928E-02 0.  1.
    10030    2    1    2    0    0  0.00000000000E+00  0.00000000000E+00  0.23275724465E+04  0.35680323702E+04  0.27043042545E+04 0.  0.
        1    1    3    3  502    0  0.25512072223E+03 -0.34980536792E+03 -0.52630310584E+03  0.68150226527E+03  0.50400001928E-02 0.  1.
       -1    1    3    3    0  502 -0.25512072223E+03  0.34980536792E+03  0.28538755524E+04  0.28865301049E+04  0.50400001928E-02 0. -1.
</event>
<event>
 5   0  0.1723605E-06  0.2658317E+04  0.7818609E-02  0.8348658E-01
       -1   -1    0    0    0  501  0.00000000000E+00  0.00000000000E+00  0.19358479562E+04  0.19358479562E+04  0.50400001928E-02 0. -1.
        1   -1    0    0  501    0  0.00000000000E+00  0.00000000000E+00 -0.91260399705E+03  0.91260399707E+03  0.50400001928E-02 0.  1.
    10030    2    1    2    0    0  0.00000000000E+00  0.00000000000E+00  0.10232439591E+04  0.28484519533E+04  0.26583171989E+04 0.  0.
        1    1    3    3  502    0  0.85889091749E+03  0.10008136963E+04  0.68879951537E+03  0.14878731247E+04  0.50400001928E-02 0. -1.
       -1    1    3    3    0  502 -0.85889091749E+03 -0.10008136963E+04  0.33444444376E+03  0.13605788286E+04  0.50400001928E-02 0.  1.
</event>
<event>
 5   0  0.1753474E-06  0.2728018E+04  0.7818609E-02  0.8325971E-01
       -1   -1    0    0    0  501  0.00000000000E+00  0.00000000000E+00  0.93900084225E+03  0.93900084227E+03  0.50400001928E-02 0.  1.
        1   -1    0    0  501    0  0.00000000000E+00  0.00000000000E+00 -0.19813836473E+04  0.19813836473E+04  0.50400001928E-02 0. -1.
    10030    2    1    2    0    0  0.00000000000E+00  0.00000000000E+00 -0.10423828051E+04  0.29203844896E+04  0.27280182651E+04 0.  0.
        3    1    3    3  502    0  0.10561929229E+04  0.37110251548E+03 -0.13554106719E+04  0.17579529763E+04  0.10100000352E+00 0. -1.
       -3    1    3    3    0  502 -0.10561929229E+04 -0.37110251548E+03  0.31302786682E+03  0.11624315132E+04  0.10100000352E+00 0.  1.
</event>
<event>
 5   0  0.1732312E-06  0.2696369E+04  0.7818609E-02  0.8336184E-01
        1   -1    0    0  501    0  0.00000000000E+00  0.00000000000E+00  0.21989722376E+04  0.21989722376E+04  0.50400001928E-02 0. -1.
       -1   -1    0    0    0  501  0.00000000000E+00  0.00000000000E+00 -0.82656871419E+03  0.82656871420E+03  0.50400001928E-02 0.  1.
    10030    2    1    2    0    0  0.00000000000E+00  0.00000000000E+00  0.13724035235E+04  0.30255409519E+04  0.26963691550E+04 0.  0.
        5    1    3    3  502    0 -0.11627243431E+04 -0.67220882256E+03  0.55444951296E+03  0.14530068656E+04  0.46999998093E+01 0.  1.
       -5    1    3    3    0  502  0.11627243431E+04  0.67220882256E+03  0.81795401049E+03  0.15725340862E+04  0.46999998093E+01 0. -1.
</event>
<event>
 5   0  0.1732312E-06  0.2703268E+04  0.7818609E-02  0.8333945E-01
       -1   -1    0    0    0  501  0.00000000000E+00  0.00000000000E+00  0.20986940735E+04  0.20986940735E+04  0.50400001928E-02 0. -1.
        1   -1    0    0  501    0  0.00000000000E+00  0.00000000000E+00 -0.87050075629E+03  0.87050075631E+03  0.50400001928E-02 0.  1.
    10030    2    1    2    0    0  0.00000000000E+00  0.00000000000E+00  0.12281933172E+04  0.29691948298E+04  0.27032682281E+04 0.  0.
        5    1    3    3  502    0  0.16488976207E+03 -0.57563923174E+03  0.19450517209E+04  0.20351406452E+04  0.46999998093E+01 0. -1.
       -5    1    3    3    0  502 -0.16488976207E+03  0.57563923174E+03 -0.71685840373E+03  0.93405418458E+03  0.46999998093E+01 0.  1.
</event>
<event>
 5   0  0.4439357E-06  0.2682102E+04  0.7818609E-02  0.8340836E-01
       -2   -1    0    0    0  501  0.00000000000E+00  0.00000000000E+00  0.11041007682E+04  0.11041007682E+04  0.25500000920E-02 0. -1.
        2   -1    0    0  501    0  0.00000000000E+00  0.00000000000E+00 -0.16288523905E+04  0.16288523905E+04  0.25500000920E-02 0.  1.
    10030    2    1    2    0    0  0.00000000000E+00  0.00000000000E+00 -0.52475162236E+03  0.27329531587E+04  0.26821015459E+04 0.  0.
        4    1    3    3  502    0  0.11464361940E+03 -0.95171602043E+03 -0.12179779664E+04  0.15499608003E+04  0.12699999809E+01 0.  1.
       -4    1    3    3    0  502 -0.11464361940E+03  0.95171602043E+03  0.69322634401E+03  0.11829923584E+04  0.12699999809E+01 0. -1.
</event>
<event>
 5   0  0.4655882E-06  0.2673449E+04  0.7818609E-02  0.8343672E-01
        2   -1    0    0  501    0  0.00000000000E+00  0.00000000000E+00  0.14541848811E+04  0.14541848811E+04  0.25500000920E-02 0.  1.
       -2   -1    0    0    0  501  0.00000000000E+00  0.00000000000E+00 -0.12287518918E+04  0.12287518918E+04  0.25500000920E-02 0. -1.
    10030    2    1    2    0    0  0.00000000000E+00  0.00000000000E+00  0.22543298938E+03  0.26829367729E+04  0.26734490260E+04 0.  0.
        1    1    3    3  502    0  0.31508845111E+03  0.10958552116E+04 -0.58736444458E+03  0.12826442872E+04  0.50400001928E-02 0. -1.
       -1    1    3    3    0  502 -0.31508845111E+03 -0.10958552116E+04  0.81279743395E+03  0.14002924857E+04  0.50400001928E-02 0.  1.
</event>
<event>
 5   0  0.1828511E-06  0.2691649E+04  0.7818609E-02  0.8337720E-01
        1   -1    0    0  501    0  0.00000000000E+00  0.00000000000E+00  0.21705910282E+04  0.21705910282E+04  0.50400001928E-02 0.  1.
       -1   -1    0    0    0  501  0.00000000000E+00  0.00000000000E+00 -0.83444710783E+03  0.83444710784E+03  0.50400001928E-02 0. -1.
    10030    2    1    2    0    0  0.00000000000E+00  0.00000000000E+00  0.13361439204E+04  0.30050381361E+04  0.26916488670E+04 0.  0.
        4    1    3    3  502    0  0.12499641131E+04 -0.42020549709E+03  0.96817963601E+03  0.16359573235E+04  0.12699999809E+01 0. -1.
       -4    1    3    3    0  502 -0.12499641131E+04  0.42020549709E+03  0.36796428437E+03  0.13690808126E+04  0.12699999809E+01 0.  1.
</event>
<event>
 5   0  0.4401659E-06  0.2701040E+04  0.7818609E-02  0.8334668E-01
       -2   -1    0    0    0  501  0.00000000000E+00  0.00000000000E+00  0.78657301097E+03  0.78657301097E+03  0.25500000920E-02 0. -1.
        2   -1    0    0  501    0  0.00000000000E+00  0.00000000000E+00 -0.23187977209E+04  0.23187977209E+04  0.25500000920E-02 0.  1.
    10030    2    1    2    0    0  0.00000000000E+00  0.00000000000E+00 -0.15322247099E+04  0.31053707319E+04  0.27010395815E+04 0.  0.
        5    1    3    3  502    0 -0.53488464455E+03  0.11271294270E+04 -0.13605826305E+04  0.18460036600E+04  0.46999998093E+01 0.  1.
       -5    1    3    3    0  502  0.53488464455E+03 -0.11271294270E+04 -0.17164207941E+03  0.12593670719E+04  0.46999998093E+01 0. -1.
</event>
<event>
 5   0  0.1771016E-06  0.2712594E+04  0.7818609E-02  0.8330930E-01
        1   -1    0    0  501    0  0.00000000000E+00  0.00000000000E+00  0.15268255455E+04  0.15268255455E+04  0.50400001928E-02 0. -1.
       -1   -1    0    0    0  501  0.00000000000E+00  0.00000000000E+00 -0.12048142233E+04  0.12048142233E+04  0.50400001928E-02 0.  1.
    10030    2    1    2    0    0  0.00000000000E+00  0.00000000000E+00  0.32201132219E+03  0.27316397687E+04  0.27125936914E+04 0.  0.
        2    1    3    3  502    0  0.70012790743E+03 -0.11613618890E+04  0.18568507698E+03  0.13687291447E+04  0.25500000920E-02 0.  1.
       -2    1    3    3    0  502 -0.70012790743E+03  0.11613618890E+04  0.13632624521E+03  0.13629106240E+04  0.25500000920E-02 0. -1.
</event>
<event>
 5   0  0.4448804E-06  0.2693257E+04  0.7818609E-02  0.8337196E-01
        2   -1    0    0  501    0  0.00000000000E+00  0.00000000000E+00  0.18132594564E+04  0.18132594564E+04  0.25500000920E-02 0.  1.
       -2   -1    0    0    0  501  0.00000000000E+00  0.00000000000E+00 -0.10000817528E+04  0.10000817528E+04  0.25500000920E-02 0. -1.
    10030    2    1    2    0    0  0.00000000000E+00  0.00000000000E+00  0.81317770355E+03  0.28133412092E+04  0.26932565384E+04 0.  0.
        2    1    3    3  502    0 -0.52687883883E+03 -0.51446212581E+02 -0.88682759305E+03  0.10328171200E+04  0.25500000920E-02 0. -1.
       -2    1    3    3    0  502  0.52687883883E+03  0.51446212581E+02  0.17000052966E+04  0.17805240892E+04  0.25500000920E-02 0.  1.
</event>
<event>
 5   0  0.4487186E-06  0.2695804E+04  0.7818609E-02  0.8336368E-01
       -2   -1    0    0    0  501  0.00000000000E+00  0.00000000000E+00  0.10023768909E+04  0.10023768909E+04  0.25500000920E-02 0.  1.
        2   -1    0    0  501    0  0.00000000000E+00  0.00000000000E+00 -0.18125317380E+04  0.18125317380E+04  0.25500000920E-02 0. -1.
    10030    2    1    2    0    0  0.00000000000E+00  0.00000000000E+00 -0.81015484712E+03  0.28149086290E+04  0.26958040940E+04 0.  0.
        3    1    3    3  502    0  0.55797784066E+03  0.12072416921E+04 -0.63400844832E+03  0.14733426270E+04  0.10100000352E+00 0. -1.
       -3    1    3    3    0  502 -0.55797784066E+03 -0.12072416921E+04 -0.17614639880E+03  0.13415660020E+04  0.10100000352E+00 0.  1.
</event>
<event>
 5   0  0.4655882E-06  0.2711060E+04  0.7818609E-02  0.8331425E-01
        2   -1    0    0  501    0  0.00000000000E+00  0.00000000000E+00  0.24661967794E+04  0.24661967794E+04  0.25500000920E-02 0. -1.
       -2   -1    0    0    0  501  0.00000000000E+00  0.00000000000E+00 -0.74505878792E+03  0.74505878792E+03  0.25500000920E-02 0.  1.
    10030    2    1    2    0    0  0.00000000000E+00  0.00000000000E+00  0.17211379915E+04  0.32112555674E+04  0.27110600017E+04 0.  0.
        1    1    3    3  502    0 -0.65629488969E+02 -0.82684722708E+03  0.21305173967E+04  0.22862825601E+04  0.50400001928E-02 0. -1.
       -1    1    3    3    0  502  0.65629488969E+02  0.82684722708E+03 -0.40937940521E+03  0.92497300728E+03  0.50400001928E-02 0.  1.
</event>
<event>
 5   0  0.4439357E-06  0.2703346E+04  0.7818609E-02  0.8333920E-01
        2   -1    0    0  501    0  0.00000000000E+00  0.00000000000E+00  0.13711639783E+04  0.13711639783E+04  0.25500000920E-02 0. -1.
       -2   -1    0    0    0  501  0.00000000000E+00  0.00000000000E+00 -0.13324594925E+04  0.13324594925E+04  0.25500000920E-02 0.  1.
    10030    2    1    2    0    0  0.00000000000E+00  0.00000000000E+00  0.38704485768E+02  0.27036234708E+04  0.27033464141E+04 0.  0.
        4    1    3    3  502    0  0.11099408917E+04 -0.18252981081E+03  0.76891750145E+03  0.13625423486E+04  0.12699999809E+01 0. -1.
       -4    1    3    3    0  502 -0.11099408917E+04  0.18252981081E+03 -0.73021301568E+03  0.13410811221E+04  0.12699999809E+01 0.  1.
</event>
<event>
 5   0  0.1732312E-06  0.2703519E+04  0.7818609E-02  0.8333864E-01
        1   -1    0    0  501    0  0.00000000000E+00  0.00000000000E+00  0.24629473561E+04  0.24629473562E+04  0.50400001928E-02 0.  1.
       -1   -1    0    0    0  501  0.00000000000E+00  0.00000000000E+00 -0.74189745848E+03  0.74189745850E+03  0.50400001928E-02 0. -1.
    10030    2    1    2    0    0  0.00000000000E+00  0.00000000000E+00  0.17210498977E+04  0.32048448147E+04  0.27035194720E+04 0.  0.
        5    1    3    3  502    0  0.12031358275E+04 -0.47402763893E+03  0.39382760688E+03  0.13517989110E+04  0.46999998093E+01 0. -1.
       -5    1    3    3    0  502 -0.12031358275E+04  0.47402763893E+03  0.13272222908E+04  0.18530459036E+04  0.46999998093E+01 0.  1.
</event>
<event>
 5   0  0.1828511E-06  0.2568600E+04  0.7818609E-02  0.8378946E-01
       -1   -1    0    0    0  501  0.00000000000E+00  0.00000000000E+00  0.19389322833E+04  0.19389322833E+04  0.50400001928E-02 0. -1.
        1   -1    0    0  501    0  0.00000000000E+00  0.00000000000E+00 -0.85068776980E+03  0.85068776981E+03  0.50400001928E-02 0.  1.
    10030    2    1    2    0    0  0.00000000000E+00  0.00000000000E+00  0.10882445135E+04  0.27896200531E+04  0.25685996028E+04 0.  0.
        4    1    3    3  502    0  0.19768613580E+03  0.97371663755E+03  0.14279140110E+04  0.17395815400E+04  0.12699999809E+01 0. -1.
       -4    1    3    3    0  502 -0.19768613580E+03 -0.97371663755E+03 -0.33966949754E+03  0.10500385131E+04  0.12699999809E+01 0.  1.
</event>
<event>
 5   0  0.1482875E-06  0.2715987E+04  0.7818609E-02  0.8329836E-01
       -3   -1    0    0    0  501  0.00000000000E+00  0.00000000000E+00  0.13446553572E+04  0.13446553610E+04  0.10100000352E+00 0. -1.
        3   -1    0    0  501    0  0.00000000000E+00  0.00000000000E+00 -0.13714636071E+04  0.13714636108E+04  0.10100000352E+00 0.  1.
    10030    2    1    2    0    0  0.00000000000E+00  0.00000000000E+00 -0.26808249915E+02  0.27161189719E+04  0.27159866692E+04 0.  0.
        3    1    3    3  502    0 -0.85280654889E+03  0.70777653923E+03 -0.79824758370E+03  0.13658059358E+04  0.10100000352E+00 0.  1.
       -3    1    3    3    0  502  0.85280654889E+03 -0.70777653923E+03  0.77143933379E+03  0.13503130360E+04  0.10100000352E+00 0. -1.
</event>
<event>
 5   0  0.4487186E-06  0.2706484E+04  0.7818609E-02  0.8332904E-01
        2   -1    0    0  501    0  0.00000000000E+00  0.00000000000E+00  0.77196530961E+03  0.77196530961E+03  0.25500000920E-02 0. -1.
       -2   -1    0    0    0  501  0.00000000000E+00  0.00000000000E+00 -0.23722104086E+04  0.23722104086E+04  0.25500000920E-02 0.  1.
    10030    2    1    2    0    0  0.00000000000E+00  0.00000000000E+00 -0.16002450990E+04  0.31441757182E+04  0.27064841714E+04 0.  0.
        3    1    3    3  502    0 -0.93380143953E+03 -0.39849850082E+03 -0.18395064947E+04  0.21010878939E+04  0.10100000352E+00 0.  1.
       -3    1    3    3    0  502  0.93380143953E+03  0.39849850082E+03  0.23926139569E+03  0.10430878243E+04  0.10100000352E+00 0. -1.
</event>
<event>
 5   0  0.4448804E-06  0.2688832E+04  0.7818609E-02  0.8338638E-01
        2   -1    0    0  501    0  0.00000000000E+00  0.00000000000E+00  0.24589546965E+04  0.24589546965E+04  0.25500000920E-02 0. -1.
       -2   -1    0    0    0  501  0.00000000000E+00  0.00000000000E+00 -0.73504969439E+03  0.73504969439E+03  0.25500000920E-02 0.  1.
    10030    2    1    2    0    0  0.00000000000E+00  0.00000000000E+00  0.17239050021E+04  0.31940043909E+04  0.26888316408E+04 0.  0.
        2    1    3    3  502    0  0.96586426405E+03  0.54082276446E+03  0.17682271409E+04  0.20861472290E+04  0.25500000920E-02 0. -1.
       -2    1    3    3    0  502 -0.96586426405E+03 -0.54082276446E+03 -0.44322138841E+02  0.11078571619E+04  0.25500000920E-02 0.  1.
</event>
<event>
 5   0  0.4401659E-06  0.2692564E+04  0.7818609E-02  0.8337422E-01
       -2   -1    0    0    0  501  0.00000000000E+00  0.00000000000E+00  0.13995080698E+04  0.13995080698E+04  0.25500000920E-02 0.  1.
        2   -1    0    0  501    0  0.00000000000E+00  0.00000000000E+00 -0.12950799560E+04  0.12950799560E+04  0.25500000920E-02 0. -1.
    10030    2    1    2    0    0  0.00000000000E+00  0.00000000000E+00  0.10442811373E+03  0.26945880258E+04  0.26925637222E+04 0.  0.
        5    1    3    3  502    0 -0.53852995116E+03  0.58628424025E+03  0.11387139620E+04  0.13894010566E+04  0.46999998093E+01 0.  1.
       -5    1    3    3    0  502  0.53852995116E+03 -0.58628424025E+03 -0.10342858483E+04  0.13051869692E+04  0.46999998093E+01 0. -1.
</event>
<event>
 5   0  0.1828511E-06  0.2705204E+04  0.7818609E-02  0.8333318E-01
       -1   -1    0    0    0  501  0.00000000000E+00  0.00000000000E+00  0.73843691792E+03  0.73843691793E+03  0.50400001928E-02 0. -1.
        1   -1    0    0  501    0  0.00000000000E+00  0.00000000000E+00 -0.24775746921E+04  0.24775746921E+04  0.50400001928E-02 0.  1.
    10030    2    1    2    0    0  0.00000000000E+00  0.00000000000E+00 -0.17391377742E+04  0.32160116100E+04  0.27052043321E+04 0.  0.
        4    1    3    3  502    0  0.11353168485E+04  0.73262106399E+03 -0.79577521631E+03  0.15681000534E+04  0.12699999809E+01 0. -1.
       -4    1    3    3    0  502 -0.11353168485E+04 -0.73262106399E+03 -0.94336255788E+03  0.16479115566E+04  0.12699999809E+01 0.  1.
</event>
<event>
 5   0  0.1753474E-06  0.2706558E+04  0.7818609E-02  0.8332880E-01
        1   -1    0    0  501    0  0.00000000000E+00  0.00000000000E+00  0.14863144669E+04  0.14863144669E+04  0.50400001928E-02 0. -1.
       -1   -1    0    0    0  501  0.00000000000E+00  0.00000000000E+00 -0.12321508872E+04  0.12321508872E+04  0.50400001928E-02 0.  1.
    10030    2    1    2    0    0  0.00000000000E+00  0.00000000000E+00  0.25416357967E+03  0.27184653541E+04  0.27065577319E+04 0.  0.
        3    1    3    3  502    0 -0.45274207819E+03  0.27123353794E+03 -0.11245228291E+04  0.12422135987E+04  0.10100000352E+00 0.  1.
       -3    1    3    3    0  502  0.45274207819E+03 -0.27123353794E+03  0.13786864087E+04  0.14762517554E+04  0.10100000352E+00 0. -1.
</event>
<event>
 5   0  0.4448804E-06  0.2695078E+04  0.7818609E-02  0.8336604E-01
        2   -1    0    0  501    0  0.00000000000E+00  0.00000000000E+00  0.95918735433E+03  0.95918735433E+03  0.25500000920E-02 0.  1.
       -2   -1    0    0    0  501  0.00000000000E+00  0.00000000000E+00 -0.18931241796E+04  0.18931241796E+04  0.25500000920E-02 0. -1.
    10030    2    1    2    0    0  0.00000000000E+00  0.00000000000E+00 -0.93393682524E+03  0.28523115339E+04  0.26950775671E+04 0.  0.
        2    1    3    3  502    0 -0.12438640502E+04  0.27627127269E+03 -0.28195260581E+01  0.12741787713E+04  0.25500000920E-02 0.  1.
       -2    1    3    3    0  502  0.12438640502E+04 -0.27627127269E+03 -0.93111729918E+03  0.15781327626E+04  0.25500000920E-02 0. -1.
</event>
<event>
 5   0  0.1723605E-06  0.2703305E+04  0.7818609E-02  0.8333933E-01
        1   -1    0    0  501    0  0.00000000000E+00  0.00000000000E+00  0.17103882591E+04  0.17103882591E+04  0.50400001928E-02 0. -1.
       -1   -1    0    0    0  501  0.00000000000E+00  0.00000000000E+00 -0.10681576362E+04  0.10681576362E+04  0.50400001928E-02 0.  1.
    10030    2    1    2    0    0  0.00000000000E+00  0.00000000000E+00  0.64223062291E+03  0.27785458953E+04  0.27033048513E+04 0.  0.
        1    1    3    3  502    0 -0.10047958607E+04 -0.73545187959E+03  0.86154447133E+03  0.15141872622E+04  0.50400001928E-02 0. -1.
       -1    1    3    3    0  502  0.10047958607E+04  0.73545187959E+03 -0.21931384842E+03  0.12643586331E+04  0.50400001928E-02 0.  1.
</event>
<event>
 5   0  0.4439357E-06  0.2693259E+04  0.7818609E-02  0.8337195E-01
        2   -1    0    0  501    0  0.00000000000E+00  0.00000000000E+00  0.18181166606E+04  0.18181166606E+04  0.25500000920E-02 0.  1.
       -2   -1    0    0    0  501  0.00000000000E+00  0.00000000000E+00 -0.99741212204E+03  0.99741212205E+03  0.25500000920E-02 0. -1.
    10030    2    1    2    0    0  0.00000000000E+00  0.00000000000E+00  0.82070453855E+03  0.28155287826E+04  0.26932594354E+04 0.  0.
        4    1    3    3  502    0 -0.10852343170E+04  0.66903617811E+03  0.86370698886E+03  0.15399137333E+04  0.12699999809E+01 0.  1.
       -4    1    3    3    0  502  0.10852343170E+04 -0.66903617811E+03 -0.43002450313E+02  0.12756150493E+04  0.12699999809E+01 0. -1.
</event>
<event>
 5   0  0.1732312E-06  0.2762167E+04  0.7818609E-02  0.8315111E-01
        1   -1    0    0  501    0  0.00000000000E+00  0.00000000000E+00  0.16143176229E+04  0.16143176229E+04  0.50400001928E-02 0. -1.
       -1   -1    0    0    0  501  0.00000000000E+00  0.00000000000E+00 -0.11815462949E+04  0.11815462949E+04  0.50400001928E-02 0.  1.
    10030    2    1    2    0    0  0.00000000000E+00  0.00000000000E+00  0.43277132800E+03  0.27958639179E+04  0.27621665454E+04 0.  0.
        5    1    3    3  502    0  0.17803758457E+03 -0.10213139531E+04  0.11399807051E+04  0.15408950874E+04  0.46999998093E+01 0. -1.
       -5    1    3    3    0  502 -0.17803758457E+03  0.10213139531E+04 -0.70720937713E+03  0.12549688305E+04  0.46999998093E+01 0.  1.
</event>
<event>
 5   0  0.4401659E-06  0.2711091E+04  0.7818609E-02  0.8331415E-01
        2   -1    0    0  501    0  0.00000000000E+00  0.00000000000E+00  0.13452546083E+04  0.13452546083E+04  0.25500000920E-02 0.  1.
       -2   -1    0    0    0  501  0.00000000000E+00  0.00000000000E+00 -0.13659147644E+04  0.13659147644E+04  0.25500000920E-02 0. -1.
    10030    2    1    2    0    0  0.00000000000E+00  0.00000000000E+00 -0.20660156137E+02  0.27111693727E+04  0.27110906524E+04 0.  0.
        5    1    3    3  502    0  0.22168384392E+02 -0.91059751992E+03  0.99359237289E+03  0.13479344101E+04  0.46999998093E+01 0.  1.
       -5    1    3    3    0  502 -0.22168384392E+02  0.91059751992E+03 -0.10142525290E+04  0.13632349626E+04  0.46999998093E+01 0. -1.
</event>
<event>
 5   0  0.4655882E-06  0.2700750E+04  0.7818609E-02  0.8334762E-01
        2   -1    0    0  501    0  0.00000000000E+00  0.00000000000E+00  0.18698140068E+04  0.18698140068E+04  0.25500000920E-02 0. -1.
       -2   -1    0    0    0  501  0.00000000000E+00  0.00000000000E+00 -0.97523748885E+03  0.97523748885E+03  0.25500000920E-02 0.  1.
    10030    2    1    2    0    0  0.00000000000E+00  0.00000000000E+00  0.89457651800E+03  0.28450514957E+04  0.27007500563E+04 0.  0.
        1    1    3    3  502    0 -0.67825774278E+03 -0.11284253142E+04  0.13102147650E+03  0.13230812079E+04  0.50400001928E-02 0.  1.
       -1    1    3    3    0  502  0.67825774278E+03  0.11284253142E+04  0.76355504150E+03  0.15219702878E+04  0.50400001928E-02 0. -1.
</event>
<event>
 5   0  0.1753474E-06  0.2702439E+04  0.7818609E-02  0.8334214E-01
       -1   -1    0    0    0  501  0.00000000000E+00  0.00000000000E+00  0.16822773955E+04  0.16822773955E+04  0.50400001928E-02 0.  1.
        1   -1    0    0  501    0  0.00000000000E+00  0.00000000000E+00 -0.10853106759E+04  0.10853106759E+04  0.50400001928E-02 0. -1.
    10030    2    1    2    0    0  0.00000000000E+00  0.00000000000E+00  0.59696671959E+03  0.27675880715E+04  0.27024386152E+04 0.  0.
        3    1    3    3  502    0  0.55157621573E+03  0.25940753572E+03  0.15334845909E+04  0.16501828966E+04  0.10100000352E+00 0.  1.
       -3    1    3    3    0  502 -0.55157621573E+03 -0.25940753572E+03 -0.93651787133E+03  0.11174051749E+04  0.10100000352E+00 0. -1.
</event>
<event>
 5   0  0.1828511E-06  0.2687824E+04  0.7818609E-02  0.8338966E-01
       -1   -1    0    0    0  501  0.00000000000E+00  0.00000000000E+00  0.14024013046E+04  0.14024013046E+04  0.50400001928E-02 0. -1.
        1   -1    0    0  501    0  0.00000000000E+00  0.00000000000E+00 -0.12878622933E+04  0.12878622933E+04  0.50400001928E-02 0.  1.
    10030    2    1    2    0    0  0.00000000000E+00  0.00000000000E+00  0.11453901131E+03  0.26902635979E+04  0.26878242206E+04 0.  0.
        4    1    3    3  502    0 -0.41269483365E+03 -0.12657427734E+04 -0.12640822295E+03  0.13373116487E+04  0.12699999809E+01 0.  1.
       -4    1    3    3    0  502  0.41269483365E+03  0.12657427734E+04  0.24094723427E+03  0.13529519491E+04  0.12699999809E+01 0. -1.
</event>
<event>
 5   0  0.1828511E-06  0.2683836E+04  0.7818609E-02  0.8340269E-01
       -1   -1    0    0    0  501  0.00000000000E+00  0.00000000000E+00  0.77135642041E+03  0.77135642042E+03  0.50400001928E-02 0.  1.
        1   -1    0    0  501    0  0.00000000000E+00  0.00000000000E+00 -0.23345159480E+04  0.23345159481E+04  0.50400001928E-02 0. -1.
    10030    2    1    2    0    0  0.00000000000E+00  0.00000000000E+00 -0.15631595276E+04  0.31058723685E+04  0.26838359600E+04 0.  0.
        4    1    3    3  502    0 -0.13353691129E+04  0.10818015687E+03 -0.69322882070E+03  0.15084698952E+04  0.12699999809E+01 0.  1.
       -4    1    3    3    0  502  0.13353691129E+04 -0.10818015687E+03 -0.86993070694E+03  0.15974024733E+04  0.12699999809E+01 0. -1.
</event>
<event>
 5   0  0.1828511E-06  0.2666480E+04  0.7818609E-02  0.8345964E-01
       -1   -1    0    0    0  501  0.00000000000E+00  0.00000000000E+00  0.14813140211E+04  0.14813140211E+04  0.50400001928E-02 0. -1.
        1   -1    0    0  501    0  0.00000000000E+00  0.00000000000E+00 -0.11999676186E+04  0.11999676186E+04  0.50400001928E-02 0.  1.
    10030    2    1    2    0    0  0.00000000000E+00  0.00000000000E+00  0.28134640251E+03  0.26812816398E+04  0.26664799706E+04 0.  0.
        4    1    3    3  502    0 -0.49350670017E+02 -0.78106402191E+03  0.12260306792E+04  0.14545271858E+04  0.12699999809E+01 0. -1.
       -4    1    3    3    0  502  0.49350670017E+02  0.78106402191E+03 -0.94468427665E+03  0.12267544540E+04  0.12699999809E+01 0.  1.
</event>
<event>
 5   0  0.1753474E-06  0.2679309E+04  0.7818609E-02  0.8341750E-01
       -1   -1    0    0    0  501  0.00000000000E+00  0.00000000000E+00  0.18053495165E+04  0.18053495165E+04  0.50400001928E-02 0. -1.
        1   -1    0    0  501    0  0.00000000000E+00  0.00000000000E+00 -0.99408668203E+03  0.99408668204E+03  0.50400001928E-02 0.  1.
    10030    2    1    2    0    0  0.00000000000E+00  0.00000000000E+00  0.81126283446E+03  0.27994361985E+04  0.26793087995E+04 0.  0.
        3    1    3    3  502    0  0.94233425616E+03  0.94848256368E+03  0.31783493486E+03  0.13742751107E+04  0.10100000352E+00 0.  1.
       -3    1    3    3    0  502 -0.94233425616E+03 -0.94848256368E+03  0.49342789960E+03  0.14251610878E+04  0.10100000352E+00 0. -1.
</event>
<event>
 5   0  0.4401659E-06  0.2697912E+04  0.7818609E-02  0.8335683E-01
       -2   -1    0    0    0  501  0.00000000000E+00  0.00000000000E+00  0.75470755773E+03  0.75470755774E+03  0.25500000920E-02 0. -1.
        2   -1    0    0  501    0  0.00000000000E+00  0.00000000000E+00 -0.24111084329E+04  0.24111084329E+04  0.25500000920E-02 0.  1.
    10030    2    1    2    0    0  0.00000000000E+00  0.00000000000E+00 -0.16564008752E+04  0.31658159907E+04  0.26979116048E+04 0.  0.
        5    1    3    3  502    0  0.13133552055E+04  0.13387967658E+03 -0.50293742304E+03  0.14127256652E+04  0.46999998093E+01 0.  1.
       -5    1    3    3    0  502 -0.13133552055E+04 -0.13387967658E+03 -0.11534634521E+04  0.17530903254E+04  0.46999998093E+01 0. -1.
</event>
<event>
 5   0  0.4448804E-06  0.2701501E+04  0.7818609E-02  0.8334518E-01
        2   -1    0    0  501    0  0.00000000000E+00  0.00000000000E+00  0.15106920053E+04  0.15106920053E+04  0.25500000920E-02 0. -1.
       -2   -1    0    0    0  501  0.00000000000E+00  0.00000000000E+00 -0.12077423440E+04  0.12077423440E+04  0.25500000920E-02 0.  1.
    10030    2    1    2    0    0  0.00000000000E+00  0.00000000000E+00  0.30294966130E+03  0.27184343493E+04  0.27015008447E+04 0.  0.
        2    1    3    3  502    0  0.80254830155E+03 -0.43037862156E+03 -0.85238406398E+03  0.12473444299E+04  0.25500000920E-02 0.  1.
       -2    1    3    3    0  502 -0.80254830155E+03  0.43037862156E+03  0.11553337253E+04  0.14710899194E+04  0.25500000920E-02 0. -1.
</event>
<event>
 5   0  0.1771016E-06  0.2685970E+04  0.7818609E-02  0.8339572E-01
       -1   -1    0    0    0  501  0.00000000000E+00  0.00000000000E+00  0.13961824374E+04  0.13961824374E+04  0.50400001928E-02 0. -1.
        1   -1    0    0  501    0  0.00000000000E+00  0.00000000000E+00 -0.12918143154E+04  0.12918143154E+04  0.50400001928E-02 0.  1.
    10030    2    1    2    0    0  0.00000000000E+00  0.00000000000E+00  0.10436812201E+03  0.26879967528E+04  0.26859698134E+04 0.  0.
        2    1    3    3  502    0 -0.24050720474E+03 -0.10827058860E+03  0.13700081636E+04  0.13951661565E+04  0.25500000920E-02 0. -1.
       -2    1    3    3    0  502  0.24050720474E+03  0.10827058860E+03 -0.12656400416E+04  0.12928305963E+04  0.25500000920E-02 0.  1.
</event>
<event>
 5   0  0.1723605E-06  0.2697238E+04  0.7818609E-02  0.8335902E-01
       -1   -1    0    0    0  501  0.00000000000E+00  0.00000000000E+00  0.15244478167E+04  0.15244478167E+04  0.50400001928E-02 0.  1.
        1   -1    0    0  501    0  0.00000000000E+00  0.00000000000E+00 -0.11930702715E+04  0.11930702715E+04  0.50400001928E-02 0. -1.
    10030    2    1    2    0    0  0.00000000000E+00  0.00000000000E+00  0.33137754526E+03  0.27175180882E+04  0.26972381211E+04 0.  0.
        1    1    3    3  502    0 -0.13241675798E+04 -0.85985934920E+02 -0.76870220297E+02  0.13291810980E+04  0.50400001928E-02 0. -1.
       -1    1    3    3    0  502  0.13241675798E+04  0.85985934920E+02  0.40824776555E+03  0.13883369902E+04  0.50400001928E-02 0.  1.
</event>
<event>
 5   0  0.1753474E-06  0.2666408E+04  0.7818609E-02  0.8345987E-01
       -1   -1    0    0    0  501  0.00000000000E+00  0.00000000000E+00  0.13851059230E+04  0.13851059230E+04  0.50400001928E-02 0.  1.
        1   -1    0    0  501    0  0.00000000000E+00  0.00000000000E+00 -0.12832473229E+04  0.12832473229E+04  0.50400001928E-02 0. -1.
    10030    2    1    2    0    0  0.00000000000E+00  0.00000000000E+00  0.10185860009E+03  0.26683532459E+04  0.26664084215E+04 0.  0.
        3    1    3    3  502    0 -0.18299138311E+03 -0.12052706342E+04 -0.48915898700E+03  0.13135599235E+04  0.10100000352E+00 0. -1.
       -3    1    3    3    0  502  0.18299138311E+03  0.12052706342E+04  0.59101758709E+03  0.13547933224E+04  0.10100000352E+00 0.  1.
</event>
<event>
 5   0  0.1723605E-06  0.2701839E+04  0.7818609E-02  0.8334409E-01
       -1   -1    0    0    0  501  0.00000000000E+00  0.00000000000E+00  0.94754691078E+03  0.94754691079E+03  0.50400001928E-02 0. -1.
        1   -1    0    0  501    0  0.00000000000E+00  0.00000000000E+00 -0.19260080949E+04  0.19260080949E+04  0.50400001928E-02 0.  1.
    10030    2    1    2    0    0  0.00000000000E+00  0.00000000000E+00 -0.97846118409E+03  0.28735550057E+04  0.27018386484E+04 0.  0.
        1    1    3    3  502    0 -0.10978251584E+03  0.69988678127E+03 -0.17125917456E+04  0.18533386616E+04  0.50400001928E-02 0.  1.
       -1    1    3    3    0  502  0.10978251584E+03 -0.69988678127E+03  0.73413056151E+03  0.10202163441E+04  0.50400001928E-02 0. -1.
</event>
<event>
 5   0  0.1828511E-06  0.2687694E+04  0.7818609E-02  0.8339009E-01
       -1   -1    0    0    0  501  0.00000000000E+00  0.00000000000E+00  0.94089386697E+03  0.94089386698E+03  0.50400001928E-02 0. -1.
        1   -1    0    0  501    0  0.00000000000E+00  0.00000000000E+00 -0.19193706882E+04  0.19193706882E+04  0.50400001928E-02 0.  1.
    10030    2    1    2    0    0  0.00000000000E+00  0.00000000000E+00 -0.97847682119E+03  0.28602645552E+04  0.26876935160E+04 0.  0.
        4    1    3    3  502    0  0.22299734350E+03 -0.88495122711E+03 -0.15390113647E+04  0.17892523811E+04  0.12699999809E+01 0.  1.
       -4    1    3    3    0  502 -0.22299734350E+03  0.88495122711E+03  0.56053454354E+03  0.10710121741E+04  0.12699999809E+01 0. -1.
</event>
<event>
 5   0  0.1828511E-06  0.2689293E+04  0.7818609E-02  0.8338487E-01
        1   -1    0    0  501    0  0.00000000000E+00  0.00000000000E+00  0.89328692378E+03  0.89328692380E+03  0.50400001928E-02 0. -1.
       -1   -1    0    0    0  501  0.00000000000E+00  0.00000000000E+00 -0.20240687466E+04  0.20240687466E+04  0.50400001928E-02 0.  1.
    10030    2    1    2    0    0  0.00000000000E+00  0.00000000000E+00 -0.11307818228E+04  0.29173556704E+04  0.26892929511E+04 0.  0.
        4    1    3    3  502    0  0.75011374037E+03  0.56353270691E+03 -0.16103183314E+04  0.18636969917E+04  0.12699999809E+01 0.  1.
       -4    1    3    3    0  502 -0.75011374037E+03 -0.56353270691E+03  0.47953650864E+03  0.10536586787E+04  0.12699999809E+01 0. -1.
</event>
<event>
 5   0  0.1753474E-06  0.2703159E+04  0.7818609E-02  0.8333981E-01
       -1   -1    0    0    0  501  0.00000000000E+00  0.00000000000E+00  0.10324800674E+04  0.10324800674E+04  0.50400001928E-02 0.  1.
        1   -1    0    0  501    0  0.00000000000E+00  0.00000000000E+00 -0.17692995911E+04  0.17692995911E+04  0.50400001928E-02 0. -1.
    10030    2    1    2    0    0  0.00000000000E+00  0.00000000000E+00 -0.73681952364E+03  0.28017796585E+04  0.27031585681E+04 0.  0.
        3    1    3    3  502    0  0.27792561854E+03  0.16238828606E+03 -0.17289910536E+04  0.17586991439E+04  0.10100000352E+00 0. -1.
       -3    1    3    3    0  502 -0.27792561854E+03 -0.16238828606E+03  0.99217153001E+03  0.10430805147E+04  0.10100000352E+00 0.  1.
</event>
<event>
 5   0  0.4448804E-06  0.2670270E+04  0.7818609E-02  0.8344716E-01
        2   -1    0    0  501    0  0.00000000000E+00  0.00000000000E+00  0.10628960540E+04  0.10628960540E+04  0.25500000920E-02 0. -1.
       -2   -1    0    0    0  501  0.00000000000E+00  0.00000000000E+00 -0.16771025599E+04  0.16771025599E+04  0.25500000920E-02 0.  1.
    10030    2    1    2    0    0  0.00000000000E+00  0.00000000000E+00 -0.61420650584E+03  0.27399986139E+04  0.26702701684E+04 0.  0.
        2    1    3    3  502    0  0.15847902749E+02  0.11955344343E+04 -0.91678353145E+03  0.15066671110E+04  0.25500000920E-02 0.  1.
       -2    1    3    3    0  502 -0.15847902749E+02 -0.11955344343E+04  0.30257702560E+03  0.12333315029E+04  0.25500000920E-02 0. -1.
</event>
<event>
 5   0  0.1482875E-06  0.2700565E+04  0.7818609E-02  0.8334822E-01
       -3   -1    0    0    0  501  0.00000000000E+00  0.00000000000E+00  0.21027290053E+04  0.21027290078E+04  0.10100000352E+00 0. -1.
        3   -1    0    0  501    0  0.00000000000E+00  0.00000000000E+00 -0.86709331206E+03  0.86709331794E+03  0.10100000352E+00 0.  1.
    10030    2    1    2    0    0  0.00000000000E+00  0.00000000000E+00  0.12356356933E+04  0.29698223257E+04  0.27005645854E+04 0.  0.
        1    1    3    3  502    0 -0.35996412412E+03  0.55158284673E+02 -0.81207073128E+03  0.88998622441E+03  0.50400001928E-02 0.  1.
       -1    1    3    3    0  502  0.35996412412E+03 -0.55158284673E+02  0.20477064246E+04  0.20798361013E+04  0.50400001928E-02 0. -1.
</event>
<event>
 5   0  0.4655882E-06  0.2699452E+04  0.7818609E-02  0.8335183E-01
       -2   -1    0    0    0  501  0.00000000000E+00  0.00000000000E+00  0.17773543643E+04  0.17773543643E+04  0.25500000920E-02 0. -1.
        2   -1    0    0  501    0  0.00000000000E+00  0.00000000000E+00 -0.10249845238E+04  0.10249845238E+04  0.25500000920E-02 0.  1.
    10030    2    1    2    0    0  0.00000000000E+00  0.00000000000E+00  0.75236984046E+03  0.28023388881E+04  0.26994523272E+04 0.  0.
        1    1    3    3  502    0  0.53786299192E+03 -0.10751333344E+04  0.10132117438E+04  0.15721979273E+04  0.50400001928E-02 0. -1.
       -1    1    3    3    0  502 -0.53786299192E+03  0.10751333344E+04 -0.26084190337E+03  0.12301409608E+04  0.50400001928E-02 0.  1.
</event>
<event>
 5   0  0.1753474E-06  0.2689287E+04  0.7818609E-02  0.8338489E-01
       -1   -1    0    0    0  501  0.00000000000E+00  0.00000000000E+00  0.73927094561E+03  0.73927094563E+03  0.50400001928E-02 0. -1.
        1   -1    0    0  501    0  0.00000000000E+00  0.00000000000E+00 -0.24457427782E+04  0.24457427782E+04  0.50400001928E-02 0.  1.
    10030    2    1    2    0    0  0.00000000000E+00  0.00000000000E+00 -0.17064718326E+04  0.31850137238E+04  0.26892873230E+04 0.  0.
        3    1    3    3  502    0 -0.13441412545E+04  0.36753814665E+02 -0.85336113433E+03  0.15925739514E+04  0.10100000352E+00 0.  1.
       -3    1    3    3    0  502  0.13441412545E+04 -0.36753814665E+02 -0.85311069824E+03  0.15924397724E+04  0.10100000352E+00 0. -1.
</event>
<event>
 5   0  0.4655882E-06  0.2717011E+04  0.7818609E-02  0.8329506E-01
       -2   -1    0    0    0  501  0.00000000000E+00  0.00000000000E+00  0.70535189491E+03  0.70535189491E+03  0.25500000920E-02 0.  1.
        2   -1    0    0  501    0  0.00000000000E+00  0.00000000000E+00 -0.26164780363E+04  0.26164780363E+04  0.25500000920E-02 0. -1.
    10030    2    1    2    0    0  0.00000000000E+00  0.00000000000E+00 -0.19111261414E+04  0.33218299313E+04  0.27170114029E+04 0.  0.
        1    1    3    3  502    0  0.24673365478E+03 -0.63202354480E+03 -0.23945047448E+04  0.24887716309E+04  0.50400001928E-02 0. -1.
       -1    1    3    3    0  502 -0.24673365478E+03  0.63202354480E+03  0.48337860340E+03  0.83305830038E+03  0.50400001928E-02 0.  1.
</event>
<event>
 5   0  0.1723605E-06  0.2713293E+04  0.7818609E-02  0.8330705E-01
        1   -1    0    0  501    0  0.00000000000E+00  0.00000000000E+00  0.13214291927E+04  0.13214291927E+04  0.50400001928E-02 0.  1.
       -1   -1    0    0    0  501  0.00000000000E+00  0.00000000000E+00 -0.13928021588E+04  0.13928021588E+04  0.50400001928E-02 0. -1.
    10030    2    1    2    0    0  0.00000000000E+00  0.00000000000E+00 -0.71372966081E+02  0.27142313515E+04  0.27132927835E+04 0.  0.
        1    1    3    3  502    0 -0.37354116844E+03 -0.26932527440E+03  0.12408506720E+04  0.13235480718E+04  0.50400001928E-02 0.  1.
       -1    1    3    3    0  502  0.37354116844E+03  0.26932527440E+03 -0.13122236381E+04  0.13906832797E+04  0.50400001928E-02 0. -1.
</event>
<event>
 5   0  0.4401659E-06  0.2699366E+04  0.7818609E-02  0.8335211E-01
       -2   -1    0    0    0  501  0.00000000000E+00  0.00000000000E+00  0.20485791964E+04  0.20485791964E+04  0.25500000920E-02 0.  1.
        2   -1    0    0  501    0  0.00000000000E+00  0.00000000000E+00 -0.88922301133E+03  0.88922301133E+03  0.25500000920E-02 0. -1.
    10030    2    1    2    0    0  0.00000000000E+00  0.00000000000E+00  0.11593561851E+04  0.29378022077E+04  0.26993656751E+04 0.  0.
        5    1    3    3  502    0  0.12326831166E+04  0.48074498972E+03  0.28968698081E+03  0.13544607960E+04  0.46999998093E+01 0. -1.
       -5    1    3    3    0  502 -0.12326831166E+04 -0.48074498972E+03  0.86966920426E+03  0.15833414117E+04  0.46999998093E+01 0.  1.
</event>
<event>
 5   0  0.1771016E-06  0.2711400E+04  0.7818609E-02  0.8331315E-01
       -1   -1    0    0    0  501  0.00000000000E+00  0.00000000000E+00  0.59192382244E+03  0.59192382246E+03  0.50400001928E-02 0.  1.
        1   -1    0    0  501    0  0.00000000000E+00  0.00000000000E+00 -0.31049991967E+04  0.31049991967E+04  0.50400001928E-02 0. -1.
    10030    2    1    2    0    0  0.00000000000E+00  0.00000000000E+00 -0.25130753742E+04  0.36969230191E+04  0.27114003712E+04 0.  0.
        2    1    3    3  502    0 -0.19009665617E+03 -0.12200223981E+04 -0.49331924462E+03  0.13296447901E+04  0.25500000920E-02 0.  1.
       -2    1    3    3    0  502  0.19009665617E+03  0.12200223981E+04 -0.20197561296E+04  0.23672782290E+04  0.25500000920E-02 0. -1.
</event>
<event>
 5   0  0.4487186E-06  0.2696153E+04  0.7818609E-02  0.8336254E-01
        2   -1    0    0  501    0  0.00000000000E+00  0.00000000000E+00  0.18307811107E+04  0.18307811107E+04  0.25500000920E-02 0. -1.
       -2   -1    0    0    0  501  0.00000000000E+00  0.00000000000E+00 -0.99264201677E+03  0.99264201677E+03  0.25500000920E-02 0.  1.
    10030    2    1    2    0    0  0.00000000000E+00  0.00000000000E+00  0.83813909397E+03  0.28234231275E+04  0.26961530031E+04 0.  0.
        3    1    3    3  502    0  0.79296091977E+03 -0.10585568481E+04  0.69210811859E+03  0.14927636380E+04  0.10100000352E+00 0. -1.
       -3    1    3    3    0  502 -0.79296091977E+03  0.10585568481E+04  0.14603097538E+03  0.13306594895E+04  0.10100000352E+00 0.  1.
</event>
<event>
 5   0  0.4448804E-06  0.2695235E+04  0.7818609E-02  0.8336553E-01
       -2   -1    0    0    0  501  0.00000000000E+00  0.00000000000E+00  0.98383390257E+03  0.98383390257E+03  0.25500000920E-02 0.  1.
        2   -1    0    0  501    0  0.00000000000E+00  0.00000000000E+00 -0.18459146401E+04  0.18459146401E+04  0.25500000920E-02 0. -1.
    10030    2    1    2    0    0  0.00000000000E+00  0.00000000000E+00 -0.86208073757E+03  0.28297485427E+04  0.26952353546E+04 0.  0.
        2    1    3    3  502    0  0.46941406259E+03 -0.10603922984E+04  0.28972878338E+03  0.11952924983E+04  0.25500000920E-02 0.  1.
       -2    1    3    3    0  502 -0.46941406259E+03  0.10603922984E+04 -0.11518095209E+04  0.16344560444E+04  0.25500000920E-02 0. -1.
</event>
<event>
 5   0  0.1771016E-06  0.2520907E+04  0.7818609E-02  0.8395575E-01
       -1   -1    0    0    0  501  0.00000000000E+00  0.00000000000E+00  0.12147161228E+04  0.12147161228E+04  0.50400001928E-02 0. -1.
        1   -1    0    0  501    0  0.00000000000E+00  0.00000000000E+00 -0.13079128522E+04  0.13079128522E+04  0.50400001928E-02 0.  1.
    10030    2    1    2    0    0  0.00000000000E+00  0.00000000000E+00 -0.93196729387E+02  0.25226289750E+04  0.25209068438E+04 0.  0.
        2    1    3    3  502    0  0.92376502550E+03  0.58841803195E+01  0.81152251362E+03  0.12296118233E+04  0.25500000920E-02 0. -1.
       -2    1    3    3    0  502 -0.92376502550E+03 -0.58841803195E+01 -0.90471924301E+03  0.12930171517E+04  0.25500000920E-02 0.  1.
</event>
<event>
 5   0  0.1482875E-06  0.2725448E+04  0.7818609E-02  0.8326795E-01
       -4   -1    0    0    0  501  0.00000000000E+00  0.00000000000E+00  0.13190426539E+04  0.13190432652E+04  0.12699999809E+01 0.  1.
        4   -1    0    0  501    0  0.00000000000E+00  0.00000000000E+00 -0.14078508839E+04  0.14078514567E+04  0.12699999809E+01 0. -1.
    10030    2    1    2    0    0  0.00000000000E+00  0.00000000000E+00 -0.88808230003E+02  0.27268947219E+04  0.27254482058E+04 0.  0.
        2    1    3    3  502    0  0.63851841116E+03  0.57718266452E+03 -0.11014549694E+04  0.13978728981E+04  0.25500000920E-02 0. -1.
       -2    1    3    3    0  502 -0.63851841116E+03 -0.57718266452E+03  0.10126467393E+04  0.13290218239E+04  0.25500000920E-02 0.  1.
</event>
<event>
 5   0  0.4401659E-06  0.2691251E+04  0.7818609E-02  0.8337849E-01
       -2   -1    0    0    0  501  0.00000000000E+00  0.00000000000E+00  0.78347728282E+03  0.78347728283E+03  0.25500000920E-02 0. -1.
        2   -1    0    0  501    0  0.00000000000E+00  0.00000000000E+00 -0.23111172987E+04  0.23111172987E+04  0.25500000920E-02 0.  1.
    10030    2    1    2    0    0  0.00000000000E+00  0.00000000000E+00 -0.15276400158E+04  0.30945945815E+04  0.26912509370E+04 0.  0.
        5    1    3    3  502    0 -0.70195564605E+03 -0.10966375429E+04 -0.11543200234E+04  0.17400667907E+04  0.46999998093E+01 0.  1.
       -5    1    3    3    0  502  0.70195564605E+03  0.10966375429E+04 -0.37331999242E+03  0.13545277908E+04  0.46999998093E+01 0. -1.
</event>
<event>
 5   0  0.4487186E-06  0.2708002E+04  0.7818609E-02  0.8332413E-01
        2   -1    0    0  501    0  0.00000000000E+00  0.00000000000E+00  0.17812371980E+04  0.17812371980E+04  0.25500000920E-02 0. -1.
       -2   -1    0    0    0  501  0.00000000000E+00  0.00000000000E+00 -0.10292389488E+04  0.10292389488E+04  0.25500000920E-02 0.  1.
    10030    2    1    2    0    0  0.00000000000E+00  0.00000000000E+00  0.75199824911E+03  0.28104761468E+04  0.27080019950E+04 0.  0.
        3    1    3    3  502    0  0.10984677407E+04 -0.36939657522E+03 -0.35066280755E+03  0.12108053609E+04  0.10100000352E+00 0.  1.
       -3    1    3    3    0  502 -0.10984677407E+04  0.36939657522E+03  0.11026610567E+04  0.15996707859E+04  0.10100000352E+00 0. -1.
</event>
<event>
 5   0  0.4655882E-06  0.2663572E+04  0.7818609E-02  0.8346922E-01
        2   -1    0    0  501    0  0.00000000000E+00  0.00000000000E+00  0.22290955495E+04  0.22290955495E+04  0.25500000920E-02 0. -1.
       -2   -1    0    0    0  501  0.00000000000E+00  0.00000000000E+00 -0.79568344899E+03  0.79568344900E+03  0.25500000920E-02 0.  1.
    10030    2    1    2    0    0  0.00000000000E+00  0.00000000000E+00  0.14334121005E+04  0.30247789985E+04  0.26635723643E+04 0.  0.
        1    1    3    3  502    0  0.13176386949E+04 -0.95882619168E+01  0.49711665993E+03  0.14083283135E+04  0.50400001928E-02 0.  1.
       -1    1    3    3    0  502 -0.13176386949E+04  0.95882619168E+01  0.93629544060E+03  0.16164506850E+04  0.50400001928E-02 0. -1.
</event>
<event>
 5   0  0.1732312E-06  0.2699589E+04  0.7818609E-02  0.8335138E-01
        1   -1    0    0  501    0  0.00000000000E+00  0.00000000000E+00  0.16236431780E+04  0.16236431780E+04  0.50400001928E-02 0.  1.
       -1   -1    0    0    0  501  0.00000000000E+00  0.00000000000E+00 -0.11221339678E+04  0.11221339678E+04  0.50400001928E-02 0. -1.
    10030    2    1    2    0    0  0.00000000000E+00  0.00000000000E+00  0.50150921021E+03  0.27457771458E+04  0.26995889773E+04 0.  0.
        5    1    3    3  502    0  0.51311123168E+03  0.68540119116E+03 -0.81058577356E+03  0.11790374528E+04  0.46999998093E+01 0. -1.
       -5    1    3    3    0  502 -0.51311123168E+03 -0.68540119116E+03  0.13120949838E+04  0.15667396929E+04  0.46999998093E+01 0.  1.
</event>
<event>
 5   0  0.1723605E-06  0.2699579E+04  0.7818609E-02  0.8335142E-01
       -1   -1    0    0    0  501  0.00000000000E+00  0.00000000000E+00  0.84743141340E+03  0.84743141342E+03  0.50400001928E-02 0. -1.
        1   -1    0    0  501    0  0.00000000000E+00  0.00000000000E+00 -0.21499458972E+04  0.21499458972E+04  0.50400001928E-02 0.  1.
    10030    2    1    2    0    0  0.00000000000E+00  0.00000000000E+00 -0.13025144838E+04  0.29973773106E+04  0.26995789971E+04 0.  0.
        1    1    3    3  502    0 -0.72915107278E+02  0.28054260273E+03 -0.21149810321E+04  0.21347518664E+04  0.50400001928E-02 0.  1.
       -1    1    3    3    0  502  0.72915107278E+02 -0.28054260273E+03  0.81246654834E+03  0.86262544421E+03  0.50400001928E-02 0. -1.
</event>
<event>
 5   0  0.4448804E-06  0.2702294E+04  0.7818609E-02  0.8334261E-01
       -2   -1    0    0    0  501  0.00000000000E+00  0.00000000000E+00  0.95369065232E+03  0.95369065232E+03  0.25500000920E-02 0.  1.
        2   -1    0    0  501    0  0.00000000000E+00  0.00000000000E+00 -0.19142459612E+04  0.19142459612E+04  0.25500000920E-02 0. -1.
    10030    2    1    2    0    0  0.00000000000E+00  0.00000000000E+00 -0.96055530886E+03  0.28679366135E+04  0.27022941953E+04 0.  0.
        2    1    3    3  502    0 -0.24451473447E+03 -0.32716229065E+03  0.88660355499E+03  0.97616007065E+03  0.25500000920E-02 0.  1.
       -2    1    3    3    0  502  0.24451473447E+03  0.32716229065E+03 -0.18471588639E+04  0.18917765429E+04  0.25500000920E-02 0. -1.
</event>
<event>
 5   0  0.1771016E-06  0.2704216E+04  0.7818609E-02  0.8333638E-01
       -1   -1    0    0    0  501  0.00000000000E+00  0.00000000000E+00  0.84448266135E+03  0.84448266137E+03  0.50400001928E-02 0. -1.
        1   -1    0    0  501    0  0.00000000000E+00  0.00000000000E+00 -0.21648702615E+04  0.21648702615E+04  0.50400001928E-02 0.  1.
    10030    2    1    2    0    0  0.00000000000E+00  0.00000000000E+00 -0.13203876001E+04  0.30093529229E+04  0.27042155239E+04 0.  0.
        2    1    3    3  502    0 -0.13291876905E+03  0.74498257445E+03 -0.19071327451E+04  0.20517850138E+04  0.25500000920E-02 0.  1.
       -2    1    3    3    0  502  0.13291876905E+03 -0.74498257445E+03  0.58674514494E+03  0.95756790909E+03  0.25500000920E-02 0. -1.
</event>
<event>
 5   0  0.4487186E-06  0.2660442E+04  0.7818609E-02  0.8347955E-01
       -2   -1    0    0    0  501  0.00000000000E+00  0.00000000000E+00  0.10094790316E+04  0.10094790316E+04  0.25500000920E-02 0.  1.
        2   -1    0    0  501    0  0.00000000000E+00  0.00000000000E+00 -0.17528729152E+04  0.17528729152E+04  0.25500000920E-02 0. -1.
    10030    2    1    2    0    0  0.00000000000E+00  0.00000000000E+00 -0.74339388368E+03  0.27623519468E+04  0.26604424090E+04 0.  0.
        3    1    3    3  502    0  0.94818168925E+03  0.28733467063E+03 -0.12933231836E+04  0.16292006004E+04  0.10100000352E+00 0. -1.
       -3    1    3    3    0  502 -0.94818168925E+03 -0.28733467063E+03  0.54992929993E+03  0.11331513464E+04  0.10100000352E+00 0.  1.
</event>
<event>
 5   0  0.4401659E-06  0.2702968E+04  0.7818609E-02  0.8334043E-01
       -2   -1    0    0    0  501  0.00000000000E+00  0.00000000000E+00  0.18300031918E+04  0.18300031918E+04  0.25500000920E-02 0.  1.
        2   -1    0    0  501    0  0.00000000000E+00  0.00000000000E+00 -0.99809078623E+03  0.99809078624E+03  0.25500000920E-02 0. -1.
    10030    2    1    2    0    0  0.00000000000E+00  0.00000000000E+00  0.83191240561E+03  0.28280939781E+04  0.27029682385E+04 0.  0.
        5    1    3    3  502    0  0.85252116101E+03 -0.90924782989E+03 -0.13068833804E+03  0.12532459766E+04  0.46999998093E+01 0. -1.
       -5    1    3    3    0  502 -0.85252116101E+03  0.90924782989E+03  0.96260074365E+03  0.15748480015E+04  0.46999998093E+01 0.  1.
</event>
<event>
 5   0  0.1732312E-06  0.2693534E+04  0.7818609E-02  0.8337106E-01
        1   -1    0    0  501    0  0.00000000000E+00  0.00000000000E+00  0.19660123680E+04  0.19660123680E+04  0.50400001928E-02 0.  1.
       -1   -1    0    0    0  501  0.00000000000E+00  0.00000000000E+00 -0.92256833971E+03  0.92256833972E+03  0.50400001928E-02 0. -1.
    10030    2    1    2    0    0  0.00000000000E+00  0.00000000000E+00  0.10434440283E+04  0.28885807077E+04  0.26935335648E+04 0.  0.
        5    1    3    3  502    0  0.74071830735E+02 -0.46762092196E+02  0.19629452294E+04  0.19649044234E+04  0.46999998093E+01 0.  1.
       -5    1    3    3    0  502 -0.74071830735E+02  0.46762092196E+02 -0.91950120112E+03  0.92367628433E+03  0.46999998093E+01 0. -1.
</event>
<event>
 5   0  0.1732312E-06  0.2682896E+04  0.7818609E-02  0.8340576E-01
        1   -1    0    0  501    0  0.00000000000E+00  0.00000000000E+00  0.13820887786E+04  0.13820887786E+04  0.50400001928E-02 0. -1.
       -1   -1    0    0    0  501  0.00000000000E+00  0.00000000000E+00 -0.13020022838E+04  0.13020022838E+04  0.50400001928E-02 0.  1.
    10030    2    1    2    0    0  0.00000000000E+00  0.00000000000E+00  0.80086494878E+02  0.26840910624E+04  0.26828960071E+04 0.  0.
        5    1    3    3  502    0  0.57839145810E+03  0.14161878271E+02  0.12508399219E+04  0.13781726444E+04  0.46999998093E+01 0. -1.
       -5    1    3    3    0  502 -0.57839145810E+03 -0.14161878271E+02 -0.11707534270E+04  0.13059184180E+04  0.46999998093E+01 0.  1.
</event>
<event>
 5   0  0.4655882E-06  0.2704162E+04  0.7818609E-02  0.8333656E-01
        2   -1    0    0  501    0  0.00000000000E+00  0.00000000000E+00  0.19261422696E+04  0.19261422696E+04  0.25500000920E-02 0.  1.
       -2   -1    0    0    0  501  0.00000000000E+00  0.00000000000E+00 -0.94911102465E+03  0.94911102465E+03  0.25500000920E-02 0. -1.
    10030    2    1    2    0    0  0.00000000000E+00  0.00000000000E+00  0.97703124495E+03  0.28752532943E+04  0.27041618762E+04 0.  0.
        1    1    3    3  502    0 -0.68095068498E+02  0.16128759869E+01  0.19243168553E+04  0.19255219810E+04  0.50400001928E-02 0.  1.
       -1    1    3    3    0  502  0.68095068498E+02 -0.16128759869E+01 -0.94728561036E+03  0.94973131324E+03  0.50400001928E-02 0. -1.
</event>
<event>
 5   0  0.4439357E-06  0.2701934E+04  0.7818609E-02  0.8334378E-01
        2   -1    0    0  501    0  0.00000000000E+00  0.00000000000E+00  0.20633354886E+04  0.20633354886E+04  0.25500000920E-02 0.  1.
       -2   -1    0    0    0  501  0.00000000000E+00  0.00000000000E+00 -0.88454439878E+03  0.88454439878E+03  0.25500000920E-02 0. -1.
    10030    2    1    2    0    0  0.00000000000E+00  0.00000000000E+00  0.11787910899E+04  0.29478798874E+04  0.27019340105E+04 0.  0.
        4    1    3    3  502    0  0.12918113297E+02  0.10455720422E+04 -0.34387646275E+03  0.11007453873E+04  0.12699999809E+01 0. -1.
       -4    1    3    3    0  502 -0.12918113297E+02 -0.10455720422E+04  0.15226675526E+04  0.18471345002E+04  0.12699999809E+01 0.  1.
</event>
<event>
 5   0  0.1771016E-06  0.2702870E+04  0.7818609E-02  0.8334074E-01
       -1   -1    0    0    0  501  0.00000000000E+00  0.00000000000E+00  0.10459505375E+04  0.10459505375E+04  0.50400001928E-02 0. -1.
        1   -1    0    0  501    0  0.00000000000E+00  0.00000000000E+00 -0.17461399512E+04  0.17461399512E+04  0.50400001928E-02 0.  1.
    10030    2    1    2    0    0  0.00000000000E+00  0.00000000000E+00 -0.70018941365E+03  0.27920904887E+04  0.27028696014E+04 0.  0.
        2    1    3    3  502    0 -0.13208078480E+04  0.17316162991E+03 -0.11485479000E+03  0.13370527081E+04  0.25500000920E-02 0.  1.
       -2    1    3    3    0  502  0.13208078480E+04 -0.17316162991E+03 -0.58533462365E+03  0.14550377806E+04  0.25500000920E-02 0. -1.
</event>
<event>
 5   0  0.1828511E-06  0.2704363E+04  0.7818609E-02  0.8333591E-01
       -1   -1    0    0    0  501  0.00000000000E+00  0.00000000000E+00  0.16115049476E+04  0.16115049476E+04  0.50400001928E-02 0. -1.
        1   -1    0    0  501    0  0.00000000000E+00  0.00000000000E+00 -0.11345884279E+04  0.11345884279E+04  0.50400001928E-02 0.  1.
    10030    2    1    2    0    0  0.00000000000E+00  0.00000000000E+00  0.47691651973E+03  0.27460933755E+04  0.27043630415E+04 0.  0.
        4    1    3    3  502    0 -0.58637502670E+03  0.58247395409E+03 -0.84823372523E+03  0.11843199081E+04  0.12699999809E+01 0.  1.
       -4    1    3    3    0  502  0.58637502670E+03 -0.58247395409E+03  0.13251502450E+04  0.15617734675E+04  0.12699999809E+01 0. -1.
</event>
<event>
 5   0  0.4401659E-06  0.2616325E+04  0.7818609E-02  0.8362677E-01
        2   -1    0    0  501    0  0.00000000000E+00  0.00000000000E+00  0.20984815925E+04  0.20984815925E+04  0.25500000920E-02 0. -1.
       -2   -1    0    0    0  501  0.00000000000E+00  0.00000000000E+00 -0.81548931861E+03  0.81548931861E+03  0.25500000920E-02 0.  1.
    10030    2    1    2    0    0  0.00000000000E+00  0.00000000000E+00  0.12829922739E+04  0.29139709111E+04  0.26163251510E+04 0.  0.
        5    1    3    3  502    0  0.86217134717E+03 -0.78071088585E+01 -0.45422818999E+03  0.97454898359E+03  0.46999998093E+01 0.  1.
       -5    1    3    3    0  502 -0.86217134717E+03  0.78071088585E+01  0.17372204639E+04  0.19394219275E+04  0.46999998093E+01 0. -1.
</event>
<event>
 5   0  0.1723605E-06  0.2719300E+04  0.7818609E-02  0.8328770E-01
       -1   -1    0    0    0  501  0.00000000000E+00  0.00000000000E+00  0.24384356407E+04  0.24384356407E+04  0.50400001928E-02 0. -1.
        1   -1    0    0  501    0  0.00000000000E+00  0.00000000000E+00 -0.75812849079E+03  0.75812849080E+03  0.50400001928E-02 0.  1.
    10030    2    1    2    0    0  0.00000000000E+00  0.00000000000E+00  0.16803071499E+04  0.31965641315E+04  0.27192995659E+04 0.  0.
        1    1    3    3  502    0  0.82913467630E+03  0.97712876247E+03  0.13742060755E+04  0.18790123118E+04  0.50400001928E-02 0. -1.
       -1    1    3    3    0  502 -0.82913467630E+03 -0.97712876247E+03  0.30610107442E+03  0.13175518197E+04  0.50400001928E-02 0.  1.
</event>
<event>
 5   0  0.4401659E-06  0.2701285E+04  0.7818609E-02  0.8334588E-01
       -2   -1    0    0    0  501  0.00000000000E+00  0.00000000000E+00  0.18962299858E+04  0.18962299858E+04  0.25500000920E-02 0.  1.
        2   -1    0    0  501    0  0.00000000000E+00  0.00000000000E+00 -0.96203283170E+03  0.96203283171E+03  0.25500000920E-02 0. -1.
    10030    2    1    2    0    0  0.00000000000E+00  0.00000000000E+00  0.93419715411E+03  0.28582628175E+04  0.27012852517E+04 0.  0.
        5    1    3    3  502    0 -0.43335249847E+03 -0.84579897730E+03  0.14825793208E+04  0.17610320356E+04  0.46999998093E+01 0.  1.
       -5    1    3    3    0  502  0.43335249847E+03  0.84579897730E+03 -0.54838216674E+03  0.10972307819E+04  0.46999998093E+01 0. -1.
</event>
<event>
 5   0  0.1771016E-06  0.2705965E+04  0.7818609E-02  0.8333072E-01
       -1   -1    0    0    0  501  0.00000000000E+00  0.00000000000E+00  0.11383168034E+04  0.11383168035E+04  0.50400001928E-02 0. -1.
        1   -1    0    0  501    0  0.00000000000E+00  0.00000000000E+00 -0.16081298083E+04  0.16081298083E+04  0.50400001928E-02 0.  1.
    10030    2    1    2    0    0  0.00000000000E+00  0.00000000000E+00 -0.46981300484E+03  0.27464466117E+04  0.27059646582E+04 0.  0.
        2    1    3    3  502    0 -0.58817688712E+03 -0.91766678952E+03 -0.10484570170E+04  0.15123909890E+04  0.25500000920E-02 0.  1.
       -2    1    3    3    0  502  0.58817688712E+03  0.91766678952E+03  0.57864401218E+03  0.12340556227E+04  0.25500000920E-02 0. -1.
</event>
<event>
 5   0  0.4655882E-06  0.2772293E+04  0.7818609E-02  0.8311922E-01
       -2   -1    0    0    0  501  0.00000000000E+00  0.00000000000E+00  0.11950559823E+04  0.11950559823E+04  0.25500000920E-02 0.  1.
        2   -1    0    0  501    0  0.00000000000E+00  0.00000000000E+00 -0.16077931328E+04  0.16077931328E+04  0.25500000920E-02 0. -1.
    10030    2    1    2    0    0  0.00000000000E+00  0.00000000000E+00 -0.41273715048E+03  0.28028491150E+04  0.27722934921E+04 0.  0.
        1    1    3    3  502    0 -0.71740307367E+03 -0.97755646941E+03  0.47268816408E+03  0.13014291842E+04  0.50400001928E-02 0.  1.
       -1    1    3    3    0  502  0.71740307367E+03  0.97755646941E+03 -0.88542531456E+03  0.15014199308E+04  0.50400001928E-02 0. -1.
</event>
<event>
 5   0  0.4448804E-06  0.2689606E+04  0.7818609E-02  0.8338385E-01
       -2   -1    0    0    0  501  0.00000000000E+00  0.00000000000E+00  0.99688981609E+03  0.99688981609E+03  0.25500000920E-02 0.  1.
        2   -1    0    0  501    0  0.00000000000E+00  0.00000000000E+00 -0.18141371119E+04  0.18141371119E+04  0.25500000920E-02 0. -1.
    10030    2    1    2    0    0  0.00000000000E+00  0.00000000000E+00 -0.81724729585E+03  0.28110269280E+04  0.26896057792E+04 0.  0.
        2    1    3    3  502    0 -0.77629200791E+03  0.67831106035E+03  0.49393579302E+03  0.11431131807E+04  0.25500000920E-02 0.  1.
       -2    1    3    3    0  502  0.77629200791E+03 -0.67831106035E+03 -0.13111830889E+04  0.16679137474E+04  0.25500000920E-02 0. -1.
</event>
<event>
 5   0  0.1828511E-06  0.2696921E+04  0.7818609E-02  0.8336005E-01
       -1   -1    0    0    0  501  0.00000000000E+00  0.00000000000E+00  0.11050121783E+04  0.11050121784E+04  0.50400001928E-02 0.  1.
        1   -1    0    0  501    0  0.00000000000E+00  0.00000000000E+00 -0.16455430320E+04  0.16455430320E+04  0.50400001928E-02 0. -1.
    10030    2    1    2    0    0  0.00000000000E+00  0.00000000000E+00 -0.54053085368E+03  0.27505552104E+04  0.26969205331E+04 0.  0.
        4    1    3    3  502    0  0.92588170233E+03  0.81696185511E+03 -0.82294641320E+03  0.14838888137E+04  0.12699999809E+01 0. -1.
       -4    1    3    3    0  502 -0.92588170233E+03 -0.81696185511E+03  0.28241555952E+03  0.12666663967E+04  0.12699999809E+01 0.  1.
</event>
<event>
 5   0  0.4439357E-06  0.2755129E+04  0.7818609E-02  0.8317336E-01
        2   -1    0    0  501    0  0.00000000000E+00  0.00000000000E+00  0.25516973114E+04  0.25516973114E+04  0.25500000920E-02 0.  1.
       -2   -1    0    0    0  501  0.00000000000E+00  0.00000000000E+00 -0.74369473543E+03  0.74369473544E+03  0.25500000920E-02 0. -1.
    10030    2    1    2    0    0  0.00000000000E+00  0.00000000000E+00  0.18080025759E+04  0.32953920468E+04  0.27551289312E+04 0.  0.
        4    1    3    3  502    0 -0.24645590476E+03  0.49914912071E+03  0.24111702822E+04  0.24745977654E+04  0.12699999809E+01 0.  1.
       -4    1    3    3    0  502  0.24645590476E+03 -0.49914912071E+03 -0.60316770625E+03  0.82079428145E+03  0.12699999809E+01 0. -1.
</event>
<event>
 5   0  0.4401659E-06  0.2700764E+04  0.7818609E-02  0.8334757E-01
        2   -1    0    0  501    0  0.00000000000E+00  0.00000000000E+00  0.14431307356E+04  0.14431307357E+04  0.25500000920E-02 0. -1.
       -2   -1    0    0    0  501  0.00000000000E+00  0.00000000000E+00 -0.12635940919E+04  0.12635940919E+04  0.25500000920E-02 0.  1.
    10030    2    1    2    0    0  0.00000000000E+00  0.00000000000E+00  0.17953664374E+03  0.27067248276E+04  0.27007639448E+04 0.  0.
        5    1    3    3  502    0 -0.33010668235E+03  0.35310574445E+03  0.13534458948E+04  0.14371819539E+04  0.46999998093E+01 0. -1.
       -5    1    3    3    0  502  0.33010668235E+03 -0.35310574445E+03 -0.11739092510E+04  0.12695428737E+04  0.46999998093E+01 0.  1.
</event>
<event>
 5   0  0.1723605E-06  0.2719673E+04  0.7818609E-02  0.8328650E-01
       -1   -1    0    0    0  501  0.00000000000E+00  0.00000000000E+00  0.82401548117E+03  0.82401548119E+03  0.50400001928E-02 0. -1.
        1   -1    0    0  501    0  0.00000000000E+00  0.00000000000E+00 -0.22440776715E+04  0.22440776715E+04  0.50400001928E-02 0.  1.
    10030    2    1    2    0    0  0.00000000000E+00  0.00000000000E+00 -0.14200621903E+04  0.30680931527E+04  0.27196725849E+04 0.  0.
        1    1    3    3  502    0  0.10871215133E+04  0.15540999815E+03  0.19468968962E+03  0.11152979545E+04  0.50400001928E-02 0. -1.
       -1    1    3    3    0  502 -0.10871215133E+04 -0.15540999815E+03 -0.16147518800E+04  0.19527951982E+04  0.50400001928E-02 0.  1.
</event>
<event>
 5   0  0.4439357E-06  0.2690470E+04  0.7818609E-02  0.8338104E-01
        2   -1    0    0  501    0  0.00000000000E+00  0.00000000000E+00  0.19236558429E+04  0.19236558429E+04  0.25500000920E-02 0.  1.
       -2   -1    0    0    0  501  0.00000000000E+00  0.00000000000E+00 -0.94073874552E+03  0.94073874553E+03  0.25500000920E-02 0. -1.
    10030    2    1    2    0    0  0.00000000000E+00  0.00000000000E+00  0.98291709736E+03  0.28643945884E+04  0.26904702819E+04 0.  0.
        4    1    3    3  502    0 -0.12115001043E+04  0.32822306503E+03 -0.23760228059E+02  0.12553999540E+04  0.12699999809E+01 0. -1.
       -4    1    3    3    0  502  0.12115001043E+04 -0.32822306503E+03  0.10066773254E+04  0.16089946344E+04  0.12699999809E+01 0.  1.
</event>
<event>
 5   0  0.1753474E-06  0.2706140E+04  0.7818609E-02  0.8333015E-01
       -1   -1    0    0    0  501  0.00000000000E+00  0.00000000000E+00  0.15522519399E+04  0.15522519399E+04  0.50400001928E-02 0. -1.
        1   -1    0    0  501    0  0.00000000000E+00  0.00000000000E+00 -0.11794468496E+04  0.11794468496E+04  0.50400001928E-02 0.  1.
    10030    2    1    2    0    0  0.00000000000E+00  0.00000000000E+00  0.37280509038E+03  0.27316987895E+04  0.27061401740E+04 0.  0.
        3    1    3    3  502    0  0.65567826627E+03  0.75665320242E+03 -0.73233663306E+03  0.12404656432E+04  0.10100000352E+00 0.  1.
       -3    1    3    3    0  502 -0.65567826627E+03 -0.75665320242E+03  0.11051417234E+04  0.14912331463E+04  0.10100000352E+00 0. -1.
</event>
<event>
 5   0  0.1771016E-06  0.2690960E+04  0.7818609E-02  0.8337944E-01
        1   -1    0    0  501    0  0.00000000000E+00  0.00000000000E+00  0.62052019801E+03  0.62052019803E+03  0.50400001928E-02 0.  1.
       -1   -1    0    0    0  501  0.00000000000E+00  0.00000000000E+00 -0.29174164156E+04  0.29174164156E+04  0.50400001928E-02 0. -1.
    10030    2    1    2    0    0  0.00000000000E+00  0.00000000000E+00 -0.22968962176E+04  0.35379366136E+04  0.26909595403E+04 0.  0.
        2    1    3    3  502    0 -0.53195468400E+03  0.63292106505E+03  0.24713866999E+03  0.86292663803E+03  0.25500000920E-02 0.  1.
       -2    1    3    3    0  502  0.53195468400E+03 -0.63292106505E+03 -0.25440348875E+04  0.26750099756E+04  0.25500000920E-02 0. -1.
</event>
<event>
 5   0  0.1771016E-06  0.2695094E+04  0.7818609E-02  0.8336599E-01
        1   -1    0    0  501    0  0.00000000000E+00  0.00000000000E+00  0.15579280925E+04  0.15579280925E+04  0.50400001928E-02 0. -1.
       -1   -1    0    0    0  501  0.00000000000E+00  0.00000000000E+00 -0.11655752417E+04  0.11655752417E+04  0.50400001928E-02 0.  1.
    10030    2    1    2    0    0  0.00000000000E+00  0.00000000000E+00  0.39235285073E+03  0.27235033342E+04  0.26950936258E+04 0.  0.
        2    1    3    3  502    0  0.47751099658E+03  0.12428525242E+04 -0.13819944682E+02  0.13314992076E+04  0.25500000920E-02 0. -1.
       -2    1    3    3    0  502 -0.47751099658E+03 -0.12428525242E+04  0.40617279541E+03  0.13920041267E+04  0.25500000920E-02 0.  1.
</event>
<event>
 5   0  0.1753474E-06  0.2699297E+04  0.7818609E-02  0.8335233E-01
       -1   -1    0    0    0  501  0.00000000000E+00  0.00000000000E+00  0.77935269665E+03  0.77935269666E+03  0.50400001928E-02 0.  1.
        1   -1    0    0  501    0  0.00000000000E+00  0.00000000000E+00 -0.23372613615E+04  0.23372613615E+04  0.50400001928E-02 0. -1.
    10030    2    1    2    0    0  0.00000000000E+00  0.00000000000E+00 -0.15579086649E+04  0.31166140582E+04  0.26992969047E+04 0.  0.
        3    1    3    3  502    0 -0.76282959257E+03  0.10110284428E+04 -0.24052899277E+03  0.12891631805E+04  0.10100000352E+00 0. -1.
       -3    1    3    3    0  502  0.76282959257E+03 -0.10110284428E+04 -0.13173796721E+04  0.18274508776E+04  0.10100000352E+00 0.  1.
</event>
<event>
 5   0  0.1732312E-06  0.2695587E+04  0.7818609E-02  0.8336438E-01
       -1   -1    0    0    0  501  0.00000000000E+00  0.00000000000E+00  0.12615490551E+04  0.12615490551E+04  0.50400001928E-02 0.  1.
        1   -1    0    0  501    0  0.00000000000E+00  0.00000000000E+00 -0.14399337841E+04  0.14399337841E+04  0.50400001928E-02 0. -1.
    10030    2    1    2    0    0  0.00000000000E+00  0.00000000000E+00 -0.17838472900E+03  0.27014828391E+04  0.26955868412E+04 0.  0.
        5    1    3    3  502    0  0.78040630739E+03  0.11622207798E+02 -0.11903932348E+04  0.14234560843E+04  0.46999998093E+01 0. -1.
       -5    1    3    3    0  502 -0.78040630739E+03 -0.11622207798E+02  0.10120085058E+04  0.12780267549E+04  0.46999998093E+01 0.  1.
</event>
<event>
 5   0  0.1771016E-06  0.2692697E+04  0.7818609E-02  0.8337379E-01
       -1   -1    0    0    0  501  0.00000000000E+00  0.00000000000E+00  0.11906742184E+04  0.11906742185E+04  0.50400001928E-02 0. -1.
        1   -1    0    0  501    0  0.00000000000E+00  0.00000000000E+00 -0.15223758159E+04  0.15223758159E+04  0.50400001928E-02 0.  1.
    10030    2    1    2    0    0  0.00000000000E+00  0.00000000000E+00 -0.33170159741E+03  0.27130500343E+04  0.26926965182E+04 0.  0.
        2    1    3    3  502    0 -0.58659846169E+03 -0.11808697065E+04  0.10842479500E+03  0.13229916686E+04  0.25500000920E-02 0. -1.
       -2    1    3    3    0  502  0.58659846169E+03  0.11808697065E+04 -0.44012639241E+03  0.13900583658E+04  0.25500000920E-02 0.  1.
</event>
<event>
 5   0  0.4439357E-06  0.2688886E+04  0.7818609E-02  0.8338620E-01
        2   -1    0    0  501    0  0.00000000000E+00  0.00000000000E+00  0.20849409993E+04  0.20849409993E+04  0.25500000920E-02 0.  1.
       -2   -1    0    0    0  501  0.00000000000E+00  0.00000000000E+00 -0.86694364531E+03  0.86694364531E+03  0.25500000920E-02 0. -1.
    10030    2    1    2    0    0  0.00000000000E+00  0.00000000000E+00  0.12179973540E+04  0.29518846446E+04  0.26888855314E+04 0.  0.
        4    1    3    3  502    0  0.38405101244E+02 -0.82463439676E+03  0.17739335404E+04  0.19566140802E+04  0.12699999809E+01 0.  1.
       -4    1    3    3    0  502 -0.38405101244E+02  0.82463439676E+03 -0.55593618642E+03  0.99527056442E+03  0.12699999809E+01 0. -1.
</event>
<event>
 5   0  0.4439357E-06  0.2701998E+04  0.7818609E-02  0.8334357E-01
        2   -1    0    0  501    0  0.00000000000E+00  0.00000000000E+00  0.20087949032E+04  0.20087949032E+04  0.25500000920E-02 0.  1.
       -2   -1    0    0    0  501  0.00000000000E+00  0.00000000000E+00 -0.90860372634E+03  0.90860372634E+03  0.25500000920E-02 0. -1.
    10030    2    1    2    0    0  0.00000000000E+00  0.00000000000E+00  0.11001911768E+04  0.29173986295E+04  0.27019981750E+04 0.  0.
        4    1    3    3  502    0 -0.89451387944E+03 -0.75183554810E+03  0.12822255720E+04  0.17347956083E+04  0.12699999809E+01 0.  1.
       -4    1    3    3    0  502  0.89451387944E+03  0.75183554810E+03 -0.18203439523E+03  0.11826030212E+04  0.12699999809E+01 0. -1.
</event>
<event>
 5   0  0.4655882E-06  0.2699705E+04  0.7818609E-02  0.8335101E-01
       -2   -1    0    0    0  501  0.00000000000E+00  0.00000000000E+00  0.84724530802E+03  0.84724530803E+03  0.25500000920E-02 0.  1.
        2   -1    0    0  501    0  0.00000000000E+00  0.00000000000E+00 -0.21506185231E+04  0.21506185231E+04  0.25500000920E-02 0. -1.
    10030    2    1    2    0    0  0.00000000000E+00  0.00000000000E+00 -0.13033732150E+04  0.29978638311E+04  0.26997047639E+04 0.  0.
        1    1    3    3  502    0 -0.29255996432E+03 -0.13040236109E+04 -0.86247324867E+03  0.15905750580E+04  0.50400001928E-02 0. -1.
       -1    1    3    3    0  502  0.29255996432E+03  0.13040236109E+04 -0.44089996637E+03  0.14072887731E+04  0.50400001928E-02 0.  1.
</event>
<event>
 5   0  0.1828511E-06  0.2694667E+04  0.7818609E-02  0.8336737E-01
       -1   -1    0    0    0  501  0.00000000000E+00  0.00000000000E+00  0.13069683287E+04  0.13069683287E+04  0.50400001928E-02 0. -1.
        1   -1    0    0  501    0  0.00000000000E+00  0.00000000000E+00 -0.13889454365E+04  0.13889454365E+04  0.50400001928E-02 0.  1.
    10030    2    1    2    0    0  0.00000000000E+00  0.00000000000E+00 -0.81977107846E+02  0.26959137652E+04  0.26946671006E+04 0.  0.
        4    1    3    3  502    0  0.54739736987E+03  0.75445428125E+03 -0.10143008812E+04  0.13775532779E+04  0.12699999809E+01 0.  1.
       -4    1    3    3    0  502 -0.54739736987E+03 -0.75445428125E+03  0.93232377338E+03  0.13183604872E+04  0.12699999809E+01 0. -1.
</event>
<event>
 5   0  0.1828511E-06  0.2698412E+04  0.7818609E-02  0.8335521E-01
       -1   -1    0    0    0  501  0.00000000000E+00  0.00000000000E+00  0.95828622933E+03  0.95828622935E+03  0.50400001928E-02 0. -1.
        1   -1    0    0  501    0  0.00000000000E+00  0.00000000000E+00 -0.18995956552E+04  0.18995956552E+04  0.50400001928E-02 0.  1.
    10030    2    1    2    0    0  0.00000000000E+00  0.00000000000E+00 -0.94130942583E+03  0.28578818845E+04  0.26984116496E+04 0.  0.
        4    1    3    3  502    0  0.48274697720E+03 -0.13469906123E+03  0.85603864132E+03  0.99196383474E+03  0.12699999809E+01 0. -1.
       -4    1    3    3    0  502 -0.48274697720E+03  0.13469906123E+03 -0.17973480672E+04  0.18659180498E+04  0.12699999809E+01 0.  1.
</event>
<event>
 5   0  0.4401659E-06  0.2702632E+04  0.7818609E-02  0.8334152E-01
        2   -1    0    0  501    0  0.00000000000E+00  0.00000000000E+00  0.19842305922E+04  0.19842305922E+04  0.25500000920E-02 0.  1.
       -2   -1    0    0    0  501  0.00000000000E+00  0.00000000000E+00 -0.92028336690E+03  0.92028336691E+03  0.25500000920E-02 0. -1.
    10030    2    1    2    0    0  0.00000000000E+00  0.00000000000E+00  0.10639472253E+04  0.29045139591E+04  0.27026316139E+04 0.  0.
        5    1    3    3  502    0  0.73092089659E+03  0.87180868257E+03 -0.25169939071E+03  0.11651911471E+04  0.46999998093E+01 0. -1.
       -5    1    3    3    0  502 -0.73092089659E+03 -0.87180868257E+03  0.13156466160E+04  0.17393228120E+04  0.46999998093E+01 0.  1.
</event>
<event>
 5   0  0.1732312E-06  0.2700543E+04  0.7818609E-02  0.8334829E-01
       -1   -1    0    0    0  501  0.00000000000E+00  0.00000000000E+00  0.10511236224E+04  0.10511236224E+04  0.50400001928E-02 0.  1.
        1   -1    0    0  501    0  0.00000000000E+00  0.00000000000E+00 -0.17345567759E+04  0.17345567759E+04  0.50400001928E-02 0. -1.
    10030    2    1    2    0    0  0.00000000000E+00  0.00000000000E+00 -0.68343315352E+03  0.27856803984E+04  0.27005433539E+04 0.  0.
        5    1    3    3  502    0  0.11536657819E+04  0.48412608774E+03  0.18212057516E+03  0.12643230596E+04  0.46999998093E+01 0. -1.
       -5    1    3    3    0  502 -0.11536657819E+04 -0.48412608774E+03 -0.86555372868E+03  0.15213573388E+04  0.46999998093E+01 0.  1.
</event>
<event>
 5   0  0.1482875E-06  0.2723055E+04  0.7818609E-02  0.8327563E-01
        3   -1    0    0  501    0  0.00000000000E+00  0.00000000000E+00  0.11209944492E+04  0.11209944538E+04  0.10100000352E+00 0.  1.
       -3   -1    0    0    0  501  0.00000000000E+00  0.00000000000E+00 -0.16536714591E+04  0.16536714622E+04  0.10100000352E+00 0. -1.
    10030    2    1    2    0    0  0.00000000000E+00  0.00000000000E+00 -0.53267700994E+03  0.27746659160E+04  0.27230545621E+04 0.  0.
        3    1    3    3  502    0 -0.11856889496E+04  0.66916299099E+03 -0.27746019781E+03  0.13894680871E+04  0.10100000352E+00 0. -1.
       -3    1    3    3    0  502  0.11856889496E+04 -0.66916299099E+03 -0.25521681213E+03  0.13851978288E+04  0.10100000352E+00 0.  1.
</event>
<event>
 5   0  0.4448804E-06  0.2711191E+04  0.7818609E-02  0.8331383E-01
       -2   -1    0    0    0  501  0.00000000000E+00  0.00000000000E+00  0.10366071279E+04  0.10366071279E+04  0.25500000920E-02 0. -1.
        2   -1    0    0  501    0  0.00000000000E+00  0.00000000000E+00 -0.17727437537E+04  0.17727437537E+04  0.25500000920E-02 0.  1.
    10030    2    1    2    0    0  0.00000000000E+00  0.00000000000E+00 -0.73613662586E+03  0.28093508816E+04  0.27111907428E+04 0.  0.
        2    1    3    3  502    0  0.60777350802E+02  0.73837092792E+03  0.80826611234E+03  0.10964395204E+04  0.25500000920E-02 0. -1.
       -2    1    3    3    0  502 -0.60777350802E+02 -0.73837092792E+03 -0.15444027382E+04  0.17129113612E+04  0.25500000920E-02 0.  1.
</event>
<event>
 5   0  0.1753474E-06  0.2718976E+04  0.7818609E-02  0.8328874E-01
       -1   -1    0    0    0  501  0.00000000000E+00  0.00000000000E+00  0.11612635065E+04  0.11612635066E+04  0.50400001928E-02 0. -1.
        1   -1    0    0  501    0  0.00000000000E+00  0.00000000000E+00 -0.15915488624E+04  0.15915488624E+04  0.50400001928E-02 0.  1.
    10030    2    1    2    0    0  0.00000000000E+00  0.00000000000E+00 -0.43028535589E+03  0.27528123690E+04  0.27189759932E+04 0.  0.
        3    1    3    3  502    0  0.16690827466E+03  0.12225128870E+04 -0.79304497893E+03  0.14667366771E+04  0.10100000352E+00 0. -1.
       -3    1    3    3    0  502 -0.16690827466E+03 -0.12225128870E+04  0.36275962304E+03  0.12860756919E+04  0.10100000352E+00 0.  1.
</event>
<event>
 5   0  0.4487186E-06  0.2688790E+04  0.7818609E-02  0.8338652E-01
        2   -1    0    0  501    0  0.00000000000E+00  0.00000000000E+00  0.12282211643E+04  0.12282211643E+04  0.25500000920E-02 0.  1.
       -2   -1    0    0    0  501  0.00000000000E+00  0.00000000000E+00 -0.14715569600E+04  0.14715569600E+04  0.25500000920E-02 0. -1.
    10030    2    1    2    0    0  0.00000000000E+00  0.00000000000E+00 -0.24333579567E+03  0.26997781244E+04  0.26887896183E+04 0.  0.
        3    1    3    3  502    0  0.22837508826E+03  0.50143969127E+03 -0.13529749202E+04  0.14608689502E+04  0.10100000352E+00 0. -1.
       -3    1    3    3    0  502 -0.22837508826E+03 -0.50143969127E+03  0.11096391245E+04  0.12389091741E+04  0.10100000352E+00 0.  1.
</event>
<event>
 5   0  0.4439357E-06  0.2698359E+04  0.7818609E-02  0.8335538E-01
       -2   -1    0    0    0  501  0.00000000000E+00  0.00000000000E+00  0.10186385214E+04  0.10186385214E+04  0.25500000920E-02 0. -1.
        2   -1    0    0  501    0  0.00000000000E+00  0.00000000000E+00 -0.17869785931E+04  0.17869785931E+04  0.25500000920E-02 0.  1.
    10030    2    1    2    0    0  0.00000000000E+00  0.00000000000E+00 -0.76834007167E+03  0.28056171144E+04  0.26983589322E+04 0.  0.
        4    1    3    3  502    0  0.51924298987E+03  0.99409707078E+03  0.39560136840E+03  0.11892620923E+04  0.12699999809E+01 0. -1.
       -4    1    3    3    0  502 -0.51924298987E+03 -0.99409707078E+03 -0.11639414401E+04  0.16163550221E+04  0.12699999809E+01 0.  1.
</event>
<event>
 5   0  0.4439357E-06  0.2704600E+04  0.7818609E-02  0.8333514E-01
       -2   -1    0    0    0  501  0.00000000000E+00  0.00000000000E+00  0.83631799751E+03  0.83631799752E+03  0.25500000920E-02 0.  1.
        2   -1    0    0  501    0  0.00000000000E+00  0.00000000000E+00 -0.21866272877E+04  0.21866272877E+04  0.25500000920E-02 0. -1.
    10030    2    1    2    0    0  0.00000000000E+00  0.00000000000E+00 -0.13503092901E+04  0.30229452852E+04  0.27046003435E+04 0.  0.
        4    1    3    3  502    0  0.95751165923E+03 -0.62188375408E+03  0.13481228028E+03  0.11496712334E+04  0.12699999809E+01 0.  1.
       -4    1    3    3    0  502 -0.95751165923E+03  0.62188375408E+03 -0.14851215704E+04  0.18732740518E+04  0.12699999809E+01 0. -1.
</event>
<event>
 5   0  0.1828511E-06  0.2698326E+04  0.7818609E-02  0.8335548E-01
       -1   -1    0    0    0  501  0.00000000000E+00  0.00000000000E+00  0.14970204392E+04  0.14970204392E+04  0.50400001928E-02 0.  1.
        1   -1    0    0  501    0  0.00000000000E+00  0.00000000000E+00 -0.12159091573E+04  0.12159091573E+04  0.50400001928E-02 0. -1.
    10030    2    1    2    0    0  0.00000000000E+00  0.00000000000E+00  0.28111128186E+03  0.27129295965E+04  0.26983260446E+04 0.  0.
        4    1    3    3  502    0  0.41722349869E+03 -0.11364845317E+03 -0.11443467671E+04  0.12233243867E+04  0.12699999809E+01 0. -1.
       -4    1    3    3    0  502 -0.41722349869E+03  0.11364845317E+03  0.14254580490E+04  0.14896052098E+04  0.12699999809E+01 0.  1.
</event>
<event>
 5   0  0.4655882E-06  0.2696506E+04  0.7818609E-02  0.8336139E-01
       -2   -1    0    0    0  501  0.00000000000E+00  0.00000000000E+00  0.86287980558E+03  0.86287980559E+03  0.25500000920E-02 0. -1.
        2   -1    0    0  501    0  0.00000000000E+00  0.00000000000E+00 -0.21066507835E+04  0.21066507835E+04  0.25500000920E-02 0.  1.
    10030    2    1    2    0    0  0.00000000000E+00  0.00000000000E+00 -0.12437709779E+04  0.29695305891E+04  0.26965061977E+04 0.  0.
        1    1    3    3  502    0  0.43491964861E+03  0.12568722006E+04 -0.86541788815E+03  0.15867674532E+04  0.50400001928E-02 0. -1.
       -1    1    3    3    0  502 -0.43491964861E+03 -0.12568722006E+04 -0.37835308977E+03  0.13827631359E+04  0.50400001928E-02 0.  1.
</event>
<event>
 5   0  0.1723605E-06  0.2704516E+04  0.7818609E-02  0.8333541E-01
        1   -1    0    0  501    0  0.00000000000E+00  0.00000000000E+00  0.25401376261E+04  0.25401376261E+04  0.50400001928E-02 0. -1.
       -1   -1    0    0    0  501  0.00000000000E+00  0.00000000000E+00 -0.71988289264E+03  0.71988289266E+03  0.50400001928E-02 0.  1.
    10030    2    1    2    0    0  0.00000000000E+00  0.00000000000E+00  0.18202547334E+04  0.32600205187E+04  0.27045159434E+04 0.  0.
        1    1    3    3  502    0  0.91140607317E+02 -0.11396450029E+04  0.39645505899E+02  0.11439707641E+04  0.50400001928E-02 0.  1.
       -1    1    3    3    0  502 -0.91140607317E+02  0.11396450029E+04  0.17806092275E+04  0.21160497546E+04  0.50400001928E-02 0. -1.
</event>
<event>
 5   0  0.1482875E-06  0.2696512E+04  0.7818609E-02  0.8336138E-01
       -3   -1    0    0    0  501  0.00000000000E+00  0.00000000000E+00  0.64936006526E+03  0.64936007311E+03  0.10100000352E+00 0. -1.
        3   -1    0    0  501    0  0.00000000000E+00  0.00000000000E+00 -0.27993618735E+04  0.27993618753E+04  0.10100000352E+00 0.  1.
    10030    2    1    2    0    0  0.00000000000E+00  0.00000000000E+00 -0.21500018082E+04  0.34487219484E+04  0.26965116915E+04 0.  0.
        2    1    3    3  502    0  0.10513372600E+04 -0.34315081777E+03 -0.20613173483E+04  0.23392502492E+04  0.25500000920E-02 0.  1.
       -2    1    3    3    0  502 -0.10513372600E+04  0.34315081777E+03 -0.88684459932E+02  0.11094716992E+04  0.25500000920E-02 0. -1.
</event>
<event>
 5   0  0.4655882E-06  0.2696711E+04  0.7818609E-02  0.8336073E-01
       -2   -1    0    0    0  501  0.00000000000E+00  0.00000000000E+00  0.69571788906E+03  0.69571788906E+03  0.25500000920E-02 0.  1.
        2   -1    0    0  501    0  0.00000000000E+00  0.00000000000E+00 -0.26132174744E+04  0.26132174744E+04  0.25500000920E-02 0. -1.
    10030    2    1    2    0    0  0.00000000000E+00  0.00000000000E+00 -0.19174995854E+04  0.33089353635E+04  0.26967106964E+04 0.  0.
        1    1    3    3  502    0 -0.97044011468E+03  0.84388566440E+03 -0.46159187246E+03  0.13663689427E+04  0.50400001928E-02 0.  1.
       -1    1    3    3    0  502  0.97044011468E+03 -0.84388566440E+03 -0.14559077129E+04  0.19425664208E+04  0.50400001928E-02 0. -1.
</event>
<event>
 5   0  0.1732312E-06  0.2701370E+04  0.7818609E-02  0.8334561E-01
       -1   -1    0    0    0  501  0.00000000000E+00  0.00000000000E+00  0.13532778775E+04  0.13532778775E+04  0.50400001928E-02 0.  1.
        1   -1    0    0  501    0  0.00000000000E+00  0.00000000000E+00 -0.13480973225E+04  0.13480973226E+04  0.50400001928E-02 0. -1.
    10030    2    1    2    0    0  0.00000000000E+00  0.00000000000E+00  0.51805549774E+01  0.27013752001E+04  0.27013702326E+04 0.  0.
        5    1    3    3  502    0 -0.22867335310E+03 -0.64471151919E+03 -0.11620507558E+04  0.13484541129E+04  0.46999998093E+01 0. -1.
       -5    1    3    3    0  502  0.22867335310E+03  0.64471151919E+03  0.11672313108E+04  0.13529210872E+04  0.46999998093E+01 0.  1.
</event>
<event>
 5   0  0.1732312E-06  0.2710763E+04  0.7818609E-02  0.8331521E-01
       -1   -1    0    0    0  501  0.00000000000E+00  0.00000000000E+00  0.81490543857E+03  0.81490543859E+03  0.50400001928E-02 0.  1.
        1   -1    0    0  501    0  0.00000000000E+00  0.00000000000E+00 -0.22543216259E+04  0.22543216260E+04  0.50400001928E-02 0. -1.
    10030    2    1    2    0    0  0.00000000000E+00  0.00000000000E+00 -0.14394161874E+04  0.30692270645E+04  0.27107629578E+04 0.  0.
        5    1    3    3  502    0 -0.38893489933E+03 -0.80170376787E+03 -0.18760531658E+04  0.20769200414E+04  0.46999998093E+01 0. -1.
       -5    1    3    3    0  502  0.38893489933E+03  0.80170376787E+03  0.43663697841E+03  0.99230702318E+03  0.46999998093E+01 0.  1.
</event>
<event>
 5   0  0.1723605E-06  0.2536186E+04  0.7818609E-02  0.8390206E-01
       -1   -1    0    0    0  501  0.00000000000E+00  0.00000000000E+00  0.14988297957E+04  0.14988297958E+04  0.50400001928E-02 0. -1.
        1   -1    0    0  501    0  0.00000000000E+00  0.00000000000E+00 -0.10728766515E+04  0.10728766515E+04  0.50400001928E-02 0.  1.
    10030    2    1    2    0    0  0.00000000000E+00  0.00000000000E+00  0.42595314427E+03  0.25717064472E+04  0.25361857128E+04 0.  0.
        1    1    3    3  502    0  0.83601344147E+03  0.80273524680E+03 -0.30877550152E+03  0.11994351425E+04  0.50400001928E-02 0.  1.
       -1    1    3    3    0  502 -0.83601344147E+03 -0.80273524680E+03  0.73472864579E+03  0.13722713047E+04  0.50400001928E-02 0. -1.
</event>
<event>
 5   0  0.4401659E-06  0.2703093E+04  0.7818609E-02  0.8334002E-01
       -2   -1    0    0    0  501  0.00000000000E+00  0.00000000000E+00  0.12494956626E+04  0.12494956626E+04  0.25500000920E-02 0. -1.
        2   -1    0    0  501    0  0.00000000000E+00  0.00000000000E+00 -0.14619322575E+04  0.14619322575E+04  0.25500000920E-02 0.  1.
    10030    2    1    2    0    0  0.00000000000E+00  0.00000000000E+00 -0.21243659492E+03  0.27114279201E+04  0.27030930541E+04 0.  0.
        5    1    3    3  502    0  0.33724192279E+03  0.97569346244E+03  0.76879370163E+03  0.12871579906E+04  0.46999998093E+01 0. -1.
       -5    1    3    3    0  502 -0.33724192279E+03 -0.97569346244E+03 -0.98123029656E+03  0.14242699295E+04  0.46999998093E+01 0.  1.
</event>
<event>
 5   0  0.4655882E-06  0.2691824E+04  0.7818609E-02  0.8337663E-01
       -2   -1    0    0    0  501  0.00000000000E+00  0.00000000000E+00  0.13357886298E+04  0.13357886298E+04  0.25500000920E-02 0. -1.
        2   -1    0    0  501    0  0.00000000000E+00  0.00000000000E+00 -0.13561125037E+04  0.13561125037E+04  0.25500000920E-02 0.  1.
    10030    2    1    2    0    0  0.00000000000E+00  0.00000000000E+00 -0.20323873884E+02  0.26919011335E+04  0.26918244097E+04 0.  0.
        1    1    3    3  502    0  0.11048951978E+04  0.31891632102E+03  0.68912807433E+03  0.13406709219E+04  0.50400001928E-02 0. -1.
       -1    1    3    3    0  502 -0.11048951978E+04 -0.31891632102E+03 -0.70945194821E+03  0.13512302116E+04  0.50400001928E-02 0.  1.
</event>
<event>
 5   0  0.1771016E-06  0.2700698E+04  0.7818609E-02  0.8334779E-01
        1   -1    0    0  501    0  0.00000000000E+00  0.00000000000E+00  0.11971271950E+04  0.11971271950E+04  0.50400001928E-02 0.  1.
       -1   -1    0    0    0  501  0.00000000000E+00  0.00000000000E+00 -0.15231815537E+04  0.15231815537E+04  0.50400001928E-02 0. -1.
    10030    2    1    2    0    0  0.00000000000E+00  0.00000000000E+00 -0.32605435870E+03  0.27203087486E+04  0.27006977326E+04 0.  0.
        2    1    3    3  502    0  0.91877352140E+03  0.36492954126E+02 -0.11591295983E+04  0.14795465336E+04  0.25500000920E-02 0. -1.
       -2    1    3    3    0  502 -0.91877352140E+03 -0.36492954126E+02  0.83307523964E+03  0.12407622150E+04  0.25500000920E-02 0.  1.
</event>
<event>
 5   0  0.1732312E-06  0.2736508E+04  0.7818609E-02  0.8323256E-01
       -1   -1    0    0    0  501  0.00000000000E+00  0.00000000000E+00  0.78610767492E+03  0.78610767493E+03  0.50400001928E-02 0.  1.
        1   -1    0    0  501    0  0.00000000000E+00  0.00000000000E+00 -0.23815036954E+04  0.23815036954E+04  0.50400001928E-02 0. -1.
    10030    2    1    2    0    0  0.00000000000E+00  0.00000000000E+00 -0.15953960205E+04  0.31676113704E+04  0.27365075062E+04 0.  0.
        5    1    3    3  502    0 -0.72921802518E+03  0.98979753292E+03 -0.10255991777E+03  0.12336931187E+04  0.46999998093E+01 0.  1.
       -5    1    3    3    0  502  0.72921802518E+03 -0.98979753292E+03 -0.14928361027E+04  0.19339182517E+04  0.46999998093E+01 0. -1.
</event>
<event>
 5   0  0.4487186E-06  0.2697720E+04  0.7818609E-02  0.8335745E-01
        2   -1    0    0  501    0  0.00000000000E+00  0.00000000000E+00  0.10905941252E+04  0.10905941252E+04  0.25500000920E-02 0. -1.
       -2   -1    0    0    0  501  0.00000000000E+00  0.00000000000E+00 -0.16682866250E+04  0.16682866251E+04  0.25500000920E-02 0.  1.
    10030    2    1    2    0    0  0.00000000000E+00  0.00000000000E+00 -0.57769249986E+03  0.27588807502E+04  0.26977202171E+04 0.  0.
        3    1    3    3  502    0  0.47345307895E+01 -0.79254646261E+03 -0.14050445494E+04  0.16131653688E+04  0.10100000352E+00 0.  1.
       -3    1    3    3    0  502 -0.47345307895E+01  0.79254646261E+03  0.82735204952E+03  0.11457153814E+04  0.10100000352E+00 0. -1.
</event>
<event>
 5   0  0.4655882E-06  0.2695864E+04  0.7818609E-02  0.8336348E-01
        2   -1    0    0  501    0  0.00000000000E+00  0.00000000000E+00  0.21140579274E+04  0.21140579274E+04  0.25500000920E-02 0.  1.
       -2   -1    0    0    0  501  0.00000000000E+00  0.00000000000E+00 -0.85944686437E+03  0.85944686437E+03  0.25500000920E-02 0. -1.
    10030    2    1    2    0    0  0.00000000000E+00  0.00000000000E+00  0.12546110631E+04  0.29735047918E+04  0.26958638369E+04 0.  0.
        1    1    3    3  502    0  0.59347984990E+03 -0.11918238224E+04  0.85934778624E+03  0.15846579990E+04  0.50400001928E-02 0. -1.
       -1    1    3    3    0  502 -0.59347984990E+03  0.11918238224E+04  0.39526327681E+03  0.13888467928E+04  0.50400001928E-02 0.  1.
</event>
<event>
 5   0  0.1482875E-06  0.2690005E+04  0.7818609E-02  0.8338255E-01
       -3   -1    0    0    0  501  0.00000000000E+00  0.00000000000E+00  0.15786390761E+04  0.15786390793E+04  0.10100000352E+00 0. -1.
        3   -1    0    0  501    0  0.00000000000E+00  0.00000000000E+00 -0.11459438372E+04  0.11459438417E+04  0.10100000352E+00 0.  1.
    10030    2    1    2    0    0  0.00000000000E+00  0.00000000000E+00  0.43269523885E+03  0.27245829210E+04  0.26900050044E+04 0.  0.
        5    1    3    3  502    0 -0.40900509728E+03 -0.24051832504E+03 -0.10583508070E+04  0.11598546267E+04  0.46999998093E+01 0.  1.
       -5    1    3    3    0  502  0.40900509728E+03  0.24051832504E+03  0.14910460459E+04  0.15647282944E+04  0.46999998093E+01 0. -1.
</event>
<event>
 5   0  0.1771016E-06  0.2685343E+04  0.7818609E-02  0.8339776E-01
       -1   -1    0    0    0  501  0.00000000000E+00  0.00000000000E+00  0.66105290340E+03  0.66105290342E+03  0.50400001928E-02 0.  1.
        1   -1    0    0  501    0  0.00000000000E+00  0.00000000000E+00 -0.27271145583E+04  0.27271145583E+04  0.50400001928E-02 0. -1.
    10030    2    1    2    0    0  0.00000000000E+00  0.00000000000E+00 -0.20660616549E+04  0.33881674617E+04  0.26853431786E+04 0.  0.
        2    1    3    3  502    0 -0.92941444370E+03 -0.57307664740E+03 -0.20189056103E+04  0.22952577013E+04  0.25500000920E-02 0. -1.
       -2    1    3    3    0  502  0.92941444370E+03  0.57307664740E+03 -0.47156044609E+02  0.10929097605E+04  0.25500000920E-02 0.  1.
</event>
<event>
 5   0  0.1732312E-06  0.2710958E+04  0.7818609E-02  0.8331458E-01
       -1   -1    0    0    0  501  0.00000000000E+00  0.00000000000E+00  0.11326152966E+04  0.11326152966E+04  0.50400001928E-02 0.  1.
        1   -1    0    0  501    0  0.00000000000E+00  0.00000000000E+00 -0.16221957193E+04  0.16221957193E+04  0.50400001928E-02 0. -1.
    10030    2    1    2    0    0  0.00000000000E+00  0.00000000000E+00 -0.48958042276E+03  0.27548110159E+04  0.27109582702E+04 0.  0.
        5    1    3    3  502    0 -0.62724737292E+03  0.11117217841E+04 -0.70816763350E+03  0.14597561712E+04  0.46999998093E+01 0. -1.
       -5    1    3    3    0  502  0.62724737292E+03 -0.11117217841E+04  0.21858721074E+03  0.12950548447E+04  0.46999998093E+01 0.  1.
</event>
<event>
 5   0  0.1771016E-06  0.2686826E+04  0.7818609E-02  0.8339292E-01
       -1   -1    0    0    0  501  0.00000000000E+00  0.00000000000E+00  0.17973912675E+04  0.17973912675E+04  0.50400001928E-02 0.  1.
        1   -1    0    0  501    0  0.00000000000E+00  0.00000000000E+00 -0.10040984737E+04  0.10040984737E+04  0.50400001928E-02 0. -1.
    10030    2    1    2    0    0  0.00000000000E+00  0.00000000000E+00  0.79329279382E+03  0.28014897413E+04  0.26868255086E+04 0.  0.
        2    1    3    3  502    0  0.13418939627E+04  0.63842457511E+02  0.39497748306E+03  0.14002722873E+04  0.25500000920E-02 0. -1.
       -2    1    3    3    0  502 -0.13418939627E+04 -0.63842457511E+02  0.39831531076E+03  0.14012174540E+04  0.25500000920E-02 0.  1.
</event>
<event>
 5   0  0.1732312E-06  0.2723565E+04  0.7818609E-02  0.8327399E-01
       -1   -1    0    0    0  501  0.00000000000E+00  0.00000000000E+00  0.97192174422E+03  0.97192174424E+03  0.50400001928E-02 0. -1.
        1   -1    0    0  501    0  0.00000000000E+00  0.00000000000E+00 -0.19080252422E+04  0.19080252422E+04  0.50400001928E-02 0.  1.
    10030    2    1    2    0    0  0.00000000000E+00  0.00000000000E+00 -0.93610349799E+03  0.28799469865E+04  0.27235647387E+04 0.  0.
        5    1    3    3  502    0  0.34099376418E+03 -0.11211318557E+04  0.26547626664E+03  0.12015461387E+04  0.46999998093E+01 0. -1.
       -5    1    3    3    0  502 -0.34099376418E+03  0.11211318557E+04 -0.12015797646E+04  0.16784008478E+04  0.46999998093E+01 0.  1.
</event>
<event>
 5   0  0.1771016E-06  0.2687853E+04  0.7818609E-02  0.8338957E-01
       -1   -1    0    0    0  501  0.00000000000E+00  0.00000000000E+00  0.14570106580E+04  0.14570106580E+04  0.50400001928E-02 0. -1.
        1   -1    0    0  501    0  0.00000000000E+00  0.00000000000E+00 -0.12396195599E+04  0.12396195599E+04  0.50400001928E-02 0.  1.
    10030    2    1    2    0    0  0.00000000000E+00  0.00000000000E+00  0.21739109816E+03  0.26966302179E+04  0.26878533521E+04 0.  0.
        2    1    3    3  502    0 -0.61936778942E+03  0.68084386936E+03 -0.87377436633E+03  0.12691124758E+04  0.25500000920E-02 0.  1.
       -2    1    3    3    0  502  0.61936778942E+03 -0.68084386936E+03  0.10911654645E+04  0.14275177421E+04  0.25500000920E-02 0. -1.
</event>
<event>
 5   0  0.4487186E-06  0.2583085E+04  0.7818609E-02  0.8373970E-01
       -2   -1    0    0    0  501  0.00000000000E+00  0.00000000000E+00  0.11691022919E+04  0.11691022919E+04  0.25500000920E-02 0. -1.
        2   -1    0    0  501    0  0.00000000000E+00  0.00000000000E+00 -0.14268062172E+04  0.14268062172E+04  0.25500000920E-02 0.  1.
    10030    2    1    2    0    0  0.00000000000E+00  0.00000000000E+00 -0.25770392531E+03  0.25959085090E+04  0.25830853014E+04 0.  0.
        3    1    3    3  502    0  0.89173897201E+03 -0.75789431573E+03 -0.67789755842E+03  0.13524597214E+04  0.10100000352E+00 0.  1.
       -3    1    3    3    0  502 -0.89173897201E+03  0.75789431573E+03  0.42019363311E+03  0.12434487877E+04  0.10100000352E+00 0. -1.
</event>
<event>
 5   0  0.4448804E-06  0.2827786E+04  0.7818609E-02  0.8294694E-01
       -2   -1    0    0    0  501  0.00000000000E+00  0.00000000000E+00  0.11934320202E+04  0.11934320202E+04  0.25500000920E-02 0.  1.
        2   -1    0    0  501    0  0.00000000000E+00  0.00000000000E+00 -0.16750790286E+04  0.16750790286E+04  0.25500000920E-02 0. -1.
    10030    2    1    2    0    0  0.00000000000E+00  0.00000000000E+00 -0.48164700841E+03  0.28685110488E+04  0.28277856702E+04 0.  0.
        2    1    3    3  502    0  0.42106498498E+03  0.13451360148E+04 -0.35381133919E+03  0.14532271274E+04  0.25500000920E-02 0. -1.
       -2    1    3    3    0  502 -0.42106498498E+03 -0.13451360148E+04 -0.12783566922E+03  0.14152839215E+04  0.25500000920E-02 0.  1.
</event>
<event>
 5   0  0.4655882E-06  0.2704930E+04  0.7818609E-02  0.8333407E-01
        2   -1    0    0  501    0  0.00000000000E+00  0.00000000000E+00  0.21416144273E+04  0.21416144273E+04  0.25500000920E-02 0. -1.
       -2   -1    0    0    0  501  0.00000000000E+00  0.00000000000E+00 -0.85410407270E+03  0.85410407270E+03  0.25500000920E-02 0.  1.
    10030    2    1    2    0    0  0.00000000000E+00  0.00000000000E+00  0.12875103546E+04  0.29957185000E+04  0.27049300209E+04 0.  0.
        1    1    3    3  502    0  0.78428552335E+03  0.43926607385E+03 -0.47537285182E+03  0.10168764989E+04  0.50400001928E-02 0.  1.
       -1    1    3    3    0  502 -0.78428552335E+03 -0.43926607385E+03  0.17628832064E+04  0.19788420010E+04  0.50400001928E-02 0. -1.
</event>
<event>
 5   0  0.1771016E-06  0.2650562E+04  0.7818609E-02  0.8351227E-01
        1   -1    0    0  501    0  0.00000000000E+00  0.00000000000E+00  0.13668477616E+04  0.13668477616E+04  0.50400001928E-02 0. -1.
       -1   -1    0    0    0  501  0.00000000000E+00  0.00000000000E+00 -0.12849780485E+04  0.12849780485E+04  0.50400001928E-02 0.  1.
    10030    2    1    2    0    0  0.00000000000E+00  0.00000000000E+00  0.81869713078E+02  0.26518258101E+04  0.26505617287E+04 0.  0.
        2    1    3    3  502    0 -0.23125253355E+03 -0.14683736095E+03 -0.12563447957E+04  0.12858620418E+04  0.25500000920E-02 0.  1.
       -2    1    3    3    0  502  0.23125253355E+03  0.14683736095E+03  0.13382145088E+04  0.13659637683E+04  0.25500000920E-02 0. -1.
</event>
<event>
 5   0  0.4439357E-06  0.2693444E+04  0.7818609E-02  0.8337135E-01
       -2   -1    0    0    0  501  0.00000000000E+00  0.00000000000E+00  0.68568809282E+03  0.68568809283E+03  0.25500000920E-02 0.  1.
        2   -1    0    0  501    0  0.00000000000E+00  0.00000000000E+00 -0.26450226045E+04  0.26450226045E+04  0.25500000920E-02 0. -1.
    10030    2    1    2    0    0  0.00000000000E+00  0.00000000000E+00 -0.19593345117E+04  0.33307106974E+04  0.26934442672E+04 0.  0.
        4    1    3    3  502    0  0.89998878976E+03 -0.34823401934E+03 -0.21412887920E+04  0.23486945433E+04  0.12699999809E+01 0. -1.
       -4    1    3    3    0  502 -0.89998878976E+03  0.34823401934E+03  0.18195428028E+03  0.98201615411E+03  0.12699999809E+01 0.  1.
</event>
<event>
 5   0  0.1723605E-06  0.2549846E+04  0.7818609E-02  0.8385440E-01
       -1   -1    0    0    0  501  0.00000000000E+00  0.00000000000E+00  0.14295423777E+04  0.14295423777E+04  0.50400001928E-02 0. -1.
        1   -1    0    0  501    0  0.00000000000E+00  0.00000000000E+00 -0.11370269096E+04  0.11370269096E+04  0.50400001928E-02 0.  1.
    10030    2    1    2    0    0  0.00000000000E+00  0.00000000000E+00  0.29251546810E+03  0.25665692874E+04  0.25498456047E+04 0.  0.
        1    1    3    3  502    0 -0.94833508358E+03  0.76579523437E+03  0.52240157070E+03  0.13261542794E+04  0.50400001928E-02 0. -1.
       -1    1    3    3    0  502  0.94833508358E+03 -0.76579523437E+03 -0.22988610261E+03  0.12404150079E+04  0.50400001928E-02 0.  1.
</event>
<event>
 5   0  0.1828511E-06  0.2546657E+04  0.7818609E-02  0.8386550E-01
       -1   -1    0    0    0  501  0.00000000000E+00  0.00000000000E+00  0.14507043296E+04  0.14507043296E+04  0.50400001928E-02 0. -1.
        1   -1    0    0  501    0  0.00000000000E+00  0.00000000000E+00 -0.11176405516E+04  0.11176405517E+04  0.50400001928E-02 0.  1.
    10030    2    1    2    0    0  0.00000000000E+00  0.00000000000E+00  0.33306377795E+03  0.25683448813E+04  0.25466574071E+04 0.  0.
        4    1    3    3  502    0 -0.36658744910E+03 -0.11808190652E+04 -0.14043553497E+03  0.12443648078E+04  0.12699999809E+01 0.  1.
       -4    1    3    3    0  502  0.36658744910E+03  0.11808190652E+04  0.47349931292E+03  0.13239800734E+04  0.12699999809E+01 0. -1.
</event>
<event>
 5   0  0.4487186E-06  0.2615132E+04  0.7818609E-02  0.8363079E-01
        2   -1    0    0  501    0  0.00000000000E+00  0.00000000000E+00  0.18352300360E+04  0.18352300360E+04  0.25500000920E-02 0. -1.
       -2   -1    0    0    0  501  0.00000000000E+00  0.00000000000E+00 -0.93161559709E+03  0.93161559710E+03  0.25500000920E-02 0.  1.
    10030    2    1    2    0    0  0.00000000000E+00  0.00000000000E+00  0.90361443895E+03  0.27668456331E+04  0.26151320623E+04 0.  0.
        3    1    3    3  502    0  0.24089044787E+03 -0.58833626432E+03 -0.75709148793E+03  0.98861281555E+03  0.10100000352E+00 0.  1.
       -3    1    3    3    0  502 -0.24089044787E+03  0.58833626432E+03  0.16607059269E+04  0.17782328176E+04  0.10100000352E+00 0. -1.
</event>
<event>
 5   0  0.1732312E-06  0.2693372E+04  0.7818609E-02  0.8337159E-01
       -1   -1    0    0    0  501  0.00000000000E+00  0.00000000000E+00  0.53575457378E+03  0.53575457380E+03  0.50400001928E-02 0.  1.
        1   -1    0    0  501    0  0.00000000000E+00  0.00000000000E+00 -0.33850625417E+04  0.33850625417E+04  0.50400001928E-02 0. -1.
    10030    2    1    2    0    0  0.00000000000E+00  0.00000000000E+00 -0.28493079679E+04  0.39208171155E+04  0.26933716708E+04 0.  0.
        5    1    3    3  502    0  0.97282212535E+02 -0.13409675827E+04 -0.13130008406E+04  0.18792687898E+04  0.46999998093E+01 0. -1.
       -5    1    3    3    0  502 -0.97282212535E+02  0.13409675827E+04 -0.15363071274E+04  0.20415483258E+04  0.46999998093E+01 0.  1.
</event>
<event>
 5   0  0.4487186E-06  0.2696203E+04  0.7818609E-02  0.8336238E-01
        2   -1    0    0  501    0  0.00000000000E+00  0.00000000000E+00  0.20032274676E+04  0.20032274676E+04  0.25500000920E-02 0. -1.
       -2   -1    0    0    0  501  0.00000000000E+00  0.00000000000E+00 -0.90722450602E+03  0.90722450602E+03  0.25500000920E-02 0.  1.
    10030    2    1    2    0    0  0.00000000000E+00  0.00000000000E+00  0.10960029616E+04  0.29104519736E+04  0.26962025516E+04 0.  0.
        3    1    3    3  502    0  0.99993302751E+03 -0.53718063514E+03  0.13330823400E+04  0.17508676791E+04  0.10100000352E+00 0. -1.
       -3    1    3    3    0  502 -0.99993302751E+03  0.53718063514E+03 -0.23707937841E+03  0.11595842945E+04  0.10100000352E+00 0.  1.
</event>
<event>
 5   0  0.1723605E-06  0.2696131E+04  0.7818609E-02  0.8336261E-01
        1   -1    0    0  501    0  0.00000000000E+00  0.00000000000E+00  0.12123997083E+04  0.12123997083E+04  0.50400001928E-02 0. -1.
       -1   -1    0    0    0  501  0.00000000000E+00  0.00000000000E+00 -0.14989125949E+04  0.14989125950E+04  0.50400001928E-02 0.  1.
    10030    2    1    2    0    0  0.00000000000E+00  0.00000000000E+00 -0.28651288668E+03  0.27113123032E+04  0.26961314455E+04 0.  0.
        1    1    3    3  502    0 -0.11448349276E+04 -0.61759966996E+03  0.21257885132E+03  0.13180539184E+04  0.50400001928E-02 0.  1.
       -1    1    3    3    0  502  0.11448349276E+04  0.61759966996E+03 -0.49909173800E+03  0.13932583848E+04  0.50400001928E-02 0. -1.
</event>
<event>
 5   0  0.1482875E-06  0.2695912E+04  0.7818609E-02  0.8336333E-01
        3   -1    0    0  501    0  0.00000000000E+00  0.00000000000E+00  0.12381957581E+04  0.12381957622E+04  0.10100000352E+00 0. -1.
       -3   -1    0    0    0  501  0.00000000000E+00  0.00000000000E+00 -0.14674457436E+04  0.14674457471E+04  0.10100000352E+00 0.  1.
    10030    2    1    2    0    0  0.00000000000E+00  0.00000000000E+00 -0.22924998557E+03  0.27056415093E+04  0.26959117977E+04 0.  0.
        2    1    3    3  502    0  0.59278373254E+03  0.11691364953E+04  0.20069422831E+03  0.13261036428E+04  0.25500000920E-02 0. -1.
       -2    1    3    3    0  502 -0.59278373254E+03 -0.11691364953E+04 -0.42994421388E+03  0.13795378665E+04  0.25500000920E-02 0.  1.
</event>
<event>
 5   0  0.4401659E-06  0.2702554E+04  0.7818609E-02  0.8334177E-01
        2   -1    0    0  501    0  0.00000000000E+00  0.00000000000E+00  0.14719058125E+04  0.14719058125E+04  0.25500000920E-02 0.  1.
       -2   -1    0    0    0  501  0.00000000000E+00  0.00000000000E+00 -0.12405346260E+04  0.12405346260E+04  0.25500000920E-02 0. -1.
    10030    2    1    2    0    0  0.00000000000E+00  0.00000000000E+00  0.23137118654E+03  0.27124404385E+04  0.27025544410E+04 0.  0.
        5    1    3    3  502    0  0.92687238345E+03 -0.68964154500E+03  0.81912755481E+03  0.14162238230E+04  0.46999998093E+01 0.  1.
       -5    1    3    3    0  502 -0.92687238345E+03  0.68964154500E+03 -0.58775636826E+03  0.12962166155E+04  0.46999998093E+01 0. -1.
</event>
<event>
 5   0  0.1723605E-06  0.2701124E+04  0.7818609E-02  0.8334640E-01
        1   -1    0    0  501    0  0.00000000000E+00  0.00000000000E+00  0.67463355524E+03  0.67463355525E+03  0.50400001928E-02 0.  1.
       -1   -1    0    0    0  501  0.00000000000E+00  0.00000000000E+00 -0.27037154681E+04  0.27037154682E+04  0.50400001928E-02 0. -1.
    10030    2    1    2    0    0  0.00000000000E+00  0.00000000000E+00 -0.20290819129E+04  0.33783490234E+04  0.27011236023E+04 0.  0.
        1    1    3    3  502    0  0.10228171286E+03 -0.12407112874E+04 -0.16694587035E+04  0.20825269291E+04  0.50400001928E-02 0. -1.
       -1    1    3    3    0  502 -0.10228171286E+03  0.12407112874E+04 -0.35962320940E+03  0.12958220944E+04  0.50400001928E-02 0.  1.
</event>
<event>
 5   0  0.4401659E-06  0.2676577E+04  0.7818609E-02  0.8342645E-01
        2   -1    0    0  501    0  0.00000000000E+00  0.00000000000E+00  0.16952845745E+04  0.16952845745E+04  0.25500000920E-02 0. -1.
       -2   -1    0    0    0  501  0.00000000000E+00  0.00000000000E+00 -0.10564692531E+04  0.10564692531E+04  0.25500000920E-02 0.  1.
    10030    2    1    2    0    0  0.00000000000E+00  0.00000000000E+00  0.63881532139E+03  0.27517538275E+04  0.26765769394E+04 0.  0.
        5    1    3    3  502    0  0.11927781210E+04 -0.49409977720E+03  0.68163831241E+03  0.14599681896E+04  0.46999998093E+01 0. -1.
       -5    1    3    3    0  502 -0.11927781210E+04  0.49409977720E+03 -0.42822991020E+02  0.12917856379E+04  0.46999998093E+01 0.  1.
</event>
<event>
 5   0  0.1771016E-06  0.2714158E+04  0.7818609E-02  0.8330426E-01
       -1   -1    0    0    0  501  0.00000000000E+00  0.00000000000E+00  0.10982046571E+04  0.10982046571E+04  0.50400001928E-02 0. -1.
        1   -1    0    0  501    0  0.00000000000E+00  0.00000000000E+00 -0.16769767123E+04  0.16769767123E+04  0.50400001928E-02 0.  1.
    10030    2    1    2    0    0  0.00000000000E+00  0.00000000000E+00 -0.57877205521E+03  0.27751813694E+04  0.27141581644E+04 0.  0.
        2    1    3    3  502    0 -0.74303374502E+03 -0.82761187061E+03  0.50567154812E+03  0.12217791409E+04  0.25500000920E-02 0. -1.
       -2    1    3    3    0  502  0.74303374502E+03  0.82761187061E+03 -0.10844436033E+04  0.15534022285E+04  0.25500000920E-02 0.  1.
</event>
<event>
 5   0  0.1753474E-06  0.2719511E+04  0.7818609E-02  0.8328702E-01
        1   -1    0    0  501    0  0.00000000000E+00  0.00000000000E+00  0.29901386096E+04  0.29901386096E+04  0.50400001928E-02 0.  1.
       -1   -1    0    0    0  501  0.00000000000E+00  0.00000000000E+00 -0.61834428844E+03  0.61834428846E+03  0.50400001928E-02 0. -1.
    10030    2    1    2    0    0  0.00000000000E+00  0.00000000000E+00  0.23717943212E+04  0.36084828981E+04  0.27195110818E+04 0.  0.
        3    1    3    3  502    0  0.15986674838E+03 -0.10990101279E+04  0.14485799781E+03  0.11199841464E+04  0.10100000352E+00 0. -1.
       -3    1    3    3    0  502 -0.15986674838E+03  0.10990101279E+04  0.22269363234E+04  0.24884987517E+04  0.10100000352E+00 0.  1.
</event>
<event>
 5   0  0.1732312E-06  0.2709782E+04  0.7818609E-02  0.8331838E-01
       -1   -1    0    0    0  501  0.00000000000E+00  0.00000000000E+00  0.12792953406E+04  0.12792953406E+04  0.50400001928E-02 0. -1.
        1   -1    0    0  501    0  0.00000000000E+00  0.00000000000E+00 -0.14349532548E+04  0.14349532548E+04  0.50400001928E-02 0.  1.
    10030    2    1    2    0    0  0.00000000000E+00  0.00000000000E+00 -0.15565791420E+03  0.27142485954E+04  0.27097815505E+04 0.  0.
        5    1    3    3  502    0 -0.61201243685E+03 -0.17502149026E+03  0.11201841657E+04  0.12884201178E+04  0.46999998093E+01 0. -1.
       -5    1    3    3    0  502  0.61201243685E+03  0.17502149026E+03 -0.12758420799E+04  0.14258284776E+04  0.46999998093E+01 0.  1.
</event>
<event>
 5   0  0.4448804E-06  0.2697262E+04  0.7818609E-02  0.8335894E-01
       -2   -1    0    0    0  501  0.00000000000E+00  0.00000000000E+00  0.90085266806E+03  0.90085266806E+03  0.25500000920E-02 0. -1.
        2   -1    0    0  501    0  0.00000000000E+00  0.00000000000E+00 -0.20189818045E+04  0.20189818045E+04  0.25500000920E-02 0.  1.
    10030    2    1    2    0    0  0.00000000000E+00  0.00000000000E+00 -0.11181291364E+04  0.29198344726E+04  0.26972616820E+04 0.  0.
        2    1    3    3  502    0 -0.54237670975E+01  0.13334584601E+04 -0.77735846955E+03  0.15435112803E+04  0.25500000920E-02 0. -1.
       -2    1    3    3    0  502  0.54237670975E+01 -0.13334584601E+04 -0.34077066688E+03  0.13763231923E+04  0.25500000920E-02 0.  1.
</event>
<event>
 5   0  0.4655882E-06  0.2699255E+04  0.7818609E-02  0.8335247E-01
        2   -1    0    0  501    0  0.00000000000E+00  0.00000000000E+00  0.14581386424E+04  0.14581386424E+04  0.25500000920E-02 0.  1.
       -2   -1    0    0    0  501  0.00000000000E+00  0.00000000000E+00 -0.12491912646E+04  0.12491912646E+04  0.25500000920E-02 0. -1.
    10030    2    1    2    0    0  0.00000000000E+00  0.00000000000E+00  0.20894737777E+03  0.27073299070E+04  0.26992547525E+04 0.  0.
        1    1    3    3  502    0  0.28469363442E+03  0.10267278636E+04 -0.72642087080E+03  0.12895378447E+04  0.50400001928E-02 0. -1.
       -1    1    3    3    0  502 -0.28469363442E+03 -0.10267278636E+04  0.93536824857E+03  0.14177920623E+04  0.50400001928E-02 0.  1.
</event>
<event>
 5   0  0.1723605E-06  0.2709746E+04  0.7818609E-02  0.8331850E-01
        1   -1    0    0  501    0  0.00000000000E+00  0.00000000000E+00  0.30730277632E+04  0.30730277632E+04  0.50400001928E-02 0.  1.
       -1   -1    0    0    0  501  0.00000000000E+00  0.00000000000E+00 -0.59735260347E+03  0.59735260349E+03  0.50400001928E-02 0. -1.
    10030    2    1    2    0    0  0.00000000000E+00  0.00000000000E+00  0.24756751597E+04  0.36703803667E+04  0.27097462131E+04 0.  0.
        1    1    3    3  502    0  0.13322727759E+04 -0.24641814566E+03  0.12417826884E+04  0.18378511629E+04  0.50400001928E-02 0. -1.
       -1    1    3    3    0  502 -0.13322727759E+04  0.24641814566E+03  0.12338924713E+04  0.18325292038E+04  0.50400001928E-02 0.  1.
</event>
<event>
 5   0  0.1753474E-06  0.2707534E+04  0.7818609E-02  0.8332565E-01
       -1   -1    0    0    0  501  0.00000000000E+00  0.00000000000E+00  0.25086876465E+04  0.25086876465E+04  0.50400001928E-02 0. -1.
        1   -1    0    0  501    0  0.00000000000E+00  0.00000000000E+00 -0.73053538747E+03  0.73053538748E+03  0.50400001928E-02 0.  1.
    10030    2    1    2    0    0  0.00000000000E+00  0.00000000000E+00  0.17781522590E+04  0.32392230340E+04  0.27075340086E+04 0.  0.
        3    1    3    3  502    0 -0.38657369331E+03  0.11966368770E+04  0.14888235777E+04  0.19488393190E+04  0.10100000352E+00 0. -1.
       -3    1    3    3    0  502  0.38657369331E+03 -0.11966368770E+04  0.28932868129E+03  0.12903837149E+04  0.10100000352E+00 0.  1.
</event>
<event>
 5   0  0.1753474E-06  0.2702870E+04  0.7818609E-02  0.8334074E-01
       -1   -1    0    0    0  501  0.00000000000E+00  0.00000000000E+00  0.79904812306E+03  0.79904812308E+03  0.50400001928E-02 0. -1.
        1   -1    0    0  501    0  0.00000000000E+00  0.00000000000E+00 -0.22856901654E+04  0.22856901654E+04  0.50400001928E-02 0.  1.
    10030    2    1    2    0    0  0.00000000000E+00  0.00000000000E+00 -0.14866420424E+04  0.30847382885E+04  0.27028699093E+04 0.  0.
        3    1    3    3  502    0  0.11432395208E+04 -0.43891445248E+03 -0.13956854877E+04  0.18567661375E+04  0.10100000352E+00 0. -1.
       -3    1    3    3    0  502 -0.11432395208E+04  0.43891445248E+03 -0.90956554626E+02  0.12279721510E+04  0.10100000352E+00 0.  1.
</event>
<event>
 5   0  0.1828511E-06  0.2697612E+04  0.7818609E-02  0.8335780E-01
        1   -1    0    0  501    0  0.00000000000E+00  0.00000000000E+00  0.11907860551E+04  0.11907860551E+04  0.50400001928E-02 0. -1.
       -1   -1    0    0    0  501  0.00000000000E+00  0.00000000000E+00 -0.15277960942E+04  0.15277960942E+04  0.50400001928E-02 0.  1.
    10030    2    1    2    0    0  0.00000000000E+00  0.00000000000E+00 -0.33701003908E+03  0.27185821493E+04  0.26976124881E+04 0.  0.
        4    1    3    3  502    0 -0.31999035865E+03  0.47480145310E+03 -0.13992461814E+04  0.15118603568E+04  0.12699999809E+01 0.  1.
       -4    1    3    3    0  502  0.31999035865E+03 -0.47480145310E+03  0.10622361423E+04  0.12067217925E+04  0.12699999809E+01 0. -1.
</event>
<event>
 5   0  0.4655882E-06  0.2713610E+04  0.7818609E-02  0.8330602E-01
       -2   -1    0    0    0  501  0.00000000000E+00  0.00000000000E+00  0.11294037294E+04  0.11294037294E+04  0.25500000920E-02 0.  1.
        2   -1    0    0  501    0  0.00000000000E+00  0.00000000000E+00 -0.16299931243E+04  0.16299931243E+04  0.25500000920E-02 0. -1.
    10030    2    1    2    0    0  0.00000000000E+00  0.00000000000E+00 -0.50058939499E+03  0.27593968537E+04  0.27136103725E+04 0.  0.
        1    1    3    3  502    0  0.99025949759E+02 -0.30749987535E+03  0.10897254275E+04  0.11366018738E+04  0.50400001928E-02 0.  1.
       -1    1    3    3    0  502 -0.99025949759E+02  0.30749987535E+03 -0.15903148225E+04  0.16227949799E+04  0.50400001928E-02 0. -1.
</event>
<event>
 5   0  0.4487186E-06  0.2694137E+04  0.7818609E-02  0.8336910E-01
       -2   -1    0    0    0  501  0.00000000000E+00  0.00000000000E+00  0.67924011509E+03  0.67924011509E+03  0.25500000920E-02 0. -1.
        2   -1    0    0  501    0  0.00000000000E+00  0.00000000000E+00 -0.26715062346E+04  0.26715062346E+04  0.25500000920E-02 0.  1.
    10030    2    1    2    0    0  0.00000000000E+00  0.00000000000E+00 -0.19922661195E+04  0.33507463497E+04  0.26941374889E+04 0.  0.
        3    1    3    3  502    0  0.49181844171E+03 -0.11923367707E+04 -0.14794927486E+04  0.19627662005E+04  0.10100000352E+00 0.  1.
       -3    1    3    3    0  502 -0.49181844171E+03  0.11923367707E+04 -0.51277337089E+03  0.13879801492E+04  0.10100000352E+00 0. -1.
</event>
<event>
 5   0  0.1753474E-06  0.2705768E+04  0.7818609E-02  0.8333136E-01
        1   -1    0    0  501    0  0.00000000000E+00  0.00000000000E+00  0.16731874108E+04  0.16731874108E+04  0.50400001928E-02 0.  1.
       -1   -1    0    0    0  501  0.00000000000E+00  0.00000000000E+00 -0.10938972311E+04  0.10938972311E+04  0.50400001928E-02 0. -1.
    10030    2    1    2    0    0  0.00000000000E+00  0.00000000000E+00  0.57929017970E+03  0.27670846418E+04  0.27057679691E+04 0.  0.
        3    1    3    3  502    0  0.61649508523E+03 -0.11630684329E+04 -0.29681990445E+02  0.13166910801E+04  0.10100000352E+00 0. -1.
       -3    1    3    3    0  502 -0.61649508523E+03  0.11630684329E+04  0.60897217014E+03  0.14503935617E+04  0.10100000352E+00 0.  1.
</event>
<event>
 5   0  0.4439357E-06  0.2696209E+04  0.7818609E-02  0.8336236E-01
       -2   -1    0    0    0  501  0.00000000000E+00  0.00000000000E+00  0.18709112367E+04  0.18709112367E+04  0.25500000920E-02 0.  1.
        2   -1    0    0  501    0  0.00000000000E+00  0.00000000000E+00 -0.97139079884E+03  0.97139079884E+03  0.25500000920E-02 0. -1.
    10030    2    1    2    0    0  0.00000000000E+00  0.00000000000E+00  0.89952043787E+03  0.28423020355E+04  0.26962091616E+04 0.  0.
        4    1    3    3  502    0  0.73004990715E+03  0.74125946576E+03  0.13535019308E+04  0.17071635985E+04  0.12699999809E+01 0.  1.
       -4    1    3    3    0  502 -0.73004990715E+03 -0.74125946576E+03 -0.45398149289E+03  0.11351384371E+04  0.12699999809E+01 0. -1.
</event>
<event>
 5   0  0.1753474E-06  0.2679394E+04  0.7818609E-02  0.8341722E-01
       -1   -1    0    0    0  501  0.00000000000E+00  0.00000000000E+00  0.10732607461E+04  0.10732607461E+04  0.50400001928E-02 0. -1.
        1   -1    0    0  501    0  0.00000000000E+00  0.00000000000E+00 -0.16722757400E+04  0.16722757401E+04  0.50400001928E-02 0.  1.
    10030    2    1    2    0    0  0.00000000000E+00  0.00000000000E+00 -0.59901499391E+03  0.27455364862E+04  0.26793938931E+04 0.  0.
        3    1    3    3  502    0 -0.85225260703E+03 -0.84707350521E+03 -0.90651580547E+03  0.15052039547E+04  0.10100000352E+00 0.  1.
       -3    1    3    3    0  502  0.85225260703E+03  0.84707350521E+03  0.30750081156E+03  0.12403325315E+04  0.10100000352E+00 0. -1.
</event>
<event>
 5   0  0.1753474E-06  0.2698352E+04  0.7818609E-02  0.8335540E-01
        1   -1    0    0  501    0  0.00000000000E+00  0.00000000000E+00  0.15014709232E+04  0.15014709232E+04  0.50400001928E-02 0. -1.
       -1   -1    0    0    0  501  0.00000000000E+00  0.00000000000E+00 -0.12123282614E+04  0.12123282614E+04  0.50400001928E-02 0.  1.
    10030    2    1    2    0    0  0.00000000000E+00  0.00000000000E+00  0.28914266185E+03  0.27137991846E+04  0.26983518183E+04 0.  0.
        3    1    3    3  502    0  0.20181643877E+03  0.26186367998E+03  0.14601012594E+04  0.14970631783E+04  0.10100000352E+00 0. -1.
       -3    1    3    3    0  502 -0.20181643877E+03 -0.26186367998E+03 -0.11709585975E+04  0.12167360064E+04  0.10100000352E+00 0.  1.
</event>
<event>
 5   0  0.4401659E-06  0.2695500E+04  0.7818609E-02  0.8336466E-01
        2   -1    0    0  501    0  0.00000000000E+00  0.00000000000E+00  0.18172424067E+04  0.18172424067E+04  0.25500000920E-02 0.  1.
       -2   -1    0    0    0  501  0.00000000000E+00  0.00000000000E+00 -0.99955325449E+03  0.99955325450E+03  0.25500000920E-02 0. -1.
    10030    2    1    2    0    0  0.00000000000E+00  0.00000000000E+00  0.81768915222E+03  0.28167956612E+04  0.26955003705E+04 0.  0.
        5    1    3    3  502    0 -0.38019937369E+03 -0.28953524372E+03  0.17257202823E+04  0.17906743992E+04  0.46999998093E+01 0.  1.
       -5    1    3    3    0  502  0.38019937369E+03  0.28953524372E+03 -0.90803113011E+03  0.10261212620E+04  0.46999998093E+01 0. -1.
</event>
<event>
 5   0  0.1828511E-06  0.2730184E+04  0.7818609E-02  0.8325277E-01
       -1   -1    0    0    0  501  0.00000000000E+00  0.00000000000E+00  0.13167244729E+04  0.13167244729E+04  0.50400001928E-02 0.  1.
        1   -1    0    0  501    0  0.00000000000E+00  0.00000000000E+00 -0.14152364520E+04  0.14152364520E+04  0.50400001928E-02 0. -1.
    10030    2    1    2    0    0  0.00000000000E+00  0.00000000000E+00 -0.98511979024E+02  0.27319609249E+04  0.27301842218E+04 0.  0.
        4    1    3    3  502    0  0.40535792456E+03  0.10323258359E+04  0.74716595715E+03  0.13372622252E+04  0.12699999809E+01 0.  1.
       -4    1    3    3    0  502 -0.40535792456E+03 -0.10323258359E+04 -0.84567793618E+03  0.13946986997E+04  0.12699999809E+01 0. -1.
</event>
<event>
 5   0  0.1753474E-06  0.2721843E+04  0.7818609E-02  0.8327952E-01
        1   -1    0    0  501    0  0.00000000000E+00  0.00000000000E+00  0.16811790928E+04  0.16811790928E+04  0.50400001928E-02 0. -1.
       -1   -1    0    0    0  501  0.00000000000E+00  0.00000000000E+00 -0.11016713034E+04  0.11016713034E+04  0.50400001928E-02 0.  1.
    10030    2    1    2    0    0  0.00000000000E+00  0.00000000000E+00  0.57950778947E+03  0.27828503962E+04  0.27218425835E+04 0.  0.
        3    1    3    3  502    0 -0.39119375788E+03  0.48666508400E+02  0.16215266413E+04  0.16687569158E+04  0.10100000352E+00 0. -1.
       -3    1    3    3    0  502  0.39119375788E+03 -0.48666508400E+02 -0.10420188519E+04  0.11140934804E+04  0.10100000352E+00 0.  1.
</event>
<event>
 5   0  0.4448804E-06  0.2697084E+04  0.7818609E-02  0.8335952E-01
        2   -1    0    0  501    0  0.00000000000E+00  0.00000000000E+00  0.15189826374E+04  0.15189826374E+04  0.25500000920E-02 0.  1.
       -2   -1    0    0    0  501  0.00000000000E+00  0.00000000000E+00 -0.11972264405E+04  0.11972264405E+04  0.25500000920E-02 0. -1.
    10030    2    1    2    0    0  0.00000000000E+00  0.00000000000E+00  0.32175619687E+03  0.27162090779E+04  0.26970844823E+04 0.  0.
        2    1    3    3  502    0 -0.12565947582E+04  0.29255816977E+03  0.55601915368E+03  0.14049120856E+04  0.25500000920E-02 0. -1.
       -2    1    3    3    0  502  0.12565947582E+04 -0.29255816977E+03 -0.23426295681E+03  0.13112969923E+04  0.25500000920E-02 0.  1.
</event>
<event>
 5   0  0.1723605E-06  0.2684448E+04  0.7818609E-02  0.8340069E-01
        1   -1    0    0  501    0  0.00000000000E+00  0.00000000000E+00  0.14128741718E+04  0.14128741718E+04  0.50400001928E-02 0.  1.
       -1   -1    0    0    0  501  0.00000000000E+00  0.00000000000E+00 -0.12751064654E+04  0.12751064654E+04  0.50400001928E-02 0. -1.
    10030    2    1    2    0    0  0.00000000000E+00  0.00000000000E+00  0.13776770637E+03  0.26879806372E+04  0.26844477952E+04 0.  0.
        1    1    3    3  502    0  0.10056023052E+04 -0.54120573456E+03 -0.63732820641E+03  0.13077946651E+04  0.50400001928E-02 0. -1.
       -1    1    3    3    0  502 -0.10056023052E+04  0.54120573456E+03  0.77509591279E+03  0.13801859721E+04  0.50400001928E-02 0.  1.
</event>
<event>
 5   0  0.4655882E-06  0.2700758E+04  0.7818609E-02  0.8334759E-01
        2   -1    0    0  501    0  0.00000000000E+00  0.00000000000E+00  0.68364928363E+03  0.68364928363E+03  0.25500000920E-02 0.  1.
       -2   -1    0    0    0  501  0.00000000000E+00  0.00000000000E+00 -0.26673385459E+04  0.26673385459E+04  0.25500000920E-02 0. -1.
    10030    2    1    2    0    0  0.00000000000E+00  0.00000000000E+00 -0.19836892623E+04  0.33509878296E+04  0.27007584758E+04 0.  0.
        1    1    3    3  502    0 -0.12644708520E+04  0.45909428651E+03 -0.11379698328E+04  0.17619958683E+04  0.50400001928E-02 0.  1.
       -1    1    3    3    0  502  0.12644708520E+04 -0.45909428651E+03 -0.84571942952E+03  0.15889919613E+04  0.50400001928E-02 0. -1.
</event>
<event>
 5   0  0.1771016E-06  0.2730830E+04  0.7818609E-02  0.8325071E-01
        1   -1    0    0  501    0  0.00000000000E+00  0.00000000000E+00  0.13858686878E+04  0.13858686878E+04  0.50400001928E-02 0. -1.
       -1   -1    0    0    0  501  0.00000000000E+00  0.00000000000E+00 -0.13452629608E+04  0.13452629608E+04  0.50400001928E-02 0.  1.
    10030    2    1    2    0    0  0.00000000000E+00  0.00000000000E+00  0.40605726964E+02  0.27311316486E+04  0.27308297744E+04 0.  0.
        2    1    3    3  502    0 -0.88357513848E+03 -0.16119375973E+03  0.10488470820E+04  0.13808579417E+04  0.25500000920E-02 0. -1.
       -2    1    3    3    0  502  0.88357513848E+03  0.16119375973E+03 -0.10082413551E+04  0.13502737069E+04  0.25500000920E-02 0.  1.
</event>
<event>
 5   0  0.1828511E-06  0.2692580E+04  0.7818609E-02  0.8337417E-01
        1   -1    0    0  501    0  0.00000000000E+00  0.00000000000E+00  0.10088703973E+04  0.10088703974E+04  0.50400001928E-02 0. -1.
       -1   -1    0    0    0  501  0.00000000000E+00  0.00000000000E+00 -0.17965599449E+04  0.17965599449E+04  0.50400001928E-02 0.  1.
    10030    2    1    2    0    0  0.00000000000E+00  0.00000000000E+00 -0.78768954755E+03  0.28054303423E+04  0.26925795405E+04 0.  0.
        4    1    3    3  502    0  0.89927501447E+03  0.51445470933E+03 -0.12896073826E+04  0.16542212711E+04  0.12699999809E+01 0.  1.
       -4    1    3    3    0  502 -0.89927501447E+03 -0.51445470933E+03  0.50191783501E+03  0.11512090712E+04  0.12699999809E+01 0. -1.
</event>
<event>
 5   0  0.4487186E-06  0.2701621E+04  0.7818609E-02  0.8334479E-01
       -2   -1    0    0    0  501  0.00000000000E+00  0.00000000000E+00  0.85045404430E+03  0.85045404431E+03  0.25500000920E-02 0.  1.
        2   -1    0    0  501    0  0.00000000000E+00  0.00000000000E+00 -0.21455460747E+04  0.21455460747E+04  0.25500000920E-02 0. -1.
    10030    2    1    2    0    0  0.00000000000E+00  0.00000000000E+00 -0.12950920304E+04  0.29960001190E+04  0.27016205037E+04 0.  0.
        3    1    3    3  502    0  0.61618651510E+02 -0.35876196381E+02 -0.21434577456E+04  0.21446433450E+04  0.10100000352E+00 0. -1.
       -3    1    3    3    0  502 -0.61618651510E+02  0.35876196381E+02  0.84836571524E+03  0.85135677402E+03  0.10100000352E+00 0.  1.
</event>
<event>
 5   0  0.1753474E-06  0.2697274E+04  0.7818609E-02  0.8335890E-01
       -1   -1    0    0    0  501  0.00000000000E+00  0.00000000000E+00  0.84260135302E+03  0.84260135304E+03  0.50400001928E-02 0.  1.
        1   -1    0    0  501    0  0.00000000000E+00  0.00000000000E+00 -0.21585791851E+04  0.21585791851E+04  0.50400001928E-02 0. -1.
    10030    2    1    2    0    0  0.00000000000E+00  0.00000000000E+00 -0.13159778321E+04  0.30011805381E+04  0.26972739883E+04 0.  0.
        3    1    3    3  502    0  0.77933892290E+02  0.20433786970E+03 -0.21387180161E+04  0.21498703261E+04  0.10100000352E+00 0. -1.
       -3    1    3    3    0  502 -0.77933892290E+02 -0.20433786970E+03  0.82274018400E+03  0.85131021204E+03  0.10100000352E+00 0.  1.
</event>
<event>
 5   0  0.4448804E-06  0.2693290E+04  0.7818609E-02  0.8337185E-01
        2   -1    0    0  501    0  0.00000000000E+00  0.00000000000E+00  0.18477601634E+04  0.18477601634E+04  0.25500000920E-02 0.  1.
       -2   -1    0    0    0  501  0.00000000000E+00  0.00000000000E+00 -0.98143277298E+03  0.98143277298E+03  0.25500000920E-02 0. -1.
    10030    2    1    2    0    0  0.00000000000E+00  0.00000000000E+00  0.86632739045E+03  0.28291929364E+04  0.26932897215E+04 0.  0.
        2    1    3    3  502    0 -0.25219509465E+03 -0.53669704202E+03  0.17032241859E+04  0.18035017904E+04  0.25500000920E-02 0.  1.
       -2    1    3    3    0  502  0.25219509465E+03  0.53669704202E+03 -0.83689679545E+03  0.10256911460E+04  0.25500000920E-02 0. -1.
</event>
<event>
 5   0  0.4487186E-06  0.2695623E+04  0.7818609E-02  0.8336427E-01
        2   -1    0    0  501    0  0.00000000000E+00  0.00000000000E+00  0.14833005655E+04  0.14833005655E+04  0.25500000920E-02 0. -1.
       -2   -1    0    0    0  501  0.00000000000E+00  0.00000000000E+00 -0.12246981481E+04  0.12246981481E+04  0.25500000920E-02 0.  1.
    10030    2    1    2    0    0  0.00000000000E+00  0.00000000000E+00  0.25860241737E+03  0.27079987136E+04  0.26956227152E+04 0.  0.
        3    1    3    3  502    0  0.12217709654E+04  0.45163508868E+02  0.69920764409E+03  0.14084230096E+04  0.10100000352E+00 0. -1.
       -3    1    3    3    0  502 -0.12217709654E+04 -0.45163508868E+02 -0.44060522672E+03  0.12995757040E+04  0.10100000352E+00 0.  1.
</event>
<event>
 5   0  0.4448804E-06  0.2699801E+04  0.7818609E-02  0.8335070E-01
       -2   -1    0    0    0  501  0.00000000000E+00  0.00000000000E+00  0.14581134862E+04  0.14581134862E+04  0.25500000920E-02 0.  1.
        2   -1    0    0  501    0  0.00000000000E+00  0.00000000000E+00 -0.12497183584E+04  0.12497183584E+04  0.25500000920E-02 0. -1.
    10030    2    1    2    0    0  0.00000000000E+00  0.00000000000E+00  0.20839512781E+03  0.27078318446E+04  0.26998008759E+04 0.  0.
        2    1    3    3  502    0 -0.18994294413E+03 -0.88620969472E+03 -0.89917080265E+03  0.12766965487E+04  0.25500000920E-02 0. -1.
       -2    1    3    3    0  502  0.18994294413E+03  0.88620969472E+03  0.11075659305E+04  0.14311352960E+04  0.25500000920E-02 0.  1.
</event>
<event>
 5   0  0.4448804E-06  0.2704183E+04  0.7818609E-02  0.8333649E-01
        2   -1    0    0  501    0  0.00000000000E+00  0.00000000000E+00  0.10433277507E+04  0.10433277507E+04  0.25500000920E-02 0.  1.
       -2   -1    0    0    0  501  0.00000000000E+00  0.00000000000E+00 -0.17522308078E+04  0.17522308078E+04  0.25500000920E-02 0. -1.
    10030    2    1    2    0    0  0.00000000000E+00  0.00000000000E+00 -0.70890305713E+03  0.27955585585E+04  0.27041827064E+04 0.  0.
        2    1    3    3  502    0 -0.40576109420E+03 -0.38044062729E+02 -0.16872243324E+04  0.17357463421E+04  0.25500000920E-02 0. -1.
       -2    1    3    3    0  502  0.40576109420E+03  0.38044062729E+02  0.97832127531E+03  0.10598122164E+04  0.25500000920E-02 0.  1.
</event>
<event>
 5   0  0.1732312E-06  0.2717316E+04  0.7818609E-02  0.8329408E-01
        1   -1    0    0  501    0  0.00000000000E+00  0.00000000000E+00  0.20916190755E+04  0.20916190755E+04  0.50400001928E-02 0. -1.
       -1   -1    0    0    0  501  0.00000000000E+00  0.00000000000E+00 -0.88254681885E+03  0.88254681886E+03  0.50400001928E-02 0.  1.
    10030    2    1    2    0    0  0.00000000000E+00  0.00000000000E+00  0.12090722566E+04  0.29741658943E+04  0.27173161475E+04 0.  0.
        5    1    3    3  502    0 -0.91738332167E+03 -0.37755104858E+03  0.16206126812E+04  0.19001432855E+04  0.46999998093E+01 0. -1.
       -5    1    3    3    0  502  0.91738332167E+03  0.37755104858E+03 -0.41154042456E+03  0.10740226088E+04  0.46999998093E+01 0.  1.
</event>
<event>
 5   0  0.1723605E-06  0.2724818E+04  0.7818609E-02  0.8326997E-01
       -1   -1    0    0    0  501  0.00000000000E+00  0.00000000000E+00  0.10573454713E+04  0.10573454714E+04  0.50400001928E-02 0. -1.
        1   -1    0    0  501    0  0.00000000000E+00  0.00000000000E+00 -0.17554892312E+04  0.17554892312E+04  0.50400001928E-02 0.  1.
    10030    2    1    2    0    0  0.00000000000E+00  0.00000000000E+00 -0.69814375986E+03  0.28128347026E+04  0.27248182241E+04 0.  0.
        1    1    3    3  502    0 -0.31865246247E+03 -0.86444090240E+03  0.68702238370E+03  0.11492594230E+04  0.50400001928E-02 0. -1.
       -1    1    3    3    0  502  0.31865246247E+03  0.86444090240E+03 -0.13851661436E+04  0.16635752796E+04  0.50400001928E-02 0.  1.
</event>
<event>
 5   0  0.4448804E-06  0.2692519E+04  0.7818609E-02  0.8337436E-01
        2   -1    0    0  501    0  0.00000000000E+00  0.00000000000E+00  0.13822567747E+04  0.13822567747E+04  0.25500000920E-02 0.  1.
       -2   -1    0    0    0  501  0.00000000000E+00  0.00000000000E+00 -0.13111997464E+04  0.13111997464E+04  0.25500000920E-02 0. -1.
    10030    2    1    2    0    0  0.00000000000E+00  0.00000000000E+00  0.71057028253E+02  0.26934565211E+04  0.26925190677E+04 0.  0.
        2    1    3    3  502    0  0.10232246034E+04  0.87470118160E+03  0.17522627121E+02  0.13462532409E+04  0.25500000920E-02 0.  1.
       -2    1    3    3    0  502 -0.10232246034E+04 -0.87470118160E+03  0.53534401132E+02  0.13472032802E+04  0.25500000920E-02 0. -1.
</event>
<event>
 5   0  0.4448804E-06  0.2704420E+04  0.7818609E-02  0.8333572E-01
       -2   -1    0    0    0  501  0.00000000000E+00  0.00000000000E+00  0.15096877650E+04  0.15096877650E+04  0.25500000920E-02 0.  1.
        2   -1    0    0  501    0  0.00000000000E+00  0.00000000000E+00 -0.12111590570E+04  0.12111590570E+04  0.25500000920E-02 0. -1.
    10030    2    1    2    0    0  0.00000000000E+00  0.00000000000E+00  0.29852870796E+03  0.27208468220E+04  0.27044200930E+04 0.  0.
        2    1    3    3  502    0  0.79347463597E+03  0.16174582391E+03 -0.94022988512E+03  0.12408851463E+04  0.25500000920E-02 0. -1.
       -2    1    3    3    0  502 -0.79347463597E+03 -0.16174582391E+03  0.12387585931E+04  0.14799616757E+04  0.25500000920E-02 0.  1.
</event>
<event>
 5   0  0.4487186E-06  0.2656098E+04  0.7818609E-02  0.8349392E-01
       -2   -1    0    0    0  501  0.00000000000E+00  0.00000000000E+00  0.22572123014E+04  0.22572123014E+04  0.25500000920E-02 0.  1.
        2   -1    0    0  501    0  0.00000000000E+00  0.00000000000E+00 -0.78136841236E+03  0.78136841236E+03  0.25500000920E-02 0. -1.
    10030    2    1    2    0    0  0.00000000000E+00  0.00000000000E+00  0.14758438890E+04  0.30385807137E+04  0.26560981851E+04 0.  0.
        3    1    3    3  502    0  0.13071788587E+04  0.12980297333E+03  0.96136570952E+03  0.16278173786E+04  0.10100000352E+00 0. -1.
       -3    1    3    3    0  502 -0.13071788587E+04 -0.12980297333E+03  0.51447817947E+03  0.14107633351E+04  0.10100000352E+00 0.  1.
</event>
<event>
 5   0  0.1771016E-06  0.2701537E+04  0.7818609E-02  0.8334507E-01
        1   -1    0    0  501    0  0.00000000000E+00  0.00000000000E+00  0.17071288530E+04  0.17071288530E+04  0.50400001928E-02 0.  1.
       -1   -1    0    0    0  501  0.00000000000E+00  0.00000000000E+00 -0.10687975168E+04  0.10687975169E+04  0.50400001928E-02 0. -1.
    10030    2    1    2    0    0  0.00000000000E+00  0.00000000000E+00  0.63833133614E+03  0.27759263699E+04  0.27015366583E+04 0.  0.
        2    1    3    3  502    0 -0.12481927231E+04 -0.31808036348E+03 -0.98745882222E+02  0.12918633600E+04  0.25500000920E-02 0.  1.
       -2    1    3    3    0  502  0.12481927231E+04  0.31808036348E+03  0.73707721837E+03  0.14840630099E+04  0.25500000920E-02 0. -1.
</event>
<event>
 5   0  0.1723605E-06  0.2696161E+04  0.7818609E-02  0.8336252E-01
       -1   -1    0    0    0  501  0.00000000000E+00  0.00000000000E+00  0.98873565484E+03  0.98873565485E+03  0.50400001928E-02 0.  1.
        1   -1    0    0  501    0  0.00000000000E+00  0.00000000000E+00 -0.18380245137E+04  0.18380245137E+04  0.50400001928E-02 0. -1.
    10030    2    1    2    0    0  0.00000000000E+00  0.00000000000E+00 -0.84928885885E+03  0.28267601685E+04  0.26961605080E+04 0.  0.
        1    1    3    3  502    0 -0.70656647433E+03 -0.75718703084E+03 -0.13294370625E+04  0.16852214352E+04  0.50400001928E-02 0. -1.
       -1    1    3    3    0  502  0.70656647433E+03  0.75718703084E+03  0.48014820366E+03  0.11415387334E+04  0.50400001928E-02 0.  1.
</event>
<event>
 5   0  0.4448804E-06  0.2701521E+04  0.7818609E-02  0.8334512E-01
        2   -1    0    0  501    0  0.00000000000E+00  0.00000000000E+00  0.16189260369E+04  0.16189260369E+04  0.25500000920E-02 0. -1.
       -2   -1    0    0    0  501  0.00000000000E+00  0.00000000000E+00 -0.11270146200E+04  0.11270146200E+04  0.25500000920E-02 0.  1.
    10030    2    1    2    0    0  0.00000000000E+00  0.00000000000E+00  0.49191141685E+03  0.27459406569E+04  0.27015205439E+04 0.  0.
        2    1    3    3  502    0 -0.34241319492E+03  0.11547011826E+04  0.86754316125E+03  0.14843223214E+04  0.25500000920E-02 0. -1.
       -2    1    3    3    0  502  0.34241319492E+03 -0.11547011826E+04 -0.37563174439E+03  0.12616183355E+04  0.25500000920E-02 0.  1.
</event>
<event>
 5   0  0.4401659E-06  0.2693346E+04  0.7818609E-02  0.8337167E-01
        2   -1    0    0  501    0  0.00000000000E+00  0.00000000000E+00  0.17941189706E+04  0.17941189706E+04  0.25500000920E-02 0. -1.
       -2   -1    0    0    0  501  0.00000000000E+00  0.00000000000E+00 -0.10108179611E+04  0.10108179611E+04  0.25500000920E-02 0.  1.
    10030    2    1    2    0    0  0.00000000000E+00  0.00000000000E+00  0.78330100947E+03  0.28049369317E+04  0.26933456368E+04 0.  0.
        5    1    3    3  502    0 -0.64695088637E+03 -0.50766259245E+03  0.15022484130E+04  0.17126117895E+04  0.46999998093E+01 0. -1.
       -5    1    3    3    0  502  0.64695088637E+03  0.50766259245E+03 -0.71894740357E+03  0.10923251422E+04  0.46999998093E+01 0.  1.
</event>
<event>
 5   0  0.1771016E-06  0.2698894E+04  0.7818609E-02  0.8335364E-01
        1   -1    0    0  501    0  0.00000000000E+00  0.00000000000E+00  0.30101533527E+04  0.30101533527E+04  0.50400001928E-02 0.  1.
       -1   -1    0    0    0  501  0.00000000000E+00  0.00000000000E+00 -0.60495506262E+03  0.60495506264E+03  0.50400001928E-02 0. -1.
    10030    2    1    2    0    0  0.00000000000E+00  0.00000000000E+00  0.24051982901E+04  0.36151084154E+04  0.26988942254E+04 0.  0.
        2    1    3    3  502    0  0.61208585822E+03  0.22011884207E+03 -0.38110649430E+03  0.75388564283E+03  0.25500000920E-02 0. -1.
       -2    1    3    3    0  502 -0.61208585822E+03 -0.22011884207E+03  0.27863047844E+04  0.28612227725E+04  0.25500000920E-02 0.  1.
</event>
<event>
 5   0  0.1732312E-06  0.2706361E+04  0.7818609E-02  0.8332944E-01
       -1   -1    0    0    0  501  0.00000000000E+00  0.00000000000E+00  0.14548568357E+04  0.14548568357E+04  0.50400001928E-02 0.  1.
        1   -1    0    0  501    0  0.00000000000E+00  0.00000000000E+00 -0.12586101104E+04  0.12586101104E+04  0.50400001928E-02 0. -1.
    10030    2    1    2    0    0  0.00000000000E+00  0.00000000000E+00  0.19624672525E+03  0.27134669461E+04  0.27063610421E+04 0.  0.
        5    1    3    3  502    0 -0.11498594111E+04  0.23915161780E+03 -0.57573152319E+03  0.13079981034E+04  0.46999998093E+01 0. -1.
       -5    1    3    3    0  502  0.11498594111E+04 -0.23915161780E+03  0.77197824844E+03  0.14054688427E+04  0.46999998093E+01 0.  1.
</event>
<event>
 5   0  0.4439357E-06  0.2703659E+04  0.7818609E-02  0.8333819E-01
        2   -1    0    0  501    0  0.00000000000E+00  0.00000000000E+00  0.19886850226E+04  0.19886850226E+04  0.25500000920E-02 0.  1.
       -2   -1    0    0    0  501  0.00000000000E+00  0.00000000000E+00 -0.91892003230E+03  0.91892003230E+03  0.25500000920E-02 0. -1.
    10030    2    1    2    0    0  0.00000000000E+00  0.00000000000E+00  0.10697649903E+04  0.29076050549E+04  0.27036586361E+04 0.  0.
        4    1    3    3  502    0 -0.66603470649E+02 -0.10018227463E+04 -0.43858149786E+03  0.10956460105E+04  0.12699999809E+01 0. -1.
       -4    1    3    3    0  502  0.66603470649E+02  0.10018227463E+04  0.15083464881E+04  0.18119590443E+04  0.12699999809E+01 0.  1.
</event>
<event>
 5   0  0.1753474E-06  0.2704049E+04  0.7818609E-02  0.8333693E-01
       -1   -1    0    0    0  501  0.00000000000E+00  0.00000000000E+00  0.15244166093E+04  0.15244166093E+04  0.50400001928E-02 0. -1.
        1   -1    0    0  501    0  0.00000000000E+00  0.00000000000E+00 -0.11991274097E+04  0.11991274097E+04  0.50400001928E-02 0.  1.
    10030    2    1    2    0    0  0.00000000000E+00  0.00000000000E+00  0.32528919955E+03  0.27235440190E+04  0.27040486239E+04 0.  0.
        3    1    3    3  502    0  0.10041191862E+04  0.69937304763E+03  0.74176104099E+03  0.14309393600E+04  0.10100000352E+00 0.  1.
       -3    1    3    3    0  502 -0.10041191862E+04 -0.69937304763E+03 -0.41647184144E+03  0.12926046591E+04  0.10100000352E+00 0. -1.
</event>
<event>
 5   0  0.1771016E-06  0.2700626E+04  0.7818609E-02  0.8334802E-01
       -1   -1    0    0    0  501  0.00000000000E+00  0.00000000000E+00  0.22557307092E+04  0.22557307092E+04  0.50400001928E-02 0. -1.
        1   -1    0    0  501    0  0.00000000000E+00  0.00000000000E+00 -0.80831714762E+03  0.80831714764E+03  0.50400001928E-02 0.  1.
    10030    2    1    2    0    0  0.00000000000E+00  0.00000000000E+00  0.14474135616E+04  0.30640478569E+04  0.27006264553E+04 0.  0.
        2    1    3    3  502    0 -0.20956814090E+03  0.65262900510E+03  0.20436660794E+04  0.21555543297E+04  0.25500000920E-02 0. -1.
       -2    1    3    3    0  502  0.20956814090E+03 -0.65262900510E+03 -0.59625251781E+03  0.90849352721E+03  0.25500000920E-02 0.  1.
</event>
<event>
 5   0  0.4448804E-06  0.2701033E+04  0.7818609E-02  0.8334670E-01
       -2   -1    0    0    0  501  0.00000000000E+00  0.00000000000E+00  0.11845658648E+04  0.11845658648E+04  0.25500000920E-02 0. -1.
        2   -1    0    0  501    0  0.00000000000E+00  0.00000000000E+00 -0.15397153743E+04  0.15397153743E+04  0.25500000920E-02 0.  1.
    10030    2    1    2    0    0  0.00000000000E+00  0.00000000000E+00 -0.35514950944E+03  0.27242812391E+04  0.27010325980E+04 0.  0.
        2    1    3    3  502    0 -0.76161585523E+01  0.11036038309E+04  0.60751759502E+03  0.12597924629E+04  0.25500000920E-02 0. -1.
       -2    1    3    3    0  502  0.76161585523E+01 -0.11036038309E+04 -0.96266710447E+03  0.14644887761E+04  0.25500000920E-02 0.  1.
</event>
<event>
 5   0  0.4401659E-06  0.2698721E+04  0.7818609E-02  0.8335420E-01
       -2   -1    0    0    0  501  0.00000000000E+00  0.00000000000E+00  0.20715156050E+04  0.20715156050E+04  0.25500000920E-02 0.  1.
        2   -1    0    0  501    0  0.00000000000E+00  0.00000000000E+00 -0.87895711753E+03  0.87895711754E+03  0.25500000920E-02 0. -1.
    10030    2    1    2    0    0  0.00000000000E+00  0.00000000000E+00  0.11925584874E+04  0.29504727225E+04  0.26987207229E+04 0.  0.
        5    1    3    3  502    0  0.36317687578E+03  0.26377675296E+03  0.19874936176E+04  0.20375545609E+04  0.46999998093E+01 0.  1.
       -5    1    3    3    0  502 -0.36317687578E+03 -0.26377675296E+03 -0.79493513022E+03  0.91291816159E+03  0.46999998093E+01 0. -1.
</event>
<event>
 5   0  0.1828511E-06  0.2681870E+04  0.7818609E-02  0.8340911E-01
       -1   -1    0    0    0  501  0.00000000000E+00  0.00000000000E+00  0.13981079717E+04  0.13981079717E+04  0.50400001928E-02 0. -1.
        1   -1    0    0  501    0  0.00000000000E+00  0.00000000000E+00 -0.12861004691E+04  0.12861004691E+04  0.50400001928E-02 0.  1.
    10030    2    1    2    0    0  0.00000000000E+00  0.00000000000E+00  0.11200750254E+03  0.26842084408E+04  0.26818704803E+04 0.  0.
        4    1    3    3  502    0  0.54218249168E+03 -0.92408639735E+03  0.86306157621E+03  0.13757813857E+04  0.12699999809E+01 0. -1.
       -4    1    3    3    0  502 -0.54218249168E+03  0.92408639735E+03 -0.75105407367E+03  0.13084270551E+04  0.12699999809E+01 0.  1.
</event>
<event>
 5   0  0.4401659E-06  0.2718074E+04  0.7818609E-02  0.8329164E-01
        2   -1    0    0  501    0  0.00000000000E+00  0.00000000000E+00  0.22686961153E+04  0.22686961153E+04  0.25500000920E-02 0. -1.
       -2   -1    0    0    0  501  0.00000000000E+00  0.00000000000E+00 -0.81411607481E+03  0.81411607481E+03  0.25500000920E-02 0.  1.
    10030    2    1    2    0    0  0.00000000000E+00  0.00000000000E+00  0.14545800405E+04  0.30828121901E+04  0.27180743009E+04 0.  0.
        5    1    3    3  502    0  0.58220702850E+03 -0.60581212197E+03 -0.48421718923E+03  0.96977406003E+03  0.46999998093E+01 0.  1.
       -5    1    3    3    0  502 -0.58220702850E+03  0.60581212197E+03  0.19387972297E+04  0.21130381301E+04  0.46999998093E+01 0. -1.
</event>
<event>
 5   0  0.1753474E-06  0.2628160E+04  0.7818609E-02  0.8358698E-01
        1   -1    0    0  501    0  0.00000000000E+00  0.00000000000E+00  0.10111605310E+04  0.10111605310E+04  0.50400001928E-02 0.  1.
       -1   -1    0    0    0  501  0.00000000000E+00  0.00000000000E+00 -0.17077468021E+04  0.17077468021E+04  0.50400001928E-02 0. -1.
    10030    2    1    2    0    0  0.00000000000E+00  0.00000000000E+00 -0.69658627112E+03  0.27189073331E+04  0.26281599367E+04 0.  0.
        3    1    3    3  502    0  0.10057090546E+04 -0.17174847836E+03  0.50846786913E+03  0.11399508000E+04  0.10100000352E+00 0.  1.
       -3    1    3    3    0  502 -0.10057090546E+04  0.17174847836E+03 -0.12050541403E+04  0.15789565331E+04  0.10100000352E+00 0. -1.
</event>
<event>
 5   0  0.4448804E-06  0.2695211E+04  0.7818609E-02  0.8336560E-01
        2   -1    0    0  501    0  0.00000000000E+00  0.00000000000E+00  0.98862217050E+03  0.98862217050E+03  0.25500000920E-02 0.  1.
       -2   -1    0    0    0  501  0.00000000000E+00  0.00000000000E+00 -0.18369412471E+04  0.18369412471E+04  0.25500000920E-02 0. -1.
    10030    2    1    2    0    0  0.00000000000E+00  0.00000000000E+00 -0.84831907662E+03  0.28255634176E+04  0.26952111923E+04 0.  0.
        2    1    3    3  502    0  0.10510448454E+03  0.81781139382E+03  0.69330956623E+03  0.10772838916E+04  0.25500000920E-02 0.  1.
       -2    1    3    3    0  502 -0.10510448454E+03 -0.81781139382E+03 -0.15416286428E+04  0.17482795260E+04  0.25500000920E-02 0. -1.
</event>
<event>
 5   0  0.4487186E-06  0.2723791E+04  0.7818609E-02  0.8327327E-01
       -2   -1    0    0    0  501  0.00000000000E+00  0.00000000000E+00  0.79983534382E+03  0.79983534382E+03  0.25500000920E-02 0.  1.
        2   -1    0    0  501    0  0.00000000000E+00  0.00000000000E+00 -0.23189265994E+04  0.23189265994E+04  0.25500000920E-02 0. -1.
    10030    2    1    2    0    0  0.00000000000E+00  0.00000000000E+00 -0.15190912556E+04  0.31187619432E+04  0.27237910742E+04 0.  0.
        3    1    3    3  502    0  0.85215020783E+02  0.10571561253E+04 -0.17377862647E+04  0.20358638916E+04  0.10100000352E+00 0. -1.
       -3    1    3    3    0  502 -0.85215020783E+02 -0.10571561253E+04  0.21869500915E+03  0.10828980516E+04  0.10100000352E+00 0.  1.
</event>
<event>
 5   0  0.4655882E-06  0.2703865E+04  0.7818609E-02  0.8333752E-01
       -2   -1    0    0    0  501  0.00000000000E+00  0.00000000000E+00  0.75466924660E+03  0.75466924661E+03  0.25500000920E-02 0. -1.
        2   -1    0    0  501    0  0.00000000000E+00  0.00000000000E+00 -0.24218845071E+04  0.24218845071E+04  0.25500000920E-02 0.  1.
    10030    2    1    2    0    0  0.00000000000E+00  0.00000000000E+00 -0.16672152605E+04  0.31765537538E+04  0.27038652011E+04 0.  0.
        1    1    3    3  502    0  0.11914809221E+04  0.16050966232E+03 -0.10718179881E+03  0.12070120453E+04  0.50400001928E-02 0. -1.
       -1    1    3    3    0  502 -0.11914809221E+04 -0.16050966232E+03 -0.15600334617E+04  0.19695417084E+04  0.50400001928E-02 0.  1.
</event>
<event>
 5   0  0.1723605E-06  0.2672645E+04  0.7818609E-02  0.8343936E-01
       -1   -1    0    0    0  501  0.00000000000E+00  0.00000000000E+00  0.96986770881E+03  0.96986770882E+03  0.50400001928E-02 0.  1.
        1   -1    0    0  501    0  0.00000000000E+00  0.00000000000E+00 -0.18412382101E+04  0.18412382101E+04  0.50400001928E-02 0. -1.
    10030    2    1    2    0    0  0.00000000000E+00  0.00000000000E+00 -0.87137050125E+03  0.28111059189E+04  0.26726447457E+04 0.  0.
        1    1    3    3  502    0  0.69429018091E+03 -0.34608159828E+03 -0.15801487611E+04  0.17603071991E+04  0.50400001928E-02 0. -1.
       -1    1    3    3    0  502 -0.69429018091E+03  0.34608159828E+03  0.70877825981E+03  0.10507987198E+04  0.50400001928E-02 0.  1.
</event>
<event>
 5   0  0.4487186E-06  0.2703061E+04  0.7818609E-02  0.8334012E-01
       -2   -1    0    0    0  501  0.00000000000E+00  0.00000000000E+00  0.12950658991E+04  0.12950658991E+04  0.25500000920E-02 0. -1.
        2   -1    0    0  501    0  0.00000000000E+00  0.00000000000E+00 -0.14104570031E+04  0.14104570031E+04  0.25500000920E-02 0.  1.
    10030    2    1    2    0    0  0.00000000000E+00  0.00000000000E+00 -0.11539110398E+03  0.27055229022E+04  0.27030610551E+04 0.  0.
        3    1    3    3  502    0  0.95655180201E+02  0.58597473996E+03  0.11575430313E+04  0.13009312775E+04  0.10100000352E+00 0. -1.
       -3    1    3    3    0  502 -0.95655180201E+02 -0.58597473996E+03 -0.12729341352E+04  0.14045916247E+04  0.10100000352E+00 0.  1.
</event>
<event>
 5   0  0.1828511E-06  0.2698819E+04  0.7818609E-02  0.8335388E-01
       -1   -1    0    0    0  501  0.00000000000E+00  0.00000000000E+00  0.25383146787E+04  0.25383146787E+04  0.50400001928E-02 0.  1.
        1   -1    0    0  501    0  0.00000000000E+00  0.00000000000E+00 -0.71736817001E+03  0.71736817003E+03  0.50400001928E-02 0. -1.
    10030    2    1    2    0    0  0.00000000000E+00  0.00000000000E+00  0.18209465087E+04  0.32556828487E+04  0.26988191166E+04 0.  0.
        4    1    3    3  502    0  0.53605983182E+03  0.11650660305E+04  0.14167975870E+04  0.19110353252E+04  0.12699999809E+01 0.  1.
       -4    1    3    3    0  502 -0.53605983182E+03 -0.11650660305E+04  0.40414892174E+03  0.13446475236E+04  0.12699999809E+01 0. -1.
</event>
<event>
 5   0  0.4401659E-06  0.2642690E+04  0.7818609E-02  0.8353843E-01
        2   -1    0    0  501    0  0.00000000000E+00  0.00000000000E+00  0.16851519439E+04  0.16851519439E+04  0.25500000920E-02 0. -1.
       -2   -1    0    0    0  501  0.00000000000E+00  0.00000000000E+00 -0.10360805935E+04  0.10360805935E+04  0.25500000920E-02 0.  1.
    10030    2    1    2    0    0  0.00000000000E+00  0.00000000000E+00  0.64907135040E+03  0.27212325374E+04  0.26426904671E+04 0.  0.
        5    1    3    3  502    0  0.49541928442E+03  0.17937620488E+02 -0.93668030971E+03  0.10597896575E+04  0.46999998093E+01 0.  1.
       -5    1    3    3    0  502 -0.49541928442E+03 -0.17937620488E+02  0.15857516601E+04  0.16614428799E+04  0.46999998093E+01 0. -1.
</event>
<event>
 5   0  0.1828511E-06  0.2709023E+04  0.7818609E-02  0.8332083E-01
        1   -1    0    0  501    0  0.00000000000E+00  0.00000000000E+00  0.13416061296E+04  0.13416061297E+04  0.50400001928E-02 0. -1.
       -1   -1    0    0    0  501  0.00000000000E+00  0.00000000000E+00 -0.13675414282E+04  0.13675414282E+04  0.50400001928E-02 0.  1.
    10030    2    1    2    0    0  0.00000000000E+00  0.00000000000E+00 -0.25935298530E+02  0.27091475578E+04  0.27090234127E+04 0.  0.
        4    1    3    3  502    0 -0.11284633646E+03  0.65924899530E+03 -0.11908827458E+04  0.13658502336E+04  0.12699999809E+01 0.  1.
       -4    1    3    3    0  502  0.11284633646E+03 -0.65924899530E+03  0.11649474473E+04  0.13432973242E+04  0.12699999809E+01 0. -1.
</event>
<event>
 5   0  0.1732312E-06  0.2693428E+04  0.7818609E-02  0.8337140E-01
       -1   -1    0    0    0  501  0.00000000000E+00  0.00000000000E+00  0.15617923130E+04  0.15617923130E+04  0.50400001928E-02 0.  1.
        1   -1    0    0  501    0  0.00000000000E+00  0.00000000000E+00 -0.11612547360E+04  0.11612547360E+04  0.50400001928E-02 0. -1.
    10030    2    1    2    0    0  0.00000000000E+00  0.00000000000E+00  0.40053757695E+03  0.27230470490E+04  0.26934280908E+04 0.  0.
        5    1    3    3  502    0 -0.26758494296E+03 -0.68785332658E+02  0.15328236812E+04  0.15575312681E+04  0.46999998093E+01 0.  1.
       -5    1    3    3    0  502  0.26758494296E+03  0.68785332658E+02 -0.11322861042E+04  0.11655157809E+04  0.46999998093E+01 0. -1.
</event>
<event>
 5   0  0.4655882E-06  0.2699192E+04  0.7818609E-02  0.8335267E-01
       -2   -1    0    0    0  501  0.00000000000E+00  0.00000000000E+00  0.11575418375E+04  0.11575418375E+04  0.25500000920E-02 0.  1.
        2   -1    0    0  501    0  0.00000000000E+00  0.00000000000E+00 -0.15735150002E+04  0.15735150002E+04  0.25500000920E-02 0. -1.
    10030    2    1    2    0    0  0.00000000000E+00  0.00000000000E+00 -0.41597316276E+03  0.27310568377E+04  0.26991920603E+04 0.  0.
        1    1    3    3  502    0 -0.22174081158E+02  0.40285523553E+03  0.10950935068E+04  0.11670534775E+04  0.50400001928E-02 0.  1.
       -1    1    3    3    0  502  0.22174081158E+02 -0.40285523553E+03 -0.15110666696E+04  0.15640033602E+04  0.50400001928E-02 0. -1.
</event>
<event>
 5   0  0.4439357E-06  0.2711795E+04  0.7818609E-02  0.8331188E-01
       -2   -1    0    0    0  501  0.00000000000E+00  0.00000000000E+00  0.19044625114E+04  0.19044625114E+04  0.25500000920E-02 0. -1.
        2   -1    0    0  501    0  0.00000000000E+00  0.00000000000E+00 -0.96534214215E+03  0.96534214216E+03  0.25500000920E-02 0.  1.
    10030    2    1    2    0    0  0.00000000000E+00  0.00000000000E+00  0.93912036924E+03  0.28698046536E+04  0.27117949188E+04 0.  0.
        4    1    3    3  502    0 -0.35976183326E+03 -0.10095731612E+03 -0.90977920247E+03  0.98352466492E+03  0.12699999809E+01 0.  1.
       -4    1    3    3    0  502  0.35976183326E+03  0.10095731612E+03  0.18488995717E+04  0.18862799886E+04  0.12699999809E+01 0. -1.
</event>
<event>
 5   0  0.4487186E-06  0.2698906E+04  0.7818609E-02  0.8335360E-01
       -2   -1    0    0    0  501  0.00000000000E+00  0.00000000000E+00  0.59460435204E+03  0.59460435204E+03  0.25500000920E-02 0.  1.
        2   -1    0    0  501    0  0.00000000000E+00  0.00000000000E+00 -0.30625800980E+04  0.30625800980E+04  0.25500000920E-02 0. -1.
    10030    2    1    2    0    0  0.00000000000E+00  0.00000000000E+00 -0.24679757460E+04  0.36571844501E+04  0.26989060412E+04 0.  0.
        3    1    3    3  502    0 -0.84053725043E+03 -0.57467505368E+03 -0.33959077805E+02  0.10187774614E+04  0.10100000352E+00 0.  1.
       -3    1    3    3    0  502  0.84053725043E+03  0.57467505368E+03 -0.24340166682E+04  0.26384069887E+04  0.10100000352E+00 0. -1.
</event>
<event>
 5   0  0.1828511E-06  0.2721895E+04  0.7818609E-02  0.8327936E-01
       -1   -1    0    0    0  501  0.00000000000E+00  0.00000000000E+00  0.13588835432E+04  0.13588835432E+04  0.50400001928E-02 0.  1.
        1   -1    0    0  501    0  0.00000000000E+00  0.00000000000E+00 -0.13630148839E+04  0.13630148839E+04  0.50400001928E-02 0. -1.
    10030    2    1    2    0    0  0.00000000000E+00  0.00000000000E+00 -0.41313407110E+01  0.27218984271E+04  0.27218952918E+04 0.  0.
        4    1    3    3  502    0 -0.12248782952E+04  0.58023990848E+03 -0.12523923711E+03  0.13611361684E+04  0.12699999809E+01 0. -1.
       -4    1    3    3    0  502  0.12248782952E+04 -0.58023990848E+03  0.12110789640E+03  0.13607622588E+04  0.12699999809E+01 0.  1.
</event>
<event>
 5   0  0.1771016E-06  0.2696322E+04  0.7818609E-02  0.8336199E-01
       -1   -1    0    0    0  501  0.00000000000E+00  0.00000000000E+00  0.14286894702E+04  0.14286894702E+04  0.50400001928E-02 0. -1.
        1   -1    0    0  501    0  0.00000000000E+00  0.00000000000E+00 -0.12721714090E+04  0.12721714090E+04  0.50400001928E-02 0.  1.
    10030    2    1    2    0    0  0.00000000000E+00  0.00000000000E+00  0.15651806120E+03  0.27008608792E+04  0.26963218624E+04 0.  0.
        2    1    3    3  502    0  0.81109552628E+03 -0.52611032007E+03 -0.86293427671E+03  0.12958871816E+04  0.25500000920E-02 0.  1.
       -2    1    3    3    0  502 -0.81109552628E+03  0.52611032007E+03  0.10194523379E+04  0.14049736976E+04  0.25500000920E-02 0. -1.
</event>
<event>
 5   0  0.4401659E-06  0.2704855E+04  0.7818609E-02  0.8333432E-01
       -2   -1    0    0    0  501  0.00000000000E+00  0.00000000000E+00  0.69365269735E+03  0.69365269736E+03  0.25500000920E-02 0. -1.
        2   -1    0    0  501    0  0.00000000000E+00  0.00000000000E+00 -0.26368523393E+04  0.26368523393E+04  0.25500000920E-02 0.  1.
    10030    2    1    2    0    0  0.00000000000E+00  0.00000000000E+00 -0.19431996419E+04  0.33305050366E+04  0.27048547005E+04 0.  0.
        5    1    3    3  502    0 -0.40549494982E+03 -0.31076968026E+03  0.57025630339E+03  0.76564893394E+03  0.46999998093E+01 0. -1.
       -5    1    3    3    0  502  0.40549494982E+03  0.31076968026E+03 -0.25134559453E+04  0.25648561027E+04  0.46999998093E+01 0.  1.
</event>
<event>
 5   0  0.1723605E-06  0.2690530E+04  0.7818609E-02  0.8338084E-01
       -1   -1    0    0    0  501  0.00000000000E+00  0.00000000000E+00  0.86822634061E+03  0.86822634063E+03  0.50400001928E-02 0.  1.
        1   -1    0    0  501    0  0.00000000000E+00  0.00000000000E+00 -0.20844086147E+04  0.20844086147E+04  0.50400001928E-02 0. -1.
    10030    2    1    2    0    0  0.00000000000E+00  0.00000000000E+00 -0.12161822741E+04  0.29526349553E+04  0.26905304041E+04 0.  0.
        1    1    3    3  502    0 -0.87448894838E+03  0.67936545085E+03  0.23017353905E+03  0.11310385470E+04  0.50400001928E-02 0.  1.
       -1    1    3    3    0  502  0.87448894838E+03 -0.67936545085E+03 -0.14463558131E+04  0.18215964083E+04  0.50400001928E-02 0. -1.
</event>
<event>
 5   0  0.4487186E-06  0.2721665E+04  0.7818609E-02  0.8328010E-01
       -2   -1    0    0    0  501  0.00000000000E+00  0.00000000000E+00  0.13597327886E+04  0.13597327886E+04  0.25500000920E-02 0. -1.
        2   -1    0    0  501    0  0.00000000000E+00  0.00000000000E+00 -0.13619328146E+04  0.13619328147E+04  0.25500000920E-02 0.  1.
    10030    2    1    2    0    0  0.00000000000E+00  0.00000000000E+00 -0.22000260704E+01  0.27216656032E+04  0.27216647140E+04 0.  0.
        3    1    3    3  502    0  0.79011674848E+03 -0.10851217090E+04  0.22271045798E+03  0.13606518871E+04  0.10100000352E+00 0. -1.
       -3    1    3    3    0  502 -0.79011674848E+03  0.10851217090E+04 -0.22491048405E+03  0.13610137162E+04  0.10100000352E+00 0.  1.
</event>
<event>
 5   0  0.1771016E-06  0.2698245E+04  0.7818609E-02  0.8335575E-01
        1   -1    0    0  501    0  0.00000000000E+00  0.00000000000E+00  0.27193303313E+04  0.27193303313E+04  0.50400001928E-02 0.  1.
       -1   -1    0    0    0  501  0.00000000000E+00  0.00000000000E+00 -0.66933077765E+03  0.66933077767E+03  0.50400001928E-02 0. -1.
    10030    2    1    2    0    0  0.00000000000E+00  0.00000000000E+00  0.20499995537E+04  0.33886611090E+04  0.26982449743E+04 0.  0.
        2    1    3    3  502    0  0.12504348604E+04 -0.35708858428E+03  0.14761231073E+04  0.19672414761E+04  0.25500000920E-02 0. -1.
       -2    1    3    3    0  502 -0.12504348604E+04  0.35708858428E+03  0.57387644636E+03  0.14214196329E+04  0.25500000920E-02 0.  1.
</event>
<event>
 5   0  0.1828511E-06  0.2696609E+04  0.7818609E-02  0.8336106E-01
        1   -1    0    0  501    0  0.00000000000E+00  0.00000000000E+00  0.89980218513E+03  0.89980218514E+03  0.50400001928E-02 0.  1.
       -1   -1    0    0    0  501  0.00000000000E+00  0.00000000000E+00 -0.20203605845E+04  0.20203605845E+04  0.50400001928E-02 0. -1.
    10030    2    1    2    0    0  0.00000000000E+00  0.00000000000E+00 -0.11205583993E+04  0.29201627696E+04  0.26966088843E+04 0.  0.
        4    1    3    3  502    0  0.12868364725E+04 -0.36535954680E+03 -0.74305414067E+03  0.15302178845E+04  0.12699999809E+01 0.  1.
       -4    1    3    3    0  502 -0.12868364725E+04  0.36535954680E+03 -0.37750425865E+03  0.13899448851E+04  0.12699999809E+01 0. -1.
</event>
<event>
 5   0  0.4439357E-06  0.2696582E+04  0.7818609E-02  0.8336115E-01
        2   -1    0    0  501    0  0.00000000000E+00  0.00000000000E+00  0.21031180825E+04  0.21031180825E+04  0.25500000920E-02 0. -1.
       -2   -1    0    0    0  501  0.00000000000E+00  0.00000000000E+00 -0.86437758627E+03  0.86437758628E+03  0.25500000920E-02 0.  1.
    10030    2    1    2    0    0  0.00000000000E+00  0.00000000000E+00  0.12387404963E+04  0.29674956688E+04  0.26965816374E+04 0.  0.
        4    1    3    3  502    0 -0.11499786939E+04  0.70268924963E+03  0.66425172884E+03  0.15024829949E+04  0.12699999809E+01 0.  1.
       -4    1    3    3    0  502  0.11499786939E+04 -0.70268924963E+03  0.57448876743E+03  0.14650126739E+04  0.12699999809E+01 0. -1.
</event>
<event>
 5   0  0.1732312E-06  0.2711800E+04  0.7818609E-02  0.8331186E-01
       -1   -1    0    0    0  501  0.00000000000E+00  0.00000000000E+00  0.10213316360E+04  0.10213316360E+04  0.50400001928E-02 0. -1.
        1   -1    0    0  501    0  0.00000000000E+00  0.00000000000E+00 -0.18000669792E+04  0.18000669792E+04  0.50400001928E-02 0.  1.
    10030    2    1    2    0    0  0.00000000000E+00  0.00000000000E+00 -0.77873534326E+03  0.28213986152E+04  0.27118004003E+04 0.  0.
        5    1    3    3  502    0 -0.30903624345E+03 -0.67620231072E+03 -0.15690767233E+04  0.17363112677E+04  0.46999998093E+01 0.  1.
       -5    1    3    3    0  502  0.30903624345E+03  0.67620231072E+03  0.79034138001E+03  0.10850873475E+04  0.46999998093E+01 0. -1.
</event>
<event>
 5   0  0.4448804E-06  0.2698230E+04  0.7818609E-02  0.8335579E-01
        2   -1    0    0  501    0  0.00000000000E+00  0.00000000000E+00  0.13380005132E+04  0.13380005132E+04  0.25500000920E-02 0. -1.
       -2   -1    0    0    0  501  0.00000000000E+00  0.00000000000E+00 -0.13603221218E+04  0.13603221218E+04  0.25500000920E-02 0.  1.
    10030    2    1    2    0    0  0.00000000000E+00  0.00000000000E+00 -0.22321608623E+02  0.26983226351E+04  0.26982303068E+04 0.  0.
        2    1    3    3  502    0 -0.12055033440E+04  0.47750954208E+02  0.59267541755E+03  0.13441661418E+04  0.25500000920E-02 0. -1.
       -2    1    3    3    0  502  0.12055033440E+04 -0.47750954208E+02 -0.61499702618E+03  0.13541564933E+04  0.25500000920E-02 0.  1.
</event>
<event>
 5   0  0.1828511E-06  0.2698923E+04  0.7818609E-02  0.8335355E-01
       -1   -1    0    0    0  501  0.00000000000E+00  0.00000000000E+00  0.15091427118E+04  0.15091427118E+04  0.50400001928E-02 0. -1.
        1   -1    0    0  501    0  0.00000000000E+00  0.00000000000E+00 -0.12066759185E+04  0.12066759185E+04  0.50400001928E-02 0.  1.
    10030    2    1    2    0    0  0.00000000000E+00  0.00000000000E+00  0.30246679331E+03  0.27158186303E+04  0.26989228725E+04 0.  0.
        4    1    3    3  502    0 -0.85166493345E+03 -0.99261455020E+03  0.48562041034E+03  0.13951507445E+04  0.12699999809E+01 0. -1.
       -4    1    3    3    0  502  0.85166493345E+03  0.99261455020E+03 -0.18315361703E+03  0.13206678858E+04  0.12699999809E+01 0.  1.
</event>
<event>
 5   0  0.1723605E-06  0.2723834E+04  0.7818609E-02  0.8327313E-01
       -1   -1    0    0    0  501  0.00000000000E+00  0.00000000000E+00  0.13177555350E+04  0.13177555350E+04  0.50400001928E-02 0. -1.
        1   -1    0    0  501    0  0.00000000000E+00  0.00000000000E+00 -0.14075586070E+04  0.14075586070E+04  0.50400001928E-02 0.  1.
    10030    2    1    2    0    0  0.00000000000E+00  0.00000000000E+00 -0.89803071933E+02  0.27253141420E+04  0.27238341691E+04 0.  0.
        1    1    3    3  502    0 -0.21125727988E+03 -0.10076378582E+04  0.84712898123E+03  0.13332633657E+04  0.50400001928E-02 0. -1.
       -1    1    3    3    0  502  0.21125727988E+03  0.10076378582E+04 -0.93693205316E+03  0.13920507763E+04  0.50400001928E-02 0.  1.
</event>
<event>
 5   0  0.4448804E-06  0.2714954E+04  0.7818609E-02  0.8330169E-01
        2   -1    0    0  501    0  0.00000000000E+00  0.00000000000E+00  0.12365764029E+04  0.12365764029E+04  0.25500000920E-02 0.  1.
       -2   -1    0    0    0  501  0.00000000000E+00  0.00000000000E+00 -0.14901984212E+04  0.14901984212E+04  0.25500000920E-02 0. -1.
    10030    2    1    2    0    0  0.00000000000E+00  0.00000000000E+00 -0.25362201825E+03  0.27267748241E+04  0.27149542930E+04 0.  0.
        2    1    3    3  502    0  0.58730551529E+03 -0.14328971326E+03  0.10939167560E+04  0.12498454222E+04  0.25500000920E-02 0.  1.
       -2    1    3    3    0  502 -0.58730551529E+03  0.14328971326E+03 -0.13475387743E+04  0.14769294020E+04  0.25500000920E-02 0. -1.
</event>
<event>
 5   0  0.4655882E-06  0.2698202E+04  0.7818609E-02  0.8335588E-01
       -2   -1    0    0    0  501  0.00000000000E+00  0.00000000000E+00  0.11422657283E+04  0.11422657283E+04  0.25500000920E-02 0.  1.
        2   -1    0    0  501    0  0.00000000000E+00  0.00000000000E+00 -0.15933894492E+04  0.15933894492E+04  0.25500000920E-02 0. -1.
    10030    2    1    2    0    0  0.00000000000E+00  0.00000000000E+00 -0.45112372088E+03  0.27356551774E+04  0.26982024828E+04 0.  0.
        1    1    3    3  502    0  0.25410015992E+03  0.10106499771E+04 -0.10942474607E+04  0.15110783476E+04  0.50400001928E-02 0. -1.
       -1    1    3    3    0  502 -0.25410015992E+03 -0.10106499771E+04  0.64312373981E+03  0.12245768298E+04  0.50400001928E-02 0.  1.
</event>
<event>
 5   0  0.1771016E-06  0.2690241E+04  0.7818609E-02  0.8338178E-01
       -1   -1    0    0    0  501  0.00000000000E+00  0.00000000000E+00  0.12296922869E+04  0.12296922869E+04  0.50400001928E-02 0.  1.
        1   -1    0    0  501    0  0.00000000000E+00  0.00000000000E+00 -0.14713832533E+04  0.14713832533E+04  0.50400001928E-02 0. -1.
    10030    2    1    2    0    0  0.00000000000E+00  0.00000000000E+00 -0.24169096640E+03  0.27010755402E+04  0.26902406120E+04 0.  0.
        2    1    3    3  502    0  0.10147139364E+04  0.86070547393E+03 -0.31884609988E+03  0.13682547720E+04  0.25500000920E-02 0. -1.
       -2    1    3    3    0  502 -0.10147139364E+04 -0.86070547393E+03  0.77155133486E+02  0.13328207682E+04  0.25500000920E-02 0.  1.
</event>
<event>
 5   0  0.1753474E-06  0.2709657E+04  0.7818609E-02  0.8331878E-01
       -1   -1    0    0    0  501  0.00000000000E+00  0.00000000000E+00  0.10039292244E+04  0.10039292244E+04  0.50400001928E-02 0. -1.
        1   -1    0    0  501    0  0.00000000000E+00  0.00000000000E+00 -0.18283767446E+04  0.18283767446E+04  0.50400001928E-02 0.  1.
    10030    2    1    2    0    0  0.00000000000E+00  0.00000000000E+00 -0.82444752019E+03  0.28323059690E+04  0.27096574301E+04 0.  0.
        3    1    3    3  502    0  0.77945179859E+03  0.73809723526E+03  0.45176615160E+03  0.11646567310E+04  0.10100000352E+00 0. -1.
       -3    1    3    3    0  502 -0.77945179859E+03 -0.73809723526E+03 -0.12762136718E+04  0.16676492381E+04  0.10100000352E+00 0.  1.
</event>
<event>
 5   0  0.1723605E-06  0.2698381E+04  0.7818609E-02  0.8335531E-01
       -1   -1    0    0    0  501  0.00000000000E+00  0.00000000000E+00  0.14407519183E+04  0.14407519183E+04  0.50400001928E-02 0. -1.
        1   -1    0    0  501    0  0.00000000000E+00  0.00000000000E+00 -0.12634477641E+04  0.12634477641E+04  0.50400001928E-02 0.  1.
    10030    2    1    2    0    0  0.00000000000E+00  0.00000000000E+00  0.17730415426E+03  0.27041996824E+04  0.26983808403E+04 0.  0.
        1    1    3    3  502    0  0.11422786371E+04 -0.40323455480E+03 -0.50669648551E+03  0.13130650857E+04  0.50400001928E-02 0. -1.
       -1    1    3    3    0  502 -0.11422786371E+04  0.40323455480E+03  0.68400063978E+03  0.13911345967E+04  0.50400001928E-02 0.  1.
</event>
<event>
 5   0  0.4439357E-06  0.2647509E+04  0.7818609E-02  0.8352240E-01
        2   -1    0    0  501    0  0.00000000000E+00  0.00000000000E+00  0.19350582419E+04  0.19350582419E+04  0.25500000920E-02 0.  1.
       -2   -1    0    0    0  501  0.00000000000E+00  0.00000000000E+00 -0.90556763138E+03  0.90556763138E+03  0.25500000920E-02 0. -1.
    10030    2    1    2    0    0  0.00000000000E+00  0.00000000000E+00  0.10294906105E+04  0.28406258733E+04  0.26475091000E+04 0.  0.
        4    1    3    3  502    0 -0.12167773405E+04 -0.31271310637E+03  0.96228969315E+03  0.15825105528E+04  0.12699999809E+01 0.  1.
       -4    1    3    3    0  502  0.12167773405E+04  0.31271310637E+03  0.67200917350E+02  0.12581153204E+04  0.12699999809E+01 0. -1.
</event>
<event>
 5   0  0.1753474E-06  0.2694478E+04  0.7818609E-02  0.8336799E-01
        1   -1    0    0  501    0  0.00000000000E+00  0.00000000000E+00  0.15363860187E+04  0.15363860187E+04  0.50400001928E-02 0.  1.
       -1   -1    0    0    0  501  0.00000000000E+00  0.00000000000E+00 -0.11813780811E+04  0.11813780811E+04  0.50400001928E-02 0. -1.
    10030    2    1    2    0    0  0.00000000000E+00  0.00000000000E+00  0.35500793754E+03  0.27177640998E+04  0.26944778838E+04 0.  0.
        3    1    3    3  502    0  0.11501903621E+04 -0.53401765166E+03 -0.28133404749E+03  0.12989463337E+04  0.10100000352E+00 0. -1.
       -3    1    3    3    0  502 -0.11501903621E+04  0.53401765166E+03  0.63634198504E+03  0.14188177661E+04  0.10100000352E+00 0.  1.
</event>
<event>
 5   0  0.1723605E-06  0.2698276E+04  0.7818609E-02  0.8335565E-01
        1   -1    0    0  501    0  0.00000000000E+00  0.00000000000E+00  0.13682291169E+04  0.13682291169E+04  0.50400001928E-02 0. -1.
       -1   -1    0    0    0  501  0.00000000000E+00  0.00000000000E+00 -0.13303132118E+04  0.13303132118E+04  0.50400001928E-02 0.  1.
    10030    2    1    2    0    0  0.00000000000E+00  0.00000000000E+00  0.37915905103E+02  0.26985423287E+04  0.26982759466E+04 0.  0.
        1    1    3    3  502    0  0.12933766172E+04 -0.12299333938E+03  0.38261843127E+03  0.13543807808E+04  0.50400001928E-02 0. -1.
       -1    1    3    3    0  502 -0.12933766172E+04  0.12299333938E+03 -0.34470252617E+03  0.13441615479E+04  0.50400001928E-02 0.  1.
</event>
<event>
 5   0  0.1723605E-06  0.2719629E+04  0.7818609E-02  0.8328664E-01
        1   -1    0    0  501    0  0.00000000000E+00  0.00000000000E+00  0.14114350464E+04  0.14114350464E+04  0.50400001928E-02 0. -1.
       -1   -1    0    0    0  501  0.00000000000E+00  0.00000000000E+00 -0.13100816924E+04  0.13100816924E+04  0.50400001928E-02 0.  1.
    10030    2    1    2    0    0  0.00000000000E+00  0.00000000000E+00  0.10135335407E+03  0.27215167388E+04  0.27196288087E+04 0.  0.
        1    1    3    3  502    0 -0.87422249185E+03 -0.10300738671E+04  0.20498513964E+03  0.13665050474E+04  0.50400001928E-02 0. -1.
       -1    1    3    3    0  502  0.87422249185E+03  0.10300738671E+04 -0.10363178557E+03  0.13550116915E+04  0.50400001928E-02 0.  1.
</event>
<event>
 5   0  0.4439357E-06  0.2697757E+04  0.7818609E-02  0.8335733E-01
       -2   -1    0    0    0  501  0.00000000000E+00  0.00000000000E+00  0.10740034212E+04  0.10740034212E+04  0.25500000920E-02 0. -1.
        2   -1    0    0  501    0  0.00000000000E+00  0.00000000000E+00 -0.16941037269E+04  0.16941037269E+04  0.25500000920E-02 0.  1.
    10030    2    1    2    0    0  0.00000000000E+00  0.00000000000E+00 -0.62010030567E+03  0.27681071482E+04  0.26977569932E+04 0.  0.
        4    1    3    3  502    0  0.15572817601E+03  0.74781062870E+03  0.83069657632E+03  0.11285080487E+04  0.12699999809E+01 0. -1.
       -4    1    3    3    0  502 -0.15572817601E+03 -0.74781062870E+03 -0.14507968820E+04  0.16395990994E+04  0.12699999809E+01 0.  1.
</event>
<event>
 5   0  0.4487186E-06  0.2696853E+04  0.7818609E-02  0.8336027E-01
       -2   -1    0    0    0  501  0.00000000000E+00  0.00000000000E+00  0.14381249039E+04  0.14381249039E+04  0.25500000920E-02 0.  1.
        2   -1    0    0  501    0  0.00000000000E+00  0.00000000000E+00 -0.12643223614E+04  0.12643223615E+04  0.25500000920E-02 0. -1.
    10030    2    1    2    0    0  0.00000000000E+00  0.00000000000E+00  0.17380254245E+03  0.27024472654E+04  0.26968525911E+04 0.  0.
        3    1    3    3  502    0  0.23319373589E+03 -0.77207638634E+03  0.11697781610E+04  0.14208667147E+04  0.10100000352E+00 0.  1.
       -3    1    3    3    0  502 -0.23319373589E+03  0.77207638634E+03 -0.99597561856E+03  0.12815805506E+04  0.10100000352E+00 0. -1.
</event>
<event>
 5   0  0.4401659E-06  0.2705019E+04  0.7818609E-02  0.8333378E-01
        2   -1    0    0  501    0  0.00000000000E+00  0.00000000000E+00  0.20135908618E+04  0.20135908618E+04  0.25500000920E-02 0. -1.
       -2   -1    0    0    0  501  0.00000000000E+00  0.00000000000E+00 -0.90846752407E+03  0.90846752408E+03  0.25500000920E-02 0.  1.
    10030    2    1    2    0    0  0.00000000000E+00  0.00000000000E+00  0.11051233377E+04  0.29220583859E+04  0.27050189683E+04 0.  0.
        5    1    3    3  502    0  0.41737807085E+03  0.46295584489E+03  0.18491719450E+04  0.19514075793E+04  0.46999998093E+01 0. -1.
       -5    1    3    3    0  502 -0.41737807085E+03 -0.46295584489E+03 -0.74404860727E+03  0.97065080659E+03  0.46999998093E+01 0.  1.
</event>
<event>
 5   0  0.4487186E-06  0.2702002E+04  0.7818609E-02  0.8334356E-01
       -2   -1    0    0    0  501  0.00000000000E+00  0.00000000000E+00  0.10586989907E+04  0.10586989907E+04  0.25500000920E-02 0. -1.
        2   -1    0    0  501    0  0.00000000000E+00  0.00000000000E+00 -0.17240057328E+04  0.17240057328E+04  0.25500000920E-02 0.  1.
    10030    2    1    2    0    0  0.00000000000E+00  0.00000000000E+00 -0.66530674212E+03  0.27827047235E+04  0.27020015761E+04 0.  0.
        3    1    3    3  502    0  0.53223323566E+03  0.45795338694E+03 -0.15213411733E+04  0.16755514011E+04  0.10100000352E+00 0.  1.
       -3    1    3    3    0  502 -0.53223323566E+03 -0.45795338694E+03  0.85603443122E+03  0.11071533224E+04  0.10100000352E+00 0. -1.
</event>
<event>
 5   0  0.1732312E-06  0.2702104E+04  0.7818609E-02  0.8334323E-01
        1   -1    0    0  501    0  0.00000000000E+00  0.00000000000E+00  0.19530740057E+04  0.19530740057E+04  0.50400001928E-02 0. -1.
       -1   -1    0    0    0  501  0.00000000000E+00  0.00000000000E+00 -0.93459903964E+03  0.93459903965E+03  0.50400001928E-02 0.  1.
    10030    2    1    2    0    0  0.00000000000E+00  0.00000000000E+00  0.10184749661E+04  0.28876730454E+04  0.27021036916E+04 0.  0.
        5    1    3    3  502    0  0.88890898377E+03 -0.56993827826E+03  0.14099291423E+04  0.17615081886E+04  0.46999998093E+01 0. -1.
       -5    1    3    3    0  502 -0.88890898377E+03  0.56993827826E+03 -0.39145417620E+03  0.11261648567E+04  0.46999998093E+01 0.  1.
</event>
<event>
 5   0  0.4401659E-06  0.2702417E+04  0.7818609E-02  0.8334221E-01
       -2   -1    0    0    0  501  0.00000000000E+00  0.00000000000E+00  0.96922759537E+03  0.96922759537E+03  0.25500000920E-02 0.  1.
        2   -1    0    0  501    0  0.00000000000E+00  0.00000000000E+00 -0.18837307096E+04  0.18837307096E+04  0.25500000920E-02 0. -1.
    10030    2    1    2    0    0  0.00000000000E+00  0.00000000000E+00 -0.91450311421E+03  0.28529583049E+04  0.27024165378E+04 0.  0.
        5    1    3    3  502    0 -0.11173947826E+04 -0.40390106558E+03 -0.11365512421E+04  0.16442256496E+04  0.46999998093E+01 0. -1.
       -5    1    3    3    0  502  0.11173947826E+04  0.40390106558E+03  0.22204812788E+03  0.12087326553E+04  0.46999998093E+01 0.  1.
</event>
<event>
 5   0  0.4448804E-06  0.2724983E+04  0.7818609E-02  0.8326944E-01
        2   -1    0    0  501    0  0.00000000000E+00  0.00000000000E+00  0.19048757268E+04  0.19048757268E+04  0.25500000920E-02 0. -1.
       -2   -1    0    0    0  501  0.00000000000E+00  0.00000000000E+00 -0.97454274786E+03  0.97454274786E+03  0.25500000920E-02 0.  1.
    10030    2    1    2    0    0  0.00000000000E+00  0.00000000000E+00  0.93033297896E+03  0.28794184747E+04  0.27249828074E+04 0.  0.
        2    1    3    3  502    0 -0.23175571982E+03 -0.12571443296E+04 -0.32997023885E+02  0.12787538398E+04  0.25500000920E-02 0.  1.
       -2    1    3    3    0  502  0.23175571982E+03  0.12571443296E+04  0.96333000284E+03  0.16006646349E+04  0.25500000920E-02 0. -1.
</event>
<event>
 5   0  0.4401659E-06  0.2680360E+04  0.7818609E-02  0.8341406E-01
       -2   -1    0    0    0  501  0.00000000000E+00  0.00000000000E+00  0.11153992437E+04  0.11153992437E+04  0.25500000920E-02 0.  1.
        2   -1    0    0  501    0  0.00000000000E+00  0.00000000000E+00 -0.16102602740E+04  0.16102602740E+04  0.25500000920E-02 0. -1.
    10030    2    1    2    0    0  0.00000000000E+00  0.00000000000E+00 -0.49486103028E+03  0.27256595177E+04  0.26803604920E+04 0.  0.
        5    1    3    3  502    0  0.21866840698E+03 -0.35628611922E+03  0.10473936661E+04  0.11277460941E+04  0.46999998093E+01 0.  1.
       -5    1    3    3    0  502 -0.21866840698E+03  0.35628611922E+03 -0.15422546964E+04  0.15979134236E+04  0.46999998093E+01 0. -1.
</event>
<event>
 5   0  0.1723605E-06  0.2696286E+04  0.7818609E-02  0.8336211E-01
       -1   -1    0    0    0  501  0.00000000000E+00  0.00000000000E+00  0.10516365180E+04  0.10516365180E+04  0.50400001928E-02 0. -1.
        1   -1    0    0  501    0  0.00000000000E+00  0.00000000000E+00 -0.17282486994E+04  0.17282486994E+04  0.50400001928E-02 0.  1.
    10030    2    1    2    0    0  0.00000000000E+00  0.00000000000E+00 -0.67661218140E+03  0.27798852174E+04  0.26962859229E+04 0.  0.
        1    1    3    3  502    0 -0.11043874074E+04 -0.73134094924E+03 -0.79611428983E+02  0.13269774336E+04  0.50400001928E-02 0. -1.
       -1    1    3    3    0  502  0.11043874074E+04  0.73134094924E+03 -0.59700075242E+03  0.14529077838E+04  0.50400001928E-02 0.  1.
</event>
<event>
 5   0  0.4448804E-06  0.2692343E+04  0.7818609E-02  0.8337494E-01
       -2   -1    0    0    0  501  0.00000000000E+00  0.00000000000E+00  0.14281857898E+04  0.14281857898E+04  0.25500000920E-02 0.  1.
        2   -1    0    0  501    0  0.00000000000E+00  0.00000000000E+00 -0.12688664655E+04  0.12688664655E+04  0.25500000920E-02 0. -1.
    10030    2    1    2    0    0  0.00000000000E+00  0.00000000000E+00  0.15931932434E+03  0.26970522554E+04  0.26923425155E+04 0.  0.
        2    1    3    3  502    0 -0.59890913452E+02  0.13442571637E+04  0.11926122815E+03  0.13508654575E+04  0.25500000920E-02 0.  1.
       -2    1    3    3    0  502  0.59890913452E+02 -0.13442571637E+04  0.40058096195E+02  0.13461867979E+04  0.25500000920E-02 0. -1.
</event>
<event>
 5   0  0.1732312E-06  0.2683351E+04  0.7818609E-02  0.8340427E-01
       -1   -1    0    0    0  501  0.00000000000E+00  0.00000000000E+00  0.99442013228E+03  0.99442013229E+03  0.50400001928E-02 0. -1.
        1   -1    0    0  501    0  0.00000000000E+00  0.00000000000E+00 -0.18101942472E+04  0.18101942472E+04  0.50400001928E-02 0.  1.
    10030    2    1    2    0    0  0.00000000000E+00  0.00000000000E+00 -0.81577411492E+03  0.28046143795E+04  0.26833513395E+04 0.  0.
        5    1    3    3  502    0  0.48925401797E+03 -0.87146306775E+03  0.52769257737E+03  0.11301764989E+04  0.46999998093E+01 0. -1.
       -5    1    3    3    0  502 -0.48925401797E+03  0.87146306775E+03 -0.13434666923E+04  0.16744378806E+04  0.46999998093E+01 0.  1.
</event>
<event>
 5   0  0.1732312E-06  0.2701458E+04  0.7818609E-02  0.8334532E-01
        1   -1    0    0  501    0  0.00000000000E+00  0.00000000000E+00  0.14626735952E+04  0.14626735952E+04  0.50400001928E-02 0.  1.
       -1   -1    0    0    0  501  0.00000000000E+00  0.00000000000E+00 -0.12473522759E+04  0.12473522759E+04  0.50400001928E-02 0. -1.
    10030    2    1    2    0    0  0.00000000000E+00  0.00000000000E+00  0.21532131926E+03  0.27100258711E+04  0.27014583009E+04 0.  0.
        5    1    3    3  502    0 -0.54656636107E+02  0.91234509557E+03  0.11053429097E+04  0.14342823848E+04  0.46999998093E+01 0.  1.
       -5    1    3    3    0  502  0.54656636107E+02 -0.91234509557E+03 -0.89002159048E+03  0.12757434863E+04  0.46999998093E+01 0. -1.
</event>
<event>
 5   0  0.4439357E-06  0.2700434E+04  0.7818609E-02  0.8334864E-01
       -2   -1    0    0    0  501  0.00000000000E+00  0.00000000000E+00  0.14918747542E+04  0.14918747542E+04  0.25500000920E-02 0. -1.
        2   -1    0    0  501    0  0.00000000000E+00  0.00000000000E+00 -0.12220101553E+04  0.12220101553E+04  0.25500000920E-02 0.  1.
    10030    2    1    2    0    0  0.00000000000E+00  0.00000000000E+00  0.26986459888E+03  0.27138849095E+04  0.27004341133E+04 0.  0.
        4    1    3    3  502    0 -0.10110509778E+04 -0.68351382743E+03  0.71545062844E+03  0.14146683168E+04  0.12699999809E+01 0. -1.
       -4    1    3    3    0  502  0.10110509778E+04  0.68351382743E+03 -0.44558602955E+03  0.12992165926E+04  0.12699999809E+01 0.  1.
</event>
<event>
 5   0  0.1732312E-06  0.2695941E+04  0.7818609E-02  0.8336323E-01
        1   -1    0    0  501    0  0.00000000000E+00  0.00000000000E+00  0.22766016037E+04  0.22766016037E+04  0.50400001928E-02 0.  1.
       -1   -1    0    0    0  501  0.00000000000E+00  0.00000000000E+00 -0.79813036178E+03  0.79813036180E+03  0.50400001928E-02 0. -1.
    10030    2    1    2    0    0  0.00000000000E+00  0.00000000000E+00  0.14784712419E+04  0.30747319655E+04  0.26959412914E+04 0.  0.
        5    1    3    3  502    0 -0.28630757429E+03  0.13162303394E+04  0.68143514949E+03  0.15095728821E+04  0.46999998093E+01 0.  1.
       -5    1    3    3    0  502  0.28630757429E+03 -0.13162303394E+04  0.79703609239E+03  0.15651590833E+04  0.46999998093E+01 0. -1.
</event>
<event>
 5   0  0.1723605E-06  0.2700299E+04  0.7818609E-02  0.8334908E-01
       -1   -1    0    0    0  501  0.00000000000E+00  0.00000000000E+00  0.18132079704E+04  0.18132079704E+04  0.50400001928E-02 0.  1.
        1   -1    0    0  501    0  0.00000000000E+00  0.00000000000E+00 -0.10053475589E+04  0.10053475589E+04  0.50400001928E-02 0. -1.
    10030    2    1    2    0    0  0.00000000000E+00  0.00000000000E+00  0.80786041152E+03  0.28185555293E+04  0.27002993958E+04 0.  0.
        1    1    3    3  502    0 -0.74534702672E+03 -0.46270388060E+03  0.14751632055E+04  0.17163168572E+04  0.50400001928E-02 0.  1.
       -1    1    3    3    0  502  0.74534702672E+03  0.46270388060E+03 -0.66730279398E+03  0.11022386721E+04  0.50400001928E-02 0. -1.
</event>
<event>
 5   0  0.1732312E-06  0.2696618E+04  0.7818609E-02  0.8336103E-01
        1   -1    0    0  501    0  0.00000000000E+00  0.00000000000E+00  0.17175645117E+04  0.17175645117E+04  0.50400001928E-02 0. -1.
       -1   -1    0    0    0  501  0.00000000000E+00  0.00000000000E+00 -0.10584392190E+04  0.10584392190E+04  0.50400001928E-02 0.  1.
    10030    2    1    2    0    0  0.00000000000E+00  0.00000000000E+00  0.65912529271E+03  0.27760037307E+04  0.26966183566E+04 0.  0.
        5    1    3    3  502    0 -0.89634648459E+03 -0.69860557086E+03  0.10764762572E+04  0.15653466027E+04  0.46999998093E+01 0. -1.
       -5    1    3    3    0  502  0.89634648459E+03  0.69860557086E+03 -0.41735096454E+03  0.12106571280E+04  0.46999998093E+01 0.  1.
</event>
<event>
 5   0  0.4401659E-06  0.2696790E+04  0.7818609E-02  0.8336047E-01
        2   -1    0    0  501    0  0.00000000000E+00  0.00000000000E+00  0.22964005831E+04  0.22964005831E+04  0.25500000920E-02 0.  1.
       -2   -1    0    0    0  501  0.00000000000E+00  0.00000000000E+00 -0.79174739018E+03  0.79174739018E+03  0.25500000920E-02 0. -1.
    10030    2    1    2    0    0  0.00000000000E+00  0.00000000000E+00  0.15046531929E+04  0.30881479732E+04  0.26967900685E+04 0.  0.
        5    1    3    3  502    0 -0.65273205722E+03  0.94908111366E+03  0.15550000869E+04  0.19351644527E+04  0.46999998093E+01 0. -1.
       -5    1    3    3    0  502  0.65273205722E+03 -0.94908111366E+03 -0.50346894029E+02  0.11529835205E+04  0.46999998093E+01 0.  1.
</event>
<event>
 5   0  0.1723605E-06  0.2761516E+04  0.7818609E-02  0.8315317E-01
        1   -1    0    0  501    0  0.00000000000E+00  0.00000000000E+00  0.17785569863E+04  0.17785569863E+04  0.50400001928E-02 0.  1.
       -1   -1    0    0    0  501  0.00000000000E+00  0.00000000000E+00 -0.10719326382E+04  0.10719326382E+04  0.50400001928E-02 0. -1.
    10030    2    1    2    0    0  0.00000000000E+00  0.00000000000E+00  0.70662434809E+03  0.28504896245E+04  0.27615164547E+04 0.  0.
        1    1    3    3  502    0 -0.84667396584E+03  0.99712254658E+01 -0.77248671659E+03  0.11461640184E+04  0.50400001928E-02 0. -1.
       -1    1    3    3    0  502  0.84667396584E+03 -0.99712254658E+01  0.14791110647E+04  0.17043256060E+04  0.50400001928E-02 0.  1.
</event>
<event>
 5   0  0.1482875E-06  0.2687957E+04  0.7818609E-02  0.8338923E-01
        3   -1    0    0  501    0  0.00000000000E+00  0.00000000000E+00  0.82216217844E+03  0.82216218464E+03  0.10100000352E+00 0.  1.
       -3   -1    0    0    0  501  0.00000000000E+00  0.00000000000E+00 -0.21969858583E+04  0.21969858606E+04  0.10100000352E+00 0. -1.
    10030    2    1    2    0    0  0.00000000000E+00  0.00000000000E+00 -0.13748236799E+04  0.30191480453E+04  0.26879573599E+04 0.  0.
        3    1    3    3  502    0  0.99484998964E+03  0.63239635138E+03  0.37584406702E+02  0.11794338663E+04  0.10100000352E+00 0.  1.
       -3    1    3    3    0  502 -0.99484998964E+03 -0.63239635138E+03 -0.14124080866E+04  0.18397141790E+04  0.10100000352E+00 0. -1.
</event>
<event>
 5   0  0.4401659E-06  0.2700999E+04  0.7818609E-02  0.8334681E-01
        2   -1    0    0  501    0  0.00000000000E+00  0.00000000000E+00  0.19167275849E+04  0.19167275849E+04  0.25500000920E-02 0.  1.
       -2   -1    0    0    0  501  0.00000000000E+00  0.00000000000E+00 -0.95154343250E+03  0.95154343251E+03  0.25500000920E-02 0. -1.
    10030    2    1    2    0    0  0.00000000000E+00  0.00000000000E+00  0.96518415239E+03  0.28682710174E+04  0.27009994782E+04 0.  0.
        5    1    3    3  502    0  0.12814369046E+04  0.74478866100E+01  0.29941661640E+02  0.12818169154E+04  0.46999998093E+01 0. -1.
       -5    1    3    3    0  502 -0.12814369046E+04 -0.74478866100E+01  0.93524249075E+03  0.15864541020E+04  0.46999998093E+01 0.  1.
</event>
<event>
 5   0  0.1732312E-06  0.2730388E+04  0.7818609E-02  0.8325212E-01
       -1   -1    0    0    0  501  0.00000000000E+00  0.00000000000E+00  0.98786630749E+03  0.98786630751E+03  0.50400001928E-02 0. -1.
        1   -1    0    0  501    0  0.00000000000E+00  0.00000000000E+00 -0.18866468705E+04  0.18866468705E+04  0.50400001928E-02 0.  1.
    10030    2    1    2    0    0  0.00000000000E+00  0.00000000000E+00 -0.89878056302E+03  0.28745131780E+04  0.27303881611E+04 0.  0.
        5    1    3    3  502    0  0.77824211011E+03 -0.45735975293E+03 -0.15276061649E+04  0.17743847978E+04  0.46999998093E+01 0.  1.
       -5    1    3    3    0  502 -0.77824211011E+03  0.45735975293E+03  0.62882560184E+03  0.11001283803E+04  0.46999998093E+01 0. -1.
</event>
<event>
 5   0  0.4439357E-06  0.2797599E+04  0.7818609E-02  0.8304014E-01
        2   -1    0    0  501    0  0.00000000000E+00  0.00000000000E+00  0.21427190568E+04  0.21427190568E+04  0.25500000920E-02 0.  1.
       -2   -1    0    0    0  501  0.00000000000E+00  0.00000000000E+00 -0.91315745273E+03  0.91315745274E+03  0.25500000920E-02 0. -1.
    10030    2    1    2    0    0  0.00000000000E+00  0.00000000000E+00  0.12295616041E+04  0.30558765096E+04  0.27975988818E+04 0.  0.
        4    1    3    3  502    0 -0.62273726760E+03  0.48746214503E+03 -0.64552175398E+03  0.10208432764E+04  0.12699999809E+01 0. -1.
       -4    1    3    3    0  502  0.62273726760E+03 -0.48746214503E+03  0.18750833581E+04  0.20350332331E+04  0.12699999809E+01 0.  1.
</event>
<event>
 5   0  0.1828511E-06  0.2823875E+04  0.7818609E-02  0.8295894E-01
        1   -1    0    0  501    0  0.00000000000E+00  0.00000000000E+00  0.22261898701E+04  0.22261898701E+04  0.50400001928E-02 0.  1.
       -1   -1    0    0    0  501  0.00000000000E+00  0.00000000000E+00 -0.89550630534E+03  0.89550630535E+03  0.50400001928E-02 0. -1.
    10030    2    1    2    0    0  0.00000000000E+00  0.00000000000E+00  0.13306835648E+04  0.31216961755E+04  0.28238746896E+04 0.  0.
        4    1    3    3  502    0  0.10932110568E+04  0.86674754655E+03  0.90551985959E+03  0.16632286533E+04  0.12699999809E+01 0. -1.
       -4    1    3    3    0  502 -0.10932110568E+04 -0.86674754655E+03  0.42516370520E+03  0.14584675222E+04  0.12699999809E+01 0.  1.
</event>
<event>
 5   0  0.1771016E-06  0.2691094E+04  0.7818609E-02  0.8337900E-01
        1   -1    0    0  501    0  0.00000000000E+00  0.00000000000E+00  0.79409299116E+03  0.79409299118E+03  0.50400001928E-02 0. -1.
       -1   -1    0    0    0  501  0.00000000000E+00  0.00000000000E+00 -0.22799552686E+04  0.22799552686E+04  0.50400001928E-02 0.  1.
    10030    2    1    2    0    0  0.00000000000E+00  0.00000000000E+00 -0.14858622775E+04  0.30740482598E+04  0.26910938289E+04 0.  0.
        2    1    3    3  502    0 -0.11349705660E+04  0.24877654319E+03  0.32195019579E+02  0.11623615932E+04  0.25500000920E-02 0. -1.
       -2    1    3    3    0  502  0.11349705660E+04 -0.24877654319E+03 -0.15180572970E+04  0.19116866666E+04  0.25500000920E-02 0.  1.
</event>
<event>
 5   0  0.1753474E-06  0.2687478E+04  0.7818609E-02  0.8339079E-01
       -1   -1    0    0    0  501  0.00000000000E+00  0.00000000000E+00  0.85458270206E+03  0.85458270208E+03  0.50400001928E-02 0. -1.
        1   -1    0    0  501    0  0.00000000000E+00  0.00000000000E+00 -0.21128841389E+04  0.21128841389E+04  0.50400001928E-02 0.  1.
    10030    2    1    2    0    0  0.00000000000E+00  0.00000000000E+00 -0.12583014368E+04  0.29674668410E+04  0.26874778039E+04 0.  0.
        3    1    3    3  502    0  0.11598037298E+04 -0.42688516886E+03 -0.46691830438E+02  0.12367521078E+04  0.10100000352E+00 0. -1.
       -3    1    3    3    0  502 -0.11598037298E+04  0.42688516886E+03 -0.12116096064E+04  0.17307147331E+04  0.10100000352E+00 0.  1.
</event>
<event>
 5   0  0.4487186E-06  0.2716923E+04  0.7818609E-02  0.8329535E-01
       -2   -1    0    0    0  501  0.00000000000E+00  0.00000000000E+00  0.10690952499E+04  0.10690952499E+04  0.25500000920E-02 0.  1.
        2   -1    0    0  501    0  0.00000000000E+00  0.00000000000E+00 -0.17261487295E+04  0.17261487295E+04  0.25500000920E-02 0. -1.
    10030    2    1    2    0    0  0.00000000000E+00  0.00000000000E+00 -0.65705347969E+03  0.27952439794E+04  0.27169228236E+04 0.  0.
        3    1    3    3  502    0 -0.11497098233E+04  0.58594089545E+03 -0.76533382701E+03  0.15002983996E+04  0.10100000352E+00 0. -1.
       -3    1    3    3    0  502  0.11497098233E+04 -0.58594089545E+03  0.10828034731E+03  0.12949455798E+04  0.10100000352E+00 0.  1.
</event>
<event>
 5   0  0.1771016E-06  0.2677142E+04  0.7818609E-02  0.8342460E-01
       -1   -1    0    0    0  501  0.00000000000E+00  0.00000000000E+00  0.11307327998E+04  0.11307327998E+04  0.50400001928E-02 0. -1.
        1   -1    0    0  501    0  0.00000000000E+00  0.00000000000E+00 -0.15846121846E+04  0.15846121846E+04  0.50400001928E-02 0.  1.
    10030    2    1    2    0    0  0.00000000000E+00  0.00000000000E+00 -0.45387938486E+03  0.27153449844E+04  0.26771424857E+04 0.  0.
        2    1    3    3  502    0 -0.74724246521E+03  0.30871174589E+03 -0.13089801448E+04  0.15385393278E+04  0.25500000920E-02 0.  1.
       -2    1    3    3    0  502  0.74724246521E+03 -0.30871174589E+03  0.85510075991E+03  0.11768056566E+04  0.25500000920E-02 0. -1.
</event>
<event>
 5   0  0.1828511E-06  0.2698297E+04  0.7818609E-02  0.8335558E-01
        1   -1    0    0  501    0  0.00000000000E+00  0.00000000000E+00  0.21416963896E+04  0.21416963896E+04  0.50400001928E-02 0. -1.
       -1   -1    0    0    0  501  0.00000000000E+00  0.00000000000E+00 -0.84988794316E+03  0.84988794318E+03  0.50400001928E-02 0.  1.
    10030    2    1    2    0    0  0.00000000000E+00  0.00000000000E+00  0.12918084464E+04  0.29915843327E+04  0.26982971960E+04 0.  0.
        4    1    3    3  502    0 -0.96474867289E+03 -0.86358074647E+03  0.10661686719E+04  0.16772683022E+04  0.12699999809E+01 0. -1.
       -4    1    3    3    0  502  0.96474867289E+03  0.86358074647E+03  0.22563977446E+03  0.13143160306E+04  0.12699999809E+01 0.  1.
</event>
<event>
 5   0  0.4401659E-06  0.2691849E+04  0.7818609E-02  0.8337655E-01
       -2   -1    0    0    0  501  0.00000000000E+00  0.00000000000E+00  0.66971023944E+03  0.66971023944E+03  0.25500000920E-02 0. -1.
        2   -1    0    0  501    0  0.00000000000E+00  0.00000000000E+00 -0.27049196582E+04  0.27049196582E+04  0.25500000920E-02 0.  1.
    10030    2    1    2    0    0  0.00000000000E+00  0.00000000000E+00 -0.20352094187E+04  0.33746298976E+04  0.26918487268E+04 0.  0.
        5    1    3    3  502    0  0.13447008288E+04  0.24361718096E+02 -0.95274749462E+03  0.16482001367E+04  0.46999998093E+01 0.  1.
       -5    1    3    3    0  502 -0.13447008288E+04 -0.24361718096E+02 -0.10824619241E+04  0.17264297609E+04  0.46999998093E+01 0. -1.
</event>
<event>
 5   0  0.4439357E-06  0.2706395E+04  0.7818609E-02  0.8332933E-01
        2   -1    0    0  501    0  0.00000000000E+00  0.00000000000E+00  0.10267253394E+04  0.10267253394E+04  0.25500000920E-02 0.  1.
       -2   -1    0    0    0  501  0.00000000000E+00  0.00000000000E+00 -0.17834793786E+04  0.17834793786E+04  0.25500000920E-02 0. -1.
    10030    2    1    2    0    0  0.00000000000E+00  0.00000000000E+00 -0.75675403923E+03  0.28102047180E+04  0.27063949972E+04 0.  0.
        4    1    3    3  502    0  0.13537927608E+03  0.91078616023E+03 -0.14080184643E+04  0.16823723092E+04  0.12699999809E+01 0. -1.
       -4    1    3    3    0  502 -0.13537927608E+03 -0.91078616023E+03  0.65126442505E+03  0.11278324088E+04  0.12699999809E+01 0.  1.
</event>
<event>
 5   0  0.1771016E-06  0.2679451E+04  0.7818609E-02  0.8341703E-01
        1   -1    0    0  501    0  0.00000000000E+00  0.00000000000E+00  0.17804642603E+04  0.17804642603E+04  0.50400001928E-02 0.  1.
       -1   -1    0    0    0  501  0.00000000000E+00  0.00000000000E+00 -0.10080877875E+04  0.10080877875E+04  0.50400001928E-02 0. -1.
    10030    2    1    2    0    0  0.00000000000E+00  0.00000000000E+00  0.77237647282E+03  0.27885520478E+04  0.26794508966E+04 0.  0.
        2    1    3    3  502    0 -0.35582389646E+03 -0.54480282139E+03 -0.83258221196E+03  0.10566995312E+04  0.25500000920E-02 0. -1.
       -2    1    3    3    0  502  0.35582389646E+03  0.54480282139E+03  0.16049586848E+04  0.17318525166E+04  0.25500000920E-02 0.  1.
</event>
<event>
 5   0  0.1753474E-06  0.2688857E+04  0.7818609E-02  0.8338630E-01
        1   -1    0    0  501    0  0.00000000000E+00  0.00000000000E+00  0.19942942886E+04  0.19942942886E+04  0.50400001928E-02 0. -1.
       -1   -1    0    0    0  501  0.00000000000E+00  0.00000000000E+00 -0.90632936244E+03  0.90632936246E+03  0.50400001928E-02 0.  1.
    10030    2    1    2    0    0  0.00000000000E+00  0.00000000000E+00  0.10879649261E+04  0.29006236510E+04  0.26888566128E+04 0.  0.
        3    1    3    3  502    0 -0.11561513717E+04  0.94755817927E+02  0.12770794358E+04  0.17252815871E+04  0.10100000352E+00 0. -1.
       -3    1    3    3    0  502  0.11561513717E+04 -0.94755817927E+02 -0.18911450972E+03  0.11753420639E+04  0.10100000352E+00 0.  1.
</event>
<event>
 5   0  0.1732312E-06  0.2704242E+04  0.7818609E-02  0.8333630E-01
        1   -1    0    0  501    0  0.00000000000E+00  0.00000000000E+00  0.18492920927E+04  0.18492920927E+04  0.50400001928E-02 0. -1.
       -1   -1    0    0    0  501  0.00000000000E+00  0.00000000000E+00 -0.98861112329E+03  0.98861112330E+03  0.50400001928E-02 0.  1.
    10030    2    1    2    0    0  0.00000000000E+00  0.00000000000E+00  0.86068096938E+03  0.28379032160E+04  0.27042416557E+04 0.  0.
        5    1    3    3  502    0  0.66286021466E+03 -0.71688186984E+03 -0.55125515678E+03  0.11212527001E+04  0.46999998093E+01 0.  1.
       -5    1    3    3    0  502 -0.66286021466E+03  0.71688186984E+03  0.14119361262E+04  0.17166505159E+04  0.46999998093E+01 0. -1.
</event>
<event>
 5   0  0.4448804E-06  0.2701636E+04  0.7818609E-02  0.8334474E-01
       -2   -1    0    0    0  501  0.00000000000E+00  0.00000000000E+00  0.16475694355E+04  0.16475694355E+04  0.25500000920E-02 0.  1.
        2   -1    0    0  501    0  0.00000000000E+00  0.00000000000E+00 -0.11075156429E+04  0.11075156429E+04  0.25500000920E-02 0. -1.
    10030    2    1    2    0    0  0.00000000000E+00  0.00000000000E+00  0.54005379260E+03  0.27550850785E+04  0.27016357435E+04 0.  0.
        2    1    3    3  502    0 -0.12510865548E+04  0.23018118803E+03  0.73344888415E+03  0.14683828563E+04  0.25500000920E-02 0.  1.
       -2    1    3    3    0  502  0.12510865548E+04 -0.23018118803E+03 -0.19339509155E+03  0.12867022221E+04  0.25500000920E-02 0. -1.
</event>
<event>
 5   0  0.1723605E-06  0.2695494E+04  0.7818609E-02  0.8336469E-01
       -1   -1    0    0    0  501  0.00000000000E+00  0.00000000000E+00  0.13907275790E+04  0.13907275790E+04  0.50400001928E-02 0. -1.
        1   -1    0    0  501    0  0.00000000000E+00  0.00000000000E+00 -0.13060943102E+04  0.13060943102E+04  0.50400001928E-02 0.  1.
    10030    2    1    2    0    0  0.00000000000E+00  0.00000000000E+00  0.84633268845E+02  0.26968218892E+04  0.26954935563E+04 0.  0.
        1    1    3    3  502    0  0.92162656403E+03 -0.96129367828E+03 -0.16500594212E+03  0.13419046242E+04  0.50400001928E-02 0.  1.
       -1    1    3    3    0  502 -0.92162656403E+03  0.96129367828E+03  0.24963921096E+03  0.13549172650E+04  0.50400001928E-02 0. -1.
</event>
<event>
 5   0  0.4401659E-06  0.2689699E+04  0.7818609E-02  0.8338355E-01
        2   -1    0    0  501    0  0.00000000000E+00  0.00000000000E+00  0.17713466696E+04  0.17713466696E+04  0.25500000920E-02 0. -1.
       -2   -1    0    0    0  501  0.00000000000E+00  0.00000000000E+00 -0.10210428015E+04  0.10210428016E+04  0.25500000920E-02 0.  1.
    10030    2    1    2    0    0  0.00000000000E+00  0.00000000000E+00  0.75030386807E+03  0.27923894712E+04  0.26896994375E+04 0.  0.
        5    1    3    3  502    0  0.67392068753E+03  0.32291118107E+03  0.15359446749E+04  0.17080950964E+04  0.46999998093E+01 0. -1.
       -5    1    3    3    0  502 -0.67392068753E+03 -0.32291118107E+03 -0.78564080680E+03  0.10842943748E+04  0.46999998093E+01 0.  1.
</event>
<event>
 5   0  0.1753474E-06  0.2701418E+04  0.7818609E-02  0.8334545E-01
        1   -1    0    0  501    0  0.00000000000E+00  0.00000000000E+00  0.21001937877E+04  0.21001937877E+04  0.50400001928E-02 0. -1.
       -1   -1    0    0    0  501  0.00000000000E+00  0.00000000000E+00 -0.86868893496E+03  0.86868893498E+03  0.50400001928E-02 0.  1.
    10030    2    1    2    0    0  0.00000000000E+00  0.00000000000E+00  0.12315048527E+04  0.29688827227E+04  0.27014182236E+04 0.  0.
        3    1    3    3  502    0 -0.20194260921E+01 -0.77373385476E+03 -0.60099833223E+03  0.97972810597E+03  0.10100000352E+00 0.  1.
       -3    1    3    3    0  502  0.20194260921E+01  0.77373385476E+03  0.18325031850E+04  0.19891546167E+04  0.10100000352E+00 0. -1.
</event>
<event>
 5   0  0.4448804E-06  0.2694683E+04  0.7818609E-02  0.8336732E-01
        2   -1    0    0  501    0  0.00000000000E+00  0.00000000000E+00  0.25192637008E+04  0.25192637008E+04  0.25500000920E-02 0.  1.
       -2   -1    0    0    0  501  0.00000000000E+00  0.00000000000E+00 -0.72057903083E+03  0.72057903083E+03  0.25500000920E-02 0. -1.
    10030    2    1    2    0    0  0.00000000000E+00  0.00000000000E+00  0.17986846700E+04  0.32398427316E+04  0.26946826128E+04 0.  0.
        2    1    3    3  502    0 -0.12226528765E+04 -0.54143349721E+03  0.10979903233E+04  0.17302060682E+04  0.25500000920E-02 0.  1.
       -2    1    3    3    0  502  0.12226528765E+04  0.54143349721E+03  0.70069434664E+03  0.15096366635E+04  0.25500000920E-02 0. -1.
</event>
<event>
 5   0  0.4401659E-06  0.2743076E+04  0.7818609E-02  0.8321162E-01
       -2   -1    0    0    0  501  0.00000000000E+00  0.00000000000E+00  0.66921391840E+03  0.66921391840E+03  0.25500000920E-02 0.  1.
        2   -1    0    0  501    0  0.00000000000E+00  0.00000000000E+00 -0.28109344043E+04  0.28109344043E+04  0.25500000920E-02 0. -1.
    10030    2    1    2    0    0  0.00000000000E+00  0.00000000000E+00 -0.21417204859E+04  0.34801483227E+04  0.27430759574E+04 0.  0.
        5    1    3    3  502    0  0.39350522576E+03  0.13075380442E+04 -0.90743753746E+03  0.16395020811E+04  0.46999998093E+01 0.  1.
       -5    1    3    3    0  502 -0.39350522576E+03 -0.13075380442E+04 -0.12342829484E+04  0.18406462415E+04  0.46999998093E+01 0. -1.
</event>
<event>
 5   0  0.1723605E-06  0.2702052E+04  0.7818609E-02  0.8334340E-01
        1   -1    0    0  501    0  0.00000000000E+00  0.00000000000E+00  0.20994566588E+04  0.20994566588E+04  0.50400001928E-02 0. -1.
       -1   -1    0    0    0  501  0.00000000000E+00  0.00000000000E+00 -0.86940162552E+03  0.86940162554E+03  0.50400001928E-02 0.  1.
    10030    2    1    2    0    0  0.00000000000E+00  0.00000000000E+00  0.12300550333E+04  0.29688582843E+04  0.27020518366E+04 0.  0.
        1    1    3    3  502    0 -0.78712096036E+03  0.84885205862E+03  0.13803405230E+04  0.18015130260E+04  0.50400001928E-02 0. -1.
       -1    1    3    3    0  502  0.78712096036E+03 -0.84885205862E+03 -0.15028548967E+03  0.11673452583E+04  0.50400001928E-02 0.  1.
</event>
<event>
 5   0  0.1828511E-06  0.2800925E+04  0.7818609E-02  0.8302981E-01
       -1   -1    0    0    0  501  0.00000000000E+00  0.00000000000E+00  0.98976937860E+03  0.98976937862E+03  0.50400001928E-02 0.  1.
        1   -1    0    0  501    0  0.00000000000E+00  0.00000000000E+00 -0.19815682654E+04  0.19815682654E+04  0.50400001928E-02 0. -1.
    10030    2    1    2    0    0  0.00000000000E+00  0.00000000000E+00 -0.99179888676E+03  0.29713376440E+04  0.28009252690E+04 0.  0.
        4    1    3    3  502    0  0.43609243034E+03 -0.11050977291E+03 -0.19028267870E+04  0.19552852508E+04  0.12699999809E+01 0. -1.
       -4    1    3    3    0  502 -0.43609243034E+03  0.11050977291E+03  0.91102790027E+03  0.10160523932E+04  0.12699999809E+01 0.  1.
</event>
<event>
 5   0  0.4487186E-06  0.2683462E+04  0.7818609E-02  0.8340391E-01
       -2   -1    0    0    0  501  0.00000000000E+00  0.00000000000E+00  0.12188442601E+04  0.12188442601E+04  0.25500000920E-02 0. -1.
        2   -1    0    0  501    0  0.00000000000E+00  0.00000000000E+00 -0.14770076983E+04  0.14770076983E+04  0.25500000920E-02 0.  1.
    10030    2    1    2    0    0  0.00000000000E+00  0.00000000000E+00 -0.25816343816E+03  0.26958519585E+04  0.26834622079E+04 0.  0.
        3    1    3    3  502    0 -0.80407774582E+02 -0.27414806637E+03 -0.14460959207E+04  0.14740474872E+04  0.10100000352E+00 0.  1.
       -3    1    3    3    0  502  0.80407774582E+02  0.27414806637E+03  0.11879324826E+04  0.12218044712E+04  0.10100000352E+00 0. -1.
</event>
<event>
 5   0  0.1732312E-06  0.2707057E+04  0.7818609E-02  0.8332719E-01
        1   -1    0    0  501    0  0.00000000000E+00  0.00000000000E+00  0.14841060618E+04  0.14841060618E+04  0.50400001928E-02 0. -1.
       -1   -1    0    0    0  501  0.00000000000E+00  0.00000000000E+00 -0.12344394734E+04  0.12344394734E+04  0.50400001928E-02 0.  1.
    10030    2    1    2    0    0  0.00000000000E+00  0.00000000000E+00  0.24966658843E+03  0.27185455353E+04  0.27070567822E+04 0.  0.
        5    1    3    3  502    0 -0.96236198766E+03 -0.81905697478E+03 -0.36201493017E+03  0.13145614565E+04  0.46999998093E+01 0.  1.
       -5    1    3    3    0  502  0.96236198766E+03  0.81905697478E+03  0.61168151860E+03  0.14039840788E+04  0.46999998093E+01 0. -1.
</event>
<event>
 5   0  0.4655882E-06  0.2655700E+04  0.7818609E-02  0.8349523E-01
       -2   -1    0    0    0  501  0.00000000000E+00  0.00000000000E+00  0.86027638271E+03  0.86027638272E+03  0.25500000920E-02 0. -1.
        2   -1    0    0  501    0  0.00000000000E+00  0.00000000000E+00 -0.20495578499E+04  0.20495578499E+04  0.25500000920E-02 0.  1.
    10030    2    1    2    0    0  0.00000000000E+00  0.00000000000E+00 -0.11892814672E+04  0.29098342326E+04  0.26557004449E+04 0.  0.
        1    1    3    3  502    0  0.14843428896E+03 -0.39200110121E+03  0.78588488943E+03  0.89068100965E+03  0.50400001928E-02 0. -1.
       -1    1    3    3    0  502 -0.14843428896E+03  0.39200110121E+03 -0.19751663566E+04  0.20191532230E+04  0.50400001928E-02 0.  1.
</event>
<event>
 5   0  0.1723605E-06  0.2728201E+04  0.7818609E-02  0.8325912E-01
        1   -1    0    0  501    0  0.00000000000E+00  0.00000000000E+00  0.18052498585E+04  0.18052498585E+04  0.50400001928E-02 0. -1.
       -1   -1    0    0    0  501  0.00000000000E+00  0.00000000000E+00 -0.10307550831E+04  0.10307550831E+04  0.50400001928E-02 0.  1.
    10030    2    1    2    0    0  0.00000000000E+00  0.00000000000E+00  0.77449477540E+03  0.28360049416E+04  0.27282012154E+04 0.  0.
        1    1    3    3  502    0 -0.40271784759E+03  0.55238618072E+03 -0.83984588501E+03  0.10828911617E+04  0.50400001928E-02 0.  1.
       -1    1    3    3    0  502  0.40271784759E+03 -0.55238618072E+03  0.16143406604E+04  0.17531137799E+04  0.50400001928E-02 0. -1.
</event>
<event>
 5   0  0.4448804E-06  0.2699844E+04  0.7818609E-02  0.8335055E-01
        2   -1    0    0  501    0  0.00000000000E+00  0.00000000000E+00  0.19950948886E+04  0.19950948886E+04  0.25500000920E-02 0.  1.
       -2   -1    0    0    0  501  0.00000000000E+00  0.00000000000E+00 -0.91338510957E+03  0.91338510957E+03  0.25500000920E-02 0. -1.
    10030    2    1    2    0    0  0.00000000000E+00  0.00000000000E+00  0.10817097790E+04  0.29084799982E+04  0.26998444129E+04 0.  0.
        2    1    3    3  502    0  0.10951513392E+03 -0.35621269762E+03 -0.85687146927E+03  0.93440342752E+03  0.25500000920E-02 0. -1.
       -2    1    3    3    0  502 -0.10951513392E+03  0.35621269762E+03  0.19385812483E+04  0.19740765707E+04  0.25500000920E-02 0.  1.
</event>
<event>
 5   0  0.1753474E-06  0.2701954E+04  0.7818609E-02  0.8334371E-01
       -1   -1    0    0    0  501  0.00000000000E+00  0.00000000000E+00  0.87600772844E+03  0.87600772846E+03  0.50400001928E-02 0.  1.
        1   -1    0    0  501    0  0.00000000000E+00  0.00000000000E+00 -0.20834734834E+04  0.20834734834E+04  0.50400001928E-02 0. -1.
    10030    2    1    2    0    0  0.00000000000E+00  0.00000000000E+00 -0.12074657550E+04  0.29594812119E+04  0.27019540141E+04 0.  0.
        3    1    3    3  502    0  0.10664012907E+04  0.82469605031E+03 -0.50697542091E+03  0.14402636480E+04  0.10100000352E+00 0.  1.
       -3    1    3    3    0  502 -0.10664012907E+04 -0.82469605031E+03 -0.70049033408E+03  0.15192175639E+04  0.10100000352E+00 0. -1.
</event>
<event>
 5   0  0.4439357E-06  0.2711885E+04  0.7818609E-02  0.8331159E-01
       -2   -1    0    0    0  501  0.00000000000E+00  0.00000000000E+00  0.12856438238E+04  0.12856438238E+04  0.25500000920E-02 0.  1.
        2   -1    0    0  501    0  0.00000000000E+00  0.00000000000E+00 -0.14300849594E+04  0.14300849594E+04  0.25500000920E-02 0. -1.
    10030    2    1    2    0    0  0.00000000000E+00  0.00000000000E+00 -0.14444113554E+03  0.27157287832E+04  0.27118848763E+04 0.  0.
        4    1    3    3  502    0  0.42680392492E+03  0.50571169877E+03 -0.12573981469E+04  0.14209002869E+04  0.12699999809E+01 0. -1.
       -4    1    3    3    0  502 -0.42680392492E+03 -0.50571169877E+03  0.11129570114E+04  0.12948284963E+04  0.12699999809E+01 0.  1.
</event>
<event>
 5   0  0.4655882E-06  0.2717613E+04  0.7818609E-02  0.8329313E-01
        2   -1    0    0  501    0  0.00000000000E+00  0.00000000000E+00  0.11704413267E+04  0.11704413267E+04  0.25500000920E-02 0.  1.
       -2   -1    0    0    0  501  0.00000000000E+00  0.00000000000E+00 -0.15774861844E+04  0.15774861844E+04  0.25500000920E-02 0. -1.
    10030    2    1    2    0    0  0.00000000000E+00  0.00000000000E+00 -0.40704485768E+03  0.27479275111E+04  0.27176129397E+04 0.  0.
        1    1    3    3  502    0 -0.10263274632E+04 -0.18639399658E+03 -0.10840195848E+04  0.15043899906E+04  0.50400001928E-02 0. -1.
       -1    1    3    3    0  502  0.10263274632E+04  0.18639399658E+03  0.67697472712E+03  0.12435375205E+04  0.50400001928E-02 0.  1.
</event>
<event>
 5   0  0.1753474E-06  0.2700611E+04  0.7818609E-02  0.8334807E-01
        1   -1    0    0  501    0  0.00000000000E+00  0.00000000000E+00  0.15547548832E+04  0.15547548832E+04  0.50400001928E-02 0. -1.
       -1   -1    0    0    0  501  0.00000000000E+00  0.00000000000E+00 -0.11727412997E+04  0.11727412998E+04  0.50400001928E-02 0.  1.
    10030    2    1    2    0    0  0.00000000000E+00  0.00000000000E+00  0.38201358342E+03  0.27274961829E+04  0.27006112364E+04 0.  0.
        3    1    3    3  502    0  0.30525544507E+03  0.63221924598E+03 -0.97392433245E+03  0.12005876383E+04  0.10100000352E+00 0.  1.
       -3    1    3    3    0  502 -0.30525544507E+03 -0.63221924598E+03  0.13559379159E+04  0.15269085446E+04  0.10100000352E+00 0. -1.
</event>
<event>
 5   0  0.1732312E-06  0.2694460E+04  0.7818609E-02  0.8336805E-01
        1   -1    0    0  501    0  0.00000000000E+00  0.00000000000E+00  0.18547322674E+04  0.18547322674E+04  0.50400001928E-02 0.  1.
       -1   -1    0    0    0  501  0.00000000000E+00  0.00000000000E+00 -0.97859351145E+03  0.97859351147E+03  0.50400001928E-02 0. -1.
    10030    2    1    2    0    0  0.00000000000E+00  0.00000000000E+00  0.87613875591E+03  0.28333257788E+04  0.26944602149E+04 0.  0.
        5    1    3    3  502    0 -0.10872145955E+04  0.54594066821E+03 -0.17047931279E+03  0.12284836490E+04  0.46999998093E+01 0. -1.
       -5    1    3    3    0  502  0.10872145955E+04 -0.54594066821E+03  0.10466180687E+04  0.16048421298E+04  0.46999998093E+01 0.  1.
</event>
<event>
 5   0  0.1753474E-06  0.2661047E+04  0.7818609E-02  0.8347756E-01
       -1   -1    0    0    0  501  0.00000000000E+00  0.00000000000E+00  0.26140112427E+04  0.26140112427E+04  0.50400001928E-02 0.  1.
        1   -1    0    0  501    0  0.00000000000E+00  0.00000000000E+00 -0.67723218983E+03  0.67723218985E+03  0.50400001928E-02 0. -1.
    10030    2    1    2    0    0  0.00000000000E+00  0.00000000000E+00  0.19367790529E+04  0.32912434326E+04  0.26610468302E+04 0.  0.
        3    1    3    3  502    0  0.11578684958E+04 -0.65483500736E+03  0.93288156034E+03  0.16247265481E+04  0.10100000352E+00 0.  1.
       -3    1    3    3    0  502 -0.11578684958E+04  0.65483500736E+03  0.10038974925E+04  0.16665168844E+04  0.10100000352E+00 0. -1.
</event>
<event>
 5   0  0.1482875E-06  0.2704064E+04  0.7818609E-02  0.8333687E-01
       -3   -1    0    0    0  501  0.00000000000E+00  0.00000000000E+00  0.11039259995E+04  0.11039260042E+04  0.10100000352E+00 0. -1.
        3   -1    0    0  501    0  0.00000000000E+00  0.00000000000E+00 -0.16558997112E+04  0.16558997143E+04  0.10100000352E+00 0.  1.
    10030    2    1    2    0    0  0.00000000000E+00  0.00000000000E+00 -0.55197371169E+03  0.27598257185E+04  0.27040641668E+04 0.  0.
        3    1    3    3  502    0 -0.24626511762E+03 -0.96229329176E+03  0.66017159825E+03  0.11926782621E+04  0.10100000352E+00 0. -1.
       -3    1    3    3    0  502  0.24626511762E+03  0.96229329176E+03 -0.12121453099E+04  0.15671474564E+04  0.10100000352E+00 0.  1.
</event>
<event>
 5   0  0.4448804E-06  0.2695747E+04  0.7818609E-02  0.8336386E-01
       -2   -1    0    0    0  501  0.00000000000E+00  0.00000000000E+00  0.12625367922E+04  0.12625367922E+04  0.25500000920E-02 0. -1.
        2   -1    0    0  501    0  0.00000000000E+00  0.00000000000E+00 -0.14389786280E+04  0.14389786280E+04  0.25500000920E-02 0.  1.
    10030    2    1    2    0    0  0.00000000000E+00  0.00000000000E+00 -0.17644183583E+03  0.27015154202E+04  0.26957473629E+04 0.  0.
        2    1    3    3  502    0 -0.53362743465E+03  0.10565840350E+04  0.55785644729E+03  0.13085609951E+04  0.25500000920E-02 0. -1.
       -2    1    3    3    0  502  0.53362743465E+03 -0.10565840350E+04 -0.73429828312E+03  0.13929544252E+04  0.25500000920E-02 0.  1.
</event>
<event>
 5   0  0.1753474E-06  0.2687202E+04  0.7818609E-02  0.8339169E-01
        1   -1    0    0  501    0  0.00000000000E+00  0.00000000000E+00  0.19732552935E+04  0.19732552936E+04  0.50400001928E-02 0. -1.
       -1   -1    0    0    0  501  0.00000000000E+00  0.00000000000E+00 -0.91486575561E+03  0.91486575563E+03  0.50400001928E-02 0.  1.
    10030    2    1    2    0    0  0.00000000000E+00  0.00000000000E+00  0.10583895379E+04  0.28881210492E+04  0.26872020357E+04 0.  0.
        3    1    3    3  502    0 -0.76396072205E+03 -0.10063644818E+04  0.10203749880E+04  0.16240599070E+04  0.10100000352E+00 0. -1.
       -3    1    3    3    0  502  0.76396072205E+03  0.10063644818E+04  0.38014549908E+02  0.12640611422E+04  0.10100000352E+00 0.  1.
</event>
<event>
 5   0  0.4655882E-06  0.2700216E+04  0.7818609E-02  0.8334935E-01
       -2   -1    0    0    0  501  0.00000000000E+00  0.00000000000E+00  0.11244242790E+04  0.11244242790E+04  0.25500000920E-02 0.  1.
        2   -1    0    0  501    0  0.00000000000E+00  0.00000000000E+00 -0.16210887665E+04  0.16210887665E+04  0.25500000920E-02 0. -1.
    10030    2    1    2    0    0  0.00000000000E+00  0.00000000000E+00 -0.49666448750E+03  0.27455130454E+04  0.27002159672E+04 0.  0.
        1    1    3    3  502    0  0.24189535588E+03  0.13134578914E+04 -0.44940344963E+03  0.14091303901E+04  0.50400001928E-02 0.  1.
       -1    1    3    3    0  502 -0.24189535588E+03 -0.13134578914E+04 -0.47261037869E+02  0.13363826553E+04  0.50400001928E-02 0. -1.
</event>
<event>
 5   0  0.4439357E-06  0.2705281E+04  0.7818609E-02  0.8333294E-01
       -2   -1    0    0    0  501  0.00000000000E+00  0.00000000000E+00  0.65616220016E+03  0.65616220016E+03  0.25500000920E-02 0. -1.
        2   -1    0    0  501    0  0.00000000000E+00  0.00000000000E+00 -0.27883900993E+04  0.27883900993E+04  0.25500000920E-02 0.  1.
    10030    2    1    2    0    0  0.00000000000E+00  0.00000000000E+00 -0.21322278991E+04  0.34445522994E+04  0.27052808966E+04 0.  0.
        4    1    3    3  502    0 -0.80956970761E+03 -0.10805315719E+04 -0.96202478979E+03  0.16578434481E+04  0.12699999809E+01 0. -1.
       -4    1    3    3    0  502  0.80956970761E+03  0.10805315719E+04 -0.11702031093E+04  0.17867088513E+04  0.12699999809E+01 0.  1.
</event>
<event>
 5   0  0.1732312E-06  0.2700791E+04  0.7818609E-02  0.8334748E-01
        1   -1    0    0  501    0  0.00000000000E+00  0.00000000000E+00  0.22555333403E+04  0.22555333403E+04  0.50400001928E-02 0.  1.
       -1   -1    0    0    0  501  0.00000000000E+00  0.00000000000E+00 -0.80848613619E+03  0.80848613620E+03  0.50400001928E-02 0. -1.
    10030    2    1    2    0    0  0.00000000000E+00  0.00000000000E+00  0.14470472041E+04  0.30640194765E+04  0.27007905771E+04 0.  0.
        5    1    3    3  502    0  0.23267005902E+03 -0.28001475016E+03  0.21987974291E+04  0.22287386210E+04  0.46999998093E+01 0.  1.
       -5    1    3    3    0  502 -0.23267005902E+03  0.28001475016E+03 -0.75175022502E+03  0.83528085545E+03  0.46999998093E+01 0. -1.
</event>
<event>
 5   0  0.4487186E-06  0.2697652E+04  0.7818609E-02  0.8335767E-01
        2   -1    0    0  501    0  0.00000000000E+00  0.00000000000E+00  0.17844606404E+04  0.17844606404E+04  0.25500000920E-02 0. -1.
       -2   -1    0    0    0  501  0.00000000000E+00  0.00000000000E+00 -0.10195413908E+04  0.10195413908E+04  0.25500000920E-02 0.  1.
    10030    2    1    2    0    0  0.00000000000E+00  0.00000000000E+00  0.76491924962E+03  0.28040020311E+04  0.26976519294E+04 0.  0.
        3    1    3    3  502    0  0.82252016794E+03 -0.56451803178E+03  0.13260540832E+04  0.16594093759E+04  0.10100000352E+00 0. -1.
       -3    1    3    3    0  502 -0.82252016794E+03  0.56451803178E+03 -0.56113483359E+03  0.11445926553E+04  0.10100000352E+00 0.  1.
</event>
<event>
 5   0  0.4487186E-06  0.2699800E+04  0.7818609E-02  0.8335070E-01
        2   -1    0    0  501    0  0.00000000000E+00  0.00000000000E+00  0.18451987458E+04  0.18451987458E+04  0.25500000920E-02 0.  1.
       -2   -1    0    0    0  501  0.00000000000E+00  0.00000000000E+00 -0.98755185209E+03  0.98755185209E+03  0.25500000920E-02 0. -1.
    10030    2    1    2    0    0  0.00000000000E+00  0.00000000000E+00  0.85764689374E+03  0.28327505979E+04  0.26997995769E+04 0.  0.
        3    1    3    3  502    0 -0.11555671522E+04  0.82377283194E+02  0.11558433025E+04  0.16364886832E+04  0.10100000352E+00 0. -1.
       -3    1    3    3    0  502  0.11555671522E+04 -0.82377283194E+02 -0.29819640878E+03  0.11962619147E+04  0.10100000352E+00 0.  1.
</event>
<event>
 5   0  0.1771016E-06  0.2692620E+04  0.7818609E-02  0.8337403E-01
       -1   -1    0    0    0  501  0.00000000000E+00  0.00000000000E+00  0.11654157142E+04  0.11654157142E+04  0.50400001928E-02 0.  1.
        1   -1    0    0  501    0  0.00000000000E+00  0.00000000000E+00 -0.15552827558E+04  0.15552827558E+04  0.50400001928E-02 0. -1.
    10030    2    1    2    0    0  0.00000000000E+00  0.00000000000E+00 -0.38986704153E+03  0.27206984700E+04  0.26926202581E+04 0.  0.
        2    1    3    3  502    0 -0.65549145181E+03  0.11752475134E+04 -0.23628956260E+03  0.13662754182E+04  0.25500000920E-02 0.  1.
       -2    1    3    3    0  502  0.65549145181E+03 -0.11752475134E+04 -0.15357747894E+03  0.13544230518E+04  0.25500000920E-02 0. -1.
</event>
<event>
 5   0  0.1732312E-06  0.2640735E+04  0.7818609E-02  0.8354495E-01
       -1   -1    0    0    0  501  0.00000000000E+00  0.00000000000E+00  0.15256809817E+04  0.15256809817E+04  0.50400001928E-02 0. -1.
        1   -1    0    0  501    0  0.00000000000E+00  0.00000000000E+00 -0.11426835245E+04  0.11426835245E+04  0.50400001928E-02 0.  1.
    10030    2    1    2    0    0  0.00000000000E+00  0.00000000000E+00  0.38299745726E+03  0.26683645062E+04  0.26407351412E+04 0.  0.
        5    1    3    3  502    0 -0.68355188779E+03  0.11990747354E+03  0.13265176081E+04  0.14970945328E+04  0.46999998093E+01 0. -1.
       -5    1    3    3    0  502  0.68355188779E+03 -0.11990747354E+03 -0.94352015087E+03  0.11712699734E+04  0.46999998093E+01 0.  1.
</event>
<event>
 5   0  0.1723605E-06  0.2687047E+04  0.7818609E-02  0.8339220E-01
       -1   -1    0    0    0  501  0.00000000000E+00  0.00000000000E+00  0.10108520470E+04  0.10108520470E+04  0.50400001928E-02 0.  1.
        1   -1    0    0  501    0  0.00000000000E+00  0.00000000000E+00 -0.17856768961E+04  0.17856768962E+04  0.50400001928E-02 0. -1.
    10030    2    1    2    0    0  0.00000000000E+00  0.00000000000E+00 -0.77482484920E+03  0.27965289431E+04  0.26870468144E+04 0.  0.
        1    1    3    3  502    0  0.17784793788E+03 -0.76713892762E+03  0.74548130424E+03  0.10843774243E+04  0.50400001928E-02 0.  1.
       -1    1    3    3    0  502 -0.17784793788E+03  0.76713892762E+03 -0.15203061534E+04  0.17121515188E+04  0.50400001928E-02 0. -1.
</event>
<event>
 5   0  0.4401659E-06  0.2651552E+04  0.7818609E-02  0.8350898E-01
        2   -1    0    0  501    0  0.00000000000E+00  0.00000000000E+00  0.28523721529E+04  0.28523721529E+04  0.25500000920E-02 0. -1.
       -2   -1    0    0    0  501  0.00000000000E+00  0.00000000000E+00 -0.61621781175E+03  0.61621781175E+03  0.25500000920E-02 0.  1.
    10030    2    1    2    0    0  0.00000000000E+00  0.00000000000E+00  0.22361543411E+04  0.34685899646E+04  0.26515523954E+04 0.  0.
        5    1    3    3  502    0 -0.74148034298E+03 -0.10915826292E+04  0.12851640345E+04  0.18420136864E+04  0.46999998093E+01 0. -1.
       -5    1    3    3    0  502  0.74148034298E+03  0.10915826292E+04  0.95099030659E+03  0.16265762782E+04  0.46999998093E+01 0.  1.
</event>
<event>
 5   0  0.4487186E-06  0.2696922E+04  0.7818609E-02  0.8336004E-01
        2   -1    0    0  501    0  0.00000000000E+00  0.00000000000E+00  0.16457372084E+04  0.16457372084E+04  0.25500000920E-02 0. -1.
       -2   -1    0    0    0  501  0.00000000000E+00  0.00000000000E+00 -0.11048827303E+04  0.11048827303E+04  0.25500000920E-02 0.  1.
    10030    2    1    2    0    0  0.00000000000E+00  0.00000000000E+00  0.54085447811E+03  0.27506199387E+04  0.26969216675E+04 0.  0.
        3    1    3    3  502    0  0.44237355980E+03  0.96554723381E+03 -0.57700202239E+03  0.12086799292E+04  0.10100000352E+00 0.  1.
       -3    1    3    3    0  502 -0.44237355980E+03 -0.96554723381E+03  0.11178565005E+04  0.15419400095E+04  0.10100000352E+00 0. -1.
</event>
<event>
 5   0  0.4439357E-06  0.2706590E+04  0.7818609E-02  0.8332870E-01
       -2   -1    0    0    0  501  0.00000000000E+00  0.00000000000E+00  0.15690566494E+04  0.15690566494E+04  0.25500000920E-02 0. -1.
        2   -1    0    0  501    0  0.00000000000E+00  0.00000000000E+00 -0.11672026369E+04  0.11672026369E+04  0.25500000920E-02 0.  1.
    10030    2    1    2    0    0  0.00000000000E+00  0.00000000000E+00  0.40185401253E+03  0.27362592863E+04  0.27065897795E+04 0.  0.
        4    1    3    3  502    0 -0.46242493515E+03  0.35544410645E+03  0.14354717994E+04  0.15494380379E+04  0.12699999809E+01 0. -1.
       -4    1    3    3    0  502  0.46242493515E+03 -0.35544410645E+03 -0.10336177869E+04  0.11868212484E+04  0.12699999809E+01 0.  1.
</event>
<event>
 5   0  0.4487186E-06  0.2697838E+04  0.7818609E-02  0.8335707E-01
       -2   -1    0    0    0  501  0.00000000000E+00  0.00000000000E+00  0.13568486866E+04  0.13568486866E+04  0.25500000920E-02 0.  1.
        2   -1    0    0  501    0  0.00000000000E+00  0.00000000000E+00 -0.13410355120E+04  0.13410355120E+04  0.25500000920E-02 0. -1.
    10030    2    1    2    0    0  0.00000000000E+00  0.00000000000E+00  0.15813174588E+02  0.26978841985E+04  0.26978378551E+04 0.  0.
        3    1    3    3  502    0 -0.63336645166E+03 -0.19832405167E+03  0.11822762701E+04  0.13558254610E+04  0.10100000352E+00 0.  1.
       -3    1    3    3    0  502  0.63336645166E+03  0.19832405167E+03 -0.11664630955E+04  0.13420587375E+04  0.10100000352E+00 0. -1.
</event>
<event>
 5   0  0.1732312E-06  0.2707561E+04  0.7818609E-02  0.8332556E-01
       -1   -1    0    0    0  501  0.00000000000E+00  0.00000000000E+00  0.12285590079E+04  0.12285590079E+04  0.50400001928E-02 0.  1.
        1   -1    0    0  501    0  0.00000000000E+00  0.00000000000E+00 -0.14917651176E+04  0.14917651176E+04  0.50400001928E-02 0. -1.
    10030    2    1    2    0    0  0.00000000000E+00  0.00000000000E+00 -0.26320610977E+03  0.27203241255E+04  0.27075608750E+04 0.  0.
        5    1    3    3  502    0  0.11709510241E+04  0.31226190674E+03  0.47461970317E+03  0.13015067237E+04  0.46999998093E+01 0.  1.
       -5    1    3    3    0  502 -0.11709510241E+04 -0.31226190674E+03 -0.73782581293E+03  0.14188174018E+04  0.46999998093E+01 0. -1.
</event>
<event>
 5   0  0.1828511E-06  0.2713953E+04  0.7818609E-02  0.8330492E-01
        1   -1    0    0  501    0  0.00000000000E+00  0.00000000000E+00  0.12324144888E+04  0.12324144888E+04  0.50400001928E-02 0.  1.
       -1   -1    0    0    0  501  0.00000000000E+00  0.00000000000E+00 -0.14941286215E+04  0.14941286215E+04  0.50400001928E-02 0. -1.
    10030    2    1    2    0    0  0.00000000000E+00  0.00000000000E+00 -0.26171413270E+03  0.27265431103E+04  0.27139533977E+04 0.  0.
        4    1    3    3  502    0  0.82298057614E+03  0.84395680036E+03 -0.80615380073E+03  0.14280916192E+04  0.12699999809E+01 0. -1.
       -4    1    3    3    0  502 -0.82298057614E+03 -0.84395680036E+03  0.54443966803E+03  0.12984514910E+04  0.12699999809E+01 0.  1.
</event>
<event>
 5   0  0.1732312E-06  0.2707697E+04  0.7818609E-02  0.8332512E-01
       -1   -1    0    0    0  501  0.00000000000E+00  0.00000000000E+00  0.10127463599E+04  0.10127463599E+04  0.50400001928E-02 0.  1.
        1   -1    0    0  501    0  0.00000000000E+00  0.00000000000E+00 -0.18098363870E+04  0.18098363870E+04  0.50400001928E-02 0. -1.
    10030    2    1    2    0    0  0.00000000000E+00  0.00000000000E+00 -0.79709002715E+03  0.28225827469E+04  0.27076965952E+04 0.  0.
        5    1    3    3  502    0  0.33852348661E+03  0.51323599637E+03  0.85881412555E+03  0.10562164225E+04  0.46999998093E+01 0.  1.
       -5    1    3    3    0  502 -0.33852348661E+03 -0.51323599637E+03 -0.16559041527E+04  0.17663663244E+04  0.46999998093E+01 0. -1.
</event>
<event>
 5   0  0.1828511E-06  0.2700331E+04  0.7818609E-02  0.8334898E-01
        1   -1    0    0  501    0  0.00000000000E+00  0.00000000000E+00  0.21147797191E+04  0.21147797191E+04  0.50400001928E-02 0.  1.
       -1   -1    0    0    0  501  0.00000000000E+00  0.00000000000E+00 -0.86200297233E+03  0.86200297234E+03  0.50400001928E-02 0. -1.
    10030    2    1    2    0    0  0.00000000000E+00  0.00000000000E+00  0.12527767468E+04  0.29767826915E+04  0.27003306492E+04 0.  0.
        4    1    3    3  502    0 -0.63652165033E+03  0.57368060105E+03 -0.52382766828E+03  0.10043237936E+04  0.12699999809E+01 0. -1.
       -4    1    3    3    0  502  0.63652165033E+03 -0.57368060105E+03  0.17766044151E+04  0.19724588979E+04  0.12699999809E+01 0.  1.
</event>
<event>
 5   0  0.4487186E-06  0.2693392E+04  0.7818609E-02  0.8337152E-01
        2   -1    0    0  501    0  0.00000000000E+00  0.00000000000E+00  0.24492637978E+04  0.24492637978E+04  0.25500000920E-02 0. -1.
       -2   -1    0    0    0  501  0.00000000000E+00  0.00000000000E+00 -0.74046355672E+03  0.74046355672E+03  0.25500000920E-02 0.  1.
    10030    2    1    2    0    0  0.00000000000E+00  0.00000000000E+00  0.17088002411E+04  0.31897273545E+04  0.26933923465E+04 0.  0.
        3    1    3    3  502    0 -0.13589265384E+03 -0.89213920731E+03 -0.32941158516E+03  0.96067225484E+03  0.10100000352E+00 0.  1.
       -3    1    3    3    0  502  0.13589265384E+03  0.89213920731E+03  0.20382118262E+04  0.22290550997E+04  0.10100000352E+00 0. -1.
</event>
<event>
 5   0  0.1753474E-06  0.2707376E+04  0.7818609E-02  0.8332616E-01
       -1   -1    0    0    0  501  0.00000000000E+00  0.00000000000E+00  0.86168244066E+03  0.86168244067E+03  0.50400001928E-02 0. -1.
        1   -1    0    0  501    0  0.00000000000E+00  0.00000000000E+00 -0.21266193418E+04  0.21266193418E+04  0.50400001928E-02 0.  1.
    10030    2    1    2    0    0  0.00000000000E+00  0.00000000000E+00 -0.12649369011E+04  0.29883017824E+04  0.27073755150E+04 0.  0.
        3    1    3    3  502    0 -0.14125581011E+03 -0.10669238447E+03  0.84885185857E+03  0.86711357780E+03  0.10100000352E+00 0. -1.
       -3    1    3    3    0  502  0.14125581011E+03  0.10669238447E+03 -0.21137887597E+04  0.21211882046E+04  0.10100000352E+00 0.  1.
</event>
<event>
 5   0  0.1482875E-06  0.2690538E+04  0.7818609E-02  0.8338081E-01
       -4   -1    0    0    0  501  0.00000000000E+00  0.00000000000E+00  0.10127419677E+04  0.10127427640E+04  0.12699999809E+01 0.  1.
        4   -1    0    0  501    0  0.00000000000E+00  0.00000000000E+00 -0.17869778985E+04  0.17869783498E+04  0.12699999809E+01 0. -1.
    10030    2    1    2    0    0  0.00000000000E+00  0.00000000000E+00 -0.77423593078E+03  0.27997211138E+04  0.26905384291E+04 0.  0.
        5    1    3    3  502    0 -0.90705559913E+03  0.96165028831E+03 -0.64665051016E+03  0.14716317845E+04  0.46999998093E+01 0. -1.
       -5    1    3    3    0  502  0.90705559913E+03 -0.96165028831E+03 -0.12758542061E+03  0.13280893292E+04  0.46999998093E+01 0.  1.
</event>
<event>
 5   0  0.4487186E-06  0.2705346E+04  0.7818609E-02  0.8333273E-01
       -2   -1    0    0    0  501  0.00000000000E+00  0.00000000000E+00  0.15879497698E+04  0.15879497698E+04  0.25500000920E-02 0. -1.
        2   -1    0    0  501    0  0.00000000000E+00  0.00000000000E+00 -0.11522556259E+04  0.11522556259E+04  0.25500000920E-02 0.  1.
    10030    2    1    2    0    0  0.00000000000E+00  0.00000000000E+00  0.43569414387E+03  0.27402053957E+04  0.27053458603E+04 0.  0.
        3    1    3    3  502    0 -0.83003009232E+03  0.10528191635E+04  0.40001417271E+03  0.13990673657E+04  0.10100000352E+00 0.  1.
       -3    1    3    3    0  502  0.83003009232E+03 -0.10528191635E+04  0.35679971161E+02  0.13411380300E+04  0.10100000352E+00 0. -1.
</event>
<event>
 5   0  0.1753474E-06  0.2705191E+04  0.7818609E-02  0.8333323E-01
        1   -1    0    0  501    0  0.00000000000E+00  0.00000000000E+00  0.12206581106E+04  0.12206581106E+04  0.50400001928E-02 0. -1.
       -1   -1    0    0    0  501  0.00000000000E+00  0.00000000000E+00 -0.14987940490E+04  0.14987940490E+04  0.50400001928E-02 0.  1.
    10030    2    1    2    0    0  0.00000000000E+00  0.00000000000E+00 -0.27813593833E+03  0.27194521596E+04  0.27051913885E+04 0.  0.
        3    1    3    3  502    0  0.46667967540E+03  0.11789735738E+04 -0.61245004383E+03  0.14081419223E+04  0.10100000352E+00 0. -1.
       -3    1    3    3    0  502 -0.46667967540E+03 -0.11789735738E+04  0.33431410550E+03  0.13113102373E+04  0.10100000352E+00 0.  1.
</event>
<event>
 5   0  0.4439357E-06  0.2696114E+04  0.7818609E-02  0.8336267E-01
        2   -1    0    0  501    0  0.00000000000E+00  0.00000000000E+00  0.15009313061E+04  0.15009313061E+04  0.25500000920E-02 0.  1.
       -2   -1    0    0    0  501  0.00000000000E+00  0.00000000000E+00 -0.12107535031E+04  0.12107535031E+04  0.25500000920E-02 0. -1.
    10030    2    1    2    0    0  0.00000000000E+00  0.00000000000E+00  0.29017780295E+03  0.27116848092E+04  0.26961141198E+04 0.  0.
        4    1    3    3  502    0  0.10650211382E+04  0.80440931490E+03  0.33568756272E+03  0.13762383963E+04  0.12699999809E+01 0. -1.
       -4    1    3    3    0  502 -0.10650211382E+04 -0.80440931490E+03 -0.45509759769E+02  0.13354464129E+04  0.12699999809E+01 0.  1.
</event>
<event>
 5   0  0.1771016E-06  0.2701805E+04  0.7818609E-02  0.8334420E-01
        1   -1    0    0  501    0  0.00000000000E+00  0.00000000000E+00  0.10236446929E+04  0.10236446929E+04  0.50400001928E-02 0. -1.
       -1   -1    0    0    0  501  0.00000000000E+00  0.00000000000E+00 -0.17827840628E+04  0.17827840628E+04  0.50400001928E-02 0.  1.
    10030    2    1    2    0    0  0.00000000000E+00  0.00000000000E+00 -0.75913936986E+03  0.28064287557E+04  0.27018049112E+04 0.  0.
        2    1    3    3  502    0 -0.29823520109E+03  0.70264641562E+03  0.77816753478E+03  0.10900462984E+04  0.25500000920E-02 0. -1.
       -2    1    3    3    0  502  0.29823520109E+03 -0.70264641562E+03 -0.15373069046E+04  0.17163824573E+04  0.25500000920E-02 0.  1.
</event>
<event>
 5   0  0.1771016E-06  0.2695240E+04  0.7818609E-02  0.8336551E-01
        1   -1    0    0  501    0  0.00000000000E+00  0.00000000000E+00  0.87565003254E+03  0.87565003255E+03  0.50400001928E-02 0.  1.
       -1   -1    0    0    0  501  0.00000000000E+00  0.00000000000E+00 -0.20739786887E+04  0.20739786887E+04  0.50400001928E-02 0. -1.
    10030    2    1    2    0    0  0.00000000000E+00  0.00000000000E+00 -0.11983286562E+04  0.29496287213E+04  0.26952398827E+04 0.  0.
        2    1    3    3  502    0  0.10564779138E+04 -0.83655690143E+03 -0.61045690267E+03  0.14794021298E+04  0.25500000920E-02 0. -1.
       -2    1    3    3    0  502 -0.10564779138E+04  0.83655690143E+03 -0.58787175348E+03  0.14702265914E+04  0.25500000920E-02 0.  1.
</event>
<event>
 5   0  0.1828511E-06  0.2697412E+04  0.7818609E-02  0.8335845E-01
        1   -1    0    0  501    0  0.00000000000E+00  0.00000000000E+00  0.17294026262E+04  0.17294026262E+04  0.50400001928E-02 0.  1.
       -1   -1    0    0    0  501  0.00000000000E+00  0.00000000000E+00 -0.10518131751E+04  0.10518131751E+04  0.50400001928E-02 0. -1.
    10030    2    1    2    0    0  0.00000000000E+00  0.00000000000E+00  0.67758945109E+03  0.27812158013E+04  0.26974124396E+04 0.  0.
        4    1    3    3  502    0 -0.77355943413E+02 -0.24911807048E+03  0.17031448316E+04  0.17230054223E+04  0.12699999809E+01 0.  1.
       -4    1    3    3    0  502  0.77355943413E+02  0.24911807048E+03 -0.10255553805E+04  0.10582103790E+04  0.12699999809E+01 0. -1.
</event>
<event>
 5   0  0.1753474E-06  0.2691277E+04  0.7818609E-02  0.8337841E-01
       -1   -1    0    0    0  501  0.00000000000E+00  0.00000000000E+00  0.15052648697E+04  0.15052648697E+04  0.50400001928E-02 0.  1.
        1   -1    0    0  501    0  0.00000000000E+00  0.00000000000E+00 -0.12029394201E+04  0.12029394201E+04  0.50400001928E-02 0. -1.
    10030    2    1    2    0    0  0.00000000000E+00  0.00000000000E+00  0.30232544957E+03  0.27082042898E+04  0.26912766112E+04 0.  0.
        3    1    3    3  502    0 -0.99519800116E+03  0.14782688236E+03 -0.74802950826E+03  0.12537224590E+04  0.10100000352E+00 0. -1.
       -3    1    3    3    0  502  0.99519800116E+03 -0.14782688236E+03  0.10503549578E+04  0.14544818309E+04  0.10100000352E+00 0.  1.
</event>
<event>
 5   0  0.1732312E-06  0.2698069E+04  0.7818609E-02  0.8335632E-01
        1   -1    0    0  501    0  0.00000000000E+00  0.00000000000E+00  0.16992715151E+04  0.16992715152E+04  0.50400001928E-02 0. -1.
       -1   -1    0    0    0  501  0.00000000000E+00  0.00000000000E+00 -0.10709845156E+04  0.10709845156E+04  0.50400001928E-02 0.  1.
    10030    2    1    2    0    0  0.00000000000E+00  0.00000000000E+00  0.62828699956E+03  0.27702560307E+04  0.26980685540E+04 0.  0.
        5    1    3    3  502    0 -0.16637582685E+03  0.12162943424E+04 -0.26012259546E+03  0.12548859302E+04  0.46999998093E+01 0.  1.
       -5    1    3    3    0  502  0.16637582685E+03 -0.12162943424E+04  0.88840959502E+03  0.15153701006E+04  0.46999998093E+01 0. -1.
</event>
<event>
 5   0  0.4487186E-06  0.2702541E+04  0.7818609E-02  0.8334181E-01
       -2   -1    0    0    0  501  0.00000000000E+00  0.00000000000E+00  0.71726853083E+03  0.71726853083E+03  0.25500000920E-02 0.  1.
        2   -1    0    0  501    0  0.00000000000E+00  0.00000000000E+00 -0.25456750979E+04  0.25456750979E+04  0.25500000920E-02 0. -1.
    10030    2    1    2    0    0  0.00000000000E+00  0.00000000000E+00 -0.18284065671E+04  0.32629436288E+04  0.27025414983E+04 0.  0.
        3    1    3    3  502    0  0.18605698018E+03  0.12872217850E+04 -0.13567888554E+04  0.18794768240E+04  0.10100000352E+00 0. -1.
       -3    1    3    3    0  502 -0.18605698018E+03 -0.12872217850E+04 -0.47161771169E+03  0.13834668047E+04  0.10100000352E+00 0.  1.
</event>
<event>
 5   0  0.1723605E-06  0.2694285E+04  0.7818609E-02  0.8336862E-01
        1   -1    0    0  501    0  0.00000000000E+00  0.00000000000E+00  0.13290862432E+04  0.13290862432E+04  0.50400001928E-02 0. -1.
       -1   -1    0    0    0  501  0.00000000000E+00  0.00000000000E+00 -0.13654438294E+04  0.13654438294E+04  0.50400001928E-02 0.  1.
    10030    2    1    2    0    0  0.00000000000E+00  0.00000000000E+00 -0.36357586212E+02  0.26945300726E+04  0.26942847730E+04 0.  0.
        1    1    3    3  502    0 -0.11999267190E+04  0.13975024877E+03  0.57806198932E+03  0.13392198948E+04  0.50400001928E-02 0.  1.
       -1    1    3    3    0  502  0.11999267190E+04 -0.13975024877E+03 -0.61441957553E+03  0.13553101778E+04  0.50400001928E-02 0. -1.
</event>
<event>
 5   0  0.4655882E-06  0.2707271E+04  0.7818609E-02  0.8332650E-01
       -2   -1    0    0    0  501  0.00000000000E+00  0.00000000000E+00  0.63161488994E+03  0.63161488995E+03  0.25500000920E-02 0. -1.
        2   -1    0    0  501    0  0.00000000000E+00  0.00000000000E+00 -0.29010222936E+04  0.29010222936E+04  0.25500000920E-02 0.  1.
    10030    2    1    2    0    0  0.00000000000E+00  0.00000000000E+00 -0.22694074036E+04  0.35326371835E+04  0.27072708595E+04 0.  0.
        1    1    3    3  502    0  0.90222444915E+03 -0.31749507198E+03 -0.23846010297E+04  0.25692672396E+04  0.50400001928E-02 0.  1.
       -1    1    3    3    0  502 -0.90222444915E+03  0.31749507198E+03  0.11519362609E+03  0.96336994394E+03  0.50400001928E-02 0. -1.
</event>
<event>
 5   0  0.1753474E-06  0.2698578E+04  0.7818609E-02  0.8335466E-01
       -1   -1    0    0    0  501  0.00000000000E+00  0.00000000000E+00  0.11760183129E+04  0.11760183129E+04  0.50400001928E-02 0.  1.
        1   -1    0    0  501    0  0.00000000000E+00  0.00000000000E+00 -0.15480891833E+04  0.15480891833E+04  0.50400001928E-02 0. -1.
    10030    2    1    2    0    0  0.00000000000E+00  0.00000000000E+00 -0.37207087041E+03  0.27241074962E+04  0.26985783143E+04 0.  0.
        3    1    3    3  502    0  0.51939783647E+03  0.60005193521E+03 -0.12875710892E+04  0.15125064487E+04  0.10100000352E+00 0. -1.
       -3    1    3    3    0  502 -0.51939783647E+03 -0.60005193521E+03  0.91550021879E+03  0.12116010475E+04  0.10100000352E+00 0.  1.
</event>
<event>
 5   0  0.1771016E-06  0.2698683E+04  0.7818609E-02  0.8335432E-01
       -1   -1    0    0    0  501  0.00000000000E+00  0.00000000000E+00  0.12809211728E+04  0.12809211728E+04  0.50400001928E-02 0.  1.
        1   -1    0    0  501    0  0.00000000000E+00  0.00000000000E+00 -0.14214163795E+04  0.14214163795E+04  0.50400001928E-02 0. -1.
    10030    2    1    2    0    0  0.00000000000E+00  0.00000000000E+00 -0.14049520666E+03  0.27023375524E+04  0.26986828906E+04 0.  0.
        2    1    3    3  502    0 -0.91204954390E+03 -0.75758705175E+02 -0.10631288769E+04  0.14027889225E+04  0.25500000920E-02 0. -1.
       -2    1    3    3    0  502  0.91204954390E+03  0.75758705175E+02  0.92263367029E+03  0.12995486299E+04  0.25500000920E-02 0.  1.
</event>
<event>
 5   0  0.1482875E-06  0.2693276E+04  0.7818609E-02  0.8337190E-01
       -3   -1    0    0    0  501  0.00000000000E+00  0.00000000000E+00  0.83873600654E+03  0.83873601262E+03  0.10100000352E+00 0.  1.
        3   -1    0    0  501    0  0.00000000000E+00  0.00000000000E+00 -0.21621031757E+04  0.21621031781E+04  0.10100000352E+00 0. -1.
    10030    2    1    2    0    0  0.00000000000E+00  0.00000000000E+00 -0.13233671692E+04  0.30008391907E+04  0.26932759205E+04 0.  0.
        2    1    3    3  502    0  0.69671458193E+03 -0.82274349935E+02  0.61903866136E+03  0.93562232851E+03  0.25500000920E-02 0.  1.
       -2    1    3    3    0  502 -0.69671458193E+03  0.82274349935E+02 -0.19424058305E+04  0.20652168622E+04  0.25500000920E-02 0. -1.
</event>
<event>
 5   0  0.4401659E-06  0.2704204E+04  0.7818609E-02  0.8333642E-01
       -2   -1    0    0    0  501  0.00000000000E+00  0.00000000000E+00  0.77212910544E+03  0.77212910545E+03  0.25500000920E-02 0.  1.
        2   -1    0    0  501    0  0.00000000000E+00  0.00000000000E+00 -0.23677123205E+04  0.23677123205E+04  0.25500000920E-02 0. -1.
    10030    2    1    2    0    0  0.00000000000E+00  0.00000000000E+00 -0.15955832150E+04  0.31398414259E+04  0.27042038355E+04 0.  0.
        5    1    3    3  502    0 -0.12154378603E+03 -0.76220386680E+03 -0.20867811683E+04  0.22249506424E+04  0.46999998093E+01 0. -1.
       -5    1    3    3    0  502  0.12154378603E+03  0.76220386680E+03  0.49119795330E+03  0.91489078354E+03  0.46999998093E+01 0.  1.
</event>
<event>
 5   0  0.4401659E-06  0.2703874E+04  0.7818609E-02  0.8333749E-01
        2   -1    0    0  501    0  0.00000000000E+00  0.00000000000E+00  0.21583857008E+04  0.21583857008E+04  0.25500000920E-02 0.  1.
       -2   -1    0    0    0  501  0.00000000000E+00  0.00000000000E+00 -0.84680574113E+03  0.84680574113E+03  0.25500000920E-02 0. -1.
    10030    2    1    2    0    0  0.00000000000E+00  0.00000000000E+00  0.13115799597E+04  0.30051914420E+04  0.27038738159E+04 0.  0.
        5    1    3    3  502    0  0.50556533800E+03  0.97367044384E+03  0.15338135167E+04  0.18857986208E+04  0.46999998093E+01 0.  1.
       -5    1    3    3    0  502 -0.50556533800E+03 -0.97367044384E+03 -0.22223355702E+03  0.11193928212E+04  0.46999998093E+01 0. -1.
</event>
<event>
 5   0  0.4401659E-06  0.2697346E+04  0.7818609E-02  0.8335867E-01
       -2   -1    0    0    0  501  0.00000000000E+00  0.00000000000E+00  0.61933778790E+03  0.61933778790E+03  0.25500000920E-02 0. -1.
        2   -1    0    0  501    0  0.00000000000E+00  0.00000000000E+00 -0.29368770268E+04  0.29368770268E+04  0.25500000920E-02 0.  1.
    10030    2    1    2    0    0  0.00000000000E+00  0.00000000000E+00 -0.23175392389E+04  0.35562148147E+04  0.26973460446E+04 0.  0.
        5    1    3    3  502    0  0.46645300653E+03  0.49002665686E+03 -0.26969634410E+04  0.27805284432E+04  0.46999998093E+01 0.  1.
       -5    1    3    3    0  502 -0.46645300653E+03 -0.49002665686E+03  0.37942420208E+03  0.77568637145E+03  0.46999998093E+01 0. -1.
</event>
<event>
 5   0  0.1828511E-06  0.2697243E+04  0.7818609E-02  0.8335900E-01
       -1   -1    0    0    0  501  0.00000000000E+00  0.00000000000E+00  0.14378055359E+04  0.14378055360E+04  0.50400001928E-02 0. -1.
        1   -1    0    0  501    0  0.00000000000E+00  0.00000000000E+00 -0.12649697036E+04  0.12649697037E+04  0.50400001928E-02 0.  1.
    10030    2    1    2    0    0  0.00000000000E+00  0.00000000000E+00  0.17283583229E+03  0.27027752396E+04  0.26972433652E+04 0.  0.
        4    1    3    3  502    0 -0.58689530580E+03  0.42020424793E+03  0.12279475170E+04  0.14243856315E+04  0.12699999809E+01 0. -1.
       -4    1    3    3    0  502  0.58689530580E+03 -0.42020424793E+03 -0.10551116847E+04  0.12783896081E+04  0.12699999809E+01 0.  1.
</event>
<event>
 5   0  0.4448804E-06  0.2687746E+04  0.7818609E-02  0.8338992E-01
       -2   -1    0    0    0  501  0.00000000000E+00  0.00000000000E+00  0.12633670926E+04  0.12633670926E+04  0.25500000920E-02 0. -1.
        2   -1    0    0  501    0  0.00000000000E+00  0.00000000000E+00 -0.14295087625E+04  0.14295087625E+04  0.25500000920E-02 0.  1.
    10030    2    1    2    0    0  0.00000000000E+00  0.00000000000E+00 -0.16614166986E+03  0.26928758551E+04  0.26877457686E+04 0.  0.
        2    1    3    3  502    0 -0.24706173277E+03 -0.82087099054E+03 -0.11199982444E+04  0.14104129716E+04  0.25500000920E-02 0.  1.
       -2    1    3    3    0  502  0.24706173277E+03  0.82087099054E+03  0.95385657454E+03  0.12824628836E+04  0.25500000920E-02 0. -1.
</event>
<event>
 5   0  0.4487186E-06  0.2708286E+04  0.7818609E-02  0.8332322E-01
       -2   -1    0    0    0  501  0.00000000000E+00  0.00000000000E+00  0.10841755660E+04  0.10841755660E+04  0.25500000920E-02 0. -1.
        2   -1    0    0  501    0  0.00000000000E+00  0.00000000000E+00 -0.16913336886E+04  0.16913336886E+04  0.25500000920E-02 0.  1.
    10030    2    1    2    0    0  0.00000000000E+00  0.00000000000E+00 -0.60715812266E+03  0.27755092546E+04  0.27082855530E+04 0.  0.
        3    1    3    3  502    0  0.13481575146E+04  0.12355032272E+03 -0.33448184816E+03  0.13945147842E+04  0.10100000352E+00 0.  1.
       -3    1    3    3    0  502 -0.13481575146E+04 -0.12355032272E+03 -0.27267627450E+03  0.13809944704E+04  0.10100000352E+00 0. -1.
</event>
<event>
 5   0  0.1753474E-06  0.2689278E+04  0.7818609E-02  0.8338492E-01
       -1   -1    0    0    0  501  0.00000000000E+00  0.00000000000E+00  0.89965783344E+03  0.89965783345E+03  0.50400001928E-02 0.  1.
        1   -1    0    0  501    0  0.00000000000E+00  0.00000000000E+00 -0.20097129123E+04  0.20097129123E+04  0.50400001928E-02 0. -1.
    10030    2    1    2    0    0  0.00000000000E+00  0.00000000000E+00 -0.11100550788E+04  0.29093707457E+04  0.26892779436E+04 0.  0.
        3    1    3    3  502    0  0.24792695405E+03 -0.89384746176E+03  0.49810043723E+03  0.10528699422E+04  0.10100000352E+00 0. -1.
       -3    1    3    3    0  502 -0.24792695405E+03  0.89384746176E+03 -0.16081555160E+04  0.18565008035E+04  0.10100000352E+00 0.  1.
</event>
<event>
 5   0  0.4487186E-06  0.2707014E+04  0.7818609E-02  0.8332733E-01
        2   -1    0    0  501    0  0.00000000000E+00  0.00000000000E+00  0.19178790273E+04  0.19178790273E+04  0.25500000920E-02 0. -1.
       -2   -1    0    0    0  501  0.00000000000E+00  0.00000000000E+00 -0.95521195660E+03  0.95521195660E+03  0.25500000920E-02 0.  1.
    10030    2    1    2    0    0  0.00000000000E+00  0.00000000000E+00  0.96266707070E+03  0.28730909839E+04  0.27070138368E+04 0.  0.
        3    1    3    3  502    0  0.47382179193E+03 -0.88079779651E+03 -0.48657471459E+03  0.11122350525E+04  0.10100000352E+00 0.  1.
       -3    1    3    3    0  502 -0.47382179193E+03  0.88079779651E+03  0.14492417853E+04  0.17608559314E+04  0.10100000352E+00 0. -1.
</event>
<event>
 5   0  0.1723605E-06  0.2712650E+04  0.7818609E-02  0.8330912E-01
       -1   -1    0    0    0  501  0.00000000000E+00  0.00000000000E+00  0.15783792242E+04  0.15783792242E+04  0.50400001928E-02 0.  1.
        1   -1    0    0  501    0  0.00000000000E+00  0.00000000000E+00 -0.11655106106E+04  0.11655106106E+04  0.50400001928E-02 0. -1.
    10030    2    1    2    0    0  0.00000000000E+00  0.00000000000E+00  0.41286861359E+03  0.27438898349E+04  0.27126501680E+04 0.  0.
        1    1    3    3  502    0  0.11794749674E+04 -0.53884364708E+03  0.60863645964E+03  0.14324636172E+04  0.50400001928E-02 0.  1.
       -1    1    3    3    0  502 -0.11794749674E+04  0.53884364708E+03 -0.19576784605E+03  0.13114262176E+04  0.50400001928E-02 0. -1.
</event>
<event>
 5   0  0.4401659E-06  0.2743332E+04  0.7818609E-02  0.8321081E-01
       -2   -1    0    0    0  501  0.00000000000E+00  0.00000000000E+00  0.11948304095E+04  0.11948304095E+04  0.25500000920E-02 0. -1.
        2   -1    0    0  501    0  0.00000000000E+00  0.00000000000E+00 -0.15746735862E+04  0.15746735862E+04  0.25500000920E-02 0.  1.
    10030    2    1    2    0    0  0.00000000000E+00  0.00000000000E+00 -0.37984317674E+03  0.27695039957E+04  0.27433321970E+04 0.  0.
        5    1    3    3  502    0 -0.38392502918E+03  0.61348728082E+02 -0.15178732109E+04  0.15668832978E+04  0.46999998093E+01 0.  1.
       -5    1    3    3    0  502  0.38392502918E+03 -0.61348728082E+02  0.11380300342E+04  0.12026206979E+04  0.46999998093E+01 0. -1.
</event>
<event>
 5   0  0.1753474E-06  0.2703906E+04  0.7818609E-02  0.8333739E-01
       -1   -1    0    0    0  501  0.00000000000E+00  0.00000000000E+00  0.11248317423E+04  0.11248317424E+04  0.50400001928E-02 0. -1.
        1   -1    0    0  501    0  0.00000000000E+00  0.00000000000E+00 -0.16249331862E+04  0.16249331862E+04  0.50400001928E-02 0.  1.
    10030    2    1    2    0    0  0.00000000000E+00  0.00000000000E+00 -0.50010144383E+03  0.27497649285E+04  0.27039056397E+04 0.  0.
        3    1    3    3  502    0 -0.10873714373E+04 -0.77442669715E+03 -0.32737292134E+02  0.13353595367E+04  0.10100000352E+00 0.  1.
       -3    1    3    3    0  502  0.10873714373E+04  0.77442669715E+03 -0.46736415170E+03  0.14144053918E+04  0.10100000352E+00 0. -1.
</event>
<event>
 5   0  0.4448804E-06  0.2695297E+04  0.7818609E-02  0.8336533E-01
        2   -1    0    0  501    0  0.00000000000E+00  0.00000000000E+00  0.15263217065E+04  0.15263217065E+04  0.25500000920E-02 0.  1.
       -2   -1    0    0    0  501  0.00000000000E+00  0.00000000000E+00 -0.11898909140E+04  0.11898909140E+04  0.25500000920E-02 0. -1.
    10030    2    1    2    0    0  0.00000000000E+00  0.00000000000E+00  0.33643079247E+03  0.27162126204E+04  0.26952968893E+04 0.  0.
        2    1    3    3  502    0  0.13081377455E+04 -0.18724659356E+03  0.43459725472E+03  0.13911004356E+04  0.25500000920E-02 0.  1.
       -2    1    3    3    0  502 -0.13081377455E+04  0.18724659356E+03 -0.98166462254E+02  0.13251121848E+04  0.25500000920E-02 0. -1.
</event>
<event>
 5   0  0.1732312E-06  0.2706874E+04  0.7818609E-02  0.8332778E-01
        1   -1    0    0  501    0  0.00000000000E+00  0.00000000000E+00  0.15111257431E+04  0.15111257431E+04  0.50400001928E-02 0.  1.
       -1   -1    0    0    0  501  0.00000000000E+00  0.00000000000E+00 -0.12122032830E+04  0.12122032830E+04  0.50400001928E-02 0. -1.
    10030    2    1    2    0    0  0.00000000000E+00  0.00000000000E+00  0.29892246006E+03  0.27233290261E+04  0.27068739068E+04 0.  0.
        5    1    3    3  502    0 -0.46977798839E+03  0.72137946770E+03  0.12001708668E+04  0.14769942093E+04  0.46999998093E+01 0.  1.
       -5    1    3    3    0  502  0.46977798839E+03 -0.72137946770E+03 -0.90124840679E+03  0.12463348168E+04  0.46999998093E+01 0. -1.
</event>
<event>
 5   0  0.1771016E-06  0.2701029E+04  0.7818609E-02  0.8334671E-01
       -1   -1    0    0    0  501  0.00000000000E+00  0.00000000000E+00  0.96976005318E+03  0.96976005320E+03  0.50400001928E-02 0. -1.
        1   -1    0    0  501    0  0.00000000000E+00  0.00000000000E+00 -0.18807634174E+04  0.18807634174E+04  0.50400001928E-02 0.  1.
    10030    2    1    2    0    0  0.00000000000E+00  0.00000000000E+00 -0.91100336417E+03  0.28505234706E+04  0.27010288645E+04 0.  0.
        2    1    3    3  502    0 -0.53403342453E+03  0.80496350715E+03 -0.14515232646E+04  0.17435818691E+04  0.25500000920E-02 0.  1.
       -2    1    3    3    0  502  0.53403342453E+03 -0.80496350715E+03  0.54051990044E+03  0.11069416015E+04  0.25500000920E-02 0. -1.
</event>
<event>
 5   0  0.1482875E-06  0.2665870E+04  0.7818609E-02  0.8346165E-01
        3   -1    0    0  501    0  0.00000000000E+00  0.00000000000E+00  0.15719347814E+04  0.15719347847E+04  0.10100000352E+00 0. -1.
       -3   -1    0    0    0  501  0.00000000000E+00  0.00000000000E+00 -0.11302731063E+04  0.11302731109E+04  0.10100000352E+00 0.  1.
    10030    2    1    2    0    0  0.00000000000E+00  0.00000000000E+00  0.44166167507E+03  0.27022078955E+04  0.26658699284E+04 0.  0.
        4    1    3    3  502    0 -0.44639595212E+03 -0.59630620549E+03 -0.89961575692E+03  0.11679728421E+04  0.12699999809E+01 0.  1.
       -4    1    3    3    0  502  0.44639595212E+03  0.59630620549E+03  0.13412774320E+04  0.15342350535E+04  0.12699999809E+01 0. -1.
</event>
<event>
 5   0  0.4401659E-06  0.2703438E+04  0.7818609E-02  0.8333890E-01
        2   -1    0    0  501    0  0.00000000000E+00  0.00000000000E+00  0.14371992650E+04  0.14371992650E+04  0.25500000920E-02 0.  1.
       -2   -1    0    0    0  501  0.00000000000E+00  0.00000000000E+00 -0.12713229927E+04  0.12713229927E+04  0.25500000920E-02 0. -1.
    10030    2    1    2    0    0  0.00000000000E+00  0.00000000000E+00  0.16587627234E+03  0.27085222577E+04  0.27034381595E+04 0.  0.
        5    1    3    3  502    0  0.13355690918E+04  0.20323068567E+03  0.37301731769E+02  0.13514662481E+04  0.46999998093E+01 0.  1.
       -5    1    3    3    0  502 -0.13355690918E+04 -0.20323068567E+03  0.12857454057E+03  0.13570560096E+04  0.46999998093E+01 0. -1.
</event>
<event>
 5   0  0.1482875E-06  0.2686075E+04  0.7818609E-02  0.8339537E-01
        3   -1    0    0  501    0  0.00000000000E+00  0.00000000000E+00  0.15985007384E+04  0.15985007416E+04  0.10100000352E+00 0.  1.
       -3   -1    0    0    0  501  0.00000000000E+00  0.00000000000E+00 -0.11284008351E+04  0.11284008396E+04  0.10100000352E+00 0. -1.
    10030    2    1    2    0    0  0.00000000000E+00  0.00000000000E+00  0.47009990331E+03  0.27269015812E+04  0.26860748900E+04 0.  0.
        2    1    3    3  502    0  0.11189821634E+04 -0.73574187442E+03  0.13195651173E+03  0.13456781594E+04  0.25500000920E-02 0. -1.
       -2    1    3    3    0  502 -0.11189821634E+04  0.73574187442E+03  0.33814339158E+03  0.13812234218E+04  0.25500000920E-02 0.  1.
</event>
<event>
 5   0  0.4655882E-06  0.2702897E+04  0.7818609E-02  0.8334066E-01
        2   -1    0    0  501    0  0.00000000000E+00  0.00000000000E+00  0.15785449460E+04  0.15785449460E+04  0.25500000920E-02 0. -1.
       -2   -1    0    0    0  501  0.00000000000E+00  0.00000000000E+00 -0.11570232988E+04  0.11570232988E+04  0.25500000920E-02 0.  1.
    10030    2    1    2    0    0  0.00000000000E+00  0.00000000000E+00  0.42152164718E+03  0.27355682449E+04  0.27028971722E+04 0.  0.
        1    1    3    3  502    0 -0.54807643862E+03  0.82183327047E+03  0.11441971424E+04  0.15116166206E+04  0.50400001928E-02 0. -1.
       -1    1    3    3    0  502  0.54807643862E+03 -0.82183327047E+03 -0.72267549524E+03  0.12239516242E+04  0.50400001928E-02 0.  1.
</event>
<event>
 5   0  0.4401659E-06  0.2801122E+04  0.7818609E-02  0.8302920E-01
       -2   -1    0    0    0  501  0.00000000000E+00  0.00000000000E+00  0.14140958499E+04  0.14140958499E+04  0.25500000920E-02 0. -1.
        2   -1    0    0  501    0  0.00000000000E+00  0.00000000000E+00 -0.13871560474E+04  0.13871560474E+04  0.25500000920E-02 0.  1.
    10030    2    1    2    0    0  0.00000000000E+00  0.00000000000E+00  0.26939802556E+02  0.28012518973E+04  0.28011223535E+04 0.  0.
        5    1    3    3  502    0  0.68796494676E+03  0.52276126181E+03 -0.10888398536E+04  0.13900249716E+04  0.46999998093E+01 0.  1.
       -5    1    3    3    0  502 -0.68796494676E+03 -0.52276126181E+03  0.11157796561E+04  0.14112269257E+04  0.46999998093E+01 0. -1.
</event>
<event>
 5   0  0.4401659E-06  0.2695793E+04  0.7818609E-02  0.8336371E-01
       -2   -1    0    0    0  501  0.00000000000E+00  0.00000000000E+00  0.13560423230E+04  0.13560423230E+04  0.25500000920E-02 0.  1.
        2   -1    0    0  501    0  0.00000000000E+00  0.00000000000E+00 -0.13397994778E+04  0.13397994778E+04  0.25500000920E-02 0. -1.
    10030    2    1    2    0    0  0.00000000000E+00  0.00000000000E+00  0.16242845223E+02  0.26958418008E+04  0.26957928676E+04 0.  0.
        5    1    3    3  502    0 -0.12206226324E+04  0.54908169485E+03 -0.15123136093E+03  0.13469607763E+04  0.46999998093E+01 0.  1.
       -5    1    3    3    0  502  0.12206226324E+04 -0.54908169485E+03  0.16747420615E+03  0.13488810245E+04  0.46999998093E+01 0. -1.
</event>
<event>
 5   0  0.1732312E-06  0.2700910E+04  0.7818609E-02  0.8334710E-01
       -1   -1    0    0    0  501  0.00000000000E+00  0.00000000000E+00  0.83106266862E+03  0.83106266864E+03  0.50400001928E-02 0.  1.
        1   -1    0    0  501    0  0.00000000000E+00  0.00000000000E+00 -0.21944534209E+04  0.21944534209E+04  0.50400001928E-02 0. -1.
    10030    2    1    2    0    0  0.00000000000E+00  0.00000000000E+00 -0.13633907523E+04  0.30255160895E+04  0.27009097106E+04 0.  0.
        5    1    3    3  502    0 -0.40388202232E+03  0.11781491802E+04 -0.12665023345E+04  0.17762900754E+04  0.46999998093E+01 0. -1.
       -5    1    3    3    0  502  0.40388202232E+03 -0.11781491802E+04 -0.96888417802E+02  0.12492260141E+04  0.46999998093E+01 0.  1.
</event>
<event>
 5   0  0.1482875E-06  0.2704795E+04  0.7818609E-02  0.8333451E-01
        3   -1    0    0  501    0  0.00000000000E+00  0.00000000000E+00  0.15594034771E+04  0.15594034804E+04  0.10100000352E+00 0.  1.
       -3   -1    0    0    0  501  0.00000000000E+00  0.00000000000E+00 -0.11728709211E+04  0.11728709255E+04  0.10100000352E+00 0. -1.
    10030    2    1    2    0    0  0.00000000000E+00  0.00000000000E+00  0.38653255595E+03  0.27322744058E+04  0.27047950037E+04 0.  0.
        2    1    3    3  502    0  0.13186915231E+04  0.58506825494E+02  0.49054958331E+03  0.14081936214E+04  0.25500000920E-02 0.  1.
       -2    1    3    3    0  502 -0.13186915231E+04 -0.58506825494E+02 -0.10401702735E+03  0.13240807844E+04  0.25500000920E-02 0. -1.
</event>
<event>
 5   0  0.4401659E-06  0.2724510E+04  0.7818609E-02  0.8327096E-01
       -2   -1    0    0    0  501  0.00000000000E+00  0.00000000000E+00  0.11775355363E+04  0.11775355363E+04  0.25500000920E-02 0.  1.
        2   -1    0    0  501    0  0.00000000000E+00  0.00000000000E+00 -0.15759513307E+04  0.15759513307E+04  0.25500000920E-02 0. -1.
    10030    2    1    2    0    0  0.00000000000E+00  0.00000000000E+00 -0.39841579443E+03  0.27534868670E+04  0.27245100076E+04 0.  0.
        5    1    3    3  502    0 -0.57249392736E+03 -0.10011924514E+04  0.53347224944E+03  0.12707282764E+04  0.46999998093E+01 0.  1.
       -5    1    3    3    0  502  0.57249392736E+03  0.10011924514E+04 -0.93188804387E+03  0.14827585906E+04  0.46999998093E+01 0. -1.
</event>
<event>
 5   0  0.1828511E-06  0.2708290E+04  0.7818609E-02  0.8332320E-01
       -1   -1    0    0    0  501  0.00000000000E+00  0.00000000000E+00  0.14076965281E+04  0.14076965282E+04  0.50400001928E-02 0. -1.
        1   -1    0    0  501    0  0.00000000000E+00  0.00000000000E+00 -0.13026308631E+04  0.13026308632E+04  0.50400001928E-02 0.  1.
    10030    2    1    2    0    0  0.00000000000E+00  0.00000000000E+00  0.10506566500E+03  0.27103273913E+04  0.27082901939E+04 0.  0.
        4    1    3    3  502    0 -0.48074043006E+03 -0.12657276367E+04  0.29504240244E+02  0.13542709938E+04  0.12699999809E+01 0. -1.
       -4    1    3    3    0  502  0.48074043006E+03  0.12657276367E+04  0.75561424756E+02  0.13560563975E+04  0.12699999809E+01 0.  1.
</event>
<event>
 5   0  0.4655882E-06  0.2755464E+04  0.7818609E-02  0.8317230E-01
        2   -1    0    0  501    0  0.00000000000E+00  0.00000000000E+00  0.16870747117E+04  0.16870747117E+04  0.25500000920E-02 0.  1.
       -2   -1    0    0    0  501  0.00000000000E+00  0.00000000000E+00 -0.11251107282E+04  0.11251107282E+04  0.25500000920E-02 0. -1.
    10030    2    1    2    0    0  0.00000000000E+00  0.00000000000E+00  0.56196398346E+03  0.28121854399E+04  0.27554642857E+04 0.  0.
        1    1    3    3  502    0 -0.12224296524E+04 -0.60499055913E+03  0.82562776844E+02  0.13664422578E+04  0.50400001928E-02 0.  1.
       -1    1    3    3    0  502  0.12224296524E+04  0.60499055913E+03  0.47940120662E+03  0.14457431821E+04  0.50400001928E-02 0. -1.
</event>
<event>
 5   0  0.1732312E-06  0.2696148E+04  0.7818609E-02  0.8336256E-01
        1   -1    0    0  501    0  0.00000000000E+00  0.00000000000E+00  0.12251123282E+04  0.12251123282E+04  0.50400001928E-02 0. -1.
       -1   -1    0    0    0  501  0.00000000000E+00  0.00000000000E+00 -0.14833768850E+04  0.14833768851E+04  0.50400001928E-02 0.  1.
    10030    2    1    2    0    0  0.00000000000E+00  0.00000000000E+00 -0.25826455684E+03  0.27084892133E+04  0.26961478515E+04 0.  0.
        5    1    3    3  502    0  0.13292718466E+04  0.12596660642E+03 -0.31558896568E+03  0.13720239478E+04  0.46999998093E+01 0. -1.
       -5    1    3    3    0  502 -0.13292718466E+04 -0.12596660642E+03  0.57324408848E+02  0.13364652655E+04  0.46999998093E+01 0.  1.
</event>
<event>
 5   0  0.1723605E-06  0.2693963E+04  0.7818609E-02  0.8336966E-01
       -1   -1    0    0    0  501  0.00000000000E+00  0.00000000000E+00  0.93913678209E+03  0.93913678211E+03  0.50400001928E-02 0. -1.
        1   -1    0    0  501    0  0.00000000000E+00  0.00000000000E+00 -0.19319434849E+04  0.19319434849E+04  0.50400001928E-02 0.  1.
    10030    2    1    2    0    0  0.00000000000E+00  0.00000000000E+00 -0.99280670279E+03  0.28710802670E+04  0.26939630195E+04 0.  0.
        1    1    3    3  502    0  0.39272713736E+03 -0.81148982219E+03  0.57019960088E+03  0.10667136077E+04  0.50400001928E-02 0. -1.
       -1    1    3    3    0  502 -0.39272713736E+03  0.81148982219E+03 -0.15630063037E+04  0.18043666593E+04  0.50400001928E-02 0.  1.
</event>
<event>
 5   0  0.1723605E-06  0.2708764E+04  0.7818609E-02  0.8332167E-01
       -1   -1    0    0    0  501  0.00000000000E+00  0.00000000000E+00  0.10475583947E+04  0.10475583947E+04  0.50400001928E-02 0. -1.
        1   -1    0    0  501    0  0.00000000000E+00  0.00000000000E+00 -0.17510726235E+04  0.17510726235E+04  0.50400001928E-02 0.  1.
    10030    2    1    2    0    0  0.00000000000E+00  0.00000000000E+00 -0.70351422886E+03  0.27986310182E+04  0.27087641658E+04 0.  0.
        1    1    3    3  502    0 -0.81344739045E+03 -0.67684619912E+03  0.52158763266E+03  0.11797758655E+04  0.50400001928E-02 0. -1.
       -1    1    3    3    0  502  0.81344739045E+03  0.67684619912E+03 -0.12251018615E+04  0.16188551527E+04  0.50400001928E-02 0.  1.
</event>
<event>
 5   0  0.1828511E-06  0.2688184E+04  0.7818609E-02  0.8338849E-01
       -1   -1    0    0    0  501  0.00000000000E+00  0.00000000000E+00  0.94897210825E+03  0.94897210826E+03  0.50400001928E-02 0. -1.
        1   -1    0    0  501    0  0.00000000000E+00  0.00000000000E+00 -0.19037270632E+04  0.19037270632E+04  0.50400001928E-02 0.  1.
    10030    2    1    2    0    0  0.00000000000E+00  0.00000000000E+00 -0.95475495495E+03  0.28526991715E+04  0.26881844317E+04 0.  0.
        4    1    3    3  502    0  0.91990498134E+03  0.40332577702E+03  0.47041387081E+03  0.11091382600E+04  0.12699999809E+01 0. -1.
       -4    1    3    3    0  502 -0.91990498134E+03 -0.40332577702E+03 -0.14251688258E+04  0.17435609114E+04  0.12699999809E+01 0.  1.
</event>
<event>
 5   0  0.4439357E-06  0.2773840E+04  0.7818609E-02  0.8311436E-01
        2   -1    0    0  501    0  0.00000000000E+00  0.00000000000E+00  0.17319559806E+04  0.17319559806E+04  0.25500000920E-02 0. -1.
       -2   -1    0    0    0  501  0.00000000000E+00  0.00000000000E+00 -0.11106212095E+04  0.11106212095E+04  0.25500000920E-02 0.  1.
    10030    2    1    2    0    0  0.00000000000E+00  0.00000000000E+00  0.62133477111E+03  0.28425771900E+04  0.27738399708E+04 0.  0.
        4    1    3    3  502    0  0.11861027649E+04 -0.48644771942E+03  0.85300219346E+03  0.15398329480E+04  0.12699999809E+01 0. -1.
       -4    1    3    3    0  502 -0.11861027649E+04  0.48644771942E+03 -0.23166742234E+03  0.13027442420E+04  0.12699999809E+01 0.  1.
</event>
<event>
 5   0  0.4487186E-06  0.2711336E+04  0.7818609E-02  0.8331336E-01
       -2   -1    0    0    0  501  0.00000000000E+00  0.00000000000E+00  0.79076364853E+03  0.79076364854E+03  0.25500000920E-02 0. -1.
        2   -1    0    0  501    0  0.00000000000E+00  0.00000000000E+00 -0.23241268962E+04  0.23241268962E+04  0.25500000920E-02 0.  1.
    10030    2    1    2    0    0  0.00000000000E+00  0.00000000000E+00 -0.15333632477E+04  0.31148905448E+04  0.27113355116E+04 0.  0.
        3    1    3    3  502    0 -0.10284254169E+04  0.73760629743E+03 -0.13249199248E+04  0.18322485381E+04  0.10100000352E+00 0. -1.
       -3    1    3    3    0  502  0.10284254169E+04 -0.73760629743E+03 -0.20844332285E+03  0.12826420066E+04  0.10100000352E+00 0.  1.
</event>
<event>
 5   0  0.1723605E-06  0.2700395E+04  0.7818609E-02  0.8334877E-01
       -1   -1    0    0    0  501  0.00000000000E+00  0.00000000000E+00  0.26225443415E+04  0.26225443415E+04  0.50400001928E-02 0. -1.
        1   -1    0    0  501    0  0.00000000000E+00  0.00000000000E+00 -0.69513929957E+03  0.69513929959E+03  0.50400001928E-02 0.  1.
    10030    2    1    2    0    0  0.00000000000E+00  0.00000000000E+00  0.19274050420E+04  0.33176836411E+04  0.27003952575E+04 0.  0.
        1    1    3    3  502    0 -0.12617932191E+04  0.10408872562E+03  0.38734096006E+03  0.13240051397E+04  0.50400001928E-02 0.  1.
       -1    1    3    3    0  502  0.12617932191E+04 -0.10408872562E+03  0.15400640819E+04  0.19936785014E+04  0.50400001928E-02 0. -1.
</event>
<event>
 5   0  0.4401659E-06  0.2697541E+04  0.7818609E-02  0.8335803E-01
        2   -1    0    0  501    0  0.00000000000E+00  0.00000000000E+00  0.20244295645E+04  0.20244295645E+04  0.25500000920E-02 0. -1.
       -2   -1    0    0    0  501  0.00000000000E+00  0.00000000000E+00 -0.89861447038E+03  0.89861447039E+03  0.25500000920E-02 0.  1.
    10030    2    1    2    0    0  0.00000000000E+00  0.00000000000E+00  0.11258150941E+04  0.29230440348E+04  0.26975408808E+04 0.  0.
        5    1    3    3  502    0 -0.17814530620E+03  0.93789287812E+02 -0.88223209934E+03  0.90492416685E+03  0.46999998093E+01 0.  1.
       -5    1    3    3    0  502  0.17814530620E+03 -0.93789287812E+02  0.20080471934E+04  0.20181198680E+04  0.46999998093E+01 0. -1.
</event>
<event>
 5   0  0.4487186E-06  0.2692471E+04  0.7818609E-02  0.8337452E-01
        2   -1    0    0  501    0  0.00000000000E+00  0.00000000000E+00  0.18554227342E+04  0.18554227342E+04  0.25500000920E-02 0.  1.
       -2   -1    0    0    0  501  0.00000000000E+00  0.00000000000E+00 -0.97678539999E+03  0.97678540000E+03  0.25500000920E-02 0. -1.
    10030    2    1    2    0    0  0.00000000000E+00  0.00000000000E+00  0.87863733422E+03  0.28322081342E+04  0.26924708634E+04 0.  0.
        3    1    3    3  502    0 -0.59637684388E+03 -0.62876077161E+03 -0.64436447051E+03  0.10799125098E+04  0.10100000352E+00 0. -1.
       -3    1    3    3    0  502  0.59637684388E+03  0.62876077161E+03  0.15230018047E+04  0.17522956244E+04  0.10100000352E+00 0.  1.
</event>
<event>
 5   0  0.4439357E-06  0.2696789E+04  0.7818609E-02  0.8336048E-01
       -2   -1    0    0    0  501  0.00000000000E+00  0.00000000000E+00  0.66943684583E+03  0.66943684583E+03  0.25500000920E-02 0.  1.
        2   -1    0    0  501    0  0.00000000000E+00  0.00000000000E+00 -0.27159662554E+04  0.27159662554E+04  0.25500000920E-02 0. -1.
    10030    2    1    2    0    0  0.00000000000E+00  0.00000000000E+00 -0.20465294096E+04  0.33854031012E+04  0.26967891155E+04 0.  0.
        4    1    3    3  502    0 -0.75571391525E+03  0.43292374290E+03  0.26897335585E+03  0.91152332275E+03  0.12699999809E+01 0.  1.
       -4    1    3    3    0  502  0.75571391525E+03 -0.43292374290E+03 -0.23155027654E+04  0.24738797785E+04  0.12699999809E+01 0. -1.
</event>
<event>
 5   0  0.4448804E-06  0.2699198E+04  0.7818609E-02  0.8335265E-01
        2   -1    0    0  501    0  0.00000000000E+00  0.00000000000E+00  0.22196934685E+04  0.22196934685E+04  0.25500000920E-02 0.  1.
       -2   -1    0    0    0  501  0.00000000000E+00  0.00000000000E+00 -0.82057146772E+03  0.82057146773E+03  0.25500000920E-02 0. -1.
    10030    2    1    2    0    0  0.00000000000E+00  0.00000000000E+00  0.13991220008E+04  0.30402649362E+04  0.26991977529E+04 0.  0.
        2    1    3    3  502    0 -0.84407378620E+03 -0.21275284843E+03  0.18612365164E+04  0.20547325133E+04  0.25500000920E-02 0.  1.
       -2    1    3    3    0  502  0.84407378620E+03  0.21275284843E+03 -0.46211451566E+03  0.98553242294E+03  0.25500000920E-02 0. -1.
</event>
<event>
 5   0  0.4448804E-06  0.2706113E+04  0.7818609E-02  0.8333024E-01
        2   -1    0    0  501    0  0.00000000000E+00  0.00000000000E+00  0.14560241935E+04  0.14560241936E+04  0.25500000920E-02 0. -1.
       -2   -1    0    0    0  501  0.00000000000E+00  0.00000000000E+00 -0.12573706934E+04  0.12573706934E+04  0.25500000920E-02 0.  1.
    10030    2    1    2    0    0  0.00000000000E+00  0.00000000000E+00  0.19865350015E+03  0.27133948869E+04  0.27061131904E+04 0.  0.
        2    1    3    3  502    0 -0.13371959015E+04 -0.19352352120E+03  0.26897222790E+02  0.13513947213E+04  0.25500000920E-02 0. -1.
       -2    1    3    3    0  502  0.13371959015E+04  0.19352352120E+03  0.17175627736E+03  0.13620001656E+04  0.25500000920E-02 0.  1.
</event>
<event>
 5   0  0.4448804E-06  0.2760861E+04  0.7818609E-02  0.8315523E-01
        2   -1    0    0  501    0  0.00000000000E+00  0.00000000000E+00  0.21672094464E+04  0.21672094464E+04  0.25500000920E-02 0.  1.
       -2   -1    0    0    0  501  0.00000000000E+00  0.00000000000E+00 -0.87928207803E+03  0.87928207803E+03  0.25500000920E-02 0. -1.
    10030    2    1    2    0    0  0.00000000000E+00  0.00000000000E+00  0.12879273684E+04  0.30464915244E+04  0.27608610436E+04 0.  0.
        2    1    3    3  502    0  0.23087729426E+03 -0.54184410192E+03 -0.73367449595E+03  0.94083878630E+03  0.25500000920E-02 0. -1.
       -2    1    3    3    0  502 -0.23087729426E+03  0.54184410192E+03  0.20216018643E+04  0.21056527381E+04  0.25500000920E-02 0.  1.
</event>
<event>
 5   0  0.4487186E-06  0.2696016E+04  0.7818609E-02  0.8336299E-01
        2   -1    0    0  501    0  0.00000000000E+00  0.00000000000E+00  0.86487431744E+03  0.86487431744E+03  0.25500000920E-02 0. -1.
       -2   -1    0    0    0  501  0.00000000000E+00  0.00000000000E+00 -0.21010279456E+04  0.21010279456E+04  0.25500000920E-02 0.  1.
    10030    2    1    2    0    0  0.00000000000E+00  0.00000000000E+00 -0.12361536281E+04  0.29659022630E+04  0.26960156605E+04 0.  0.
        3    1    3    3  502    0  0.85367754246E+03 -0.16528887570E+03  0.51510649300E+03  0.10106534858E+04  0.10100000352E+00 0. -1.
       -3    1    3    3    0  502 -0.85367754246E+03  0.16528887570E+03 -0.17512601211E+04  0.19552487773E+04  0.10100000352E+00 0.  1.
</event>
<event>
 5   0  0.4439357E-06  0.2703414E+04  0.7818609E-02  0.8333898E-01
       -2   -1    0    0    0  501  0.00000000000E+00  0.00000000000E+00  0.11590664283E+04  0.11590664283E+04  0.25500000920E-02 0. -1.
        2   -1    0    0  501    0  0.00000000000E+00  0.00000000000E+00 -0.15763647970E+04  0.15763647970E+04  0.25500000920E-02 0.  1.
    10030    2    1    2    0    0  0.00000000000E+00  0.00000000000E+00 -0.41729836866E+03  0.27354312253E+04  0.27034137789E+04 0.  0.
        4    1    3    3  502    0  0.10031114927E+04 -0.79151832770E+03  0.23745322268E+03  0.12996613311E+04  0.12699999809E+01 0. -1.
       -4    1    3    3    0  502 -0.10031114927E+04  0.79151832770E+03 -0.65475159133E+03  0.14357698942E+04  0.12699999809E+01 0.  1.
</event>
<event>
 5   0  0.4655882E-06  0.2696667E+04  0.7818609E-02  0.8336087E-01
        2   -1    0    0  501    0  0.00000000000E+00  0.00000000000E+00  0.12432036665E+04  0.12432036665E+04  0.25500000920E-02 0.  1.
       -2   -1    0    0    0  501  0.00000000000E+00  0.00000000000E+00 -0.14623535334E+04  0.14623535334E+04  0.25500000920E-02 0. -1.
    10030    2    1    2    0    0  0.00000000000E+00  0.00000000000E+00 -0.21914986685E+03  0.27055571999E+04  0.26966670350E+04 0.  0.
        1    1    3    3  502    0  0.12247571136E+04  0.56126954932E+03 -0.55084004416E+02  0.13483648400E+04  0.50400001928E-02 0. -1.
       -1    1    3    3    0  502 -0.12247571136E+04 -0.56126954932E+03 -0.16406586243E+03  0.13571923598E+04  0.50400001928E-02 0.  1.
</event>
<event>
 5   0  0.1723605E-06  0.2698845E+04  0.7818609E-02  0.8335380E-01
        1   -1    0    0  501    0  0.00000000000E+00  0.00000000000E+00  0.10564429471E+04  0.10564429472E+04  0.50400001928E-02 0.  1.
       -1   -1    0    0    0  501  0.00000000000E+00  0.00000000000E+00 -0.17236524541E+04  0.17236524541E+04  0.50400001928E-02 0. -1.
    10030    2    1    2    0    0  0.00000000000E+00  0.00000000000E+00 -0.66720950694E+03  0.27800954012E+04  0.26988445516E+04 0.  0.
        1    1    3    3  502    0  0.86947209895E+03 -0.19821970677E+03  0.70963749666E+03  0.11396745850E+04  0.50400001928E-02 0.  1.
       -1    1    3    3    0  502 -0.86947209895E+03  0.19821970677E+03 -0.13768470036E+04  0.16404208162E+04  0.50400001928E-02 0. -1.
</event>
<event>
 5   0  0.1753474E-06  0.2744071E+04  0.7818609E-02  0.8320845E-01
        1   -1    0    0  501    0  0.00000000000E+00  0.00000000000E+00  0.18362202495E+04  0.18362202496E+04  0.50400001928E-02 0. -1.
       -1   -1    0    0    0  501  0.00000000000E+00  0.00000000000E+00 -0.10251937767E+04  0.10251937767E+04  0.50400001928E-02 0.  1.
    10030    2    1    2    0    0  0.00000000000E+00  0.00000000000E+00  0.81102647283E+03  0.28614140263E+04  0.27440711161E+04 0.  0.
        3    1    3    3  502    0 -0.32966332484E+03 -0.13758646412E+03 -0.97585117172E+03  0.10391792254E+04  0.10100000352E+00 0.  1.
       -3    1    3    3    0  502  0.32966332484E+03  0.13758646412E+03  0.17868776446E+04  0.18222348009E+04  0.10100000352E+00 0. -1.
</event>
<event>
 5   0  0.1723605E-06  0.2736659E+04  0.7818609E-02  0.8323207E-01
        1   -1    0    0  501    0  0.00000000000E+00  0.00000000000E+00  0.15384500735E+04  0.15384500735E+04  0.50400001928E-02 0. -1.
       -1   -1    0    0    0  501  0.00000000000E+00  0.00000000000E+00 -0.12170208670E+04  0.12170208670E+04  0.50400001928E-02 0.  1.
    10030    2    1    2    0    0  0.00000000000E+00  0.00000000000E+00  0.32142920643E+03  0.27554709405E+04  0.27366591620E+04 0.  0.
        1    1    3    3  502    0  0.42823325501E+03 -0.45210046161E+03 -0.10660808075E+04  0.12346282179E+04  0.50400001928E-02 0.  1.
       -1    1    3    3    0  502 -0.42823325501E+03  0.45210046161E+03  0.13875100140E+04  0.15208427226E+04  0.50400001928E-02 0. -1.
</event>
<event>
 5   0  0.4439357E-06  0.2695162E+04  0.7818609E-02  0.8336576E-01
       -2   -1    0    0    0  501  0.00000000000E+00  0.00000000000E+00  0.10272608724E+04  0.10272608724E+04  0.25500000920E-02 0.  1.
        2   -1    0    0  501    0  0.00000000000E+00  0.00000000000E+00 -0.17677830078E+04  0.17677830078E+04  0.25500000920E-02 0. -1.
    10030    2    1    2    0    0  0.00000000000E+00  0.00000000000E+00 -0.74052213542E+03  0.27950438803E+04  0.26951618244E+04 0.  0.
        4    1    3    3  502    0 -0.69218577403E+03  0.11429702691E+04 -0.18923391620E+03  0.13495603987E+04  0.12699999809E+01 0. -1.
       -4    1    3    3    0  502  0.69218577403E+03 -0.11429702691E+04 -0.55128821921E+03  0.14454834815E+04  0.12699999809E+01 0.  1.
</event>
<event>
 5   0  0.4448804E-06  0.2674072E+04  0.7818609E-02  0.8343467E-01
       -2   -1    0    0    0  501  0.00000000000E+00  0.00000000000E+00  0.12765534734E+04  0.12765534734E+04  0.25500000920E-02 0.  1.
        2   -1    0    0  501    0  0.00000000000E+00  0.00000000000E+00 -0.14003843460E+04  0.14003843460E+04  0.25500000920E-02 0. -1.
    10030    2    1    2    0    0  0.00000000000E+00  0.00000000000E+00 -0.12383087263E+03  0.26769378194E+04  0.26740721763E+04 0.  0.
        2    1    3    3  502    0 -0.10775557488E+04  0.73060790892E+03 -0.36679260968E+03  0.13525720413E+04  0.25500000920E-02 0. -1.
       -2    1    3    3    0  502  0.10775557488E+04 -0.73060790892E+03  0.24296173704E+03  0.13243657781E+04  0.25500000920E-02 0.  1.
</event>
<event>
 5   0  0.4448804E-06  0.2705902E+04  0.7818609E-02  0.8333092E-01
       -2   -1    0    0    0  501  0.00000000000E+00  0.00000000000E+00  0.67955058899E+03  0.67955058899E+03  0.25500000920E-02 0.  1.
        2   -1    0    0  501    0  0.00000000000E+00  0.00000000000E+00 -0.26936581628E+04  0.26936581628E+04  0.25500000920E-02 0. -1.
    10030    2    1    2    0    0  0.00000000000E+00  0.00000000000E+00 -0.20141075738E+04  0.33732087518E+04  0.27059024306E+04 0.  0.
        2    1    3    3  502    0  0.24479942418E+03 -0.10184455499E+04 -0.20745774814E+04  0.23240115797E+04  0.25500000920E-02 0. -1.
       -2    1    3    3    0  502 -0.24479942418E+03  0.10184455499E+04  0.60469907562E+02  0.10491971721E+04  0.25500000920E-02 0.  1.
</event>
<event>
 5   0  0.4655882E-06  0.2705462E+04  0.7818609E-02  0.8333235E-01
       -2   -1    0    0    0  501  0.00000000000E+00  0.00000000000E+00  0.83392850708E+03  0.83392850709E+03  0.25500000920E-02 0. -1.
        2   -1    0    0  501    0  0.00000000000E+00  0.00000000000E+00 -0.21942897664E+04  0.21942897664E+04  0.25500000920E-02 0.  1.
    10030    2    1    2    0    0  0.00000000000E+00  0.00000000000E+00 -0.13603612594E+04  0.30282182735E+04  0.27054617270E+04 0.  0.
        1    1    3    3  502    0 -0.30572994911E+03 -0.71001319097E+03  0.56233672878E+03  0.95593521208E+03  0.50400001928E-02 0. -1.
       -1    1    3    3    0  502  0.30572994911E+03  0.71001319097E+03 -0.19226979881E+04  0.20722830614E+04  0.50400001928E-02 0.  1.
</event>
<event>
 5   0  0.4401659E-06  0.2701280E+04  0.7818609E-02  0.8334590E-01
       -2   -1    0    0    0  501  0.00000000000E+00  0.00000000000E+00  0.12220606233E+04  0.12220606233E+04  0.25500000920E-02 0. -1.
        2   -1    0    0  501    0  0.00000000000E+00  0.00000000000E+00 -0.14927481846E+04  0.14927481846E+04  0.25500000920E-02 0.  1.
    10030    2    1    2    0    0  0.00000000000E+00  0.00000000000E+00 -0.27068756124E+03  0.27148088079E+04  0.27012802720E+04 0.  0.
        5    1    3    3  502    0  0.70358699476E+03 -0.60798915238E+03  0.84911354304E+03  0.12592463490E+04  0.46999998093E+01 0. -1.
       -5    1    3    3    0  502 -0.70358699476E+03  0.60798915238E+03 -0.11198011043E+04  0.14555624589E+04  0.46999998093E+01 0.  1.
</event>
<event>
 5   0  0.1771016E-06  0.2705144E+04  0.7818609E-02  0.8333338E-01
        1   -1    0    0  501    0  0.00000000000E+00  0.00000000000E+00  0.14465595992E+04  0.14465595992E+04  0.50400001928E-02 0. -1.
       -1   -1    0    0    0  501  0.00000000000E+00  0.00000000000E+00 -0.12646909335E+04  0.12646909335E+04  0.50400001928E-02 0.  1.
    10030    2    1    2    0    0  0.00000000000E+00  0.00000000000E+00  0.18186866567E+03  0.27112505327E+04  0.27051438483E+04 0.  0.
        2    1    3    3  502    0 -0.30103787937E+03  0.12915493948E+04 -0.17561181747E+03  0.13377455492E+04  0.25500000920E-02 0. -1.
       -2    1    3    3    0  502  0.30103787937E+03 -0.12915493948E+04  0.35748048314E+03  0.13735049835E+04  0.25500000920E-02 0.  1.
</event>
<event>
 5   0  0.1753474E-06  0.2710897E+04  0.7818609E-02  0.8331478E-01
       -1   -1    0    0    0  501  0.00000000000E+00  0.00000000000E+00  0.96781218518E+03  0.96781218520E+03  0.50400001928E-02 0.  1.
        1   -1    0    0  501    0  0.00000000000E+00  0.00000000000E+00 -0.18983446065E+04  0.18983446065E+04  0.50400001928E-02 0. -1.
    10030    2    1    2    0    0  0.00000000000E+00  0.00000000000E+00 -0.93053242128E+03  0.28661567917E+04  0.27108972993E+04 0.  0.
        3    1    3    3  502    0  0.61374398686E+03  0.10764505712E+04  0.11557339716E+03  0.12445018015E+04  0.10100000352E+00 0.  1.
       -3    1    3    3    0  502 -0.61374398686E+03 -0.10764505712E+04 -0.10461058184E+04  0.16216549902E+04  0.10100000352E+00 0. -1.
</event>
<event>
 5   0  0.1723605E-06  0.2693558E+04  0.7818609E-02  0.8337098E-01
       -1   -1    0    0    0  501  0.00000000000E+00  0.00000000000E+00  0.11699876129E+04  0.11699876129E+04  0.50400001928E-02 0.  1.
        1   -1    0    0  501    0  0.00000000000E+00  0.00000000000E+00 -0.15502845837E+04  0.15502845837E+04  0.50400001928E-02 0. -1.
    10030    2    1    2    0    0  0.00000000000E+00  0.00000000000E+00 -0.38029697083E+03  0.27202721966E+04  0.26935580628E+04 0.  0.
        1    1    3    3  502    0  0.22024657355E+03 -0.37166727998E+03  0.10981078997E+04  0.11800364739E+04  0.50400001928E-02 0.  1.
       -1    1    3    3    0  502 -0.22024657355E+03  0.37166727998E+03 -0.14784048706E+04  0.15402357227E+04  0.50400001928E-02 0. -1.
</event>
<event>
 5   0  0.1771016E-06  0.2714585E+04  0.7818609E-02  0.8330288E-01
        1   -1    0    0  501    0  0.00000000000E+00  0.00000000000E+00  0.25968215483E+04  0.25968215483E+04  0.50400001928E-02 0.  1.
       -1   -1    0    0    0  501  0.00000000000E+00  0.00000000000E+00 -0.70942203829E+03  0.70942203831E+03  0.50400001928E-02 0. -1.
    10030    2    1    2    0    0  0.00000000000E+00  0.00000000000E+00  0.18873995100E+04  0.33062435866E+04  0.27145846356E+04 0.  0.
        2    1    3    3  502    0 -0.14849458652E+03 -0.95205361358E+03 -0.22057006925E+03  0.98848767357E+03  0.25500000920E-02 0. -1.
       -2    1    3    3    0  502  0.14849458652E+03  0.95205361358E+03  0.21079695793E+04  0.23177559130E+04  0.25500000920E-02 0.  1.
</event>
<event>
 5   0  0.4487186E-06  0.2691515E+04  0.7818609E-02  0.8337763E-01
       -2   -1    0    0    0  501  0.00000000000E+00  0.00000000000E+00  0.10796066331E+04  0.10796066331E+04  0.25500000920E-02 0. -1.
        2   -1    0    0  501    0  0.00000000000E+00  0.00000000000E+00 -0.16775220393E+04  0.16775220393E+04  0.25500000920E-02 0.  1.
    10030    2    1    2    0    0  0.00000000000E+00  0.00000000000E+00 -0.59791540626E+03  0.27571286724E+04  0.26915154993E+04 0.  0.
        3    1    3    3  502    0  0.29030274323E+03 -0.12897549578E+04 -0.55672741980E+03  0.14344646960E+04  0.10100000352E+00 0. -1.
       -3    1    3    3    0  502 -0.29030274323E+03  0.12897549578E+04 -0.41187986455E+02  0.13226639764E+04  0.10100000352E+00 0.  1.
</event>
<event>
 5   0  0.1771016E-06  0.2706410E+04  0.7818609E-02  0.8332928E-01
       -1   -1    0    0    0  501  0.00000000000E+00  0.00000000000E+00  0.10228530192E+04  0.10228530192E+04  0.50400001928E-02 0. -1.
        1   -1    0    0  501    0  0.00000000000E+00  0.00000000000E+00 -0.17902512889E+04  0.17902512889E+04  0.50400001928E-02 0.  1.
    10030    2    1    2    0    0  0.00000000000E+00  0.00000000000E+00 -0.76739826976E+03  0.28131043081E+04  0.27064101212E+04 0.  0.
        2    1    3    3  502    0 -0.69401720848E+03  0.30295503858E+03 -0.15493932571E+04  0.17245466379E+04  0.25500000920E-02 0.  1.
       -2    1    3    3    0  502  0.69401720848E+03 -0.30295503858E+03  0.78199498739E+03  0.10885576702E+04  0.25500000920E-02 0. -1.
</event>
<event>
 5   0  0.4401659E-06  0.2715815E+04  0.7818609E-02  0.8329892E-01
        2   -1    0    0  501    0  0.00000000000E+00  0.00000000000E+00  0.14237947180E+04  0.14237947180E+04  0.25500000920E-02 0.  1.
       -2   -1    0    0    0  501  0.00000000000E+00  0.00000000000E+00 -0.12950692863E+04  0.12950692863E+04  0.25500000920E-02 0. -1.
    10030    2    1    2    0    0  0.00000000000E+00  0.00000000000E+00  0.12872543166E+03  0.27188640044E+04  0.27158150227E+04 0.  0.
        5    1    3    3  502    0  0.42156219387E+03 -0.12426569460E+04  0.41401081314E+03  0.13759861962E+04  0.46999998093E+01 0.  1.
       -5    1    3    3    0  502 -0.42156219387E+03  0.12426569460E+04 -0.28528538147E+03  0.13428778082E+04  0.46999998093E+01 0. -1.
</event>
<event>
 5   0  0.4655882E-06  0.2691893E+04  0.7818609E-02  0.8337640E-01
        2   -1    0    0  501    0  0.00000000000E+00  0.00000000000E+00  0.23627424671E+04  0.23627424671E+04  0.25500000920E-02 0. -1.
       -2   -1    0    0    0  501  0.00000000000E+00  0.00000000000E+00 -0.76672423302E+03  0.76672423303E+03  0.25500000920E-02 0.  1.
    10030    2    1    2    0    0  0.00000000000E+00  0.00000000000E+00  0.15960182340E+04  0.31294667001E+04  0.26918929443E+04 0.  0.
        1    1    3    3  502    0 -0.31215339845E+03  0.46232768769E+03  0.22220220925E+04  0.22909755160E+04  0.50400001928E-02 0. -1.
       -1    1    3    3    0  502  0.31215339845E+03 -0.46232768769E+03 -0.62600385850E+03  0.83849118413E+03  0.50400001928E-02 0.  1.
</event>
<event>
 5   0  0.1732312E-06  0.2700955E+04  0.7818609E-02  0.8334695E-01
        1   -1    0    0  501    0  0.00000000000E+00  0.00000000000E+00  0.18971027818E+04  0.18971027818E+04  0.50400001928E-02 0. -1.
       -1   -1    0    0    0  501  0.00000000000E+00  0.00000000000E+00 -0.96135524879E+03  0.96135524881E+03  0.50400001928E-02 0.  1.
    10030    2    1    2    0    0  0.00000000000E+00  0.00000000000E+00  0.93574753299E+03  0.28584580306E+04  0.27009551768E+04 0.  0.
        5    1    3    3  502    0  0.45661825649E+03  0.12146532824E+04  0.72051972091E+02  0.12996524171E+04  0.46999998093E+01 0. -1.
       -5    1    3    3    0  502 -0.45661825649E+03 -0.12146532824E+04  0.86369556090E+03  0.15588056135E+04  0.46999998093E+01 0.  1.
</event>
<event>
 5   0  0.1753474E-06  0.2593565E+04  0.7818609E-02  0.8370390E-01
       -1   -1    0    0    0  501  0.00000000000E+00  0.00000000000E+00  0.95834118640E+03  0.95834118642E+03  0.50400001928E-02 0. -1.
        1   -1    0    0  501    0  0.00000000000E+00  0.00000000000E+00 -0.17547459003E+04  0.17547459003E+04  0.50400001928E-02 0.  1.
    10030    2    1    2    0    0  0.00000000000E+00  0.00000000000E+00 -0.79640471388E+03  0.27130870867E+04  0.25935653205E+04 0.  0.
        3    1    3    3  502    0  0.73278233970E+03 -0.45078567423E+03 -0.14132098018E+04  0.16544907481E+04  0.10100000352E+00 0.  1.
       -3    1    3    3    0  502 -0.73278233970E+03  0.45078567423E+03  0.61680508790E+03  0.10585963386E+04  0.10100000352E+00 0. -1.
</event>
<event>
 5   0  0.1723605E-06  0.2712480E+04  0.7818609E-02  0.8330967E-01
        1   -1    0    0  501    0  0.00000000000E+00  0.00000000000E+00  0.16203725945E+04  0.16203725945E+04  0.50400001928E-02 0. -1.
       -1   -1    0    0    0  501  0.00000000000E+00  0.00000000000E+00 -0.11351632589E+04  0.11351632589E+04  0.50400001928E-02 0.  1.
    10030    2    1    2    0    0  0.00000000000E+00  0.00000000000E+00  0.48520933557E+03  0.27555358534E+04  0.27124803668E+04 0.  0.
        1    1    3    3  502    0  0.35910194832E+03 -0.10884819760E+04  0.97912332776E+03  0.15074580301E+04  0.50400001928E-02 0. -1.
       -1    1    3    3    0  502 -0.35910194832E+03  0.10884819760E+04 -0.49391399219E+03  0.12480778233E+04  0.50400001928E-02 0.  1.
</event>
<event>
 5   0  0.1732312E-06  0.2716224E+04  0.7818609E-02  0.8329760E-01
       -1   -1    0    0    0  501  0.00000000000E+00  0.00000000000E+00  0.10165410315E+04  0.10165410315E+04  0.50400001928E-02 0.  1.
        1   -1    0    0  501    0  0.00000000000E+00  0.00000000000E+00 -0.18144551316E+04  0.18144551316E+04  0.50400001928E-02 0. -1.
    10030    2    1    2    0    0  0.00000000000E+00  0.00000000000E+00 -0.79791410008E+03  0.28309961632E+04  0.27162239165E+04 0.  0.
        5    1    3    3  502    0 -0.10944980677E+04  0.80294729182E+03 -0.35479168287E+03  0.14030501067E+04  0.46999998093E+01 0. -1.
       -5    1    3    3    0  502  0.10944980677E+04 -0.80294729182E+03 -0.44312241721E+03  0.14279460565E+04  0.46999998093E+01 0.  1.
</event>
<event>
 5   0  0.4448804E-06  0.2697409E+04  0.7818609E-02  0.8335846E-01
        2   -1    0    0  501    0  0.00000000000E+00  0.00000000000E+00  0.10613955262E+04  0.10613955262E+04  0.25500000920E-02 0. -1.
       -2   -1    0    0    0  501  0.00000000000E+00  0.00000000000E+00 -0.17137850524E+04  0.17137850524E+04  0.25500000920E-02 0.  1.
    10030    2    1    2    0    0  0.00000000000E+00  0.00000000000E+00 -0.65238952621E+03  0.27751805786E+04  0.26974089697E+04 0.  0.
        2    1    3    3  502    0  0.13870862802E+02 -0.41541789548E+03 -0.16462464626E+04  0.16979080788E+04  0.25500000920E-02 0.  1.
       -2    1    3    3    0  502 -0.13870862802E+02  0.41541789548E+03  0.99385693634E+03  0.10772724997E+04  0.25500000920E-02 0. -1.
</event>
<event>
 5   0  0.1771016E-06  0.2609420E+04  0.7818609E-02  0.8365009E-01
       -1   -1    0    0    0  501  0.00000000000E+00  0.00000000000E+00  0.10927938296E+04  0.10927938296E+04  0.50400001928E-02 0. -1.
        1   -1    0    0  501    0  0.00000000000E+00  0.00000000000E+00 -0.15577208170E+04  0.15577208170E+04  0.50400001928E-02 0.  1.
    10030    2    1    2    0    0  0.00000000000E+00  0.00000000000E+00 -0.46492698737E+03  0.26505146466E+04  0.26094196267E+04 0.  0.
        2    1    3    3  502    0 -0.43899246073E+03 -0.90008787324E+03 -0.10819325980E+04  0.14742627672E+04  0.25500000920E-02 0.  1.
       -2    1    3    3    0  502  0.43899246073E+03  0.90008787324E+03  0.61700561064E+03  0.11762518794E+04  0.25500000920E-02 0. -1.
</event>
<event>
 5   0  0.4401659E-06  0.2660100E+04  0.7818609E-02  0.8348069E-01
        2   -1    0    0  501    0  0.00000000000E+00  0.00000000000E+00  0.20071482980E+04  0.20071482980E+04  0.25500000920E-02 0. -1.
       -2   -1    0    0    0  501  0.00000000000E+00  0.00000000000E+00 -0.88136609656E+03  0.88136609656E+03  0.25500000920E-02 0.  1.
    10030    2    1    2    0    0  0.00000000000E+00  0.00000000000E+00  0.11257822014E+04  0.28885143945E+04  0.26600995926E+04 0.  0.
        5    1    3    3  502    0 -0.70852642714E+03 -0.18764416934E+03  0.17680520092E+04  0.19139618673E+04  0.46999998093E+01 0. -1.
       -5    1    3    3    0  502  0.70852642714E+03  0.18764416934E+03 -0.64226980781E+03  0.97455252720E+03  0.46999998093E+01 0.  1.
</event>
<event>
 5   0  0.1753474E-06  0.2689208E+04  0.7818609E-02  0.8338515E-01
       -1   -1    0    0    0  501  0.00000000000E+00  0.00000000000E+00  0.86233150713E+03  0.86233150714E+03  0.50400001928E-02 0.  1.
        1   -1    0    0  501    0  0.00000000000E+00  0.00000000000E+00 -0.20965945126E+04  0.20965945126E+04  0.50400001928E-02 0. -1.
    10030    2    1    2    0    0  0.00000000000E+00  0.00000000000E+00 -0.12342630055E+04  0.29589260198E+04  0.26892076944E+04 0.  0.
        3    1    3    3  502    0  0.64687837938E+03 -0.91050448265E+03 -0.14408778105E+04  0.18230740318E+04  0.10100000352E+00 0. -1.
       -3    1    3    3    0  502 -0.64687837938E+03  0.91050448265E+03  0.20661480498E+03  0.11358519879E+04  0.10100000352E+00 0.  1.
</event>
<event>
 5   0  0.4487186E-06  0.2704821E+04  0.7818609E-02  0.8333442E-01
        2   -1    0    0  501    0  0.00000000000E+00  0.00000000000E+00  0.14866364029E+04  0.14866364029E+04  0.25500000920E-02 0.  1.
       -2   -1    0    0    0  501  0.00000000000E+00  0.00000000000E+00 -0.12303037892E+04  0.12303037892E+04  0.25500000920E-02 0. -1.
    10030    2    1    2    0    0  0.00000000000E+00  0.00000000000E+00  0.25633261367E+03  0.27169401921E+04  0.27048211769E+04 0.  0.
        3    1    3    3  502    0  0.37197170129E+03 -0.54765388585E+03  0.13127408932E+04  0.14702300460E+04  0.10100000352E+00 0.  1.
       -3    1    3    3    0  502 -0.37197170129E+03  0.54765388585E+03 -0.10564082795E+04  0.12467101462E+04  0.10100000352E+00 0. -1.
</event>
<event>
 5   0  0.4401659E-06  0.2710159E+04  0.7818609E-02  0.8331716E-01
        2   -1    0    0  501    0  0.00000000000E+00  0.00000000000E+00  0.16969072069E+04  0.16969072069E+04  0.25500000920E-02 0. -1.
       -2   -1    0    0    0  501  0.00000000000E+00  0.00000000000E+00 -0.10821104604E+04  0.10821104604E+04  0.25500000920E-02 0.  1.
    10030    2    1    2    0    0  0.00000000000E+00  0.00000000000E+00  0.61479674646E+03  0.27790176673E+04  0.27101594336E+04 0.  0.
        5    1    3    3  502    0 -0.98347586216E+03 -0.55668388757E+03  0.10741242776E+04  0.15591301343E+04  0.46999998093E+01 0. -1.
       -5    1    3    3    0  502  0.98347586216E+03  0.55668388757E+03 -0.45932753111E+03  0.12198875329E+04  0.46999998093E+01 0.  1.
</event>
<event>
 5   0  0.4401659E-06  0.2703431E+04  0.7818609E-02  0.8333893E-01
        2   -1    0    0  501    0  0.00000000000E+00  0.00000000000E+00  0.98240923575E+03  0.98240923575E+03  0.25500000920E-02 0.  1.
       -2   -1    0    0    0  501  0.00000000000E+00  0.00000000000E+00 -0.18598503778E+04  0.18598503778E+04  0.25500000920E-02 0. -1.
    10030    2    1    2    0    0  0.00000000000E+00  0.00000000000E+00 -0.87744114201E+03  0.28422596135E+04  0.27034305526E+04 0.  0.
        5    1    3    3  502    0  0.13138463184E+04  0.28268802021E+03 -0.59110304549E+03  0.14681721852E+04  0.46999998093E+01 0.  1.
       -5    1    3    3    0  502 -0.13138463184E+04 -0.28268802021E+03 -0.28633809652E+03  0.13740874283E+04  0.46999998093E+01 0. -1.
</event>
<event>
 5   0  0.4487186E-06  0.2698897E+04  0.7818609E-02  0.8335363E-01
       -2   -1    0    0    0  501  0.00000000000E+00  0.00000000000E+00  0.14602552907E+04  0.14602552907E+04  0.25500000920E-02 0.  1.
        2   -1    0    0  501    0  0.00000000000E+00  0.00000000000E+00 -0.12470497389E+04  0.12470497389E+04  0.25500000920E-02 0. -1.
    10030    2    1    2    0    0  0.00000000000E+00  0.00000000000E+00  0.21320555184E+03  0.27073050296E+04  0.26988967961E+04 0.  0.
        3    1    3    3  502    0 -0.46235206643E+03  0.84270777685E+03  0.10566993308E+04  0.14284744717E+04  0.10100000352E+00 0.  1.
       -3    1    3    3    0  502  0.46235206643E+03 -0.84270777685E+03 -0.84349377895E+03  0.12788305579E+04  0.10100000352E+00 0. -1.
</event>
<event>
 5   0  0.1723605E-06  0.2685274E+04  0.7818609E-02  0.8339799E-01
        1   -1    0    0  501    0  0.00000000000E+00  0.00000000000E+00  0.17026159125E+04  0.17026159125E+04  0.50400001928E-02 0.  1.
       -1   -1    0    0    0  501  0.00000000000E+00  0.00000000000E+00 -0.10587671538E+04  0.10587671538E+04  0.50400001928E-02 0. -1.
    10030    2    1    2    0    0  0.00000000000E+00  0.00000000000E+00  0.64384875868E+03  0.27613830663E+04  0.26852737691E+04 0.  0.
        1    1    3    3  502    0  0.24522807512E+03  0.75327728115E+03 -0.79282543910E+03  0.11207745750E+04  0.50400001928E-02 0. -1.
       -1    1    3    3    0  502 -0.24522807512E+03 -0.75327728115E+03  0.14366741978E+04  0.16406084913E+04  0.50400001928E-02 0.  1.
</event>
<event>
 5   0  0.1828511E-06  0.2718446E+04  0.7818609E-02  0.8329045E-01
        1   -1    0    0  501    0  0.00000000000E+00  0.00000000000E+00  0.16453528116E+04  0.16453528116E+04  0.50400001928E-02 0. -1.
       -1   -1    0    0    0  501  0.00000000000E+00  0.00000000000E+00 -0.11228516967E+04  0.11228516967E+04  0.50400001928E-02 0.  1.
    10030    2    1    2    0    0  0.00000000000E+00  0.00000000000E+00  0.52250111492E+03  0.27682045084E+04  0.27184460239E+04 0.  0.
        4    1    3    3  502    0 -0.67098161822E+02  0.99170560802E+02  0.16399712553E+04  0.16443370380E+04  0.12699999809E+01 0. -1.
       -4    1    3    3    0  502  0.67098161822E+02 -0.99170560802E+02 -0.11174701404E+04  0.11238674704E+04  0.12699999809E+01 0.  1.
</event>
<event>
 5   0  0.1732312E-06  0.2699715E+04  0.7818609E-02  0.8335097E-01
        1   -1    0    0  501    0  0.00000000000E+00  0.00000000000E+00  0.16416058720E+04  0.16416058720E+04  0.50400001928E-02 0.  1.
       -1   -1    0    0    0  501  0.00000000000E+00  0.00000000000E+00 -0.11099590678E+04  0.11099590678E+04  0.50400001928E-02 0. -1.
    10030    2    1    2    0    0  0.00000000000E+00  0.00000000000E+00  0.53164680422E+03  0.27515649398E+04  0.26997150393E+04 0.  0.
        5    1    3    3  502    0 -0.17073020219E+03 -0.80257117301E+03  0.13582407304E+04  0.15868551482E+04  0.46999998093E+01 0.  1.
       -5    1    3    3    0  502  0.17073020219E+03  0.80257117301E+03 -0.82659392622E+03  0.11647097916E+04  0.46999998093E+01 0. -1.
</event>
<event>
 5   0  0.4448804E-06  0.2700839E+04  0.7818609E-02  0.8334733E-01
       -2   -1    0    0    0  501  0.00000000000E+00  0.00000000000E+00  0.10230792326E+04  0.10230792326E+04  0.25500000920E-02 0.  1.
        2   -1    0    0  501    0  0.00000000000E+00  0.00000000000E+00 -0.17824940767E+04  0.17824940767E+04  0.25500000920E-02 0. -1.
    10030    2    1    2    0    0  0.00000000000E+00  0.00000000000E+00 -0.75941484415E+03  0.28055733093E+04  0.27008388860E+04 0.  0.
        2    1    3    3  502    0  0.12609415843E+04  0.36923411962E+03 -0.55639904796E+02  0.13150677979E+04  0.25500000920E-02 0.  1.
       -2    1    3    3    0  502 -0.12609415843E+04 -0.36923411962E+03 -0.70377493935E+03  0.14905055114E+04  0.25500000920E-02 0. -1.
</event>
<event>
 5   0  0.1753474E-06  0.2698337E+04  0.7818609E-02  0.8335545E-01
        1   -1    0    0  501    0  0.00000000000E+00  0.00000000000E+00  0.60265643854E+03  0.60265643856E+03  0.50400001928E-02 0. -1.
       -1   -1    0    0    0  501  0.00000000000E+00  0.00000000000E+00 -0.30203861828E+04  0.30203861828E+04  0.50400001928E-02 0.  1.
    10030    2    1    2    0    0  0.00000000000E+00  0.00000000000E+00 -0.24177297443E+04  0.36230426214E+04  0.26983366580E+04 0.  0.
        3    1    3    3  502    0 -0.13690000554E+03 -0.38197430193E+03  0.51878695563E+03  0.65862424370E+03  0.10100000352E+00 0. -1.
       -3    1    3    3    0  502  0.13690000554E+03  0.38197430193E+03 -0.29365166999E+04  0.29644183777E+04  0.10100000352E+00 0.  1.
</event>
<event>
 5   0  0.1828511E-06  0.2703257E+04  0.7818609E-02  0.8333949E-01
        1   -1    0    0  501    0  0.00000000000E+00  0.00000000000E+00  0.15023280995E+04  0.15023280995E+04  0.50400001928E-02 0.  1.
       -1   -1    0    0    0  501  0.00000000000E+00  0.00000000000E+00 -0.12160454326E+04  0.12160454326E+04  0.50400001928E-02 0. -1.
    10030    2    1    2    0    0  0.00000000000E+00  0.00000000000E+00  0.28628266686E+03  0.27183735321E+04  0.27032567201E+04 0.  0.
        4    1    3    3  502    0  0.54915048630E+03  0.12139366818E+04  0.37176504523E+03  0.13832640333E+04  0.12699999809E+01 0. -1.
       -4    1    3    3    0  502 -0.54915048630E+03 -0.12139366818E+04 -0.85482378374E+02  0.13351094988E+04  0.12699999809E+01 0.  1.
</event>
<event>
 5   0  0.4439357E-06  0.2695464E+04  0.7818609E-02  0.8336478E-01
        2   -1    0    0  501    0  0.00000000000E+00  0.00000000000E+00  0.21604927232E+04  0.21604927232E+04  0.25500000920E-02 0. -1.
       -2   -1    0    0    0  501  0.00000000000E+00  0.00000000000E+00 -0.84072530106E+03  0.84072530106E+03  0.25500000920E-02 0.  1.
    10030    2    1    2    0    0  0.00000000000E+00  0.00000000000E+00  0.13197674221E+04  0.30012180243E+04  0.26954635187E+04 0.  0.
        4    1    3    3  502    0  0.62739807513E+03  0.28132358313E+03 -0.63074218490E+03  0.93306410273E+03  0.12699999809E+01 0.  1.
       -4    1    3    3    0  502 -0.62739807513E+03 -0.28132358313E+03  0.19505096070E+04  0.20681539215E+04  0.12699999809E+01 0. -1.
</event>
<event>
 5   0  0.1828511E-06  0.2526828E+04  0.7818609E-02  0.8393490E-01
       -1   -1    0    0    0  501  0.00000000000E+00  0.00000000000E+00  0.10537397184E+04  0.10537397185E+04  0.50400001928E-02 0. -1.
        1   -1    0    0  501    0  0.00000000000E+00  0.00000000000E+00 -0.15148091717E+04  0.15148091717E+04  0.50400001928E-02 0.  1.
    10030    2    1    2    0    0  0.00000000000E+00  0.00000000000E+00 -0.46106945321E+03  0.25685488901E+04  0.25268277267E+04 0.  0.
        4    1    3    3  502    0  0.92139611775E+03 -0.65140704678E+03 -0.80816991711E+03  0.13879633188E+04  0.12699999809E+01 0.  1.
       -4    1    3    3    0  502 -0.92139611775E+03  0.65140704678E+03  0.34710046391E+03  0.11805855714E+04  0.12699999809E+01 0. -1.
</event>
<event>
 5   0  0.1828511E-06  0.2705858E+04  0.7818609E-02  0.8333107E-01
        1   -1    0    0  501    0  0.00000000000E+00  0.00000000000E+00  0.17726313053E+04  0.17726313053E+04  0.50400001928E-02 0.  1.
       -1   -1    0    0    0  501  0.00000000000E+00  0.00000000000E+00 -0.10325987062E+04  0.10325987062E+04  0.50400001928E-02 0. -1.
    10030    2    1    2    0    0  0.00000000000E+00  0.00000000000E+00  0.74003259910E+03  0.28052300114E+04  0.27058579359E+04 0.  0.
        4    1    3    3  502    0  0.73765565051E+02  0.90905656200E+03 -0.66597733947E+03  0.11293151115E+04  0.12699999809E+01 0. -1.
       -4    1    3    3    0  502 -0.73765565051E+02 -0.90905656200E+03  0.14060099386E+04  0.16759148999E+04  0.12699999809E+01 0.  1.
</event>
<event>
 5   0  0.1723605E-06  0.2703652E+04  0.7818609E-02  0.8333821E-01
       -1   -1    0    0    0  501  0.00000000000E+00  0.00000000000E+00  0.14510756818E+04  0.14510756818E+04  0.50400001928E-02 0. -1.
        1   -1    0    0  501    0  0.00000000000E+00  0.00000000000E+00 -0.12593648741E+04  0.12593648741E+04  0.50400001928E-02 0.  1.
    10030    2    1    2    0    0  0.00000000000E+00  0.00000000000E+00  0.19171080771E+03  0.27104405559E+04  0.27036521547E+04 0.  0.
        1    1    3    3  502    0 -0.14046931354E+03  0.37593987009E+03  0.13899766396E+04  0.14467541162E+04  0.50400001928E-02 0. -1.
       -1    1    3    3    0  502  0.14046931354E+03 -0.37593987009E+03 -0.11982658319E+04  0.12636864397E+04  0.50400001928E-02 0.  1.
</event>
<event>
 5   0  0.4655882E-06  0.2695829E+04  0.7818609E-02  0.8336360E-01
        2   -1    0    0  501    0  0.00000000000E+00  0.00000000000E+00  0.13199662255E+04  0.13199662255E+04  0.25500000920E-02 0. -1.
       -2   -1    0    0    0  501  0.00000000000E+00  0.00000000000E+00 -0.13764547034E+04  0.13764547034E+04  0.25500000920E-02 0.  1.
    10030    2    1    2    0    0  0.00000000000E+00  0.00000000000E+00 -0.56488477964E+02  0.26964209289E+04  0.26958291633E+04 0.  0.
        1    1    3    3  502    0  0.11634938749E+04 -0.63449593730E+03 -0.27440927069E+03  0.13533674812E+04  0.50400001928E-02 0. -1.
       -1    1    3    3    0  502 -0.11634938749E+04  0.63449593730E+03  0.21792079272E+03  0.13430534477E+04  0.50400001928E-02 0.  1.
</event>
<event>
 5   0  0.1753474E-06  0.2698014E+04  0.7818609E-02  0.8335650E-01
       -1   -1    0    0    0  501  0.00000000000E+00  0.00000000000E+00  0.17216427466E+04  0.17216427466E+04  0.50400001928E-02 0.  1.
        1   -1    0    0  501    0  0.00000000000E+00  0.00000000000E+00 -0.10570255889E+04  0.10570255889E+04  0.50400001928E-02 0. -1.
    10030    2    1    2    0    0  0.00000000000E+00  0.00000000000E+00  0.66461715771E+03  0.27786683356E+04  0.26980144093E+04 0.  0.
        3    1    3    3  502    0 -0.57750359076E+02 -0.33590004199E+03  0.16765691573E+04  0.17108617979E+04  0.10100000352E+00 0.  1.
       -3    1    3    3    0  502  0.57750359076E+02  0.33590004199E+03 -0.10119519996E+04  0.10678065376E+04  0.10100000352E+00 0. -1.
</event>
<event>
 5   0  0.4448804E-06  0.2695462E+04  0.7818609E-02  0.8336479E-01
        2   -1    0    0  501    0  0.00000000000E+00  0.00000000000E+00  0.21798237300E+04  0.21798237300E+04  0.25500000920E-02 0. -1.
       -2   -1    0    0    0  501  0.00000000000E+00  0.00000000000E+00 -0.83326882875E+03  0.83326882876E+03  0.25500000920E-02 0.  1.
    10030    2    1    2    0    0  0.00000000000E+00  0.00000000000E+00  0.13465549013E+04  0.30130925588E+04  0.26954622360E+04 0.  0.
        2    1    3    3  502    0 -0.62077801356E+02  0.61299782648E+03 -0.66661892157E+03  0.90774488448E+03  0.25500000920E-02 0.  1.
       -2    1    3    3    0  502  0.62077801356E+02 -0.61299782648E+03  0.20131738228E+04  0.21053476743E+04  0.25500000920E-02 0. -1.
</event>
<event>
 5   0  0.4487186E-06  0.2701038E+04  0.7818609E-02  0.8334668E-01
        2   -1    0    0  501    0  0.00000000000E+00  0.00000000000E+00  0.23506583768E+04  0.23506583768E+04  0.25500000920E-02 0. -1.
       -2   -1    0    0    0  501  0.00000000000E+00  0.00000000000E+00 -0.77591114139E+03  0.77591114139E+03  0.25500000920E-02 0.  1.
    10030    2    1    2    0    0  0.00000000000E+00  0.00000000000E+00  0.15747472354E+04  0.31265695182E+04  0.27010383368E+04 0.  0.
        3    1    3    3  502    0  0.10220538974E+04  0.88251686566E+03  0.76222995545E+03  0.15506207475E+04  0.10100000352E+00 0. -1.
       -3    1    3    3    0  502 -0.10220538974E+04 -0.88251686566E+03  0.81251727995E+03  0.15759487707E+04  0.10100000352E+00 0.  1.
</event>
<event>
 5   0  0.1732312E-06  0.2685274E+04  0.7818609E-02  0.8339799E-01
        1   -1    0    0  501    0  0.00000000000E+00  0.00000000000E+00  0.21326237548E+04  0.21326237548E+04  0.50400001928E-02 0.  1.
       -1   -1    0    0    0  501  0.00000000000E+00  0.00000000000E+00 -0.84528442634E+03  0.84528442635E+03  0.50400001928E-02 0. -1.
    10030    2    1    2    0    0  0.00000000000E+00  0.00000000000E+00  0.12873393284E+04  0.29779081811E+04  0.26852736525E+04 0.  0.
        5    1    3    3  502    0 -0.45562316931E+03 -0.76573617112E+03  0.17574647896E+04  0.19704438416E+04  0.46999998093E+01 0.  1.
       -5    1    3    3    0  502  0.45562316931E+03  0.76573617112E+03 -0.47012546118E+03  0.10074643395E+04  0.46999998093E+01 0. -1.
</event>
<event>
 5   0  0.4439357E-06  0.2705494E+04  0.7818609E-02  0.8333225E-01
       -2   -1    0    0    0  501  0.00000000000E+00  0.00000000000E+00  0.99387161745E+03  0.99387161746E+03  0.25500000920E-02 0.  1.
        2   -1    0    0  501    0  0.00000000000E+00  0.00000000000E+00 -0.18412079379E+04  0.18412079379E+04  0.25500000920E-02 0. -1.
    10030    2    1    2    0    0  0.00000000000E+00  0.00000000000E+00 -0.84733632040E+03  0.28350795553E+04  0.27054939004E+04 0.  0.
        4    1    3    3  502    0 -0.56646539584E+03  0.72680785723E+03 -0.14614515227E+04  0.17277079823E+04  0.12699999809E+01 0. -1.
       -4    1    3    3    0  502  0.56646539584E+03 -0.72680785723E+03  0.61411520233E+03  0.11073715730E+04  0.12699999809E+01 0.  1.
</event>
<event>
 5   0  0.4439357E-06  0.2699829E+04  0.7818609E-02  0.8335061E-01
        2   -1    0    0  501    0  0.00000000000E+00  0.00000000000E+00  0.97381623168E+03  0.97381623169E+03  0.25500000920E-02 0.  1.
       -2   -1    0    0    0  501  0.00000000000E+00  0.00000000000E+00 -0.18712656348E+04  0.18712656348E+04  0.25500000920E-02 0. -1.
    10030    2    1    2    0    0  0.00000000000E+00  0.00000000000E+00 -0.89744940310E+03  0.28450818665E+04  0.26998287716E+04 0.  0.
        4    1    3    3  502    0  0.81143181382E+03  0.25690135315E+03 -0.15528783805E+04  0.17708339197E+04  0.12699999809E+01 0. -1.
       -4    1    3    3    0  502 -0.81143181382E+03 -0.25690135315E+03  0.65542897741E+03  0.10742479467E+04  0.12699999809E+01 0.  1.
</event>
<event>
 5   0  0.4448804E-06  0.2703965E+04  0.7818609E-02  0.8333720E-01
       -2   -1    0    0    0  501  0.00000000000E+00  0.00000000000E+00  0.13788128445E+04  0.13788128445E+04  0.25500000920E-02 0.  1.
        2   -1    0    0  501    0  0.00000000000E+00  0.00000000000E+00 -0.13256740240E+04  0.13256740240E+04  0.25500000920E-02 0. -1.
    10030    2    1    2    0    0  0.00000000000E+00  0.00000000000E+00  0.53138820502E+02  0.27044868684E+04  0.27039647718E+04 0.  0.
        2    1    3    3  502    0 -0.10049290050E+03  0.88353865282E+03  0.10451554602E+04  0.13722570131E+04  0.25500000920E-02 0.  1.
       -2    1    3    3    0  502  0.10049290050E+03 -0.88353865282E+03 -0.99201663967E+03  0.13322298553E+04  0.25500000920E-02 0. -1.
</event>
<event>
 5   0  0.1732312E-06  0.2698529E+04  0.7818609E-02  0.8335482E-01
        1   -1    0    0  501    0  0.00000000000E+00  0.00000000000E+00  0.15961824201E+04  0.15961824201E+04  0.50400001928E-02 0.  1.
       -1   -1    0    0    0  501  0.00000000000E+00  0.00000000000E+00 -0.11405434070E+04  0.11405434070E+04  0.50400001928E-02 0. -1.
    10030    2    1    2    0    0  0.00000000000E+00  0.00000000000E+00  0.45563901315E+03  0.27367258271E+04  0.26985294778E+04 0.  0.
        5    1    3    3  502    0  0.24194699124E+02  0.37278079281E+03 -0.10870435789E+04  0.11494506233E+04  0.46999998093E+01 0. -1.
       -5    1    3    3    0  502 -0.24194699124E+02 -0.37278079281E+03  0.15426825920E+04  0.15872752038E+04  0.46999998093E+01 0.  1.
</event>
<event>
 5   0  0.4487186E-06  0.2707181E+04  0.7818609E-02  0.8332679E-01
       -2   -1    0    0    0  501  0.00000000000E+00  0.00000000000E+00  0.12345945676E+04  0.12345945676E+04  0.25500000920E-02 0.  1.
        2   -1    0    0  501    0  0.00000000000E+00  0.00000000000E+00 -0.14840556857E+04  0.14840556857E+04  0.25500000920E-02 0. -1.
    10030    2    1    2    0    0  0.00000000000E+00  0.00000000000E+00 -0.24946111806E+03  0.27186502533E+04  0.27071808862E+04 0.  0.
        3    1    3    3  502    0  0.49805466407E+03  0.10906818165E+04 -0.75553332022E+03  0.14172070708E+04  0.10100000352E+00 0. -1.
       -3    1    3    3    0  502 -0.49805466407E+03 -0.10906818165E+04  0.50607220216E+03  0.13014431825E+04  0.10100000352E+00 0.  1.
</event>
<event>
 5   0  0.1753474E-06  0.2698724E+04  0.7818609E-02  0.8335419E-01
        1   -1    0    0  501    0  0.00000000000E+00  0.00000000000E+00  0.17767193315E+04  0.17767193315E+04  0.50400001928E-02 0.  1.
       -1   -1    0    0    0  501  0.00000000000E+00  0.00000000000E+00 -0.10247973303E+04  0.10247973303E+04  0.50400001928E-02 0. -1.
    10030    2    1    2    0    0  0.00000000000E+00  0.00000000000E+00  0.75192200113E+03  0.28015166618E+04  0.26987235706E+04 0.  0.
        3    1    3    3  502    0  0.26363525718E+02 -0.11808005623E+04 -0.30142102035E+03  0.12189502226E+04  0.10100000352E+00 0. -1.
       -3    1    3    3    0  502 -0.26363525718E+02  0.11808005623E+04  0.10533430215E+04  0.15825664392E+04  0.10100000352E+00 0.  1.
</event>
<event>
 5   0  0.4439357E-06  0.2701381E+04  0.7818609E-02  0.8334557E-01
       -2   -1    0    0    0  501  0.00000000000E+00  0.00000000000E+00  0.83420636583E+03  0.83420636584E+03  0.25500000920E-02 0. -1.
        2   -1    0    0  501    0  0.00000000000E+00  0.00000000000E+00 -0.21869469392E+04  0.21869469392E+04  0.25500000920E-02 0.  1.
    10030    2    1    2    0    0  0.00000000000E+00  0.00000000000E+00 -0.13527405734E+04  0.30211533051E+04  0.27013811715E+04 0.  0.
        4    1    3    3  502    0 -0.88612304984E+03 -0.43674146632E+03 -0.17064926885E+04  0.19718204981E+04  0.12699999809E+01 0.  1.
       -4    1    3    3    0  502  0.88612304984E+03  0.43674146632E+03  0.35375211515E+03  0.10493328069E+04  0.12699999809E+01 0. -1.
</event>
<event>
 5   0  0.1828511E-06  0.2706696E+04  0.7818609E-02  0.8332835E-01
        1   -1    0    0  501    0  0.00000000000E+00  0.00000000000E+00  0.34133765772E+04  0.34133765772E+04  0.50400001928E-02 0.  1.
       -1   -1    0    0    0  501  0.00000000000E+00  0.00000000000E+00 -0.53658052596E+03  0.53658052598E+03  0.50400001928E-02 0. -1.
    10030    2    1    2    0    0  0.00000000000E+00  0.00000000000E+00  0.28767960513E+04  0.39499571032E+04  0.27066964360E+04 0.  0.
        4    1    3    3  502    0  0.25581405057E+03  0.12605072241E+04  0.82403926707E+03  0.15275344897E+04  0.12699999809E+01 0.  1.
       -4    1    3    3    0  502 -0.25581405057E+03 -0.12605072241E+04  0.20527567842E+04  0.24224226135E+04  0.12699999809E+01 0. -1.
</event>
<event>
 5   0  0.1753474E-06  0.2692272E+04  0.7818609E-02  0.8337517E-01
       -1   -1    0    0    0  501  0.00000000000E+00  0.00000000000E+00  0.89365754225E+03  0.89365754227E+03  0.50400001928E-02 0.  1.
        1   -1    0    0  501    0  0.00000000000E+00  0.00000000000E+00 -0.20277136259E+04  0.20277136259E+04  0.50400001928E-02 0. -1.
    10030    2    1    2    0    0  0.00000000000E+00  0.00000000000E+00 -0.11340560836E+04  0.29213711682E+04  0.26922715876E+04 0.  0.
        3    1    3    3  502    0 -0.55864623312E+03 -0.12113316061E+04 -0.76316240037E+03  0.15368235856E+04  0.10100000352E+00 0. -1.
       -3    1    3    3    0  502  0.55864623312E+03  0.12113316061E+04 -0.37089368326E+03  0.13845475825E+04  0.10100000352E+00 0.  1.
</event>
<event>
 5   0  0.4448804E-06  0.2672983E+04  0.7818609E-02  0.8343825E-01
        2   -1    0    0  501    0  0.00000000000E+00  0.00000000000E+00  0.13457021622E+04  0.13457021622E+04  0.25500000920E-02 0. -1.
       -2   -1    0    0    0  501  0.00000000000E+00  0.00000000000E+00 -0.13273439218E+04  0.13273439218E+04  0.25500000920E-02 0.  1.
    10030    2    1    2    0    0  0.00000000000E+00  0.00000000000E+00  0.18358240414E+02  0.26730460840E+04  0.26729830419E+04 0.  0.
        2    1    3    3  502    0 -0.96348587551E+03  0.75774080642E+03 -0.52349977688E+03  0.13328646512E+04  0.25500000920E-02 0.  1.
       -2    1    3    3    0  502  0.96348587551E+03 -0.75774080642E+03  0.54185801729E+03  0.13401814328E+04  0.25500000920E-02 0. -1.
</event>
<event>
 5   0  0.1753474E-06  0.2690032E+04  0.7818609E-02  0.8338247E-01
       -1   -1    0    0    0  501  0.00000000000E+00  0.00000000000E+00  0.14294325230E+04  0.14294325230E+04  0.50400001928E-02 0.  1.
        1   -1    0    0  501    0  0.00000000000E+00  0.00000000000E+00 -0.12655845526E+04  0.12655845526E+04  0.50400001928E-02 0. -1.
    10030    2    1    2    0    0  0.00000000000E+00  0.00000000000E+00  0.16384797038E+03  0.26950170756E+04  0.26900317620E+04 0.  0.
        3    1    3    3  502    0  0.12414732987E+04 -0.35454127980E+03 -0.29575242114E+03  0.13245470831E+04  0.10100000352E+00 0. -1.
       -3    1    3    3    0  502 -0.12414732987E+04  0.35454127980E+03  0.45960039152E+03  0.13704699926E+04  0.10100000352E+00 0.  1.
</event>
<event>
 5   0  0.4439357E-06  0.2692904E+04  0.7818609E-02  0.8337311E-01
       -2   -1    0    0    0  501  0.00000000000E+00  0.00000000000E+00  0.14065851222E+04  0.14065851222E+04  0.25500000920E-02 0. -1.
        2   -1    0    0  501    0  0.00000000000E+00  0.00000000000E+00 -0.12888899188E+04  0.12888899188E+04  0.25500000920E-02 0.  1.
    10030    2    1    2    0    0  0.00000000000E+00  0.00000000000E+00  0.11769520342E+03  0.26954750410E+04  0.26929042938E+04 0.  0.
        4    1    3    3  502    0 -0.84892641037E+03 -0.10308712435E+04 -0.11324733038E+03  0.13402231686E+04  0.12699999809E+01 0. -1.
       -4    1    3    3    0  502  0.84892641037E+03  0.10308712435E+04  0.23094253380E+03  0.13552518724E+04  0.12699999809E+01 0.  1.
</event>
<event>
 5   0  0.4655882E-06  0.2703232E+04  0.7818609E-02  0.8333957E-01
       -2   -1    0    0    0  501  0.00000000000E+00  0.00000000000E+00  0.11736272553E+04  0.11736272553E+04  0.25500000920E-02 0. -1.
        2   -1    0    0  501    0  0.00000000000E+00  0.00000000000E+00 -0.15565982231E+04  0.15565982231E+04  0.25500000920E-02 0.  1.
    10030    2    1    2    0    0  0.00000000000E+00  0.00000000000E+00 -0.38297096784E+03  0.27302254784E+04  0.27032322136E+04 0.  0.
        1    1    3    3  502    0 -0.96919303650E+03  0.77151046950E+03 -0.73753429483E+03  0.14417074539E+04  0.50400001928E-02 0.  1.
       -1    1    3    3    0  502  0.96919303650E+03 -0.77151046950E+03  0.35456332699E+03  0.12885180245E+04  0.50400001928E-02 0. -1.
</event>
<event>
 5   0  0.4487186E-06  0.2704451E+04  0.7818609E-02  0.8333562E-01
        2   -1    0    0  501    0  0.00000000000E+00  0.00000000000E+00  0.16045884733E+04  0.16045884733E+04  0.25500000920E-02 0. -1.
       -2   -1    0    0    0  501  0.00000000000E+00  0.00000000000E+00 -0.11395533652E+04  0.11395533652E+04  0.25500000920E-02 0.  1.
    10030    2    1    2    0    0  0.00000000000E+00  0.00000000000E+00  0.46503510813E+03  0.27441418384E+04  0.27044512896E+04 0.  0.
        3    1    3    3  502    0 -0.45006488760E+03  0.10808171667E+04  0.91904919578E+03  0.14884137816E+04  0.10100000352E+00 0. -1.
       -3    1    3    3    0  502  0.45006488760E+03 -0.10808171667E+04 -0.45401408764E+03  0.12557280568E+04  0.10100000352E+00 0.  1.
</event>
<event>
 5   0  0.4487186E-06  0.2573476E+04  0.7818609E-02  0.8377267E-01
        2   -1    0    0  501    0  0.00000000000E+00  0.00000000000E+00  0.16159237445E+04  0.16159237445E+04  0.25500000920E-02 0.  1.
       -2   -1    0    0    0  501  0.00000000000E+00  0.00000000000E+00 -0.10246119331E+04  0.10246119331E+04  0.25500000920E-02 0. -1.
    10030    2    1    2    0    0  0.00000000000E+00  0.00000000000E+00  0.59131181140E+03  0.26405356777E+04  0.25734760552E+04 0.  0.
        3    1    3    3  502    0  0.93558169566E+01 -0.12352521947E+04  0.66526362304E+03  0.14030364265E+04  0.10100000352E+00 0.  1.
       -3    1    3    3    0  502 -0.93558169566E+01  0.12352521947E+04 -0.73951811638E+02  0.12374992511E+04  0.10100000352E+00 0. -1.
</event>
<event>
 5   0  0.4401659E-06  0.2693200E+04  0.7818609E-02  0.8337215E-01
        2   -1    0    0  501    0  0.00000000000E+00  0.00000000000E+00  0.14969260303E+04  0.14969260303E+04  0.25500000920E-02 0.  1.
       -2   -1    0    0    0  501  0.00000000000E+00  0.00000000000E+00 -0.12113706003E+04  0.12113706003E+04  0.25500000920E-02 0. -1.
    10030    2    1    2    0    0  0.00000000000E+00  0.00000000000E+00  0.28555542995E+03  0.27082966306E+04  0.26932004634E+04 0.  0.
        5    1    3    3  502    0 -0.69815767356E+03  0.16171228826E+03 -0.10036718964E+04  0.12332697867E+04  0.46999998093E+01 0. -1.
       -5    1    3    3    0  502  0.69815767356E+03 -0.16171228826E+03  0.12892273263E+04  0.14750268439E+04  0.46999998093E+01 0.  1.
</event>
<event>
 5   0  0.1753474E-06  0.2704350E+04  0.7818609E-02  0.8333595E-01
       -1   -1    0    0    0  501  0.00000000000E+00  0.00000000000E+00  0.78853933121E+03  0.78853933123E+03  0.50400001928E-02 0. -1.
        1   -1    0    0  501    0  0.00000000000E+00  0.00000000000E+00 -0.23186893869E+04  0.23186893869E+04  0.50400001928E-02 0.  1.
    10030    2    1    2    0    0  0.00000000000E+00  0.00000000000E+00 -0.15301500557E+04  0.31072287182E+04  0.27043504052E+04 0.  0.
        3    1    3    3  502    0  0.76202892743E+02 -0.91482508012E+03  0.37563468264E+03  0.99187359733E+03  0.10100000352E+00 0. -1.
       -3    1    3    3    0  502 -0.76202892743E+02  0.91482508012E+03 -0.19057847384E+04  0.21153551208E+04  0.10100000352E+00 0.  1.
</event>
<event>
 5   0  0.1828511E-06  0.2691400E+04  0.7818609E-02  0.8337801E-01
        1   -1    0    0  501    0  0.00000000000E+00  0.00000000000E+00  0.13972195055E+04  0.13972195055E+04  0.50400001928E-02 0. -1.
       -1   -1    0    0    0  501  0.00000000000E+00  0.00000000000E+00 -0.12960799759E+04  0.12960799760E+04  0.50400001928E-02 0.  1.
    10030    2    1    2    0    0  0.00000000000E+00  0.00000000000E+00  0.10113952952E+03  0.26932994814E+04  0.26913998016E+04 0.  0.
        4    1    3    3  502    0  0.13315814773E+04 -0.10561668870E+03  0.21391026200E+03  0.13527835484E+04  0.12699999809E+01 0.  1.
       -4    1    3    3    0  502 -0.13315814773E+04  0.10561668870E+03 -0.11277073248E+03  0.13405159330E+04  0.12699999809E+01 0. -1.
</event>
<event>
 5   0  0.4439357E-06  0.2694741E+04  0.7818609E-02  0.8336713E-01
        2   -1    0    0  501    0  0.00000000000E+00  0.00000000000E+00  0.20607764687E+04  0.20607764687E+04  0.25500000920E-02 0. -1.
       -2   -1    0    0    0  501  0.00000000000E+00  0.00000000000E+00 -0.88093337394E+03  0.88093337395E+03  0.25500000920E-02 0.  1.
    10030    2    1    2    0    0  0.00000000000E+00  0.00000000000E+00  0.11798430948E+04  0.29417098427E+04  0.26947406313E+04 0.  0.
        4    1    3    3  502    0  0.18579842749E+03 -0.18749310095E+03 -0.85243109584E+03  0.89236489432E+03  0.12699999809E+01 0.  1.
       -4    1    3    3    0  502 -0.18579842749E+03  0.18749310095E+03  0.20322741906E+04  0.20493449484E+04  0.12699999809E+01 0. -1.
</event>
<event>
 5   0  0.1753474E-06  0.2692985E+04  0.7818609E-02  0.8337285E-01
        1   -1    0    0  501    0  0.00000000000E+00  0.00000000000E+00  0.10313726591E+04  0.10313726591E+04  0.50400001928E-02 0. -1.
       -1   -1    0    0    0  501  0.00000000000E+00  0.00000000000E+00 -0.17578927974E+04  0.17578927974E+04  0.50400001928E-02 0.  1.
    10030    2    1    2    0    0  0.00000000000E+00  0.00000000000E+00 -0.72652013830E+03  0.27892654565E+04  0.26929853835E+04 0.  0.
        3    1    3    3  502    0 -0.10227122438E+03 -0.78779626186E+03  0.76278890563E+03  0.11013306853E+04  0.10100000352E+00 0. -1.
       -3    1    3    3    0  502  0.10227122438E+03  0.78779626186E+03 -0.14893090439E+04  0.16879347713E+04  0.10100000352E+00 0.  1.
</event>
<event>
 5   0  0.1828511E-06  0.2703555E+04  0.7818609E-02  0.8333853E-01
        1   -1    0    0  501    0  0.00000000000E+00  0.00000000000E+00  0.11796026830E+04  0.11796026830E+04  0.50400001928E-02 0.  1.
       -1   -1    0    0    0  501  0.00000000000E+00  0.00000000000E+00 -0.15490824572E+04  0.15490824572E+04  0.50400001928E-02 0. -1.
    10030    2    1    2    0    0  0.00000000000E+00  0.00000000000E+00 -0.36947977421E+03  0.27286851402E+04  0.27035545659E+04 0.  0.
        4    1    3    3  502    0 -0.91812414595E+02 -0.62473911458E+03  0.10215989564E+04  0.12009973029E+04  0.12699999809E+01 0.  1.
       -4    1    3    3    0  502  0.91812414595E+02  0.62473911458E+03 -0.13910787306E+04  0.15276878374E+04  0.12699999809E+01 0. -1.
</event>
<event>
 5   0  0.1732312E-06  0.2702060E+04  0.7818609E-02  0.8334337E-01
       -1   -1    0    0    0  501  0.00000000000E+00  0.00000000000E+00  0.11584426013E+04  0.11584426013E+04  0.50400001928E-02 0. -1.
        1   -1    0    0  501    0  0.00000000000E+00  0.00000000000E+00 -0.15756339246E+04  0.15756339246E+04  0.50400001928E-02 0.  1.
    10030    2    1    2    0    0  0.00000000000E+00  0.00000000000E+00 -0.41719132334E+03  0.27340765259E+04  0.27020595570E+04 0.  0.
        5    1    3    3  502    0 -0.68004121763E+01  0.10942472668E+04  0.59315416003E+03  0.12446996722E+04  0.46999998093E+01 0.  1.
       -5    1    3    3    0  502  0.68004121763E+01 -0.10942472668E+04 -0.10103454834E+04  0.14893768537E+04  0.46999998093E+01 0. -1.
</event>
<event>
 5   0  0.1753474E-06  0.2700370E+04  0.7818609E-02  0.8334885E-01
        1   -1    0    0  501    0  0.00000000000E+00  0.00000000000E+00  0.12698474738E+04  0.12698474738E+04  0.50400001928E-02 0.  1.
       -1   -1    0    0    0  501  0.00000000000E+00  0.00000000000E+00 -0.14356048223E+04  0.14356048223E+04  0.50400001928E-02 0. -1.
    10030    2    1    2    0    0  0.00000000000E+00  0.00000000000E+00 -0.16575734851E+03  0.27054522962E+04  0.27003697207E+04 0.  0.
        3    1    3    3  502    0 -0.92112250556E+03  0.96962302256E+03 -0.26860198871E+03  0.13641050233E+04  0.10100000352E+00 0.  1.
       -3    1    3    3    0  502  0.92112250556E+03 -0.96962302256E+03  0.10284464020E+03  0.13413472728E+04  0.10100000352E+00 0. -1.
</event>
<event>
 5   0  0.1732312E-06  0.2682470E+04  0.7818609E-02  0.8340715E-01
       -1   -1    0    0    0  501  0.00000000000E+00  0.00000000000E+00  0.10375566744E+04  0.10375566744E+04  0.50400001928E-02 0. -1.
        1   -1    0    0  501    0  0.00000000000E+00  0.00000000000E+00 -0.17337961921E+04  0.17337961921E+04  0.50400001928E-02 0.  1.
    10030    2    1    2    0    0  0.00000000000E+00  0.00000000000E+00 -0.69623951768E+03  0.27713528664E+04  0.26824703623E+04 0.  0.
        5    1    3    3  502    0 -0.40378500584E+03  0.21774739495E+03 -0.16502109711E+04  0.17127973021E+04  0.46999998093E+01 0.  1.
       -5    1    3    3    0  502  0.40378500584E+03 -0.21774739495E+03  0.95397145340E+03  0.10585555644E+04  0.46999998093E+01 0. -1.
</event>
<event>
 5   0  0.1771016E-06  0.2644795E+04  0.7818609E-02  0.8353143E-01
       -1   -1    0    0    0  501  0.00000000000E+00  0.00000000000E+00  0.96869995006E+03  0.96869995008E+03  0.50400001928E-02 0. -1.
        1   -1    0    0  501    0  0.00000000000E+00  0.00000000000E+00 -0.18052391215E+04  0.18052391215E+04  0.50400001928E-02 0.  1.
    10030    2    1    2    0    0  0.00000000000E+00  0.00000000000E+00 -0.83653917144E+03  0.27739390716E+04  0.26447949235E+04 0.  0.
        2    1    3    3  502    0  0.73234712644E+03 -0.46331958935E+03  0.62937290526E+03  0.10710310964E+04  0.25500000920E-02 0. -1.
       -2    1    3    3    0  502 -0.73234712644E+03  0.46331958935E+03 -0.14659120767E+04  0.17029079752E+04  0.25500000920E-02 0.  1.
</event>
<event>
 5   0  0.1771016E-06  0.2702014E+04  0.7818609E-02  0.8334352E-01
       -1   -1    0    0    0  501  0.00000000000E+00  0.00000000000E+00  0.17556948499E+04  0.17556948500E+04  0.50400001928E-02 0.  1.
        1   -1    0    0  501    0  0.00000000000E+00  0.00000000000E+00 -0.10395999434E+04  0.10395999434E+04  0.50400001928E-02 0. -1.
    10030    2    1    2    0    0  0.00000000000E+00  0.00000000000E+00  0.71609490652E+03  0.27952947934E+04  0.27020142610E+04 0.  0.
        2    1    3    3  502    0 -0.11211966714E+04 -0.37808931003E+03  0.10326218399E+04  0.15704589669E+04  0.25500000920E-02 0. -1.
       -2    1    3    3    0  502  0.11211966714E+04  0.37808931003E+03 -0.31652693341E+03  0.12248358265E+04  0.25500000920E-02 0.  1.
</event>
<event>
 5   0  0.4401659E-06  0.2692639E+04  0.7818609E-02  0.8337397E-01
        2   -1    0    0  501    0  0.00000000000E+00  0.00000000000E+00  0.14652949761E+04  0.14652949761E+04  0.25500000920E-02 0.  1.
       -2   -1    0    0    0  501  0.00000000000E+00  0.00000000000E+00 -0.12370045194E+04  0.12370045194E+04  0.25500000920E-02 0. -1.
    10030    2    1    2    0    0  0.00000000000E+00  0.00000000000E+00  0.22829045675E+03  0.27022994955E+04  0.26926392314E+04 0.  0.
        5    1    3    3  502    0  0.31017202915E+02 -0.10480465691E+03 -0.12325364112E+04  0.12373819855E+04  0.46999998093E+01 0. -1.
       -5    1    3    3    0  502 -0.31017202915E+02  0.10480465691E+03  0.14608268680E+04  0.14649175100E+04  0.46999998093E+01 0.  1.
</event>
<event>
 5   0  0.1753474E-06  0.2704023E+04  0.7818609E-02  0.8333701E-01
       -1   -1    0    0    0  501  0.00000000000E+00  0.00000000000E+00  0.10322854585E+04  0.10322854585E+04  0.50400001928E-02 0. -1.
        1   -1    0    0  501    0  0.00000000000E+00  0.00000000000E+00 -0.17707653358E+04  0.17707653358E+04  0.50400001928E-02 0.  1.
    10030    2    1    2    0    0  0.00000000000E+00  0.00000000000E+00 -0.73847987739E+03  0.28030507943E+04  0.27040231556E+04 0.  0.
        3    1    3    3  502    0 -0.13074742667E+04  0.21732029900E+03 -0.64588067844E+03  0.14744079935E+04  0.10100000352E+00 0.  1.
       -3    1    3    3    0  502  0.13074742667E+04 -0.21732029900E+03 -0.92599198944E+02  0.13286428008E+04  0.10100000352E+00 0. -1.
</event>
<event>
 5   0  0.4401659E-06  0.2703800E+04  0.7818609E-02  0.8333773E-01
       -2   -1    0    0    0  501  0.00000000000E+00  0.00000000000E+00  0.10993191607E+04  0.10993191607E+04  0.25500000920E-02 0.  1.
        2   -1    0    0  501    0  0.00000000000E+00  0.00000000000E+00 -0.16625137006E+04  0.16625137006E+04  0.25500000920E-02 0. -1.
    10030    2    1    2    0    0  0.00000000000E+00  0.00000000000E+00 -0.56319453994E+03  0.27618328613E+04  0.27037996716E+04 0.  0.
        5    1    3    3  502    0  0.35539123096E+03 -0.59811033390E+03 -0.14656018510E+04  0.16223593234E+04  0.46999998093E+01 0. -1.
       -5    1    3    3    0  502 -0.35539123096E+03  0.59811033390E+03  0.90240731107E+03  0.11394735379E+04  0.46999998093E+01 0.  1.
</event>
<event>
 5   0  0.1753474E-06  0.2694360E+04  0.7818609E-02  0.8336837E-01
        1   -1    0    0  501    0  0.00000000000E+00  0.00000000000E+00  0.19860342654E+04  0.19860342654E+04  0.50400001928E-02 0.  1.
       -1   -1    0    0    0  501  0.00000000000E+00  0.00000000000E+00 -0.91382826822E+03  0.91382826823E+03  0.50400001928E-02 0. -1.
    10030    2    1    2    0    0  0.00000000000E+00  0.00000000000E+00  0.10722059972E+04  0.28998625337E+04  0.26943602235E+04 0.  0.
        3    1    3    3  502    0 -0.74434509666E+03 -0.16811619963E+03  0.17309975650E+04  0.18917360439E+04  0.10100000352E+00 0.  1.
       -3    1    3    3    0  502  0.74434509666E+03  0.16811619963E+03 -0.65879156776E+03  0.10081264898E+04  0.10100000352E+00 0. -1.
</event>
<event>
 5   0  0.4439357E-06  0.2692201E+04  0.7818609E-02  0.8337540E-01
        2   -1    0    0  501    0  0.00000000000E+00  0.00000000000E+00  0.17078239023E+04  0.17078239023E+04  0.25500000920E-02 0. -1.
       -2   -1    0    0    0  501  0.00000000000E+00  0.00000000000E+00 -0.10609914547E+04  0.10609914547E+04  0.25500000920E-02 0.  1.
    10030    2    1    2    0    0  0.00000000000E+00  0.00000000000E+00  0.64683244767E+03  0.27688153570E+04  0.26922010077E+04 0.  0.
        4    1    3    3  502    0 -0.30100843803E+03 -0.11428134131E+04  0.98623828317E+03  0.15392518121E+04  0.12699999809E+01 0. -1.
       -4    1    3    3    0  502  0.30100843803E+03  0.11428134131E+04 -0.33940583550E+03  0.12295635449E+04  0.12699999809E+01 0.  1.
</event>
<event>
 5   0  0.1828511E-06  0.2701655E+04  0.7818609E-02  0.8334468E-01
        1   -1    0    0  501    0  0.00000000000E+00  0.00000000000E+00  0.18806981675E+04  0.18806981675E+04  0.50400001928E-02 0.  1.
       -1   -1    0    0    0  501  0.00000000000E+00  0.00000000000E+00 -0.97024322343E+03  0.97024322344E+03  0.50400001928E-02 0. -1.
    10030    2    1    2    0    0  0.00000000000E+00  0.00000000000E+00  0.91045494408E+03  0.28509413910E+04  0.27016547909E+04 0.  0.
        4    1    3    3  502    0 -0.54200306893E+03 -0.70674902633E+03 -0.61650664436E+03  0.10832098450E+04  0.12699999809E+01 0. -1.
       -4    1    3    3    0  502  0.54200306893E+03  0.70674902633E+03  0.15269615884E+04  0.17677315459E+04  0.12699999809E+01 0.  1.
</event>
<event>
 5   0  0.4439357E-06  0.2670545E+04  0.7818609E-02  0.8344626E-01
        2   -1    0    0  501    0  0.00000000000E+00  0.00000000000E+00  0.96966561358E+03  0.96966561358E+03  0.25500000920E-02 0.  1.
       -2   -1    0    0    0  501  0.00000000000E+00  0.00000000000E+00 -0.18387291412E+04  0.18387291412E+04  0.25500000920E-02 0. -1.
    10030    2    1    2    0    0  0.00000000000E+00  0.00000000000E+00 -0.86906352766E+03  0.28083947548E+04  0.26705448290E+04 0.  0.
        4    1    3    3  502    0 -0.47234694785E+03  0.93102418918E+03 -0.13099896881E+04  0.16751096310E+04  0.12699999809E+01 0.  1.
       -4    1    3    3    0  502  0.47234694785E+03 -0.93102418918E+03  0.44092616046E+03  0.11332851238E+04  0.12699999809E+01 0. -1.
</event>
<event>
 5   0  0.4448804E-06  0.2719847E+04  0.7818609E-02  0.8328594E-01
       -2   -1    0    0    0  501  0.00000000000E+00  0.00000000000E+00  0.12854486084E+04  0.12854486084E+04  0.25500000920E-02 0.  1.
        2   -1    0    0  501    0  0.00000000000E+00  0.00000000000E+00 -0.14387129178E+04  0.14387129178E+04  0.25500000920E-02 0. -1.
    10030    2    1    2    0    0  0.00000000000E+00  0.00000000000E+00 -0.15326430941E+03  0.27241615262E+04  0.27198467001E+04 0.  0.
        2    1    3    3  502    0 -0.15964609489E+03 -0.68785923321E+03  0.10874311818E+04  0.12965892856E+04  0.25500000920E-02 0.  1.
       -2    1    3    3    0  502  0.15964609489E+03  0.68785923321E+03 -0.12406954912E+04  0.14275722406E+04  0.25500000920E-02 0. -1.
</event>
<event>
 5   0  0.1723605E-06  0.2664939E+04  0.7818609E-02  0.8346471E-01
        1   -1    0    0  501    0  0.00000000000E+00  0.00000000000E+00  0.21630821242E+04  0.21630821242E+04  0.50400001928E-02 0.  1.
       -1   -1    0    0    0  501  0.00000000000E+00  0.00000000000E+00 -0.82080819485E+03  0.82080819487E+03  0.50400001928E-02 0. -1.
    10030    2    1    2    0    0  0.00000000000E+00  0.00000000000E+00  0.13422739294E+04  0.29838903191E+04  0.26649394242E+04 0.  0.
        1    1    3    3  502    0  0.68921429277E+03 -0.41150572705E+03 -0.51969444827E+03  0.95626127410E+03  0.50400001928E-02 0. -1.
       -1    1    3    3    0  502 -0.68921429277E+03  0.41150572705E+03  0.18619683776E+04  0.20276290450E+04  0.50400001928E-02 0.  1.
</event>
<event>
 5   0  0.1723605E-06  0.2692863E+04  0.7818609E-02  0.8337324E-01
        1   -1    0    0  501    0  0.00000000000E+00  0.00000000000E+00  0.10532245421E+04  0.10532245421E+04  0.50400001928E-02 0. -1.
       -1   -1    0    0    0  501  0.00000000000E+00  0.00000000000E+00 -0.17212641341E+04  0.17212641341E+04  0.50400001928E-02 0.  1.
    10030    2    1    2    0    0  0.00000000000E+00  0.00000000000E+00 -0.66803959206E+03  0.27744886762E+04  0.26928628851E+04 0.  0.
        1    1    3    3  502    0  0.12825601931E+04  0.25542849801E+03 -0.66415922654E+03  0.14667350970E+04  0.50400001928E-02 0. -1.
       -1    1    3    3    0  502 -0.12825601931E+04 -0.25542849801E+03 -0.38803655112E+01  0.13077535792E+04  0.50400001928E-02 0.  1.
</event>
<event>
 5   0  0.4401659E-06  0.2703851E+04  0.7818609E-02  0.8333757E-01
        2   -1    0    0  501    0  0.00000000000E+00  0.00000000000E+00  0.11140926398E+04  0.11140926398E+04  0.25500000920E-02 0. -1.
       -2   -1    0    0    0  501  0.00000000000E+00  0.00000000000E+00 -0.16405297009E+04  0.16405297009E+04  0.25500000920E-02 0.  1.
    10030    2    1    2    0    0  0.00000000000E+00  0.00000000000E+00 -0.52643706107E+03  0.27546223407E+04  0.27038506358E+04 0.  0.
        5    1    3    3  502    0  0.19558323700E+03  0.74879463699E+03  0.86607870401E+03  0.11614906898E+04  0.46999998093E+01 0. -1.
       -5    1    3    3    0  502 -0.19558323700E+03 -0.74879463699E+03 -0.13925157651E+04  0.15931316509E+04  0.46999998093E+01 0.  1.
</event>
<event>
 5   0  0.4487186E-06  0.2706766E+04  0.7818609E-02  0.8332813E-01
        2   -1    0    0  501    0  0.00000000000E+00  0.00000000000E+00  0.16787088852E+04  0.16787088852E+04  0.25500000920E-02 0.  1.
       -2   -1    0    0    0  501  0.00000000000E+00  0.00000000000E+00 -0.10911039018E+04  0.10911039018E+04  0.25500000920E-02 0. -1.
    10030    2    1    2    0    0  0.00000000000E+00  0.00000000000E+00  0.58760498337E+03  0.27698127870E+04  0.27067661994E+04 0.  0.
        3    1    3    3  502    0  0.45766803452E+03 -0.12725448952E+04  0.34809741802E+03  0.13964248504E+04  0.10100000352E+00 0.  1.
       -3    1    3    3    0  502 -0.45766803452E+03  0.12725448952E+04  0.23950756535E+03  0.13733879366E+04  0.10100000352E+00 0. -1.
</event>
<event>
 5   0  0.4401659E-06  0.2702877E+04  0.7818609E-02  0.8334072E-01
       -2   -1    0    0    0  501  0.00000000000E+00  0.00000000000E+00  0.70336803360E+03  0.70336803360E+03  0.25500000920E-02 0.  1.
        2   -1    0    0  501    0  0.00000000000E+00  0.00000000000E+00 -0.25966291069E+04  0.25966291069E+04  0.25500000920E-02 0. -1.
    10030    2    1    2    0    0  0.00000000000E+00  0.00000000000E+00 -0.18932610733E+04  0.32999971405E+04  0.27028769183E+04 0.  0.
        5    1    3    3  502    0  0.27129584894E+03 -0.58083400578E+03  0.50590245635E+03  0.81665718956E+03  0.46999998093E+01 0.  1.
       -5    1    3    3    0  502 -0.27129584894E+03  0.58083400578E+03 -0.23991635297E+04  0.24833399509E+04  0.46999998093E+01 0. -1.
</event>
<event>
 5   0  0.1771016E-06  0.2704540E+04  0.7818609E-02  0.8333533E-01
        1   -1    0    0  501    0  0.00000000000E+00  0.00000000000E+00  0.12876706583E+04  0.12876706583E+04  0.50400001928E-02 0.  1.
       -1   -1    0    0    0  501  0.00000000000E+00  0.00000000000E+00 -0.14201098864E+04  0.14201098865E+04  0.50400001928E-02 0. -1.
    10030    2    1    2    0    0  0.00000000000E+00  0.00000000000E+00 -0.13243922819E+03  0.27077805447E+04  0.27045397629E+04 0.  0.
        2    1    3    3  502    0  0.27730200412E+03 -0.93948636518E+03  0.86715431756E+03  0.13082383737E+04  0.25500000920E-02 0.  1.
       -2    1    3    3    0  502 -0.27730200412E+03  0.93948636518E+03 -0.99959354575E+03  0.13995421711E+04  0.25500000920E-02 0. -1.
</event>
<event>
 5   0  0.4439357E-06  0.2715112E+04  0.7818609E-02  0.8330118E-01
        2   -1    0    0  501    0  0.00000000000E+00  0.00000000000E+00  0.56136183124E+03  0.56136183124E+03  0.25500000920E-02 0. -1.
       -2   -1    0    0    0  501  0.00000000000E+00  0.00000000000E+00 -0.32830135463E+04  0.32830135463E+04  0.25500000920E-02 0.  1.
    10030    2    1    2    0    0  0.00000000000E+00  0.00000000000E+00 -0.27216517151E+04  0.38443753775E+04  0.27151121497E+04 0.  0.
        4    1    3    3  502    0 -0.11260808063E+04 -0.48840603132E+03 -0.53964430440E+03  0.13408266189E+04  0.12699999809E+01 0. -1.
       -4    1    3    3    0  502  0.11260808063E+04  0.48840603132E+03 -0.21820074107E+04  0.25035487586E+04  0.12699999809E+01 0.  1.
</event>
<event>
 5   0  0.1753474E-06  0.2670614E+04  0.7818609E-02  0.8344603E-01
       -1   -1    0    0    0  501  0.00000000000E+00  0.00000000000E+00  0.92869980211E+03  0.92869980212E+03  0.50400001928E-02 0. -1.
        1   -1    0    0  501    0  0.00000000000E+00  0.00000000000E+00 -0.19199365721E+04  0.19199365721E+04  0.50400001928E-02 0.  1.
    10030    2    1    2    0    0  0.00000000000E+00  0.00000000000E+00 -0.99123677000E+03  0.28486363742E+04  0.26706139478E+04 0.  0.
        3    1    3    3  502    0 -0.65461739926E+03 -0.11309960363E+04 -0.78845238780E+03  0.15262153031E+04  0.10100000352E+00 0.  1.
       -3    1    3    3    0  502  0.65461739926E+03  0.11309960363E+04 -0.20278438221E+03  0.13224210711E+04  0.10100000352E+00 0. -1.
</event>
<event>
 5   0  0.4487186E-06  0.2702262E+04  0.7818609E-02  0.8334271E-01
       -2   -1    0    0    0  501  0.00000000000E+00  0.00000000000E+00  0.72345134130E+03  0.72345134130E+03  0.25500000920E-02 0. -1.
        2   -1    0    0  501    0  0.00000000000E+00  0.00000000000E+00 -0.25233976895E+04  0.25233976895E+04  0.25500000920E-02 0.  1.
    10030    2    1    2    0    0  0.00000000000E+00  0.00000000000E+00 -0.17999463482E+04  0.32468490308E+04  0.27022623434E+04 0.  0.
        3    1    3    3  502    0 -0.56363201899E+03  0.67670682304E+03  0.33119475412E+03  0.94090549607E+03  0.10100000352E+00 0. -1.
       -3    1    3    3    0  502  0.56363201899E+03 -0.67670682304E+03 -0.21311411024E+04  0.23059435348E+04  0.10100000352E+00 0.  1.
</event>
<event>
 5   0  0.1723605E-06  0.2698527E+04  0.7818609E-02  0.8335483E-01
       -1   -1    0    0    0  501  0.00000000000E+00  0.00000000000E+00  0.97930365415E+03  0.97930365417E+03  0.50400001928E-02 0. -1.
        1   -1    0    0  501    0  0.00000000000E+00  0.00000000000E+00 -0.18589863438E+04  0.18589863438E+04  0.50400001928E-02 0.  1.
    10030    2    1    2    0    0  0.00000000000E+00  0.00000000000E+00 -0.87968268963E+03  0.28382899980E+04  0.26985270942E+04 0.  0.
        1    1    3    3  502    0 -0.67328752641E+03 -0.12471931822E+03 -0.16626561303E+04  0.17981369273E+04  0.50400001928E-02 0.  1.
       -1    1    3    3    0  502  0.67328752641E+03  0.12471931822E+03  0.78297344070E+03  0.10401530707E+04  0.50400001928E-02 0. -1.
</event>
<event>
 5   0  0.4401659E-06  0.2703596E+04  0.7818609E-02  0.8333839E-01
        2   -1    0    0  501    0  0.00000000000E+00  0.00000000000E+00  0.20872538407E+04  0.20872538407E+04  0.25500000920E-02 0.  1.
       -2   -1    0    0    0  501  0.00000000000E+00  0.00000000000E+00 -0.87548399506E+03  0.87548399506E+03  0.25500000920E-02 0. -1.
    10030    2    1    2    0    0  0.00000000000E+00  0.00000000000E+00  0.12117698456E+04  0.29627378357E+04  0.27035956289E+04 0.  0.
        5    1    3    3  502    0  0.29683945266E+03  0.13029090904E+04  0.82952842994E+03  0.15728398725E+04  0.46999998093E+01 0.  1.
       -5    1    3    3    0  502 -0.29683945266E+03 -0.13029090904E+04  0.38224141565E+03  0.13898979632E+04  0.46999998093E+01 0. -1.
</event>
<event>
 5   0  0.1828511E-06  0.2702969E+04  0.7818609E-02  0.8334042E-01
        1   -1    0    0  501    0  0.00000000000E+00  0.00000000000E+00  0.15192369420E+04  0.15192369420E+04  0.50400001928E-02 0. -1.
       -1   -1    0    0    0  501  0.00000000000E+00  0.00000000000E+00 -0.12022552255E+04  0.12022552255E+04  0.50400001928E-02 0.  1.
    10030    2    1    2    0    0  0.00000000000E+00  0.00000000000E+00  0.31698171654E+03  0.27214921675E+04  0.27029691470E+04 0.  0.
        4    1    3    3  502    0  0.81705762621E+03  0.67730508836E+03 -0.68401312920E+03  0.12626166960E+04  0.12699999809E+01 0.  1.
       -4    1    3    3    0  502 -0.81705762621E+03 -0.67730508836E+03  0.10009948457E+04  0.14588754715E+04  0.12699999809E+01 0. -1.
</event>
<event>
 5   0  0.4448804E-06  0.2730272E+04  0.7818609E-02  0.8325249E-01
        2   -1    0    0  501    0  0.00000000000E+00  0.00000000000E+00  0.18232920774E+04  0.18232920774E+04  0.25500000920E-02 0. -1.
       -2   -1    0    0    0  501  0.00000000000E+00  0.00000000000E+00 -0.10221050058E+04  0.10221050058E+04  0.25500000920E-02 0.  1.
    10030    2    1    2    0    0  0.00000000000E+00  0.00000000000E+00  0.80118707163E+03  0.28453970832E+04  0.27302717516E+04 0.  0.
        2    1    3    3  502    0  0.10402920910E+04 -0.64233321393E+03  0.10334865812E+04  0.16009041526E+04  0.25500000920E-02 0.  1.
       -2    1    3    3    0  502 -0.10402920910E+04  0.64233321393E+03 -0.23229950956E+03  0.12444929306E+04  0.25500000920E-02 0. -1.
</event>
<event>
 5   0  0.4487186E-06  0.2708534E+04  0.7818609E-02  0.8332241E-01
        2   -1    0    0  501    0  0.00000000000E+00  0.00000000000E+00  0.14461753389E+04  0.14461753389E+04  0.25500000920E-02 0. -1.
       -2   -1    0    0    0  501  0.00000000000E+00  0.00000000000E+00 -0.12681994067E+04  0.12681994067E+04  0.25500000920E-02 0.  1.
    10030    2    1    2    0    0  0.00000000000E+00  0.00000000000E+00  0.17797593216E+03  0.27143747456E+04  0.27085337043E+04 0.  0.
        3    1    3    3  502    0  0.11381633602E+04 -0.64026116610E+03  0.44849337862E+03  0.13807593984E+04  0.10100000352E+00 0.  1.
       -3    1    3    3    0  502 -0.11381633602E+04  0.64026116610E+03 -0.27051744646E+03  0.13336153473E+04  0.10100000352E+00 0. -1.
</event>
<event>
 5   0  0.1732312E-06  0.2702903E+04  0.7818609E-02  0.8334064E-01
       -1   -1    0    0    0  501  0.00000000000E+00  0.00000000000E+00  0.97833250418E+03  0.97833250419E+03  0.50400001928E-02 0.  1.
        1   -1    0    0  501    0  0.00000000000E+00  0.00000000000E+00 -0.18668720995E+04  0.18668720995E+04  0.50400001928E-02 0. -1.
    10030    2    1    2    0    0  0.00000000000E+00  0.00000000000E+00 -0.88853959533E+03  0.28452046037E+04  0.27029033694E+04 0.  0.
        5    1    3    3  502    0 -0.36372168401E+03 -0.73387924383E+03 -0.15758181047E+04  0.17759777581E+04  0.46999998093E+01 0. -1.
       -5    1    3    3    0  502  0.36372168401E+03  0.73387924383E+03  0.68727850940E+03  0.10692268456E+04  0.46999998093E+01 0.  1.
</event>
<event>
 5   0  0.1771016E-06  0.2701749E+04  0.7818609E-02  0.8334438E-01
        1   -1    0    0  501    0  0.00000000000E+00  0.00000000000E+00  0.27046462099E+04  0.27046462099E+04  0.50400001928E-02 0.  1.
       -1   -1    0    0    0  501  0.00000000000E+00  0.00000000000E+00 -0.67471348007E+03  0.67471348008E+03  0.50400001928E-02 0. -1.
    10030    2    1    2    0    0  0.00000000000E+00  0.00000000000E+00  0.20299327299E+04  0.33793596900E+04  0.27017485129E+04 0.  0.
        2    1    3    3  502    0  0.89869278373E+03 -0.88561964361E+03  0.41134406359E+03  0.13270926160E+04  0.25500000920E-02 0. -1.
       -2    1    3    3    0  502 -0.89869278373E+03  0.88561964361E+03  0.16185886663E+04  0.20522670741E+04  0.25500000920E-02 0.  1.
</event>
<event>
 5   0  0.4439357E-06  0.2712974E+04  0.7818609E-02  0.8330808E-01
        2   -1    0    0  501    0  0.00000000000E+00  0.00000000000E+00  0.18755846343E+04  0.18755846343E+04  0.25500000920E-02 0.  1.
       -2   -1    0    0    0  501  0.00000000000E+00  0.00000000000E+00 -0.98105770754E+03  0.98105770755E+03  0.25500000920E-02 0. -1.
    10030    2    1    2    0    0  0.00000000000E+00  0.00000000000E+00  0.89452692679E+03  0.28566423419E+04  0.27129738382E+04 0.  0.
        4    1    3    3  502    0  0.10681490463E+04 -0.82800459531E+03  0.56970172045E+03  0.14666613986E+04  0.12699999809E+01 0.  1.
       -4    1    3    3    0  502 -0.10681490463E+04  0.82800459531E+03  0.32482520633E+03  0.13899809433E+04  0.12699999809E+01 0. -1.
</event>
<event>
 5   0  0.4448804E-06  0.2706053E+04  0.7818609E-02  0.8333044E-01
        2   -1    0    0  501    0  0.00000000000E+00  0.00000000000E+00  0.97667282477E+03  0.97667282477E+03  0.25500000920E-02 0. -1.
       -2   -1    0    0    0  501  0.00000000000E+00  0.00000000000E+00 -0.18744058962E+04  0.18744058962E+04  0.25500000920E-02 0.  1.
    10030    2    1    2    0    0  0.00000000000E+00  0.00000000000E+00 -0.89773307143E+03  0.28510787210E+04  0.27060534373E+04 0.  0.
        2    1    3    3  502    0 -0.13419329401E+04  0.70605350311E+02 -0.61516131724E+03  0.14779014099E+04  0.25500000920E-02 0.  1.
       -2    1    3    3    0  502  0.13419329401E+04 -0.70605350311E+02 -0.28257175420E+03  0.13731773110E+04  0.25500000920E-02 0. -1.
</event>
<event>
 5   0  0.1771016E-06  0.2779735E+04  0.7818609E-02  0.8309587E-01
       -1   -1    0    0    0  501  0.00000000000E+00  0.00000000000E+00  0.23325611419E+04  0.23325611419E+04  0.50400001928E-02 0. -1.
        1   -1    0    0  501    0  0.00000000000E+00  0.00000000000E+00 -0.82815929399E+03  0.82815929400E+03  0.50400001928E-02 0.  1.
    10030    2    1    2    0    0  0.00000000000E+00  0.00000000000E+00  0.15044018479E+04  0.31607204359E+04  0.27797353748E+04 0.  0.
        2    1    3    3  502    0 -0.13275404185E+03  0.59749626775E+02  0.23238679126E+04  0.23284234428E+04  0.25500000920E-02 0. -1.
       -2    1    3    3    0  502  0.13275404185E+03 -0.59749626775E+02 -0.81946606472E+03  0.83229699312E+03  0.25500000920E-02 0.  1.
</event>
<event>
 5   0  0.4439357E-06  0.2699273E+04  0.7818609E-02  0.8335241E-01
       -2   -1    0    0    0  501  0.00000000000E+00  0.00000000000E+00  0.80913542524E+03  0.80913542524E+03  0.25500000920E-02 0.  1.
        2   -1    0    0  501    0  0.00000000000E+00  0.00000000000E+00 -0.22511911863E+04  0.22511911863E+04  0.25500000920E-02 0. -1.
    10030    2    1    2    0    0  0.00000000000E+00  0.00000000000E+00 -0.14420557611E+04  0.30603266116E+04  0.26992728931E+04 0.  0.
        4    1    3    3  502    0 -0.36154172901E+03 -0.10630103249E+04  0.12801619393E+03  0.11300854532E+04  0.12699999809E+01 0.  1.
       -4    1    3    3    0  502  0.36154172901E+03  0.10630103249E+04 -0.15700719550E+04  0.19302411584E+04  0.12699999809E+01 0. -1.
</event>
<event>
 5   0  0.4401659E-06  0.2700864E+04  0.7818609E-02  0.8334725E-01
        2   -1    0    0  501    0  0.00000000000E+00  0.00000000000E+00  0.17959382189E+04  0.17959382189E+04  0.25500000920E-02 0. -1.
       -2   -1    0    0    0  501  0.00000000000E+00  0.00000000000E+00 -0.10154394775E+04  0.10154394775E+04  0.25500000920E-02 0.  1.
    10030    2    1    2    0    0  0.00000000000E+00  0.00000000000E+00  0.78049874146E+03  0.28113776964E+04  0.27008639852E+04 0.  0.
        5    1    3    3  502    0 -0.11574517998E+04 -0.15860017040E+03  0.10953095631E+04  0.16014286784E+04  0.46999998093E+01 0. -1.
       -5    1    3    3    0  502  0.11574517998E+04  0.15860017040E+03 -0.31481082167E+03  0.12099490180E+04  0.46999998093E+01 0.  1.
</event>
<event>
 5   0  0.4439357E-06  0.2585049E+04  0.7818609E-02  0.8373297E-01
       -2   -1    0    0    0  501  0.00000000000E+00  0.00000000000E+00  0.10186726537E+04  0.10186726537E+04  0.25500000920E-02 0.  1.
        2   -1    0    0  501    0  0.00000000000E+00  0.00000000000E+00 -0.16399965745E+04  0.16399965745E+04  0.25500000920E-02 0. -1.
    10030    2    1    2    0    0  0.00000000000E+00  0.00000000000E+00 -0.62132392086E+03  0.26586692282E+04  0.25850490615E+04 0.  0.
        4    1    3    3  502    0 -0.11236951480E+04 -0.29019128297E+03 -0.89582621899E+03  0.14660859435E+04  0.12699999809E+01 0. -1.
       -4    1    3    3    0  502  0.11236951480E+04  0.29019128297E+03  0.27450229813E+03  0.11925832847E+04  0.12699999809E+01 0.  1.
</event>
<event>
 5   0  0.4448804E-06  0.2685161E+04  0.7818609E-02  0.8339836E-01
        2   -1    0    0  501    0  0.00000000000E+00  0.00000000000E+00  0.26648971464E+04  0.26648971464E+04  0.25500000920E-02 0. -1.
       -2   -1    0    0    0  501  0.00000000000E+00  0.00000000000E+00 -0.67639455721E+03  0.67639455722E+03  0.25500000920E-02 0.  1.
    10030    2    1    2    0    0  0.00000000000E+00  0.00000000000E+00  0.19885025892E+04  0.33412917037E+04  0.26851606473E+04 0.  0.
        2    1    3    3  502    0 -0.12122019861E+03  0.11914933460E+04  0.23921292462E+03  0.12212999441E+04  0.25500000920E-02 0.  1.
       -2    1    3    3    0  502  0.12122019861E+03 -0.11914933460E+04  0.17492896646E+04  0.21199917596E+04  0.25500000920E-02 0. -1.
</event>
<event>
 5   0  0.1482875E-06  0.2693793E+04  0.7818609E-02  0.8337022E-01
        4   -1    0    0  501    0  0.00000000000E+00  0.00000000000E+00  0.18832786627E+04  0.18832790910E+04  0.12699999809E+01 0. -1.
       -4   -1    0    0    0  501  0.00000000000E+00  0.00000000000E+00 -0.96328200855E+03  0.96328284574E+03  0.12699999809E+01 0.  1.
    10030    2    1    2    0    0  0.00000000000E+00  0.00000000000E+00  0.91999665419E+03  0.28465619367E+04  0.26937930536E+04 0.  0.
        3    1    3    3  502    0 -0.60101479049E+03 -0.11541379123E+04  0.92607333528E+02  0.13045417691E+04  0.10100000352E+00 0.  1.
       -3    1    3    3    0  502  0.60101479049E+03  0.11541379123E+04  0.82738932066E+03  0.15420201676E+04  0.10100000352E+00 0. -1.
</event>
<event>
 5   0  0.1723605E-06  0.2718566E+04  0.7818609E-02  0.8329006E-01
       -1   -1    0    0    0  501  0.00000000000E+00  0.00000000000E+00  0.10106534516E+04  0.10106534516E+04  0.50400001928E-02 0. -1.
        1   -1    0    0  501    0  0.00000000000E+00  0.00000000000E+00 -0.18281735817E+04  0.18281735817E+04  0.50400001928E-02 0.  1.
    10030    2    1    2    0    0  0.00000000000E+00  0.00000000000E+00 -0.81752013018E+03  0.28388270333E+04  0.27185657546E+04 0.  0.
        1    1    3    3  502    0 -0.42849397285E+03  0.73957304792E+03 -0.15124324383E+04  0.17372470344E+04  0.50400001928E-02 0.  1.
       -1    1    3    3    0  502  0.42849397285E+03 -0.73957304792E+03  0.69491230815E+03  0.11015799989E+04  0.50400001928E-02 0. -1.
</event>
<event>
 5   0  0.4487186E-06  0.2673114E+04  0.7818609E-02  0.8343782E-01
        2   -1    0    0  501    0  0.00000000000E+00  0.00000000000E+00  0.95297650862E+03  0.95297650862E+03  0.25500000920E-02 0.  1.
       -2   -1    0    0    0  501  0.00000000000E+00  0.00000000000E+00 -0.18745312281E+04  0.18745312281E+04  0.25500000920E-02 0. -1.
    10030    2    1    2    0    0  0.00000000000E+00  0.00000000000E+00 -0.92155471952E+03  0.28275077368E+04  0.26731137088E+04 0.  0.
        3    1    3    3  502    0 -0.16509678182E+03 -0.10209964549E+04  0.43469689374E+03  0.11218966565E+04  0.10100000352E+00 0.  1.
       -3    1    3    3    0  502  0.16509678182E+03  0.10209964549E+04 -0.13562516133E+04  0.17056110802E+04  0.10100000352E+00 0. -1.
</event>
<event>
 5   0  0.1723605E-06  0.2698728E+04  0.7818609E-02  0.8335418E-01
        1   -1    0    0  501    0  0.00000000000E+00  0.00000000000E+00  0.19182289491E+04  0.19182289491E+04  0.50400001928E-02 0. -1.
       -1   -1    0    0    0  501  0.00000000000E+00  0.00000000000E+00 -0.94920007493E+03  0.94920007494E+03  0.50400001928E-02 0.  1.
    10030    2    1    2    0    0  0.00000000000E+00  0.00000000000E+00  0.96902887413E+03  0.28674290240E+04  0.26987278946E+04 0.  0.
        1    1    3    3  502    0  0.52120049623E+03  0.45902286405E+03  0.17137400219E+04  0.18491232543E+04  0.50400001928E-02 0. -1.
       -1    1    3    3    0  502 -0.52120049623E+03 -0.45902286405E+03 -0.74471114775E+03  0.10183057697E+04  0.50400001928E-02 0.  1.
</event>
<event>
 5   0  0.4448804E-06  0.2708151E+04  0.7818609E-02  0.8332365E-01
       -2   -1    0    0    0  501  0.00000000000E+00  0.00000000000E+00  0.57191668472E+03  0.57191668473E+03  0.25500000920E-02 0.  1.
        2   -1    0    0  501    0  0.00000000000E+00  0.00000000000E+00 -0.32059232609E+04  0.32059232609E+04  0.25500000920E-02 0. -1.
    10030    2    1    2    0    0  0.00000000000E+00  0.00000000000E+00 -0.26340065761E+04  0.37778399456E+04  0.27081514011E+04 0.  0.
        2    1    3    3  502    0 -0.26288396383E+03  0.12029672408E+04 -0.53123606763E+03  0.13410629816E+04  0.25500000920E-02 0.  1.
       -2    1    3    3    0  502  0.26288396383E+03 -0.12029672408E+04 -0.21027705085E+04  0.24367769640E+04  0.25500000920E-02 0. -1.
</event>
<event>
 5   0  0.4401659E-06  0.2833791E+04  0.7818609E-02  0.8292854E-01
        2   -1    0    0  501    0  0.00000000000E+00  0.00000000000E+00  0.16760951658E+04  0.16760951658E+04  0.25500000920E-02 0.  1.
       -2   -1    0    0    0  501  0.00000000000E+00  0.00000000000E+00 -0.11977801054E+04  0.11977801054E+04  0.25500000920E-02 0. -1.
    10030    2    1    2    0    0  0.00000000000E+00  0.00000000000E+00  0.47831506044E+03  0.28738752712E+04  0.28337914138E+04 0.  0.
        5    1    3    3  502    0 -0.92584421674E+03 -0.53912343704E+03 -0.70117403661E+03  0.12804330180E+04  0.46999998093E+01 0. -1.
       -5    1    3    3    0  502  0.92584421674E+03  0.53912343704E+03  0.11794890971E+04  0.15934422531E+04  0.46999998093E+01 0.  1.
</event>
<event>
 5   0  0.1753474E-06  0.2749980E+04  0.7818609E-02  0.8318968E-01
        1   -1    0    0  501    0  0.00000000000E+00  0.00000000000E+00  0.15322909038E+04  0.15322909038E+04  0.50400001928E-02 0. -1.
       -1   -1    0    0    0  501  0.00000000000E+00  0.00000000000E+00 -0.12338371111E+04  0.12338371111E+04  0.50400001928E-02 0.  1.
    10030    2    1    2    0    0  0.00000000000E+00  0.00000000000E+00  0.29845379274E+03  0.27661280149E+04  0.27499799142E+04 0.  0.
        3    1    3    3  502    0 -0.34043721790E+03 -0.73428457463E+02  0.14871910881E+04  0.15274248199E+04  0.10100000352E+00 0. -1.
       -3    1    3    3    0  502  0.34043721790E+03  0.73428457463E+02 -0.11887372954E+04  0.12387031950E+04  0.10100000352E+00 0.  1.
</event>
<event>
 5   0  0.1723605E-06  0.2690234E+04  0.7818609E-02  0.8338181E-01
        1   -1    0    0  501    0  0.00000000000E+00  0.00000000000E+00  0.15528553996E+04  0.15528553996E+04  0.50400001928E-02 0.  1.
       -1   -1    0    0    0  501  0.00000000000E+00  0.00000000000E+00 -0.11651693132E+04  0.11651693132E+04  0.50400001928E-02 0. -1.
    10030    2    1    2    0    0  0.00000000000E+00  0.00000000000E+00  0.38768608647E+03  0.27180247128E+04  0.26902337887E+04 0.  0.
        1    1    3    3  502    0 -0.11458815586E+04  0.70657553360E+02  0.90201354262E+03  0.14600224201E+04  0.50400001928E-02 0.  1.
       -1    1    3    3    0  502  0.11458815586E+04 -0.70657553360E+02 -0.51432745615E+03  0.12580022927E+04  0.50400001928E-02 0. -1.
</event>
<event>
 5   0  0.1732312E-06  0.2700167E+04  0.7818609E-02  0.8334951E-01
        1   -1    0    0  501    0  0.00000000000E+00  0.00000000000E+00  0.10158520275E+04  0.10158520275E+04  0.50400001928E-02 0.  1.
       -1   -1    0    0    0  501  0.00000000000E+00  0.00000000000E+00 -0.17942826256E+04  0.17942826256E+04  0.50400001928E-02 0. -1.
    10030    2    1    2    0    0  0.00000000000E+00  0.00000000000E+00 -0.77843059817E+03  0.28101346531E+04  0.27001671379E+04 0.  0.
        5    1    3    3  502    0 -0.99516386462E+03 -0.13644996023E+03  0.54959462669E+03  0.11450091933E+04  0.46999998093E+01 0.  1.
       -5    1    3    3    0  502  0.99516386462E+03  0.13644996023E+03 -0.13280252249E+04  0.16651254598E+04  0.46999998093E+01 0. -1.
</event>
<event>
 5   0  0.1753474E-06  0.2699655E+04  0.7818609E-02  0.8335117E-01
       -1   -1    0    0    0  501  0.00000000000E+00  0.00000000000E+00  0.12218094784E+04  0.12218094784E+04  0.50400001928E-02 0.  1.
        1   -1    0    0  501    0  0.00000000000E+00  0.00000000000E+00 -0.14912585242E+04  0.14912585242E+04  0.50400001928E-02 0. -1.
    10030    2    1    2    0    0  0.00000000000E+00  0.00000000000E+00 -0.26944904573E+03  0.27130680026E+04  0.26996546443E+04 0.  0.
        3    1    3    3  502    0 -0.69172802875E+03 -0.90591602986E+03 -0.86140939861E+03  0.14287048964E+04  0.10100000352E+00 0. -1.
       -3    1    3    3    0  502  0.69172802875E+03  0.90591602986E+03  0.59196035288E+03  0.12843631062E+04  0.10100000352E+00 0.  1.
</event>
<event>
 5   0  0.4401659E-06  0.2706658E+04  0.7818609E-02  0.8332848E-01
       -2   -1    0    0    0  501  0.00000000000E+00  0.00000000000E+00  0.85795477356E+03  0.85795477356E+03  0.25500000920E-02 0.  1.
        2   -1    0    0  501    0  0.00000000000E+00  0.00000000000E+00 -0.21347273392E+04  0.21347273392E+04  0.25500000920E-02 0. -1.
    10030    2    1    2    0    0  0.00000000000E+00  0.00000000000E+00 -0.12767725656E+04  0.29926821128E+04  0.27066580951E+04 0.  0.
        5    1    3    3  502    0  0.10790026283E+04  0.69725201002E+03 -0.11088768269E+04  0.16970671597E+04  0.46999998093E+01 0. -1.
       -5    1    3    3    0  502 -0.10790026283E+04 -0.69725201002E+03 -0.16789573873E+03  0.12956149530E+04  0.46999998093E+01 0.  1.
</event>
<event>
 5   0  0.4401659E-06  0.2684554E+04  0.7818609E-02  0.8340034E-01
       -2   -1    0    0    0  501  0.00000000000E+00  0.00000000000E+00  0.92954234598E+03  0.92954234599E+03  0.25500000920E-02 0. -1.
        2   -1    0    0  501    0  0.00000000000E+00  0.00000000000E+00 -0.19382734548E+04  0.19382734548E+04  0.25500000920E-02 0.  1.
    10030    2    1    2    0    0  0.00000000000E+00  0.00000000000E+00 -0.10087311088E+04  0.28678158008E+04  0.26845537837E+04 0.  0.
        5    1    3    3  502    0 -0.58730112084E+03 -0.92634602056E+03  0.32217476613E+03  0.11431790001E+04  0.46999998093E+01 0. -1.
       -5    1    3    3    0  502  0.58730112084E+03  0.92634602056E+03 -0.13309058749E+04  0.17246368007E+04  0.46999998093E+01 0.  1.
</event>
<event>
 5   0  0.1723605E-06  0.2690078E+04  0.7818609E-02  0.8338231E-01
        1   -1    0    0  501    0  0.00000000000E+00  0.00000000000E+00  0.23738968639E+04  0.23738968639E+04  0.50400001928E-02 0.  1.
       -1   -1    0    0    0  501  0.00000000000E+00  0.00000000000E+00 -0.76209315329E+03  0.76209315331E+03  0.50400001928E-02 0. -1.
    10030    2    1    2    0    0  0.00000000000E+00  0.00000000000E+00  0.16118037106E+04  0.31359900172E+04  0.26900784722E+04 0.  0.
        1    1    3    3  502    0  0.65372860922E+03  0.77393291312E+03 -0.22551537337E+03  0.10378778503E+04  0.50400001928E-02 0. -1.
       -1    1    3    3    0  502 -0.65372860922E+03 -0.77393291312E+03  0.18373190840E+04  0.20981121669E+04  0.50400001928E-02 0.  1.
</event>
<event>
 5   0  0.1482875E-06  0.2805097E+04  0.7818609E-02  0.8301688E-01
        3   -1    0    0  501    0  0.00000000000E+00  0.00000000000E+00  0.75689753486E+03  0.75689754160E+03  0.10100000352E+00 0.  1.
       -3   -1    0    0    0  501  0.00000000000E+00  0.00000000000E+00 -0.25989544981E+04  0.25989545001E+04  0.10100000352E+00 0. -1.
    10030    2    1    2    0    0  0.00000000000E+00  0.00000000000E+00 -0.18420569633E+04  0.33558520417E+04  0.28050969805E+04 0.  0.
        4    1    3    3  502    0 -0.24918542184E+03  0.12866996814E+03  0.72301167205E+03  0.77549779238E+03  0.12699999809E+01 0.  1.
       -4    1    3    3    0  502  0.24918542184E+03 -0.12866996814E+03 -0.25650686353E+04  0.25803542493E+04  0.12699999809E+01 0. -1.
</event>
<event>
 5   0  0.4487186E-06  0.2750777E+04  0.7818609E-02  0.8318715E-01
        2   -1    0    0  501    0  0.00000000000E+00  0.00000000000E+00  0.22859550764E+04  0.22859550764E+04  0.25500000920E-02 0. -1.
       -2   -1    0    0    0  501  0.00000000000E+00  0.00000000000E+00 -0.82752894021E+03  0.82752894021E+03  0.25500000920E-02 0.  1.
    10030    2    1    2    0    0  0.00000000000E+00  0.00000000000E+00  0.14584261362E+04  0.31134840166E+04  0.27507773314E+04 0.  0.
        3    1    3    3  502    0 -0.11470879420E+04 -0.65964326852E+03  0.30457243313E+03  0.13578307574E+04  0.10100000352E+00 0. -1.
       -3    1    3    3    0  502  0.11470879420E+04  0.65964326852E+03  0.11538537030E+04  0.17556532592E+04  0.10100000352E+00 0.  1.
</event>
<event>
 5   0  0.4401659E-06  0.2701832E+04  0.7818609E-02  0.8334411E-01
       -2   -1    0    0    0  501  0.00000000000E+00  0.00000000000E+00  0.16838201088E+04  0.16838201088E+04  0.25500000920E-02 0.  1.
        2   -1    0    0  501    0  0.00000000000E+00  0.00000000000E+00 -0.10838298695E+04  0.10838298695E+04  0.25500000920E-02 0. -1.
    10030    2    1    2    0    0  0.00000000000E+00  0.00000000000E+00  0.59999023938E+03  0.27676499783E+04  0.27018323625E+04 0.  0.
        5    1    3    3  502    0 -0.98367963884E+03  0.59419781538E+03 -0.42741309347E+03  0.12261324228E+04  0.46999998093E+01 0. -1.
       -5    1    3    3    0  502  0.98367963884E+03 -0.59419781538E+03  0.10274033328E+04  0.15415175555E+04  0.46999998093E+01 0.  1.
</event>
<event>
 5   0  0.4439357E-06  0.2757989E+04  0.7818609E-02  0.8316431E-01
       -2   -1    0    0    0  501  0.00000000000E+00  0.00000000000E+00  0.15416244278E+04  0.15416244278E+04  0.25500000920E-02 0. -1.
        2   -1    0    0  501    0  0.00000000000E+00  0.00000000000E+00 -0.12335204858E+04  0.12335204858E+04  0.25500000920E-02 0.  1.
    10030    2    1    2    0    0  0.00000000000E+00  0.00000000000E+00  0.30810394200E+03  0.27751449136E+04  0.27579886244E+04 0.  0.
        4    1    3    3  502    0  0.39294899288E+03 -0.85485962502E+03  0.11685048818E+04  0.15001997071E+04  0.12699999809E+01 0. -1.
       -4    1    3    3    0  502 -0.39294899288E+03  0.85485962502E+03 -0.86040093975E+03  0.12749452065E+04  0.12699999809E+01 0.  1.
</event>
<event>
 5   0  0.1753474E-06  0.2637395E+04  0.7818609E-02  0.8355609E-01
       -1   -1    0    0    0  501  0.00000000000E+00  0.00000000000E+00  0.19286551114E+04  0.19286551114E+04  0.50400001928E-02 0. -1.
        1   -1    0    0  501    0  0.00000000000E+00  0.00000000000E+00 -0.90164511583E+03  0.90164511584E+03  0.50400001928E-02 0.  1.
    10030    2    1    2    0    0  0.00000000000E+00  0.00000000000E+00  0.10270099956E+04  0.28303002273E+04  0.26373945183E+04 0.  0.
        3    1    3    3  502    0  0.60374886208E+03 -0.86610260528E+03 -0.33442432372E+03  0.11074683065E+04  0.10100000352E+00 0.  1.
       -3    1    3    3    0  502 -0.60374886208E+03  0.86610260528E+03  0.13614343193E+04  0.17228319208E+04  0.10100000352E+00 0. -1.
</event>
<event>
 5   0  0.1828511E-06  0.2698534E+04  0.7818609E-02  0.8335481E-01
        1   -1    0    0  501    0  0.00000000000E+00  0.00000000000E+00  0.22914253533E+04  0.22914253533E+04  0.50400001928E-02 0. -1.
       -1   -1    0    0    0  501  0.00000000000E+00  0.00000000000E+00 -0.79449292486E+03  0.79449292487E+03  0.50400001928E-02 0.  1.
    10030    2    1    2    0    0  0.00000000000E+00  0.00000000000E+00  0.14969324284E+04  0.30859182782E+04  0.26985338472E+04 0.  0.
        4    1    3    3  502    0  0.12004663938E+04  0.61512865883E+03  0.71200157918E+03  0.15252706944E+04  0.12699999809E+01 0. -1.
       -4    1    3    3    0  502 -0.12004663938E+04 -0.61512865883E+03  0.78493084927E+03  0.15606475838E+04  0.12699999809E+01 0.  1.
</event>
<event>
 5   0  0.1828511E-06  0.2697856E+04  0.7818609E-02  0.8335701E-01
        1   -1    0    0  501    0  0.00000000000E+00  0.00000000000E+00  0.10878539516E+04  0.10878539517E+04  0.50400001928E-02 0.  1.
       -1   -1    0    0    0  501  0.00000000000E+00  0.00000000000E+00 -0.16726578070E+04  0.16726578070E+04  0.50400001928E-02 0. -1.
    10030    2    1    2    0    0  0.00000000000E+00  0.00000000000E+00 -0.58480385533E+03  0.27605117586E+04  0.26978564862E+04 0.  0.
        4    1    3    3  502    0  0.54259324117E+03  0.12349310362E+04 -0.30466793725E+03  0.13828543865E+04  0.12699999809E+01 0. -1.
       -4    1    3    3    0  502 -0.54259324117E+03 -0.12349310362E+04 -0.28013591808E+03  0.13776573721E+04  0.12699999809E+01 0.  1.
</event>
<event>
 5   0  0.1828511E-06  0.2566190E+04  0.7818609E-02  0.8379777E-01
        1   -1    0    0  501    0  0.00000000000E+00  0.00000000000E+00  0.24495034222E+04  0.24495034222E+04  0.50400001928E-02 0.  1.
       -1   -1    0    0    0  501  0.00000000000E+00  0.00000000000E+00 -0.67210895076E+03  0.67210895078E+03  0.50400001928E-02 0. -1.
    10030    2    1    2    0    0  0.00000000000E+00  0.00000000000E+00  0.17773944714E+04  0.31216123730E+04  0.25661903086E+04 0.  0.
        4    1    3    3  502    0 -0.11092481525E+04  0.51872298616E+03  0.42258293498E+03  0.12954084105E+04  0.12699999809E+01 0. -1.
       -4    1    3    3    0  502  0.11092481525E+04 -0.51872298616E+03  0.13548115365E+04  0.18262039625E+04  0.12699999809E+01 0.  1.
</event>
<event>
 5   0  0.1723605E-06  0.2696601E+04  0.7818609E-02  0.8336109E-01
        1   -1    0    0  501    0  0.00000000000E+00  0.00000000000E+00  0.18980151528E+04  0.18980151528E+04  0.50400001928E-02 0. -1.
       -1   -1    0    0    0  501  0.00000000000E+00  0.00000000000E+00 -0.95779728141E+03  0.95779728143E+03  0.50400001928E-02 0.  1.
    10030    2    1    2    0    0  0.00000000000E+00  0.00000000000E+00  0.94021787139E+03  0.28558124342E+04  0.26966006404E+04 0.  0.
        1    1    3    3  502    0  0.23043281887E+03  0.82800179741E+03 -0.63008576058E+03  0.10656896013E+04  0.50400001928E-02 0.  1.
       -1    1    3    3    0  502 -0.23043281887E+03 -0.82800179741E+03  0.15703036320E+04  0.17901228330E+04  0.50400001928E-02 0. -1.
</event>
<event>
 5   0  0.1732312E-06  0.2701677E+04  0.7818609E-02  0.8334461E-01
       -1   -1    0    0    0  501  0.00000000000E+00  0.00000000000E+00  0.11135506937E+04  0.11135506937E+04  0.50400001928E-02 0.  1.
        1   -1    0    0  501    0  0.00000000000E+00  0.00000000000E+00 -0.16386901640E+04  0.16386901640E+04  0.50400001928E-02 0. -1.
    10030    2    1    2    0    0  0.00000000000E+00  0.00000000000E+00 -0.52513947029E+03  0.27522408577E+04  0.27016769377E+04 0.  0.
        5    1    3    3  502    0 -0.84748025251E+03  0.86593050755E+03 -0.87097767194E+03  0.14922072970E+04  0.46999998093E+01 0. -1.
       -5    1    3    3    0  502  0.84748025251E+03 -0.86593050755E+03  0.34583820165E+03  0.12600335607E+04  0.46999998093E+01 0.  1.
</event>
<event>
 5   0  0.4439357E-06  0.2707462E+04  0.7818609E-02  0.8332588E-01
       -2   -1    0    0    0  501  0.00000000000E+00  0.00000000000E+00  0.15349063302E+04  0.15349063302E+04  0.25500000920E-02 0.  1.
        2   -1    0    0  501    0  0.00000000000E+00  0.00000000000E+00 -0.11939410939E+04  0.11939410939E+04  0.25500000920E-02 0. -1.
    10030    2    1    2    0    0  0.00000000000E+00  0.00000000000E+00  0.34096523636E+03  0.27288474241E+04  0.27074620905E+04 0.  0.
        4    1    3    3  502    0  0.80914307658E+03  0.24217852939E+03 -0.89580708653E+03  0.12311924738E+04  0.12699999809E+01 0. -1.
       -4    1    3    3    0  502 -0.80914307658E+03 -0.24217852939E+03  0.12367723229E+04  0.14976549503E+04  0.12699999809E+01 0.  1.
</event>
<event>
 5   0  0.1482875E-06  0.2694440E+04  0.7818609E-02  0.8336811E-01
       -3   -1    0    0    0  501  0.00000000000E+00  0.00000000000E+00  0.12837647640E+04  0.12837647680E+04  0.10100000352E+00 0. -1.
        3   -1    0    0  501    0  0.00000000000E+00  0.00000000000E+00 -0.14138118709E+04  0.14138118745E+04  0.10100000352E+00 0.  1.
    10030    2    1    2    0    0  0.00000000000E+00  0.00000000000E+00 -0.13004710688E+03  0.26975766425E+04  0.26944401074E+04 0.  0.
        2    1    3    3  502    0 -0.37538631809E+03  0.11897378132E+04 -0.57415355389E+03  0.13733329005E+04  0.25500000920E-02 0.  1.
       -2    1    3    3    0  502  0.37538631809E+03 -0.11897378132E+04  0.44410644701E+03  0.13242437420E+04  0.25500000920E-02 0. -1.
</event>
<event>
 5   0  0.4439357E-06  0.2708919E+04  0.7818609E-02  0.8332117E-01
       -2   -1    0    0    0  501  0.00000000000E+00  0.00000000000E+00  0.92920631057E+03  0.92920631057E+03  0.25500000920E-02 0.  1.
        2   -1    0    0  501    0  0.00000000000E+00  0.00000000000E+00 -0.19743309723E+04  0.19743309723E+04  0.25500000920E-02 0. -1.
    10030    2    1    2    0    0  0.00000000000E+00  0.00000000000E+00 -0.10451246617E+04  0.29035372828E+04  0.27089191930E+04 0.  0.
        4    1    3    3  502    0  0.77350184467E+03 -0.41163788838E+03  0.58450632779E+03  0.10532806440E+04  0.12699999809E+01 0.  1.
       -4    1    3    3    0  502 -0.77350184467E+03  0.41163788838E+03 -0.16296309895E+04  0.18502566389E+04  0.12699999809E+01 0. -1.
</event>
<event>
 5   0  0.1723605E-06  0.2714600E+04  0.7818609E-02  0.8330283E-01
        1   -1    0    0  501    0  0.00000000000E+00  0.00000000000E+00  0.10161563177E+04  0.10161563177E+04  0.50400001928E-02 0.  1.
       -1   -1    0    0    0  501  0.00000000000E+00  0.00000000000E+00 -0.18129718360E+04  0.18129718360E+04  0.50400001928E-02 0. -1.
    10030    2    1    2    0    0  0.00000000000E+00  0.00000000000E+00 -0.79681551822E+03  0.28291281537E+04  0.27145996279E+04 0.  0.
        1    1    3    3  502    0 -0.58304047439E+03 -0.72212891609E+03 -0.14305737720E+04  0.17052705602E+04  0.50400001928E-02 0. -1.
       -1    1    3    3    0  502  0.58304047439E+03  0.72212891609E+03  0.63375825381E+03  0.11238575935E+04  0.50400001928E-02 0.  1.
</event>
<event>
 5   0  0.4655882E-06  0.2526019E+04  0.7818609E-02  0.8393774E-01
        2   -1    0    0  501    0  0.00000000000E+00  0.00000000000E+00  0.10944115424E+04  0.10944115424E+04  0.25500000920E-02 0. -1.
       -2   -1    0    0    0  501  0.00000000000E+00  0.00000000000E+00 -0.14575810910E+04  0.14575810910E+04  0.25500000920E-02 0.  1.
    10030    2    1    2    0    0  0.00000000000E+00  0.00000000000E+00 -0.36316954854E+03  0.25519926334E+04  0.25260194536E+04 0.  0.
        1    1    3    3  502    0  0.49573003084E+03  0.34809360156E+03 -0.13012565615E+04  0.14353348243E+04  0.50400001928E-02 0.  1.
       -1    1    3    3    0  502 -0.49573003084E+03 -0.34809360156E+03  0.93808701294E+03  0.11166578092E+04  0.50400001928E-02 0. -1.
</event>
<event>
 5   0  0.1753474E-06  0.2699349E+04  0.7818609E-02  0.8335216E-01
        1   -1    0    0  501    0  0.00000000000E+00  0.00000000000E+00  0.12723207378E+04  0.12723207378E+04  0.50400001928E-02 0. -1.
       -1   -1    0    0    0  501  0.00000000000E+00  0.00000000000E+00 -0.14317311293E+04  0.14317311293E+04  0.50400001928E-02 0.  1.
    10030    2    1    2    0    0  0.00000000000E+00  0.00000000000E+00 -0.15941039152E+03  0.27040518671E+04  0.26993489636E+04 0.  0.
        3    1    3    3  502    0  0.81299358508E+03 -0.91519317178E+03 -0.64910035188E+03  0.13855931539E+04  0.10100000352E+00 0. -1.
       -3    1    3    3    0  502 -0.81299358508E+03  0.91519317178E+03  0.48968996036E+03  0.13184587132E+04  0.10100000352E+00 0.  1.
</event>
<event>
 5   0  0.4448804E-06  0.2696712E+04  0.7818609E-02  0.8336073E-01
        2   -1    0    0  501    0  0.00000000000E+00  0.00000000000E+00  0.20383793311E+04  0.20383793311E+04  0.25500000920E-02 0. -1.
       -2   -1    0    0    0  501  0.00000000000E+00  0.00000000000E+00 -0.89191611667E+03  0.89191611667E+03  0.25500000920E-02 0.  1.
    10030    2    1    2    0    0  0.00000000000E+00  0.00000000000E+00  0.11464632145E+04  0.29302954478E+04  0.26967116103E+04 0.  0.
        2    1    3    3  502    0 -0.69399232714E+03 -0.92816553658E+03  0.13220894317E+04  0.17581345452E+04  0.25500000920E-02 0. -1.
       -2    1    3    3    0  502  0.69399232714E+03  0.92816553658E+03 -0.17562621728E+03  0.11721609026E+04  0.25500000920E-02 0.  1.
</event>
<event>
 5   0  0.1723605E-06  0.2692640E+04  0.7818609E-02  0.8337397E-01
        1   -1    0    0  501    0  0.00000000000E+00  0.00000000000E+00  0.16985387742E+04  0.16985387742E+04  0.50400001928E-02 0. -1.
       -1   -1    0    0    0  501  0.00000000000E+00  0.00000000000E+00 -0.10671390915E+04  0.10671390916E+04  0.50400001928E-02 0.  1.
    10030    2    1    2    0    0  0.00000000000E+00  0.00000000000E+00  0.63139968265E+03  0.27656778658E+04  0.26926396896E+04 0.  0.
        1    1    3    3  502    0 -0.63963263280E+03 -0.11836223941E+04  0.26449533323E+03  0.13711490284E+04  0.50400001928E-02 0. -1.
       -1    1    3    3    0  502  0.63963263280E+03  0.11836223941E+04  0.36690434942E+03  0.13945288374E+04  0.50400001928E-02 0.  1.
</event>
<event>
 5   0  0.1732312E-06  0.2709230E+04  0.7818609E-02  0.8332016E-01
       -1   -1    0    0    0  501  0.00000000000E+00  0.00000000000E+00  0.74148022253E+03  0.74148022254E+03  0.50400001928E-02 0. -1.
        1   -1    0    0  501    0  0.00000000000E+00  0.00000000000E+00 -0.24747545216E+04  0.24747545216E+04  0.50400001928E-02 0.  1.
    10030    2    1    2    0    0  0.00000000000E+00  0.00000000000E+00 -0.17332742991E+04  0.32162347441E+04  0.27092298045E+04 0.  0.
        5    1    3    3  502    0  0.51158978431E+03 -0.27046793816E+03  0.58734627891E+03  0.82454518028E+03  0.46999998093E+01 0. -1.
       -5    1    3    3    0  502 -0.51158978431E+03  0.27046793816E+03 -0.23206205780E+04  0.23916895639E+04  0.46999998093E+01 0.  1.
</event>
<event>
 5   0  0.1723605E-06  0.2700694E+04  0.7818609E-02  0.8334780E-01
        1   -1    0    0  501    0  0.00000000000E+00  0.00000000000E+00  0.27718705913E+04  0.27718705913E+04  0.50400001928E-02 0.  1.
       -1   -1    0    0    0  501  0.00000000000E+00  0.00000000000E+00 -0.65783639896E+03  0.65783639898E+03  0.50400001928E-02 0. -1.
    10030    2    1    2    0    0  0.00000000000E+00  0.00000000000E+00  0.21140341924E+04  0.34297069903E+04  0.27006942576E+04 0.  0.
        1    1    3    3  502    0 -0.11662411350E+04  0.22984234038E+03  0.24337450858E+03  0.12133330284E+04  0.50400001928E-02 0.  1.
       -1    1    3    3    0  502  0.11662411350E+04 -0.22984234038E+03  0.18706596838E+04  0.22163739619E+04  0.50400001928E-02 0. -1.
</event>
<event>
 5   0  0.4401659E-06  0.2702183E+04  0.7818609E-02  0.8334297E-01
        2   -1    0    0  501    0  0.00000000000E+00  0.00000000000E+00  0.12440781162E+04  0.12440781162E+04  0.25500000920E-02 0. -1.
       -2   -1    0    0    0  501  0.00000000000E+00  0.00000000000E+00 -0.14673096736E+04  0.14673096736E+04  0.25500000920E-02 0.  1.
    10030    2    1    2    0    0  0.00000000000E+00  0.00000000000E+00 -0.22323155743E+03  0.27113877898E+04  0.27021827137E+04 0.  0.
        5    1    3    3  502    0 -0.84285866755E+02 -0.12437043577E+04  0.41123617971E+03  0.13126469145E+04  0.46999998093E+01 0. -1.
       -5    1    3    3    0  502  0.84285866755E+02  0.12437043577E+04 -0.63446773714E+03  0.13987408753E+04  0.46999998093E+01 0.  1.
</event>
<event>
 5   0  0.4487186E-06  0.2722775E+04  0.7818609E-02  0.8327653E-01
        2   -1    0    0  501    0  0.00000000000E+00  0.00000000000E+00  0.15907232297E+04  0.15907232297E+04  0.25500000920E-02 0.  1.
       -2   -1    0    0    0  501  0.00000000000E+00  0.00000000000E+00 -0.11651153704E+04  0.11651153704E+04  0.25500000920E-02 0. -1.
    10030    2    1    2    0    0  0.00000000000E+00  0.00000000000E+00  0.42560785925E+03  0.27558386001E+04  0.27227751174E+04 0.  0.
        3    1    3    3  502    0  0.19792376726E+03 -0.67636381582E+03  0.13917376763E+04  0.15599921791E+04  0.10100000352E+00 0.  1.
       -3    1    3    3    0  502 -0.19792376726E+03  0.67636381582E+03 -0.96612981708E+03  0.11958464210E+04  0.10100000352E+00 0. -1.
</event>
<event>
 5   0  0.4655882E-06  0.2694349E+04  0.7818609E-02  0.8336841E-01
        2   -1    0    0  501    0  0.00000000000E+00  0.00000000000E+00  0.11827677876E+04  0.11827677876E+04  0.25500000920E-02 0.  1.
       -2   -1    0    0    0  501  0.00000000000E+00  0.00000000000E+00 -0.15344339058E+04  0.15344339058E+04  0.25500000920E-02 0. -1.
    10030    2    1    2    0    0  0.00000000000E+00  0.00000000000E+00 -0.35166611819E+03  0.27172016934E+04  0.26943488979E+04 0.  0.
        1    1    3    3  502    0 -0.12475409474E+04  0.36537773476E+03  0.18074716605E+03  0.13124514630E+04  0.50400001928E-02 0. -1.
       -1    1    3    3    0  502  0.12475409474E+04 -0.36537773476E+03 -0.53241328425E+03  0.14047502304E+04  0.50400001928E-02 0.  1.
</event>
<event>
 5   0  0.1771016E-06  0.2683599E+04  0.7818609E-02  0.8340346E-01
        1   -1    0    0  501    0  0.00000000000E+00  0.00000000000E+00  0.16053323770E+04  0.16053323770E+04  0.50400001928E-02 0.  1.
       -1   -1    0    0    0  501  0.00000000000E+00  0.00000000000E+00 -0.11215280198E+04  0.11215280198E+04  0.50400001928E-02 0. -1.
    10030    2    1    2    0    0  0.00000000000E+00  0.00000000000E+00  0.48380435717E+03  0.27268603968E+04  0.26835985109E+04 0.  0.
        2    1    3    3  502    0  0.56875094918E+03 -0.12107654880E+04  0.13535701206E+03  0.13445267680E+04  0.25500000920E-02 0. -1.
       -2    1    3    3    0  502 -0.56875094918E+03  0.12107654880E+04  0.34844734511E+03  0.13823336288E+04  0.25500000920E-02 0.  1.
</event>
<event>
 5   0  0.1723605E-06  0.2636560E+04  0.7818609E-02  0.8355887E-01
        1   -1    0    0  501    0  0.00000000000E+00  0.00000000000E+00  0.13919755260E+04  0.13919755260E+04  0.50400001928E-02 0.  1.
       -1   -1    0    0    0  501  0.00000000000E+00  0.00000000000E+00 -0.12484866167E+04  0.12484866168E+04  0.50400001928E-02 0. -1.
    10030    2    1    2    0    0  0.00000000000E+00  0.00000000000E+00  0.14348890924E+03  0.26404621428E+04  0.26365604981E+04 0.  0.
        1    1    3    3  502    0  0.46410069554E+03  0.35810348379E+03  0.12542691910E+04  0.13844922406E+04  0.50400001928E-02 0.  1.
       -1    1    3    3    0  502 -0.46410069554E+03 -0.35810348379E+03 -0.11107802818E+04  0.12559699022E+04  0.50400001928E-02 0. -1.
</event>
<event>
 5   0  0.4401659E-06  0.2694293E+04  0.7818609E-02  0.8336859E-01
        2   -1    0    0  501    0  0.00000000000E+00  0.00000000000E+00  0.19125902627E+04  0.19125902627E+04  0.25500000920E-02 0. -1.
       -2   -1    0    0    0  501  0.00000000000E+00  0.00000000000E+00 -0.94887214507E+03  0.94887214507E+03  0.25500000920E-02 0.  1.
    10030    2    1    2    0    0  0.00000000000E+00  0.00000000000E+00  0.96371811759E+03  0.28614624077E+04  0.26942929501E+04 0.  0.
        5    1    3    3  502    0 -0.10336349133E+04 -0.79263812955E+03  0.11687177509E+03  0.13078063466E+04  0.46999998093E+01 0. -1.
       -5    1    3    3    0  502  0.10336349133E+04  0.79263812955E+03  0.84684634251E+03  0.15536560611E+04  0.46999998093E+01 0.  1.
</event>
<event>
 5   0  0.1732312E-06  0.2694556E+04  0.7818609E-02  0.8336774E-01
       -1   -1    0    0    0  501  0.00000000000E+00  0.00000000000E+00  0.11092335554E+04  0.11092335554E+04  0.50400001928E-02 0. -1.
        1   -1    0    0  501    0  0.00000000000E+00  0.00000000000E+00 -0.16364071842E+04  0.16364071842E+04  0.50400001928E-02 0.  1.
    10030    2    1    2    0    0  0.00000000000E+00  0.00000000000E+00 -0.52717362878E+03  0.27456407396E+04  0.26945558142E+04 0.  0.
        5    1    3    3  502    0 -0.99930449099E+03 -0.70115094194E+03 -0.84440531939E+03  0.14843397665E+04  0.46999998093E+01 0. -1.
       -5    1    3    3    0  502  0.99930449099E+03  0.70115094194E+03  0.31723169061E+03  0.12613009731E+04  0.46999998093E+01 0.  1.
</event>
<event>
 5   0  0.1828511E-06  0.2701635E+04  0.7818609E-02  0.8334475E-01
        1   -1    0    0  501    0  0.00000000000E+00  0.00000000000E+00  0.20558196827E+04  0.20558196827E+04  0.50400001928E-02 0.  1.
       -1   -1    0    0    0  501  0.00000000000E+00  0.00000000000E+00 -0.88758180047E+03  0.88758180048E+03  0.50400001928E-02 0. -1.
    10030    2    1    2    0    0  0.00000000000E+00  0.00000000000E+00  0.11682378822E+04  0.29434014832E+04  0.27016351607E+04 0.  0.
        4    1    3    3  502    0 -0.14009476874E+03 -0.81629346657E+03 -0.57849636822E+03  0.10102580011E+04  0.12699999809E+01 0. -1.
       -4    1    3    3    0  502  0.14009476874E+03  0.81629346657E+03  0.17467342505E+04  0.19331434821E+04  0.12699999809E+01 0.  1.
</event>
<event>
 5   0  0.4401659E-06  0.2695117E+04  0.7818609E-02  0.8336591E-01
       -2   -1    0    0    0  501  0.00000000000E+00  0.00000000000E+00  0.15799961700E+04  0.15799961700E+04  0.25500000920E-02 0.  1.
        2   -1    0    0  501    0  0.00000000000E+00  0.00000000000E+00 -0.11493150041E+04  0.11493150041E+04  0.25500000920E-02 0. -1.
    10030    2    1    2    0    0  0.00000000000E+00  0.00000000000E+00  0.43068116588E+03  0.27293111740E+04  0.26951165500E+04 0.  0.
        5    1    3    3  502    0 -0.32191894860E+03 -0.30652423378E+03 -0.10729247729E+04  0.11613692668E+04  0.46999998093E+01 0. -1.
       -5    1    3    3    0  502  0.32191894860E+03  0.30652423378E+03  0.15036059388E+04  0.15679419073E+04  0.46999998093E+01 0.  1.
</event>
<event>
 5   0  0.1482875E-06  0.2692143E+04  0.7818609E-02  0.8337559E-01
        3   -1    0    0  501    0  0.00000000000E+00  0.00000000000E+00  0.17653637840E+04  0.17653637869E+04  0.10100000352E+00 0. -1.
       -3   -1    0    0    0  501  0.00000000000E+00  0.00000000000E+00 -0.10263653433E+04  0.10263653482E+04  0.10100000352E+00 0.  1.
    10030    2    1    2    0    0  0.00000000000E+00  0.00000000000E+00  0.73899844073E+03  0.27917291351E+04  0.26921428024E+04 0.  0.
        5    1    3    3  502    0  0.76304619214E+03 -0.93883523132E+03  0.98144285671E+03  0.15578521284E+04  0.46999998093E+01 0. -1.
       -5    1    3    3    0  502 -0.76304619214E+03  0.93883523132E+03 -0.24244441599E+03  0.12338770067E+04  0.46999998093E+01 0.  1.
</event>
<event>
 5   0  0.4401659E-06  0.2695087E+04  0.7818609E-02  0.8336601E-01
        2   -1    0    0  501    0  0.00000000000E+00  0.00000000000E+00  0.94489496268E+03  0.94489496269E+03  0.25500000920E-02 0. -1.
       -2   -1    0    0    0  501  0.00000000000E+00  0.00000000000E+00 -0.19217735488E+04  0.19217735488E+04  0.25500000920E-02 0.  1.
    10030    2    1    2    0    0  0.00000000000E+00  0.00000000000E+00 -0.97687858614E+03  0.28666685115E+04  0.26950874908E+04 0.  0.
        5    1    3    3  502    0 -0.37462656391E+03  0.39014854802E+03 -0.18012317136E+04  0.18806963412E+04  0.46999998093E+01 0.  1.
       -5    1    3    3    0  502  0.37462656391E+03 -0.39014854802E+03  0.82435312742E+03  0.98597217030E+03  0.46999998093E+01 0. -1.
</event>
<event>
 5   0  0.4439357E-06  0.2689045E+04  0.7818609E-02  0.8338568E-01
        2   -1    0    0  501    0  0.00000000000E+00  0.00000000000E+00  0.22176407596E+04  0.22176407596E+04  0.25500000920E-02 0.  1.
       -2   -1    0    0    0  501  0.00000000000E+00  0.00000000000E+00 -0.81516414607E+03  0.81516414607E+03  0.25500000920E-02 0. -1.
    10030    2    1    2    0    0  0.00000000000E+00  0.00000000000E+00  0.14024766135E+04  0.30328049057E+04  0.26890453593E+04 0.  0.
        4    1    3    3  502    0 -0.98502615661E+03  0.79688668235E+03  0.12086831404E+04  0.17510629516E+04  0.12699999809E+01 0. -1.
       -4    1    3    3    0  502  0.98502615661E+03 -0.79688668235E+03  0.19379347314E+03  0.12817419541E+04  0.12699999809E+01 0.  1.
</event>
<event>
 5   0  0.4655882E-06  0.2699555E+04  0.7818609E-02  0.8335150E-01
        2   -1    0    0  501    0  0.00000000000E+00  0.00000000000E+00  0.19889682058E+04  0.19889682058E+04  0.25500000920E-02 0.  1.
       -2   -1    0    0    0  501  0.00000000000E+00  0.00000000000E+00 -0.91600193544E+03  0.91600193545E+03  0.25500000920E-02 0. -1.
    10030    2    1    2    0    0  0.00000000000E+00  0.00000000000E+00  0.10729662703E+04  0.29049701412E+04  0.26995545751E+04 0.  0.
        1    1    3    3  502    0  0.11493541967E+04 -0.61583392989E+03  0.91177909655E+03  0.15911026427E+04  0.50400001928E-02 0.  1.
       -1    1    3    3    0  502 -0.11493541967E+04  0.61583392989E+03  0.16118717376E+03  0.13138674985E+04  0.50400001928E-02 0. -1.
</event>
<event>
 5   0  0.4655882E-06  0.2715922E+04  0.7818609E-02  0.8329857E-01
        2   -1    0    0  501    0  0.00000000000E+00  0.00000000000E+00  0.14285287866E+04  0.14285287866E+04  0.25500000920E-02 0. -1.
       -2   -1    0    0    0  501  0.00000000000E+00  0.00000000000E+00 -0.12908790131E+04  0.12908790131E+04  0.25500000920E-02 0.  1.
    10030    2    1    2    0    0  0.00000000000E+00  0.00000000000E+00  0.13764977341E+03  0.27194077997E+04  0.27159218179E+04 0.  0.
        1    1    3    3  502    0  0.47216489261E+03  0.97756540079E+03 -0.74799423192E+03  0.13183585133E+04  0.50400001928E-02 0.  1.
       -1    1    3    3    0  502 -0.47216489261E+03 -0.97756540079E+03  0.88564400534E+03  0.14010492864E+04  0.50400001928E-02 0. -1.
</event>
<event>
 5   0  0.1771016E-06  0.2710683E+04  0.7818609E-02  0.8331547E-01
       -1   -1    0    0    0  501  0.00000000000E+00  0.00000000000E+00  0.27925124022E+04  0.27925124022E+04  0.50400001928E-02 0. -1.
        1   -1    0    0  501    0  0.00000000000E+00  0.00000000000E+00 -0.65781285688E+03  0.65781285690E+03  0.50400001928E-02 0.  1.
    10030    2    1    2    0    0  0.00000000000E+00  0.00000000000E+00  0.21346995453E+04  0.34503252591E+04  0.27106829850E+04 0.  0.
        2    1    3    3  502    0  0.81952611370E+03 -0.52261218074E+03  0.22696512906E+04  0.24690207620E+04  0.25500000920E-02 0. -1.
       -2    1    3    3    0  502 -0.81952611370E+03  0.52261218074E+03 -0.13495174524E+03  0.98130449711E+03  0.25500000920E-02 0.  1.
</event>
<event>
 5   0  0.4655882E-06  0.2742201E+04  0.7818609E-02  0.8321441E-01
        2   -1    0    0  501    0  0.00000000000E+00  0.00000000000E+00  0.18750299351E+04  0.18750299351E+04  0.25500000920E-02 0. -1.
       -2   -1    0    0    0  501  0.00000000000E+00  0.00000000000E+00 -0.10026062638E+04  0.10026062638E+04  0.25500000920E-02 0.  1.
    10030    2    1    2    0    0  0.00000000000E+00  0.00000000000E+00  0.87242367133E+03  0.28776361989E+04  0.27422011289E+04 0.  0.
        1    1    3    3  502    0  0.44137846428E+03 -0.46090947125E+03 -0.83725739913E+03  0.10527356942E+04  0.50400001928E-02 0.  1.
       -1    1    3    3    0  502 -0.44137846428E+03  0.46090947125E+03  0.17096810705E+04  0.18249005047E+04  0.50400001928E-02 0. -1.
</event>
<event>
 5   0  0.1732312E-06  0.2710560E+04  0.7818609E-02  0.8331587E-01
        1   -1    0    0  501    0  0.00000000000E+00  0.00000000000E+00  0.11269717987E+04  0.11269717987E+04  0.50400001928E-02 0.  1.
       -1   -1    0    0    0  501  0.00000000000E+00  0.00000000000E+00 -0.16298398802E+04  0.16298398802E+04  0.50400001928E-02 0. -1.
    10030    2    1    2    0    0  0.00000000000E+00  0.00000000000E+00 -0.50286808146E+03  0.27568116789E+04  0.27105597809E+04 0.  0.
        5    1    3    3  502    0 -0.67525457150E+03  0.23669049561E+03 -0.14220607047E+04  0.15919390268E+04  0.46999998093E+01 0. -1.
       -5    1    3    3    0  502  0.67525457150E+03 -0.23669049561E+03  0.91919262327E+03  0.11648726521E+04  0.46999998093E+01 0.  1.
</event>
<event>
 5   0  0.1753474E-06  0.2704493E+04  0.7818609E-02  0.8333548E-01
       -1   -1    0    0    0  501  0.00000000000E+00  0.00000000000E+00  0.77457715349E+03  0.77457715350E+03  0.50400001928E-02 0. -1.
        1   -1    0    0  501    0  0.00000000000E+00  0.00000000000E+00 -0.23607346622E+04  0.23607346622E+04  0.50400001928E-02 0.  1.
    10030    2    1    2    0    0  0.00000000000E+00  0.00000000000E+00 -0.15861575087E+04  0.31353118157E+04  0.27044933979E+04 0.  0.
        3    1    3    3  502    0  0.95379602247E+03  0.88472322687E+03 -0.12207778866E+04  0.17840293437E+04  0.10100000352E+00 0. -1.
       -3    1    3    3    0  502 -0.95379602247E+03 -0.88472322687E+03 -0.36537962210E+03  0.13512824720E+04  0.10100000352E+00 0.  1.
</event>
<event>
 5   0  0.4439357E-06  0.2712601E+04  0.7818609E-02  0.8330928E-01
       -2   -1    0    0    0  501  0.00000000000E+00  0.00000000000E+00  0.17704724889E+04  0.17704724889E+04  0.25500000920E-02 0.  1.
        2   -1    0    0  501    0  0.00000000000E+00  0.00000000000E+00 -0.10390168983E+04  0.10390168983E+04  0.25500000920E-02 0. -1.
    10030    2    1    2    0    0  0.00000000000E+00  0.00000000000E+00  0.73145559054E+03  0.28094893872E+04  0.27126008434E+04 0.  0.
        4    1    3    3  502    0  0.68829757624E+03 -0.11992053308E+02  0.15760792693E+04  0.17198618662E+04  0.12699999809E+01 0.  1.
       -4    1    3    3    0  502 -0.68829757624E+03  0.11992053308E+02 -0.84462367878E+03  0.10896275210E+04  0.12699999809E+01 0. -1.
</event>
<event>
 5   0  0.1723605E-06  0.2721211E+04  0.7818609E-02  0.8328155E-01
       -1   -1    0    0    0  501  0.00000000000E+00  0.00000000000E+00  0.94161683325E+03  0.94161683327E+03  0.50400001928E-02 0. -1.
        1   -1    0    0  501    0  0.00000000000E+00  0.00000000000E+00 -0.19660308440E+04  0.19660308440E+04  0.50400001928E-02 0.  1.
    10030    2    1    2    0    0  0.00000000000E+00  0.00000000000E+00 -0.10244140107E+04  0.29076476773E+04  0.27212113019E+04 0.  0.
        1    1    3    3  502    0  0.11645462838E+02  0.99159595920E+02  0.93769741470E+03  0.94299771147E+03  0.50400001928E-02 0. -1.
       -1    1    3    3    0  502 -0.11645462838E+02 -0.99159595920E+02 -0.19621114254E+04  0.19646499658E+04  0.50400001928E-02 0.  1.
</event>
<event>
 5   0  0.4487186E-06  0.2685671E+04  0.7818609E-02  0.8339669E-01
       -2   -1    0    0    0  501  0.00000000000E+00  0.00000000000E+00  0.90002862928E+03  0.90002862928E+03  0.25500000920E-02 0.  1.
        2   -1    0    0  501    0  0.00000000000E+00  0.00000000000E+00 -0.20035001869E+04  0.20035001869E+04  0.25500000920E-02 0. -1.
    10030    2    1    2    0    0  0.00000000000E+00  0.00000000000E+00 -0.11034715576E+04  0.29035288162E+04  0.26856712583E+04 0.  0.
        3    1    3    3  502    0 -0.62272145222E+03  0.92111040025E+03 -0.13657979907E+04  0.17611446670E+04  0.10100000352E+00 0. -1.
       -3    1    3    3    0  502  0.62272145222E+03 -0.92111040025E+03  0.26232643311E+03  0.11423841491E+04  0.10100000352E+00 0.  1.
</event>
<event>
 5   0  0.4487186E-06  0.2714289E+04  0.7818609E-02  0.8330383E-01
       -2   -1    0    0    0  501  0.00000000000E+00  0.00000000000E+00  0.11346236134E+04  0.11346236134E+04  0.25500000920E-02 0. -1.
        2   -1    0    0  501    0  0.00000000000E+00  0.00000000000E+00 -0.16233062301E+04  0.16233062301E+04  0.25500000920E-02 0.  1.
    10030    2    1    2    0    0  0.00000000000E+00  0.00000000000E+00 -0.48868261669E+03  0.27579298435E+04  0.27142892849E+04 0.  0.
        3    1    3    3  502    0 -0.11961796267E+04  0.63747955482E+03 -0.17531012661E+03  0.13667331608E+04  0.10100000352E+00 0. -1.
       -3    1    3    3    0  502  0.11961796267E+04 -0.63747955482E+03 -0.31337249008E+03  0.13911966827E+04  0.10100000352E+00 0.  1.
</event>
<event>
 5   0  0.4487186E-06  0.2709292E+04  0.7818609E-02  0.8331996E-01
       -2   -1    0    0    0  501  0.00000000000E+00  0.00000000000E+00  0.93886253346E+03  0.93886253346E+03  0.25500000920E-02 0. -1.
        2   -1    0    0  501    0  0.00000000000E+00  0.00000000000E+00 -0.19545621102E+04  0.19545621102E+04  0.25500000920E-02 0.  1.
    10030    2    1    2    0    0  0.00000000000E+00  0.00000000000E+00 -0.10156995767E+04  0.28934246437E+04  0.27092915196E+04 0.  0.
        3    1    3    3  502    0  0.11987351311E+04 -0.17766665316E+03 -0.11544166404E+04  0.16736813149E+04  0.10100000352E+00 0.  1.
       -3    1    3    3    0  502 -0.11987351311E+04  0.17766665316E+03  0.13871706363E+03  0.12197433288E+04  0.10100000352E+00 0. -1.
</event>
<event>
 5   0  0.1771016E-06  0.2691101E+04  0.7818609E-02  0.8337898E-01
       -1   -1    0    0    0  501  0.00000000000E+00  0.00000000000E+00  0.11858162628E+04  0.11858162628E+04  0.50400001928E-02 0. -1.
        1   -1    0    0  501    0  0.00000000000E+00  0.00000000000E+00 -0.15268010281E+04  0.15268010281E+04  0.50400001928E-02 0.  1.
    10030    2    1    2    0    0  0.00000000000E+00  0.00000000000E+00 -0.34098476533E+03  0.27126172910E+04  0.26911005104E+04 0.  0.
        2    1    3    3  502    0 -0.76522009946E+03  0.88667914115E+03 -0.83816581904E+03  0.14402373555E+04  0.25500000920E-02 0.  1.
       -2    1    3    3    0  502  0.76522009946E+03 -0.88667914115E+03  0.49718105371E+03  0.12723799355E+04  0.25500000920E-02 0. -1.
</event>
<event>
 5   0  0.4401659E-06  0.2701839E+04  0.7818609E-02  0.8334408E-01
       -2   -1    0    0    0  501  0.00000000000E+00  0.00000000000E+00  0.77431556415E+03  0.77431556415E+03  0.25500000920E-02 0. -1.
        2   -1    0    0  501    0  0.00000000000E+00  0.00000000000E+00 -0.23568994656E+04  0.23568994656E+04  0.25500000920E-02 0.  1.
    10030    2    1    2    0    0  0.00000000000E+00  0.00000000000E+00 -0.15825839014E+04  0.31312150297E+04  0.27018393285E+04 0.  0.
        5    1    3    3  502    0 -0.55545465351E+03  0.82387722320E+03 -0.18519779136E+04  0.21017011761E+04  0.46999998093E+01 0.  1.
       -5    1    3    3    0  502  0.55545465351E+03 -0.82387722320E+03  0.26939401221E+03  0.10295138536E+04  0.46999998093E+01 0. -1.
</event>
<event>
 5   0  0.4401659E-06  0.2704477E+04  0.7818609E-02  0.8333554E-01
       -2   -1    0    0    0  501  0.00000000000E+00  0.00000000000E+00  0.13372101455E+04  0.13372101455E+04  0.25500000920E-02 0. -1.
        2   -1    0    0  501    0  0.00000000000E+00  0.00000000000E+00 -0.13674360465E+04  0.13674360465E+04  0.25500000920E-02 0.  1.
    10030    2    1    2    0    0  0.00000000000E+00  0.00000000000E+00 -0.30225901023E+02  0.27046461921E+04  0.27044772913E+04 0.  0.
        5    1    3    3  502    0  0.10108363090E+04 -0.88801994040E+03  0.11964637068E+03  0.13508170869E+04  0.46999998093E+01 0. -1.
       -5    1    3    3    0  502 -0.10108363090E+04  0.88801994040E+03 -0.14987227170E+03  0.13538291052E+04  0.46999998093E+01 0.  1.
</event>
<event>
 5   0  0.4439357E-06  0.2695466E+04  0.7818609E-02  0.8336477E-01
       -2   -1    0    0    0  501  0.00000000000E+00  0.00000000000E+00  0.10735575625E+04  0.10735575625E+04  0.25500000920E-02 0. -1.
        2   -1    0    0  501    0  0.00000000000E+00  0.00000000000E+00 -0.16919303735E+04  0.16919303735E+04  0.25500000920E-02 0.  1.
    10030    2    1    2    0    0  0.00000000000E+00  0.00000000000E+00 -0.61837281100E+03  0.27654879360E+04  0.26954663030E+04 0.  0.
        4    1    3    3  502    0  0.10541374301E+04 -0.71860597375E+03 -0.75496482046E+03  0.14824215865E+04  0.12699999809E+01 0.  1.
       -4    1    3    3    0  502 -0.10541374301E+04  0.71860597375E+03  0.13659200946E+03  0.12830663494E+04  0.12699999809E+01 0. -1.
</event>
<event>
 5   0  0.4439357E-06  0.2698120E+04  0.7818609E-02  0.8335615E-01
        2   -1    0    0  501    0  0.00000000000E+00  0.00000000000E+00  0.16884065059E+04  0.16884065059E+04  0.25500000920E-02 0. -1.
       -2   -1    0    0    0  501  0.00000000000E+00  0.00000000000E+00 -0.10779176846E+04  0.10779176846E+04  0.25500000920E-02 0.  1.
    10030    2    1    2    0    0  0.00000000000E+00  0.00000000000E+00  0.61048882133E+03  0.27663241905E+04  0.26981202578E+04 0.  0.
        4    1    3    3  502    0  0.12349167293E+04 -0.24781413001E+03 -0.19022121257E+03  0.12738198043E+04  0.12699999809E+01 0.  1.
       -4    1    3    3    0  502 -0.12349167293E+04  0.24781413001E+03  0.80071003390E+03  0.14925043861E+04  0.12699999809E+01 0. -1.
</event>
<event>
 5   0  0.1828511E-06  0.2700683E+04  0.7818609E-02  0.8334783E-01
       -1   -1    0    0    0  501  0.00000000000E+00  0.00000000000E+00  0.10678907228E+04  0.10678907228E+04  0.50400001928E-02 0.  1.
        1   -1    0    0  501    0  0.00000000000E+00  0.00000000000E+00 -0.17074985095E+04  0.17074985095E+04  0.50400001928E-02 0. -1.
    10030    2    1    2    0    0  0.00000000000E+00  0.00000000000E+00 -0.63960778670E+03  0.27753892322E+04  0.27006827414E+04 0.  0.
        4    1    3    3  502    0 -0.10527246159E+03  0.94664759779E+03 -0.13034629213E+04  0.16143856930E+04  0.12699999809E+01 0. -1.
       -4    1    3    3    0  502  0.10527246159E+03 -0.94664759779E+03  0.66385513460E+03  0.11610035393E+04  0.12699999809E+01 0.  1.
</event>
<event>
 5   0  0.4487186E-06  0.2685916E+04  0.7818609E-02  0.8339589E-01
       -2   -1    0    0    0  501  0.00000000000E+00  0.00000000000E+00  0.10024715492E+04  0.10024715492E+04  0.25500000920E-02 0.  1.
        2   -1    0    0  501    0  0.00000000000E+00  0.00000000000E+00 -0.17990893679E+04  0.17990893679E+04  0.25500000920E-02 0. -1.
    10030    2    1    2    0    0  0.00000000000E+00  0.00000000000E+00 -0.79661781871E+03  0.28015609171E+04  0.26859157885E+04 0.  0.
        3    1    3    3  502    0 -0.67625625444E+03  0.74039162437E+03  0.53348157511E+03  0.11358278392E+04  0.10100000352E+00 0.  1.
       -3    1    3    3    0  502  0.67625625444E+03 -0.74039162437E+03 -0.13300993938E+04  0.16657330779E+04  0.10100000352E+00 0. -1.
</event>
<event>
 5   0  0.1828511E-06  0.2685050E+04  0.7818609E-02  0.8339872E-01
        1   -1    0    0  501    0  0.00000000000E+00  0.00000000000E+00  0.31774352919E+04  0.31774352919E+04  0.50400001928E-02 0.  1.
       -1   -1    0    0    0  501  0.00000000000E+00  0.00000000000E+00 -0.56724139541E+03  0.56724139543E+03  0.50400001928E-02 0. -1.
    10030    2    1    2    0    0  0.00000000000E+00  0.00000000000E+00  0.26101938965E+04  0.37446766874E+04  0.26850495927E+04 0.  0.
        4    1    3    3  502    0  0.10541915791E+04  0.49668294154E+02  0.14781120662E+03  0.10656625125E+04  0.12699999809E+01 0.  1.
       -4    1    3    3    0  502 -0.10541915791E+04 -0.49668294154E+02  0.24623826899E+04  0.26790141749E+04  0.12699999809E+01 0. -1.
</event>
<event>
 5   0  0.4655882E-06  0.2695801E+04  0.7818609E-02  0.8336369E-01
        2   -1    0    0  501    0  0.00000000000E+00  0.00000000000E+00  0.13037530831E+04  0.13037530831E+04  0.25500000920E-02 0. -1.
       -2   -1    0    0    0  501  0.00000000000E+00  0.00000000000E+00 -0.13935425513E+04  0.13935425513E+04  0.25500000920E-02 0.  1.
    10030    2    1    2    0    0  0.00000000000E+00  0.00000000000E+00 -0.89789468261E+02  0.26972956344E+04  0.26958007327E+04 0.  0.
        1    1    3    3  502    0  0.16762410743E+03 -0.50802676841E+03  0.11929842613E+04  0.13074404333E+04  0.50400001928E-02 0. -1.
       -1    1    3    3    0  502 -0.16762410743E+03  0.50802676841E+03 -0.12827737296E+04  0.13898552011E+04  0.50400001928E-02 0.  1.
</event>
<event>
 5   0  0.4448804E-06  0.2697664E+04  0.7818609E-02  0.8335763E-01
        2   -1    0    0  501    0  0.00000000000E+00  0.00000000000E+00  0.19797124461E+04  0.19797124461E+04  0.25500000920E-02 0.  1.
       -2   -1    0    0    0  501  0.00000000000E+00  0.00000000000E+00 -0.91899614662E+03  0.91899614662E+03  0.25500000920E-02 0. -1.
    10030    2    1    2    0    0  0.00000000000E+00  0.00000000000E+00  0.10607162995E+04  0.28987085927E+04  0.26976642559E+04 0.  0.
        2    1    3    3  502    0  0.83151342567E+03 -0.47636697439E+02 -0.60968450922E+03  0.10321816859E+04  0.25500000920E-02 0. -1.
       -2    1    3    3    0  502 -0.83151342567E+03  0.47636697439E+02  0.16704008087E+04  0.18665269068E+04  0.25500000920E-02 0.  1.
</event>
<event>
 5   0  0.1723605E-06  0.2693910E+04  0.7818609E-02  0.8336984E-01
       -1   -1    0    0    0  501  0.00000000000E+00  0.00000000000E+00  0.14981022060E+04  0.14981022060E+04  0.50400001928E-02 0.  1.
        1   -1    0    0  501    0  0.00000000000E+00  0.00000000000E+00 -0.12110577808E+04  0.12110577808E+04  0.50400001928E-02 0. -1.
    10030    2    1    2    0    0  0.00000000000E+00  0.00000000000E+00  0.28704442518E+03  0.27091599868E+04  0.26939104165E+04 0.  0.
        1    1    3    3  502    0  0.76238469275E+03  0.12955150626E+03 -0.96556901901E+03  0.12370681238E+04  0.50400001928E-02 0. -1.
       -1    1    3    3    0  502 -0.76238469275E+03 -0.12955150626E+03  0.12526134442E+04  0.14720918630E+04  0.50400001928E-02 0.  1.
</event>
<event>
 5   0  0.1771016E-06  0.2715969E+04  0.7818609E-02  0.8329842E-01
       -1   -1    0    0    0  501  0.00000000000E+00  0.00000000000E+00  0.18971168454E+04  0.18971168454E+04  0.50400001928E-02 0.  1.
        1   -1    0    0  501    0  0.00000000000E+00  0.00000000000E+00 -0.97206586148E+03  0.97206586150E+03  0.50400001928E-02 0. -1.
    10030    2    1    2    0    0  0.00000000000E+00  0.00000000000E+00  0.92505098392E+03  0.28691827069E+04  0.27159694554E+04 0.  0.
        2    1    3    3  502    0 -0.65727142200E+03  0.52262355221E+03  0.15899608302E+04  0.17980869114E+04  0.25500000920E-02 0.  1.
       -2    1    3    3    0  502  0.65727142200E+03 -0.52262355221E+03 -0.66490984624E+03  0.10710957955E+04  0.25500000920E-02 0. -1.
</event>
<event>
 5   0  0.4439357E-06  0.2710667E+04  0.7818609E-02  0.8331552E-01
        2   -1    0    0  501    0  0.00000000000E+00  0.00000000000E+00  0.18119277529E+04  0.18119277529E+04  0.25500000920E-02 0. -1.
       -2   -1    0    0    0  501  0.00000000000E+00  0.00000000000E+00 -0.10137984365E+04  0.10137984365E+04  0.25500000920E-02 0.  1.
    10030    2    1    2    0    0  0.00000000000E+00  0.00000000000E+00  0.79812931645E+03  0.28257261894E+04  0.27106674624E+04 0.  0.
        4    1    3    3  502    0 -0.11418048886E+04  0.72577684901E+03  0.48283399880E+03  0.14365238325E+04  0.12699999809E+01 0. -1.
       -4    1    3    3    0  502  0.11418048886E+04 -0.72577684901E+03  0.31529531766E+03  0.13892023569E+04  0.12699999809E+01 0.  1.
</event>
<event>
 5   0  0.4439357E-06  0.2707563E+04  0.7818609E-02  0.8332555E-01
        2   -1    0    0  501    0  0.00000000000E+00  0.00000000000E+00  0.83304482595E+03  0.83304482596E+03  0.25500000920E-02 0. -1.
       -2   -1    0    0    0  501  0.00000000000E+00  0.00000000000E+00 -0.22000302455E+04  0.22000302455E+04  0.25500000920E-02 0.  1.
    10030    2    1    2    0    0  0.00000000000E+00  0.00000000000E+00 -0.13669854196E+04  0.30330750715E+04  0.27075626035E+04 0.  0.
        4    1    3    3  502    0  0.22798872764E+02  0.11025942015E+03  0.82779011918E+03  0.83541308503E+03  0.12699999809E+01 0. -1.
       -4    1    3    3    0  502 -0.22798872764E+02 -0.11025942015E+03 -0.21947755387E+04  0.21976619864E+04  0.12699999809E+01 0.  1.
</event>
<event>
 5   0  0.1828511E-06  0.2697650E+04  0.7818609E-02  0.8335768E-01
        1   -1    0    0  501    0  0.00000000000E+00  0.00000000000E+00  0.14301211766E+04  0.14301211766E+04  0.50400001928E-02 0. -1.
       -1   -1    0    0    0  501  0.00000000000E+00  0.00000000000E+00 -0.12721499349E+04  0.12721499349E+04  0.50400001928E-02 0.  1.
    10030    2    1    2    0    0  0.00000000000E+00  0.00000000000E+00  0.15797124172E+03  0.27022711115E+04  0.26976497636E+04 0.  0.
        4    1    3    3  502    0 -0.17301111611E+02 -0.90440172006E+03 -0.92327083735E+03  0.12925449515E+04  0.12699999809E+01 0.  1.
       -4    1    3    3    0  502  0.17301111611E+02  0.90440172006E+03  0.10812420791E+04  0.14097261600E+04  0.12699999809E+01 0. -1.
</event>
<event>
 5   0  0.1771016E-06  0.2694871E+04  0.7818609E-02  0.8336671E-01
       -1   -1    0    0    0  501  0.00000000000E+00  0.00000000000E+00  0.13092773710E+04  0.13092773711E+04  0.50400001928E-02 0.  1.
        1   -1    0    0  501    0  0.00000000000E+00  0.00000000000E+00 -0.13867058598E+04  0.13867058598E+04  0.50400001928E-02 0. -1.
    10030    2    1    2    0    0  0.00000000000E+00  0.00000000000E+00 -0.77428488745E+02  0.26959832309E+04  0.26948711305E+04 0.  0.
        2    1    3    3  502    0  0.88662986848E+03 -0.90338734134E+03 -0.50081544933E+03  0.13612631364E+04  0.25500000920E-02 0. -1.
       -2    1    3    3    0  502 -0.88662986848E+03  0.90338734134E+03  0.42338696059E+03  0.13347200945E+04  0.25500000920E-02 0.  1.
</event>
<event>
 5   0  0.4401659E-06  0.2696912E+04  0.7818609E-02  0.8336007E-01
        2   -1    0    0  501    0  0.00000000000E+00  0.00000000000E+00  0.24045177714E+04  0.24045177714E+04  0.25500000920E-02 0.  1.
       -2   -1    0    0    0  501  0.00000000000E+00  0.00000000000E+00 -0.75621571306E+03  0.75621571306E+03  0.25500000920E-02 0. -1.
    10030    2    1    2    0    0  0.00000000000E+00  0.00000000000E+00  0.16483020583E+04  0.31607334845E+04  0.26969123983E+04 0.  0.
        5    1    3    3  502    0  0.53454139362E+03  0.56549090821E+03  0.21148209686E+04  0.22534427635E+04  0.46999998093E+01 0.  1.
       -5    1    3    3    0  502 -0.53454139362E+03 -0.56549090821E+03 -0.46651891030E+03  0.90729072101E+03  0.46999998093E+01 0. -1.
</event>
<event>
 5   0  0.1482875E-06  0.2688437E+04  0.7818609E-02  0.8338766E-01
       -4   -1    0    0    0  501  0.00000000000E+00  0.00000000000E+00  0.15574801457E+04  0.15574806635E+04  0.12699999809E+01 0.  1.
        4   -1    0    0  501    0  0.00000000000E+00  0.00000000000E+00 -0.11601574037E+04  0.11601580988E+04  0.12699999809E+01 0. -1.
    10030    2    1    2    0    0  0.00000000000E+00  0.00000000000E+00  0.39732274203E+03  0.27176387623E+04  0.26884372935E+04 0.  0.
        3    1    3    3  502    0  0.51414972050E+03  0.11866557827E+04  0.56927961759E+03  0.14130043082E+04  0.10100000352E+00 0. -1.
       -3    1    3    3    0  502 -0.51414972050E+03 -0.11866557827E+04 -0.17195687556E+03  0.13046344541E+04  0.10100000352E+00 0.  1.
</event>
<event>
 5   0  0.1732312E-06  0.2699550E+04  0.7818609E-02  0.8335151E-01
       -1   -1    0    0    0  501  0.00000000000E+00  0.00000000000E+00  0.10099535036E+04  0.10099535036E+04  0.50400001928E-02 0.  1.
        1   -1    0    0  501    0  0.00000000000E+00  0.00000000000E+00 -0.18039374283E+04  0.18039374283E+04  0.50400001928E-02 0. -1.
    10030    2    1    2    0    0  0.00000000000E+00  0.00000000000E+00 -0.79398392478E+03  0.28138909319E+04  0.26995502781E+04 0.  0.
        5    1    3    3  502    0 -0.13204844648E+04 -0.26487070384E+03 -0.30355641271E+03  0.13805811447E+04  0.46999998093E+01 0. -1.
       -5    1    3    3    0  502  0.13204844648E+04  0.26487070384E+03 -0.49042751207E+03  0.14333097872E+04  0.46999998093E+01 0.  1.
</event>
<event>
 5   0  0.4448804E-06  0.2699064E+04  0.7818609E-02  0.8335309E-01
        2   -1    0    0  501    0  0.00000000000E+00  0.00000000000E+00  0.13561761282E+04  0.13561761282E+04  0.25500000920E-02 0.  1.
       -2   -1    0    0    0  501  0.00000000000E+00  0.00000000000E+00 -0.13429205859E+04  0.13429205859E+04  0.25500000920E-02 0. -1.
    10030    2    1    2    0    0  0.00000000000E+00  0.00000000000E+00  0.13255542354E+02  0.26990967141E+04  0.26990641642E+04 0.  0.
        2    1    3    3  502    0  0.12088395865E+04  0.28784667858E+03 -0.51977005146E+03  0.13469631630E+04  0.25500000920E-02 0. -1.
       -2    1    3    3    0  502 -0.12088395865E+04 -0.28784667858E+03  0.53302559382E+03  0.13521335510E+04  0.25500000920E-02 0.  1.
</event>
<event>
 5   0  0.1723605E-06  0.2694564E+04  0.7818609E-02  0.8336771E-01
        1   -1    0    0  501    0  0.00000000000E+00  0.00000000000E+00  0.68988952162E+03  0.68988952164E+03  0.50400001928E-02 0.  1.
       -1   -1    0    0    0  501  0.00000000000E+00  0.00000000000E+00 -0.26311015356E+04  0.26311015356E+04  0.50400001928E-02 0. -1.
    10030    2    1    2    0    0  0.00000000000E+00  0.00000000000E+00 -0.19412120140E+04  0.33209910573E+04  0.26945644396E+04 0.  0.
        1    1    3    3  502    0  0.68961061052E+03  0.47689906994E+03 -0.22703729110E+04  0.24202455809E+04  0.50400001928E-02 0. -1.
       -1    1    3    3    0  502 -0.68961061052E+03 -0.47689906994E+03  0.32916089697E+03  0.90074547635E+03  0.50400001928E-02 0.  1.
</event>
<event>
 5   0  0.4487186E-06  0.2744002E+04  0.7818609E-02  0.8320867E-01
        2   -1    0    0  501    0  0.00000000000E+00  0.00000000000E+00  0.21669028325E+04  0.21669028325E+04  0.25500000920E-02 0. -1.
       -2   -1    0    0    0  501  0.00000000000E+00  0.00000000000E+00 -0.86869940145E+03  0.86869940145E+03  0.25500000920E-02 0.  1.
    10030    2    1    2    0    0  0.00000000000E+00  0.00000000000E+00  0.12982034311E+04  0.30356022340E+04  0.27440023277E+04 0.  0.
        3    1    3    3  502    0  0.46103952030E+03 -0.59667327480E+01 -0.78042361385E+03  0.90645136021E+03  0.10100000352E+00 0.  1.
       -3    1    3    3    0  502 -0.46103952030E+03  0.59667327480E+01  0.20786270449E+04  0.21291508738E+04  0.10100000352E+00 0. -1.
</event>
<event>
 5   0  0.1771016E-06  0.2714285E+04  0.7818609E-02  0.8330385E-01
       -1   -1    0    0    0  501  0.00000000000E+00  0.00000000000E+00  0.12878567387E+04  0.12878567387E+04  0.50400001928E-02 0. -1.
        1   -1    0    0  501    0  0.00000000000E+00  0.00000000000E+00 -0.14301555679E+04  0.14301555679E+04  0.50400001928E-02 0.  1.
    10030    2    1    2    0    0  0.00000000000E+00  0.00000000000E+00 -0.14229882915E+03  0.27180123066E+04  0.27142847938E+04 0.  0.
        2    1    3    3  502    0 -0.20621994830E+02  0.10645972859E+04 -0.91375779087E+03  0.14031200762E+04  0.25500000920E-02 0.  1.
       -2    1    3    3    0  502  0.20621994830E+02 -0.10645972859E+04  0.77145896171E+03  0.13148922304E+04  0.25500000920E-02 0. -1.
</event>
<event>
 5   0  0.4448804E-06  0.2699027E+04  0.7818609E-02  0.8335321E-01
       -2   -1    0    0    0  501  0.00000000000E+00  0.00000000000E+00  0.13623721495E+04  0.13623721495E+04  0.25500000920E-02 0. -1.
        2   -1    0    0  501    0  0.00000000000E+00  0.00000000000E+00 -0.13367762960E+04  0.13367762960E+04  0.25500000920E-02 0.  1.
    10030    2    1    2    0    0  0.00000000000E+00  0.00000000000E+00  0.25595853505E+02  0.26991484456E+04  0.26990270809E+04 0.  0.
        2    1    3    3  502    0 -0.19009958529E+03 -0.83932971901E+03 -0.10267557019E+04  0.13397162017E+04  0.25500000920E-02 0.  1.
       -2    1    3    3    0  502  0.19009958529E+03  0.83932971901E+03  0.10523515554E+04  0.13594322439E+04  0.25500000920E-02 0. -1.
</event>
<event>
 5   0  0.1753474E-06  0.2704244E+04  0.7818609E-02  0.8333629E-01
        1   -1    0    0  501    0  0.00000000000E+00  0.00000000000E+00  0.20554032319E+04  0.20554032319E+04  0.50400001928E-02 0.  1.
       -1   -1    0    0    0  501  0.00000000000E+00  0.00000000000E+00 -0.88947708247E+03  0.88947708248E+03  0.50400001928E-02 0. -1.
    10030    2    1    2    0    0  0.00000000000E+00  0.00000000000E+00  0.11659261495E+04  0.29448803144E+04  0.27042441236E+04 0.  0.
        3    1    3    3  502    0 -0.15291795062E+03  0.13377765939E+04  0.71723954034E+03  0.15256024001E+04  0.10100000352E+00 0.  1.
       -3    1    3    3    0  502  0.15291795062E+03 -0.13377765939E+04  0.44868660913E+03  0.14192779143E+04  0.10100000352E+00 0. -1.
</event>
<event>
 5   0  0.4448804E-06  0.2701646E+04  0.7818609E-02  0.8334471E-01
       -2   -1    0    0    0  501  0.00000000000E+00  0.00000000000E+00  0.85536821804E+03  0.85536821805E+03  0.25500000920E-02 0.  1.
        2   -1    0    0  501    0  0.00000000000E+00  0.00000000000E+00 -0.21332606109E+04  0.21332606109E+04  0.25500000920E-02 0. -1.
    10030    2    1    2    0    0  0.00000000000E+00  0.00000000000E+00 -0.12778923929E+04  0.29886288290E+04  0.27016464072E+04 0.  0.
        2    1    3    3  502    0 -0.60090429992E+03 -0.32969260715E+03 -0.19266130821E+04  0.20449012595E+04  0.25500000920E-02 0. -1.
       -2    1    3    3    0  502  0.60090429992E+03  0.32969260715E+03  0.64872068920E+03  0.94372756952E+03  0.25500000920E-02 0.  1.
</event>
<event>
 5   0  0.1732312E-06  0.2693028E+04  0.7818609E-02  0.8337271E-01
       -1   -1    0    0    0  501  0.00000000000E+00  0.00000000000E+00  0.94251560053E+03  0.94251560054E+03  0.50400001928E-02 0.  1.
        1   -1    0    0  501    0  0.00000000000E+00  0.00000000000E+00 -0.19236813586E+04  0.19236813586E+04  0.50400001928E-02 0. -1.
    10030    2    1    2    0    0  0.00000000000E+00  0.00000000000E+00 -0.98116575804E+03  0.28661969591E+04  0.26930278060E+04 0.  0.
        5    1    3    3  502    0 -0.12699284100E+04 -0.30758676522E+03 -0.14448016552E+03  0.13146194859E+04  0.46999998093E+01 0.  1.
       -5    1    3    3    0  502  0.12699284100E+04  0.30758676522E+03 -0.83668559251E+03  0.15515774732E+04  0.46999998093E+01 0. -1.
</event>
<event>
 5   0  0.1828511E-06  0.2727711E+04  0.7818609E-02  0.8326069E-01
        1   -1    0    0  501    0  0.00000000000E+00  0.00000000000E+00  0.14721657775E+04  0.14721657775E+04  0.50400001928E-02 0. -1.
       -1   -1    0    0    0  501  0.00000000000E+00  0.00000000000E+00 -0.12635139185E+04  0.12635139185E+04  0.50400001928E-02 0.  1.
    10030    2    1    2    0    0  0.00000000000E+00  0.00000000000E+00  0.20865185900E+03  0.27356796960E+04  0.27277110919E+04 0.  0.
        4    1    3    3  502    0  0.94854903899E+03  0.74000987581E+03 -0.53999967470E+03  0.13186967647E+04  0.12699999809E+01 0.  1.
       -4    1    3    3    0  502 -0.94854903899E+03 -0.74000987581E+03  0.74865153370E+03  0.14169829313E+04  0.12699999809E+01 0. -1.
</event>
<event>
 5   0  0.4487186E-06  0.2622472E+04  0.7818609E-02  0.8360608E-01
       -2   -1    0    0    0  501  0.00000000000E+00  0.00000000000E+00  0.10419090214E+04  0.10419090214E+04  0.25500000920E-02 0.  1.
        2   -1    0    0  501    0  0.00000000000E+00  0.00000000000E+00 -0.16501826978E+04  0.16501826978E+04  0.25500000920E-02 0. -1.
    10030    2    1    2    0    0  0.00000000000E+00  0.00000000000E+00 -0.60827367642E+03  0.26920917191E+04  0.26224722990E+04 0.  0.
        3    1    3    3  502    0  0.11870533058E+04  0.23726128018E+03  0.21317755193E+03  0.12291595278E+04  0.10100000352E+00 0. -1.
       -3    1    3    3    0  502 -0.11870533058E+04 -0.23726128018E+03 -0.82145122835E+03  0.14629321914E+04  0.10100000352E+00 0.  1.
</event>
<event>
 5   0  0.1753474E-06  0.2703571E+04  0.7818609E-02  0.8333847E-01
        1   -1    0    0  501    0  0.00000000000E+00  0.00000000000E+00  0.17008710266E+04  0.17008710266E+04  0.50400001928E-02 0.  1.
       -1   -1    0    0    0  501  0.00000000000E+00  0.00000000000E+00 -0.10743460313E+04  0.10743460313E+04  0.50400001928E-02 0. -1.
    10030    2    1    2    0    0  0.00000000000E+00  0.00000000000E+00  0.62652499532E+03  0.27752170579E+04  0.27035709993E+04 0.  0.
        3    1    3    3  502    0  0.13329473299E+03  0.66702902803E+03 -0.88586799294E+03  0.11168962894E+04  0.10100000352E+00 0. -1.
       -3    1    3    3    0  502 -0.13329473299E+03 -0.66702902803E+03  0.15123929883E+04  0.16583207685E+04  0.10100000352E+00 0.  1.
</event>
<event>
 5   0  0.1771016E-06  0.2710853E+04  0.7818609E-02  0.8331492E-01
        1   -1    0    0  501    0  0.00000000000E+00  0.00000000000E+00  0.21910740682E+04  0.21910740682E+04  0.50400001928E-02 0.  1.
       -1   -1    0    0    0  501  0.00000000000E+00  0.00000000000E+00 -0.83848398125E+03  0.83848398126E+03  0.50400001928E-02 0. -1.
    10030    2    1    2    0    0  0.00000000000E+00  0.00000000000E+00  0.13525900870E+04  0.30295580495E+04  0.27108526393E+04 0.  0.
        2    1    3    3  502    0 -0.12153885208E+03 -0.49660952034E+03  0.20791805715E+04  0.21411175954E+04  0.25500000920E-02 0.  1.
       -2    1    3    3    0  502  0.12153885208E+03  0.49660952034E+03 -0.72659048455E+03  0.88844045411E+03  0.25500000920E-02 0. -1.
</event>
<event>
 5   0  0.1771016E-06  0.2706949E+04  0.7818609E-02  0.8332754E-01
        1   -1    0    0  501    0  0.00000000000E+00  0.00000000000E+00  0.14889752892E+04  0.14889752893E+04  0.50400001928E-02 0. -1.
       -1   -1    0    0    0  501  0.00000000000E+00  0.00000000000E+00 -0.12303050647E+04  0.12303050648E+04  0.50400001928E-02 0.  1.
    10030    2    1    2    0    0  0.00000000000E+00  0.00000000000E+00  0.25867022451E+03  0.27192803540E+04  0.27069494562E+04 0.  0.
        2    1    3    3  502    0 -0.20917891763E+03 -0.11182470459E+04 -0.60725915404E+03  0.12895720048E+04  0.25500000920E-02 0. -1.
       -2    1    3    3    0  502  0.20917891763E+03  0.11182470459E+04  0.86592937855E+03  0.14297083492E+04  0.25500000920E-02 0.  1.
</event>
<event>
 5   0  0.4439357E-06  0.2695254E+04  0.7818609E-02  0.8336546E-01
       -2   -1    0    0    0  501  0.00000000000E+00  0.00000000000E+00  0.11307466072E+04  0.11307466072E+04  0.25500000920E-02 0. -1.
        2   -1    0    0  501    0  0.00000000000E+00  0.00000000000E+00 -0.16061058605E+04  0.16061058605E+04  0.25500000920E-02 0.  1.
    10030    2    1    2    0    0  0.00000000000E+00  0.00000000000E+00 -0.47535925332E+03  0.27368524676E+04  0.26952541643E+04 0.  0.
        4    1    3    3  502    0  0.50216877250E+03 -0.64300405559E+03  0.85147416146E+03  0.11792529636E+04  0.12699999809E+01 0. -1.
       -4    1    3    3    0  502 -0.50216877250E+03  0.64300405559E+03 -0.13268334148E+04  0.15575995041E+04  0.12699999809E+01 0.  1.
</event>
<event>
 5   0  0.1723605E-06  0.2628665E+04  0.7818609E-02  0.8358529E-01
       -1   -1    0    0    0  501  0.00000000000E+00  0.00000000000E+00  0.10895577202E+04  0.10895577202E+04  0.50400001928E-02 0. -1.
        1   -1    0    0  501    0  0.00000000000E+00  0.00000000000E+00 -0.15854776864E+04  0.15854776865E+04  0.50400001928E-02 0.  1.
    10030    2    1    2    0    0  0.00000000000E+00  0.00000000000E+00 -0.49591996624E+03  0.26750354067E+04  0.26286646446E+04 0.  0.
        1    1    3    3  502    0 -0.12011582402E+04 -0.44067986650E+03  0.58161397287E+02  0.12807664154E+04  0.50400001928E-02 0. -1.
       -1    1    3    3    0  502  0.12011582402E+04  0.44067986650E+03 -0.55408136353E+03  0.13942689913E+04  0.50400001928E-02 0.  1.
</event>
<event>
 5   0  0.1723605E-06  0.2702745E+04  0.7818609E-02  0.8334115E-01
       -1   -1    0    0    0  501  0.00000000000E+00  0.00000000000E+00  0.87493834885E+03  0.87493834886E+03  0.50400001928E-02 0. -1.
        1   -1    0    0  501    0  0.00000000000E+00  0.00000000000E+00 -0.20872420422E+04  0.20872420422E+04  0.50400001928E-02 0.  1.
    10030    2    1    2    0    0  0.00000000000E+00  0.00000000000E+00 -0.12123036933E+04  0.29621803910E+04  0.27027453495E+04 0.  0.
        1    1    3    3  502    0  0.65870846972E+03  0.38043320867E+03 -0.18303194857E+04  0.19820937652E+04  0.50400001928E-02 0.  1.
       -1    1    3    3    0  502 -0.65870846972E+03 -0.38043320867E+03  0.61801579242E+03  0.98008662579E+03  0.50400001928E-02 0. -1.
</event>
<event>
 5   0  0.4401659E-06  0.2704001E+04  0.7818609E-02  0.8333708E-01
       -2   -1    0    0    0  501  0.00000000000E+00  0.00000000000E+00  0.13569972937E+04  0.13569972937E+04  0.25500000920E-02 0. -1.
        2   -1    0    0  501    0  0.00000000000E+00  0.00000000000E+00 -0.13470225937E+04  0.13470225937E+04  0.25500000920E-02 0.  1.
    10030    2    1    2    0    0  0.00000000000E+00  0.00000000000E+00  0.99746999856E+01  0.27040198875E+04  0.27040014899E+04 0.  0.
        5    1    3    3  502    0  0.35301998450E+03  0.11673382010E+04 -0.57861094842E+03  0.13498571423E+04  0.46999998093E+01 0.  1.
       -5    1    3    3    0  502 -0.35301998450E+03 -0.11673382010E+04  0.58858564840E+03  0.13541627452E+04  0.46999998093E+01 0. -1.
</event>
<event>
 5   0  0.4655882E-06  0.2698740E+04  0.7818609E-02  0.8335414E-01
        2   -1    0    0  501    0  0.00000000000E+00  0.00000000000E+00  0.20380888711E+04  0.20380888711E+04  0.25500000920E-02 0.  1.
       -2   -1    0    0    0  501  0.00000000000E+00  0.00000000000E+00 -0.89338579064E+03  0.89338579064E+03  0.25500000920E-02 0. -1.
    10030    2    1    2    0    0  0.00000000000E+00  0.00000000000E+00  0.11447030805E+04  0.29314746618E+04  0.26987401783E+04 0.  0.
        1    1    3    3  502    0  0.57402746252E+03  0.10115716143E+04  0.13154646900E+04  0.17559134401E+04  0.50400001928E-02 0.  1.
       -1    1    3    3    0  502 -0.57402746252E+03 -0.10115716143E+04 -0.17076160945E+03  0.11755612217E+04  0.50400001928E-02 0. -1.
</event>
<event>
 5   0  0.4655882E-06  0.2697280E+04  0.7818609E-02  0.8335888E-01
       -2   -1    0    0    0  501  0.00000000000E+00  0.00000000000E+00  0.10715083262E+04  0.10715083262E+04  0.25500000920E-02 0.  1.
        2   -1    0    0  501    0  0.00000000000E+00  0.00000000000E+00 -0.16974487267E+04  0.16974487267E+04  0.25500000920E-02 0. -1.
    10030    2    1    2    0    0  0.00000000000E+00  0.00000000000E+00 -0.62594040053E+03  0.27689570529E+04  0.26972804407E+04 0.  0.
        1    1    3    3  502    0  0.55196160095E+03 -0.10728687886E+04  0.30563851920E+03  0.12446380803E+04  0.50400001928E-02 0.  1.
       -1    1    3    3    0  502 -0.55196160095E+03  0.10728687886E+04 -0.93157891973E+03  0.15243189726E+04  0.50400001928E-02 0. -1.
</event>
<event>
 5   0  0.1753474E-06  0.2717608E+04  0.7818609E-02  0.8329314E-01
        1   -1    0    0  501    0  0.00000000000E+00  0.00000000000E+00  0.28446030936E+04  0.28446030936E+04  0.50400001928E-02 0. -1.
       -1   -1    0    0    0  501  0.00000000000E+00  0.00000000000E+00 -0.64907051640E+03  0.64907051642E+03  0.50400001928E-02 0.  1.
    10030    2    1    2    0    0  0.00000000000E+00  0.00000000000E+00  0.21955325772E+04  0.34936736100E+04  0.27176077708E+04 0.  0.
        3    1    3    3  502    0 -0.10120516107E+04  0.90235715581E+03  0.12116759383E+04  0.18184211528E+04  0.10100000352E+00 0.  1.
       -3    1    3    3    0  502  0.10120516107E+04 -0.90235715581E+03  0.98385663880E+03  0.16752524572E+04  0.10100000352E+00 0. -1.
</event>
<event>
 5   0  0.4401659E-06  0.2698802E+04  0.7818609E-02  0.8335394E-01
        2   -1    0    0  501    0  0.00000000000E+00  0.00000000000E+00  0.17891493284E+04  0.17891493284E+04  0.25500000920E-02 0. -1.
       -2   -1    0    0    0  501  0.00000000000E+00  0.00000000000E+00 -0.10177366845E+04  0.10177366845E+04  0.25500000920E-02 0.  1.
    10030    2    1    2    0    0  0.00000000000E+00  0.00000000000E+00  0.77141264390E+03  0.28068860129E+04  0.26988018864E+04 0.  0.
        5    1    3    3  502    0  0.10862584015E+04  0.67483841766E+03  0.83364829726E+03  0.15265502869E+04  0.46999998093E+01 0. -1.
       -5    1    3    3    0  502 -0.10862584015E+04 -0.67483841766E+03 -0.62235653364E+02  0.12803357260E+04  0.46999998093E+01 0.  1.
</event>
<event>
 5   0  0.4448804E-06  0.2695484E+04  0.7818609E-02  0.8336472E-01
        2   -1    0    0  501    0  0.00000000000E+00  0.00000000000E+00  0.23037739123E+04  0.23037739123E+04  0.25500000920E-02 0. -1.
       -2   -1    0    0    0  501  0.00000000000E+00  0.00000000000E+00 -0.78844882201E+03  0.78844882201E+03  0.25500000920E-02 0.  1.
    10030    2    1    2    0    0  0.00000000000E+00  0.00000000000E+00  0.15153250903E+04  0.30922227343E+04  0.26954835020E+04 0.  0.
        2    1    3    3  502    0  0.11923111952E+04 -0.61558515815E+03  0.61320466477E+03  0.14753206546E+04  0.25500000920E-02 0. -1.
       -2    1    3    3    0  502 -0.11923111952E+04  0.61558515815E+03  0.90212042553E+03  0.16169020797E+04  0.25500000920E-02 0.  1.
</event>
<event>
 5   0  0.1732312E-06  0.2695583E+04  0.7818609E-02  0.8336440E-01
        1   -1    0    0  501    0  0.00000000000E+00  0.00000000000E+00  0.10298515815E+04  0.10298515815E+04  0.50400001928E-02 0. -1.
       -1   -1    0    0    0  501  0.00000000000E+00  0.00000000000E+00 -0.17638867350E+04  0.17638867350E+04  0.50400001928E-02 0.  1.
    10030    2    1    2    0    0  0.00000000000E+00  0.00000000000E+00 -0.73403515354E+03  0.27937383165E+04  0.26955827152E+04 0.  0.
        5    1    3    3  502    0  0.69797356124E+03 -0.63221973508E+03 -0.13663107738E+04  0.16594264390E+04  0.46999998093E+01 0.  1.
       -5    1    3    3    0  502 -0.69797356124E+03  0.63221973508E+03  0.63227562029E+03  0.11343118776E+04  0.46999998093E+01 0. -1.
</event>
<event>
 5   0  0.4655882E-06  0.2707950E+04  0.7818609E-02  0.8332430E-01
        2   -1    0    0  501    0  0.00000000000E+00  0.00000000000E+00  0.98690604631E+03  0.98690604631E+03  0.25500000920E-02 0. -1.
       -2   -1    0    0    0  501  0.00000000000E+00  0.00000000000E+00 -0.18575713914E+04  0.18575713914E+04  0.25500000920E-02 0.  1.
    10030    2    1    2    0    0  0.00000000000E+00  0.00000000000E+00 -0.87066534505E+03  0.28444774377E+04  0.27079501012E+04 0.  0.
        1    1    3    3  502    0  0.93921962575E+03 -0.24355519338E+03  0.55662821202E+03  0.11186096746E+04  0.50400001928E-02 0. -1.
       -1    1    3    3    0  502 -0.93921962575E+03  0.24355519338E+03 -0.14272935571E+04  0.17258677631E+04  0.50400001928E-02 0.  1.
</event>
<event>
 5   0  0.4439357E-06  0.2718766E+04  0.7818609E-02  0.8328942E-01
        2   -1    0    0  501    0  0.00000000000E+00  0.00000000000E+00  0.18002083273E+04  0.18002083273E+04  0.25500000920E-02 0.  1.
       -2   -1    0    0    0  501  0.00000000000E+00  0.00000000000E+00 -0.10265043087E+04  0.10265043087E+04  0.25500000920E-02 0. -1.
    10030    2    1    2    0    0  0.00000000000E+00  0.00000000000E+00  0.77370401864E+03  0.28267126361E+04  0.27187656056E+04 0.  0.
        4    1    3    3  502    0 -0.12905947156E+04 -0.19168487946E+03 -0.97951324441E+01  0.13047893970E+04  0.12699999809E+01 0. -1.
       -4    1    3    3    0  502  0.12905947156E+04  0.19168487946E+03  0.78349915109E+03  0.15219232391E+04  0.12699999809E+01 0.  1.
</event>
<event>
 5   0  0.4655882E-06  0.2721742E+04  0.7818609E-02  0.8327985E-01
        2   -1    0    0  501    0  0.00000000000E+00  0.00000000000E+00  0.10264742601E+04  0.10264742601E+04  0.25500000920E-02 0.  1.
       -2   -1    0    0    0  501  0.00000000000E+00  0.00000000000E+00 -0.18042051998E+04  0.18042051998E+04  0.25500000920E-02 0. -1.
    10030    2    1    2    0    0  0.00000000000E+00  0.00000000000E+00 -0.77773093974E+03  0.28306794599E+04  0.27217422343E+04 0.  0.
        1    1    3    3  502    0  0.96528738892E+03 -0.32192054576E+03 -0.13286690998E+04  0.16735513610E+04  0.50400001928E-02 0. -1.
       -1    1    3    3    0  502 -0.96528738892E+03  0.32192054576E+03  0.55093816010E+03  0.11571280989E+04  0.50400001928E-02 0.  1.
</event>
<event>
 5   0  0.4448804E-06  0.2695169E+04  0.7818609E-02  0.8336574E-01
       -2   -1    0    0    0  501  0.00000000000E+00  0.00000000000E+00  0.85272658474E+03  0.85272658475E+03  0.25500000920E-02 0. -1.
        2   -1    0    0  501    0  0.00000000000E+00  0.00000000000E+00 -0.21296197904E+04  0.21296197904E+04  0.25500000920E-02 0.  1.
    10030    2    1    2    0    0  0.00000000000E+00  0.00000000000E+00 -0.12768932057E+04  0.29823463752E+04  0.26951685741E+04 0.  0.
        2    1    3    3  502    0 -0.32627920766E+03  0.21972316293E+03  0.78778237232E+03  0.88053248425E+03  0.25500000920E-02 0. -1.
       -2    1    3    3    0  502  0.32627920766E+03 -0.21972316293E+03 -0.20646755780E+04  0.21018138909E+04  0.25500000920E-02 0.  1.
</event>
<event>
 5   0  0.1771016E-06  0.2681916E+04  0.7818609E-02  0.8340897E-01
       -1   -1    0    0    0  501  0.00000000000E+00  0.00000000000E+00  0.10626082681E+04  0.10626082681E+04  0.50400001928E-02 0.  1.
        1   -1    0    0  501    0  0.00000000000E+00  0.00000000000E+00 -0.16922211198E+04  0.16922211198E+04  0.50400001928E-02 0. -1.
    10030    2    1    2    0    0  0.00000000000E+00  0.00000000000E+00 -0.62961285169E+03  0.27548293880E+04  0.26819158476E+04 0.  0.
        2    1    3    3  502    0 -0.26490587672E+03 -0.19257632874E+03 -0.16505081037E+04  0.16826876616E+04  0.25500000920E-02 0. -1.
       -2    1    3    3    0  502  0.26490587672E+03  0.19257632874E+03  0.10208952520E+04  0.10721417264E+04  0.25500000920E-02 0.  1.
</event>
<event>
 5   0  0.1771016E-06  0.2696886E+04  0.7818609E-02  0.8336016E-01
       -1   -1    0    0    0  501  0.00000000000E+00  0.00000000000E+00  0.71721529021E+03  0.71721529023E+03  0.50400001928E-02 0.  1.
        1   -1    0    0  501    0  0.00000000000E+00  0.00000000000E+00 -0.25352204881E+04  0.25352204881E+04  0.50400001928E-02 0. -1.
    10030    2    1    2    0    0  0.00000000000E+00  0.00000000000E+00 -0.18180051979E+04  0.32524357783E+04  0.26968862773E+04 0.  0.
        2    1    3    3  502    0  0.88871561932E+03 -0.97068709226E+03 -0.55482125120E+03  0.14282421027E+04  0.25500000920E-02 0.  1.
       -2    1    3    3    0  502 -0.88871561932E+03  0.97068709226E+03 -0.12631839467E+04  0.18241936756E+04  0.25500000920E-02 0. -1.
</event>
<event>
 5   0  0.4655882E-06  0.2731037E+04  0.7818609E-02  0.8325004E-01
       -2   -1    0    0    0  501  0.00000000000E+00  0.00000000000E+00  0.97976999798E+03  0.97976999798E+03  0.25500000920E-02 0.  1.
        2   -1    0    0  501    0  0.00000000000E+00  0.00000000000E+00 -0.19031419982E+04  0.19031419982E+04  0.25500000920E-02 0. -1.
    10030    2    1    2    0    0  0.00000000000E+00  0.00000000000E+00 -0.92337200020E+03  0.28829119962E+04  0.27310374818E+04 0.  0.
        1    1    3    3  502    0  0.97802214470E+03 -0.93167700674E+03 -0.25032104992E+03  0.13737576163E+04  0.50400001928E-02 0.  1.
       -1    1    3    3    0  502 -0.97802214470E+03  0.93167700674E+03 -0.67305095028E+03  0.15091543798E+04  0.50400001928E-02 0. -1.
</event>
<event>
 5   0  0.1753474E-06  0.2799685E+04  0.7818609E-02  0.8303366E-01
       -1   -1    0    0    0  501  0.00000000000E+00  0.00000000000E+00  0.13302630732E+04  0.13302630732E+04  0.50400001928E-02 0.  1.
        1   -1    0    0  501    0  0.00000000000E+00  0.00000000000E+00 -0.14730613138E+04  0.14730613138E+04  0.50400001928E-02 0. -1.
    10030    2    1    2    0    0  0.00000000000E+00  0.00000000000E+00 -0.14279824061E+03  0.28033243871E+04  0.27996850326E+04 0.  0.
        3    1    3    3  502    0  0.13584755086E+04  0.42576444385E+02 -0.40693261403E+03  0.14187538982E+04  0.10100000352E+00 0. -1.
       -3    1    3    3    0  502 -0.13584755086E+04 -0.42576444385E+02  0.26413437342E+03  0.13845704888E+04  0.10100000352E+00 0.  1.
</event>
<event>
 5   0  0.1732312E-06  0.2686337E+04  0.7818609E-02  0.8339452E-01
       -1   -1    0    0    0  501  0.00000000000E+00  0.00000000000E+00  0.13428427313E+04  0.13428427313E+04  0.50400001928E-02 0. -1.
        1   -1    0    0  501    0  0.00000000000E+00  0.00000000000E+00 -0.13434941159E+04  0.13434941159E+04  0.50400001928E-02 0.  1.
    10030    2    1    2    0    0  0.00000000000E+00  0.00000000000E+00 -0.65138459459E+00  0.26863368472E+04  0.26863367682E+04 0.  0.
        5    1    3    3  502    0  0.16611589069E+03  0.13133214238E+04  0.22698812123E+03  0.13431133044E+04  0.46999998093E+01 0. -1.
       -5    1    3    3    0  502 -0.16611589069E+03 -0.13133214238E+04 -0.22763950582E+03  0.13432235428E+04  0.46999998093E+01 0.  1.
</event>
<event>
 5   0  0.4487186E-06  0.2698660E+04  0.7818609E-02  0.8335440E-01
       -2   -1    0    0    0  501  0.00000000000E+00  0.00000000000E+00  0.67774362938E+03  0.67774362939E+03  0.25500000920E-02 0. -1.
        2   -1    0    0  501    0  0.00000000000E+00  0.00000000000E+00 -0.26864023111E+04  0.26864023111E+04  0.25500000920E-02 0.  1.
    10030    2    1    2    0    0  0.00000000000E+00  0.00000000000E+00 -0.20086586818E+04  0.33641459405E+04  0.26986604472E+04 0.  0.
        3    1    3    3  502    0 -0.19599174069E+03 -0.61641307388E+03 -0.24805431040E+04  0.25634882370E+04  0.10100000352E+00 0.  1.
       -3    1    3    3    0  502  0.19599174069E+03  0.61641307388E+03  0.47188442226E+03  0.80065770354E+03  0.10100000352E+00 0. -1.
</event>
<event>
 5   0  0.1828511E-06  0.2710282E+04  0.7818609E-02  0.8331677E-01
        1   -1    0    0  501    0  0.00000000000E+00  0.00000000000E+00  0.10010661620E+04  0.10010661620E+04  0.50400001928E-02 0. -1.
       -1   -1    0    0    0  501  0.00000000000E+00  0.00000000000E+00 -0.18344506986E+04  0.18344506986E+04  0.50400001928E-02 0.  1.
    10030    2    1    2    0    0  0.00000000000E+00  0.00000000000E+00 -0.83338453660E+03  0.28355168605E+04  0.27102815501E+04 0.  0.
        4    1    3    3  502    0  0.24112645006E+03  0.46222171075E+03  0.89195148311E+03  0.10331359717E+04  0.12699999809E+01 0. -1.
       -4    1    3    3    0  502 -0.24112645006E+03 -0.46222171075E+03 -0.17253360197E+04  0.18023808889E+04  0.12699999809E+01 0.  1.
</event>
<event>
 5   0  0.4448804E-06  0.2703725E+04  0.7818609E-02  0.8333797E-01
       -2   -1    0    0    0  501  0.00000000000E+00  0.00000000000E+00  0.93904771715E+03  0.93904771715E+03  0.25500000920E-02 0. -1.
        2   -1    0    0  501    0  0.00000000000E+00  0.00000000000E+00 -0.19461543664E+04  0.19461543664E+04  0.25500000920E-02 0.  1.
    10030    2    1    2    0    0  0.00000000000E+00  0.00000000000E+00 -0.10071066492E+04  0.28852020835E+04  0.27037247012E+04 0.  0.
        2    1    3    3  502    0 -0.64244996672E+03  0.53561030220E+03  0.62976333502E+03  0.10470063102E+04  0.25500000920E-02 0. -1.
       -2    1    3    3    0  502  0.64244996672E+03 -0.53561030220E+03 -0.16368699843E+04  0.18381957733E+04  0.25500000920E-02 0.  1.
</event>
<event>
 5   0  0.1723605E-06  0.2680361E+04  0.7818609E-02  0.8341405E-01
       -1   -1    0    0    0  501  0.00000000000E+00  0.00000000000E+00  0.73852262876E+03  0.73852262878E+03  0.50400001928E-02 0. -1.
        1   -1    0    0  501    0  0.00000000000E+00  0.00000000000E+00 -0.24319964700E+04  0.24319964700E+04  0.50400001928E-02 0.  1.
    10030    2    1    2    0    0  0.00000000000E+00  0.00000000000E+00 -0.16934738413E+04  0.31705190988E+04  0.26803614877E+04 0.  0.
        1    1    3    3  502    0 -0.11013203217E+04 -0.59440219711E+03 -0.27962015381E+03  0.12823446703E+04  0.50400001928E-02 0.  1.
       -1    1    3    3    0  502  0.11013203217E+04  0.59440219711E+03 -0.14138536875E+04  0.18881744285E+04  0.50400001928E-02 0. -1.
</event>
<event>
 5   0  0.1723605E-06  0.2692288E+04  0.7818609E-02  0.8337512E-01
        1   -1    0    0  501    0  0.00000000000E+00  0.00000000000E+00  0.11920911060E+04  0.11920911060E+04  0.50400001928E-02 0. -1.
       -1   -1    0    0    0  501  0.00000000000E+00  0.00000000000E+00 -0.15201044543E+04  0.15201044543E+04  0.50400001928E-02 0.  1.
    10030    2    1    2    0    0  0.00000000000E+00  0.00000000000E+00 -0.32801334833E+03  0.27121955603E+04  0.26922875034E+04 0.  0.
        1    1    3    3  502    0 -0.40898970624E+03  0.64705397358E+03 -0.12795119937E+04  0.14910071651E+04  0.50400001928E-02 0.  1.
       -1    1    3    3    0  502  0.40898970624E+03 -0.64705397358E+03  0.95149864533E+03  0.12211883952E+04  0.50400001928E-02 0. -1.
</event>
<event>
 5   0  0.4401659E-06  0.2672136E+04  0.7818609E-02  0.8344103E-01
       -2   -1    0    0    0  501  0.00000000000E+00  0.00000000000E+00  0.10000694228E+04  0.10000694228E+04  0.25500000920E-02 0. -1.
        2   -1    0    0  501    0  0.00000000000E+00  0.00000000000E+00 -0.17849543946E+04  0.17849543946E+04  0.25500000920E-02 0.  1.
    10030    2    1    2    0    0  0.00000000000E+00  0.00000000000E+00 -0.78488497179E+03  0.27850238173E+04  0.26721364569E+04 0.  0.
        5    1    3    3  502    0 -0.79283975183E+03  0.44393143110E+03 -0.14133044489E+04  0.16802147312E+04  0.46999998093E+01 0.  1.
       -5    1    3    3    0  502  0.79283975183E+03 -0.44393143110E+03  0.62841947712E+03  0.11048090861E+04  0.46999998093E+01 0. -1.
</event>
<event>
 5   0  0.1753474E-06  0.2720142E+04  0.7818609E-02  0.8328499E-01
       -1   -1    0    0    0  501  0.00000000000E+00  0.00000000000E+00  0.15989289070E+04  0.15989289070E+04  0.50400001928E-02 0. -1.
        1   -1    0    0  501    0  0.00000000000E+00  0.00000000000E+00 -0.11568947613E+04  0.11568947613E+04  0.50400001928E-02 0.  1.
    10030    2    1    2    0    0  0.00000000000E+00  0.00000000000E+00  0.44203414571E+03  0.27558236684E+04  0.27201415230E+04 0.  0.
        3    1    3    3  502    0  0.29619395075E+03 -0.38209912429E+03  0.15089371617E+04  0.15844942301E+04  0.10100000352E+00 0. -1.
       -3    1    3    3    0  502 -0.29619395075E+03  0.38209912429E+03 -0.10669030160E+04  0.11713294382E+04  0.10100000352E+00 0.  1.
</event>
<event>
 5   0  0.1732312E-06  0.2698512E+04  0.7818609E-02  0.8335488E-01
       -1   -1    0    0    0  501  0.00000000000E+00  0.00000000000E+00  0.10012905066E+04  0.10012905066E+04  0.50400001928E-02 0.  1.
        1   -1    0    0  501    0  0.00000000000E+00  0.00000000000E+00 -0.18181451177E+04  0.18181451177E+04  0.50400001928E-02 0. -1.
    10030    2    1    2    0    0  0.00000000000E+00  0.00000000000E+00 -0.81685461111E+03  0.28194356243E+04  0.26985117720E+04 0.  0.
        5    1    3    3  502    0  0.13457130625E+04 -0.27038339857E+02 -0.31044518383E+03  0.13813301635E+04  0.46999998093E+01 0. -1.
       -5    1    3    3    0  502 -0.13457130625E+04  0.27038339857E+02 -0.50640942728E+03  0.14381054608E+04  0.46999998093E+01 0.  1.
</event>
<event>
 5   0  0.4448804E-06  0.2702713E+04  0.7818609E-02  0.8334125E-01
       -2   -1    0    0    0  501  0.00000000000E+00  0.00000000000E+00  0.88192176778E+03  0.88192176778E+03  0.25500000920E-02 0. -1.
        2   -1    0    0  501    0  0.00000000000E+00  0.00000000000E+00 -0.20706649536E+04  0.20706649536E+04  0.25500000920E-02 0.  1.
    10030    2    1    2    0    0  0.00000000000E+00  0.00000000000E+00 -0.11887431858E+04  0.29525867214E+04  0.27027130786E+04 0.  0.
        2    1    3    3  502    0  0.55383535564E+03 -0.95077290295E+03  0.26267269372E+03  0.11312381085E+04  0.25500000920E-02 0. -1.
       -2    1    3    3    0  502 -0.55383535564E+03  0.95077290295E+03 -0.14514158795E+04  0.18213486128E+04  0.25500000920E-02 0.  1.
</event>
<event>
 5   0  0.4439357E-06  0.2711788E+04  0.7818609E-02  0.8331190E-01
        2   -1    0    0  501    0  0.00000000000E+00  0.00000000000E+00  0.17358602946E+04  0.17358602946E+04  0.25500000920E-02 0.  1.
       -2   -1    0    0    0  501  0.00000000000E+00  0.00000000000E+00 -0.10590994404E+04  0.10590994404E+04  0.25500000920E-02 0. -1.
    10030    2    1    2    0    0  0.00000000000E+00  0.00000000000E+00  0.67676085425E+03  0.27949597350E+04  0.27117880939E+04 0.  0.
        4    1    3    3  502    0  0.51004392397E+03 -0.12258300012E+04  0.54912229001E+02  0.13288419628E+04  0.12699999809E+01 0. -1.
       -4    1    3    3    0  502 -0.51004392397E+03  0.12258300012E+04  0.62184862524E+03  0.14661177722E+04  0.12699999809E+01 0.  1.
</event>
<event>
 5   0  0.1753474E-06  0.2694067E+04  0.7818609E-02  0.8336932E-01
        1   -1    0    0  501    0  0.00000000000E+00  0.00000000000E+00  0.12009131057E+04  0.12009131057E+04  0.50400001928E-02 0. -1.
       -1   -1    0    0    0  501  0.00000000000E+00  0.00000000000E+00 -0.15109333030E+04  0.15109333030E+04  0.50400001928E-02 0.  1.
    10030    2    1    2    0    0  0.00000000000E+00  0.00000000000E+00 -0.31002019735E+03  0.27118464087E+04  0.26940672637E+04 0.  0.
        3    1    3    3  502    0 -0.16762001150E+03  0.10329350990E+03 -0.14963707353E+04  0.15092685000E+04  0.10100000352E+00 0.  1.
       -3    1    3    3    0  502  0.16762001150E+03 -0.10329350990E+03  0.11863505379E+04  0.12025779087E+04  0.10100000352E+00 0. -1.
</event>
<event>
 5   0  0.4448804E-06  0.2682238E+04  0.7818609E-02  0.8340791E-01
        2   -1    0    0  501    0  0.00000000000E+00  0.00000000000E+00  0.19974088329E+04  0.19974088329E+04  0.25500000920E-02 0. -1.
       -2   -1    0    0    0  501  0.00000000000E+00  0.00000000000E+00 -0.90046689391E+03  0.90046689392E+03  0.25500000920E-02 0.  1.
    10030    2    1    2    0    0  0.00000000000E+00  0.00000000000E+00  0.10969419390E+04  0.28978757268E+04  0.26822382650E+04 0.  0.
        2    1    3    3  502    0  0.24620933716E+03 -0.10135777783E+04  0.14592388573E+04  0.17936936732E+04  0.25500000920E-02 0. -1.
       -2    1    3    3    0  502 -0.24620933716E+03  0.10135777783E+04 -0.36229691837E+03  0.11041820536E+04  0.25500000920E-02 0.  1.
</event>
<event>
 5   0  0.4439357E-06  0.2694965E+04  0.7818609E-02  0.8336641E-01
       -2   -1    0    0    0  501  0.00000000000E+00  0.00000000000E+00  0.21566665127E+04  0.21566665127E+04  0.25500000920E-02 0. -1.
        2   -1    0    0  501    0  0.00000000000E+00  0.00000000000E+00 -0.84190525526E+03  0.84190525527E+03  0.25500000920E-02 0.  1.
    10030    2    1    2    0    0  0.00000000000E+00  0.00000000000E+00  0.13147612574E+04  0.29985717679E+04  0.26949648390E+04 0.  0.
        4    1    3    3  502    0  0.13434485530E+03  0.94458553797E+03  0.17161116485E+04  0.19634997279E+04  0.12699999809E+01 0. -1.
       -4    1    3    3    0  502 -0.13434485530E+03 -0.94458553797E+03 -0.40135039106E+03  0.10350720400E+04  0.12699999809E+01 0.  1.
</event>
<event>
 5   0  0.4487186E-06  0.2670933E+04  0.7818609E-02  0.8344498E-01
       -2   -1    0    0    0  501  0.00000000000E+00  0.00000000000E+00  0.81868102526E+03  0.81868102526E+03  0.25500000920E-02 0.  1.
        2   -1    0    0  501    0  0.00000000000E+00  0.00000000000E+00 -0.21784684854E+04  0.21784684854E+04  0.25500000920E-02 0. -1.
    10030    2    1    2    0    0  0.00000000000E+00  0.00000000000E+00 -0.13597874602E+04  0.29971495107E+04  0.26709330303E+04 0.  0.
        3    1    3    3  502    0  0.29320316249E+03 -0.12337591191E+04 -0.21001333245E+03  0.12853930405E+04  0.10100000352E+00 0.  1.
       -3    1    3    3    0  502 -0.29320316249E+03  0.12337591191E+04 -0.11497741277E+04  0.17117564702E+04  0.10100000352E+00 0. -1.
</event>
<event>
 5   0  0.1732312E-06  0.2690100E+04  0.7818609E-02  0.8338224E-01
        1   -1    0    0  501    0  0.00000000000E+00  0.00000000000E+00  0.19422423202E+04  0.19422423202E+04  0.50400001928E-02 0.  1.
       -1   -1    0    0    0  501  0.00000000000E+00  0.00000000000E+00 -0.93147967418E+03  0.93147967420E+03  0.50400001928E-02 0. -1.
    10030    2    1    2    0    0  0.00000000000E+00  0.00000000000E+00  0.10107626460E+04  0.28737219944E+04  0.26900998075E+04 0.  0.
        5    1    3    3  502    0 -0.67263082037E+03  0.10910876173E+04  0.69834704774E+02  0.12836679419E+04  0.46999998093E+01 0. -1.
       -5    1    3    3    0  502  0.67263082037E+03 -0.10910876173E+04  0.94092794122E+03  0.15900540524E+04  0.46999998093E+01 0.  1.
</event>
<event>
 5   0  0.4448804E-06  0.2678215E+04  0.7818609E-02  0.8342108E-01
       -2   -1    0    0    0  501  0.00000000000E+00  0.00000000000E+00  0.97540195775E+03  0.97540195775E+03  0.25500000920E-02 0.  1.
        2   -1    0    0  501    0  0.00000000000E+00  0.00000000000E+00 -0.18384301668E+04  0.18384301668E+04  0.25500000920E-02 0. -1.
    10030    2    1    2    0    0  0.00000000000E+00  0.00000000000E+00 -0.86302820901E+03  0.28138321245E+04  0.26782146171E+04 0.  0.
        2    1    3    3  502    0 -0.61972598985E+03  0.42938663478E+03  0.73122157494E+03  0.10502943284E+04  0.25500000920E-02 0.  1.
       -2    1    3    3    0  502  0.61972598985E+03 -0.42938663478E+03 -0.15942497839E+04  0.17635377961E+04  0.25500000920E-02 0. -1.
</event>
<event>
 5   0  0.1828511E-06  0.2698641E+04  0.7818609E-02  0.8335446E-01
       -1   -1    0    0    0  501  0.00000000000E+00  0.00000000000E+00  0.86900106844E+03  0.86900106846E+03  0.50400001928E-02 0.  1.
        1   -1    0    0  501    0  0.00000000000E+00  0.00000000000E+00 -0.20951245011E+04  0.20951245011E+04  0.50400001928E-02 0. -1.
    10030    2    1    2    0    0  0.00000000000E+00  0.00000000000E+00 -0.12261234327E+04  0.29641255696E+04  0.26986407171E+04 0.  0.
        4    1    3    3  502    0  0.21225594428E+03 -0.13187284608E+04 -0.40302602767E+03  0.13951806087E+04  0.12699999809E+01 0.  1.
       -4    1    3    3    0  502 -0.21225594428E+03  0.13187284608E+04 -0.82309740501E+03  0.15689449608E+04  0.12699999809E+01 0. -1.
</event>
<event>
 5   0  0.4448804E-06  0.2698549E+04  0.7818609E-02  0.8335476E-01
       -2   -1    0    0    0  501  0.00000000000E+00  0.00000000000E+00  0.13001545436E+04  0.13001545436E+04  0.25500000920E-02 0. -1.
        2   -1    0    0  501    0  0.00000000000E+00  0.00000000000E+00 -0.14002505158E+04  0.14002505158E+04  0.25500000920E-02 0.  1.
    10030    2    1    2    0    0  0.00000000000E+00  0.00000000000E+00 -0.10009597217E+03  0.27004050594E+04  0.26985492920E+04 0.  0.
        2    1    3    3  502    0 -0.80953597690E+03 -0.41300545907E+03 -0.10480402284E+04  0.13871951295E+04  0.25500000920E-02 0. -1.
       -2    1    3    3    0  502  0.80953597690E+03  0.41300545907E+03  0.94794425620E+03  0.13132099299E+04  0.25500000920E-02 0.  1.
</event>
<event>
 5   0  0.1732312E-06  0.2700722E+04  0.7818609E-02  0.8334771E-01
       -1   -1    0    0    0  501  0.00000000000E+00  0.00000000000E+00  0.24758716289E+04  0.24758716289E+04  0.50400001928E-02 0.  1.
        1   -1    0    0  501    0  0.00000000000E+00  0.00000000000E+00 -0.73649835248E+03  0.73649835250E+03  0.50400001928E-02 0. -1.
    10030    2    1    2    0    0  0.00000000000E+00  0.00000000000E+00  0.17393732764E+04  0.32123699814E+04  0.27007224038E+04 0.  0.
        5    1    3    3  502    0  0.94838426903E+03 -0.60758049866E+02 -0.27139619248E+03  0.98833306413E+03  0.46999998093E+01 0. -1.
       -5    1    3    3    0  502 -0.94838426903E+03  0.60758049866E+02  0.20107694689E+04  0.22240369172E+04  0.46999998093E+01 0.  1.
</event>
<event>
 5   0  0.1732312E-06  0.2721546E+04  0.7818609E-02  0.8328048E-01
       -1   -1    0    0    0  501  0.00000000000E+00  0.00000000000E+00  0.93096248969E+03  0.93096248971E+03  0.50400001928E-02 0. -1.
        1   -1    0    0  501    0  0.00000000000E+00  0.00000000000E+00 -0.19890198382E+04  0.19890198382E+04  0.50400001928E-02 0.  1.
    10030    2    1    2    0    0  0.00000000000E+00  0.00000000000E+00 -0.10580573485E+04  0.29199823280E+04  0.27215457819E+04 0.  0.
        5    1    3    3  502    0 -0.10290656858E+04  0.99540882899E+01  0.42616869963E+03  0.11138748224E+04  0.46999998093E+01 0. -1.
       -5    1    3    3    0  502  0.10290656858E+04 -0.99540882899E+01 -0.14842260482E+04  0.18061075055E+04  0.46999998093E+01 0.  1.
</event>
<event>
 5   0  0.1753474E-06  0.2682039E+04  0.7818609E-02  0.8340856E-01
        1   -1    0    0  501    0  0.00000000000E+00  0.00000000000E+00  0.14270985043E+04  0.14270985043E+04  0.50400001928E-02 0.  1.
       -1   -1    0    0    0  501  0.00000000000E+00  0.00000000000E+00 -0.12601328291E+04  0.12601328291E+04  0.50400001928E-02 0. -1.
    10030    2    1    2    0    0  0.00000000000E+00  0.00000000000E+00  0.16696567517E+03  0.26872313334E+04  0.26820392805E+04 0.  0.
        3    1    3    3  502    0 -0.46196294605E+03 -0.91309395280E+03 -0.78490332191E+03  0.12896602518E+04  0.10100000352E+00 0. -1.
       -3    1    3    3    0  502  0.46196294605E+03  0.91309395280E+03  0.95186899708E+03  0.13975710815E+04  0.10100000352E+00 0.  1.
</event>
<event>
 5   0  0.1771016E-06  0.2703102E+04  0.7818609E-02  0.8333999E-01
       -1   -1    0    0    0  501  0.00000000000E+00  0.00000000000E+00  0.14296579252E+04  0.14296579252E+04  0.50400001928E-02 0.  1.
        1   -1    0    0  501    0  0.00000000000E+00  0.00000000000E+00 -0.12777110840E+04  0.12777110840E+04  0.50400001928E-02 0. -1.
    10030    2    1    2    0    0  0.00000000000E+00  0.00000000000E+00  0.15194684123E+03  0.27073690093E+04  0.27031017572E+04 0.  0.
        2    1    3    3  502    0 -0.27761804456E+03  0.17154325485E+03 -0.12376575614E+04  0.12799590252E+04  0.25500000920E-02 0. -1.
       -2    1    3    3    0  502  0.27761804456E+03 -0.17154325485E+03  0.13896044026E+04  0.14274099841E+04  0.25500000920E-02 0.  1.
</event>
<event>
 5   0  0.4401659E-06  0.2690705E+04  0.7818609E-02  0.8338027E-01
        2   -1    0    0  501    0  0.00000000000E+00  0.00000000000E+00  0.17192159813E+04  0.17192159813E+04  0.25500000920E-02 0.  1.
       -2   -1    0    0    0  501  0.00000000000E+00  0.00000000000E+00 -0.10527903016E+04  0.10527903016E+04  0.25500000920E-02 0. -1.
    10030    2    1    2    0    0  0.00000000000E+00  0.00000000000E+00  0.66642567971E+03  0.27720062829E+04  0.26907054179E+04 0.  0.
        5    1    3    3  502    0 -0.23874371671E+03 -0.27754814745E+03 -0.10004766720E+04  0.10653671657E+04  0.46999998093E+01 0. -1.
       -5    1    3    3    0  502  0.23874371671E+03  0.27754814745E+03  0.16669023517E+04  0.17066391173E+04  0.46999998093E+01 0.  1.
</event>
<event>
 5   0  0.1723605E-06  0.2703533E+04  0.7818609E-02  0.8333859E-01
        1   -1    0    0  501    0  0.00000000000E+00  0.00000000000E+00  0.10436661159E+04  0.10436661159E+04  0.50400001928E-02 0. -1.
       -1   -1    0    0    0  501  0.00000000000E+00  0.00000000000E+00 -0.17508215939E+04  0.17508215939E+04  0.50400001928E-02 0.  1.
    10030    2    1    2    0    0  0.00000000000E+00  0.00000000000E+00 -0.70715547800E+03  0.27944877098E+04  0.27035333714E+04 0.  0.
        1    1    3    3  502    0  0.72383963664E+03  0.63158935517E+03  0.62942916008E+03  0.11484903137E+04  0.50400001928E-02 0. -1.
       -1    1    3    3    0  502 -0.72383963664E+03 -0.63158935517E+03 -0.13365846381E+04  0.16459973961E+04  0.50400001928E-02 0.  1.
</event>
<event>
 5   0  0.1732312E-06  0.2697037E+04  0.7818609E-02  0.8335967E-01
       -1   -1    0    0    0  501  0.00000000000E+00  0.00000000000E+00  0.10513452894E+04  0.10513452894E+04  0.50400001928E-02 0.  1.
        1   -1    0    0  501    0  0.00000000000E+00  0.00000000000E+00 -0.17296906734E+04  0.17296906734E+04  0.50400001928E-02 0. -1.
    10030    2    1    2    0    0  0.00000000000E+00  0.00000000000E+00 -0.67834538405E+03  0.27810359629E+04  0.26970369976E+04 0.  0.
        5    1    3    3  502    0  0.17431162811E+03  0.27024827508E+03 -0.16895636905E+04  0.17199029706E+04  0.46999998093E+01 0. -1.
       -5    1    3    3    0  502 -0.17431162811E+03 -0.27024827508E+03  0.10112183065E+04  0.10611329923E+04  0.46999998093E+01 0.  1.
</event>
<event>
 5   0  0.4448804E-06  0.2692221E+04  0.7818609E-02  0.8337533E-01
        2   -1    0    0  501    0  0.00000000000E+00  0.00000000000E+00  0.15729383073E+04  0.15729383073E+04  0.25500000920E-02 0.  1.
       -2   -1    0    0    0  501  0.00000000000E+00  0.00000000000E+00 -0.11519924432E+04  0.11519924432E+04  0.25500000920E-02 0. -1.
    10030    2    1    2    0    0  0.00000000000E+00  0.00000000000E+00  0.42094586410E+03  0.27249307506E+04  0.26922206772E+04 0.  0.
        2    1    3    3  502    0  0.60371693682E+03  0.37194718105E+03  0.13685750357E+04  0.15413683770E+04  0.25500000920E-02 0.  1.
       -2    1    3    3    0  502 -0.60371693682E+03 -0.37194718105E+03 -0.94762917159E+03  0.11835623736E+04  0.25500000920E-02 0. -1.
</event>
<event>
 5   0  0.1771016E-06  0.2691278E+04  0.7818609E-02  0.8337840E-01
       -1   -1    0    0    0  501  0.00000000000E+00  0.00000000000E+00  0.92893390722E+03  0.92893390723E+03  0.50400001928E-02 0.  1.
        1   -1    0    0  501    0  0.00000000000E+00  0.00000000000E+00 -0.19492720607E+04  0.19492720607E+04  0.50400001928E-02 0. -1.
    10030    2    1    2    0    0  0.00000000000E+00  0.00000000000E+00 -0.10203381535E+04  0.28782059680E+04  0.26912784409E+04 0.  0.
        2    1    3    3  502    0 -0.10047025809E+04 -0.50130353148E+03  0.28297024083E+03  0.11579312000E+04  0.25500000920E-02 0.  1.
       -2    1    3    3    0  502  0.10047025809E+04  0.50130353148E+03 -0.13033083943E+04  0.17202747680E+04  0.25500000920E-02 0. -1.
</event>
<event>
 5   0  0.4401659E-06  0.2692710E+04  0.7818609E-02  0.8337374E-01
        2   -1    0    0  501    0  0.00000000000E+00  0.00000000000E+00  0.16038854077E+04  0.16038854077E+04  0.25500000920E-02 0.  1.
       -2   -1    0    0    0  501  0.00000000000E+00  0.00000000000E+00 -0.11301751605E+04  0.11301751605E+04  0.25500000920E-02 0. -1.
    10030    2    1    2    0    0  0.00000000000E+00  0.00000000000E+00  0.47371024724E+03  0.27340605682E+04  0.26927097490E+04 0.  0.
        5    1    3    3  502    0 -0.10539038157E+03 -0.20248631453E+03  0.15840850591E+04  0.16004547493E+04  0.46999998093E+01 0.  1.
       -5    1    3    3    0  502  0.10539038157E+03  0.20248631453E+03 -0.11103748118E+04  0.11336058190E+04  0.46999998093E+01 0. -1.
</event>
<event>
 5   0  0.1723605E-06  0.2684934E+04  0.7818609E-02  0.8339910E-01
        1   -1    0    0  501    0  0.00000000000E+00  0.00000000000E+00  0.12851956451E+04  0.12851956452E+04  0.50400001928E-02 0. -1.
       -1   -1    0    0    0  501  0.00000000000E+00  0.00000000000E+00 -0.14022905598E+04  0.14022905599E+04  0.50400001928E-02 0.  1.
    10030    2    1    2    0    0  0.00000000000E+00  0.00000000000E+00 -0.11709491471E+03  0.26874862050E+04  0.26849340556E+04 0.  0.
        1    1    3    3  502    0 -0.36335123763E+03  0.11292582848E+04 -0.68761069246E+03  0.13711516547E+04  0.50400001928E-02 0.  1.
       -1    1    3    3    0  502  0.36335123763E+03 -0.11292582848E+04  0.57051577775E+03  0.13163345503E+04  0.50400001928E-02 0. -1.
</event>
<event>
 5   0  0.4487186E-06  0.2697591E+04  0.7818609E-02  0.8335787E-01
       -2   -1    0    0    0  501  0.00000000000E+00  0.00000000000E+00  0.53191812848E+03  0.53191812849E+03  0.25500000920E-02 0. -1.
        2   -1    0    0  501    0  0.00000000000E+00  0.00000000000E+00 -0.34201671327E+04  0.34201671327E+04  0.25500000920E-02 0.  1.
    10030    2    1    2    0    0  0.00000000000E+00  0.00000000000E+00 -0.28882490042E+04  0.39520852612E+04  0.26975907031E+04 0.  0.
        3    1    3    3  502    0 -0.19174855718E+03  0.13297940202E+04 -0.16182689866E+04  0.21033102882E+04  0.10100000352E+00 0.  1.
       -3    1    3    3    0  502  0.19174855718E+03 -0.13297940202E+04 -0.12699800176E+04  0.18487749730E+04  0.10100000352E+00 0. -1.
</event>
<event>
 5   0  0.4401659E-06  0.2621069E+04  0.7818609E-02  0.8361080E-01
       -2   -1    0    0    0  501  0.00000000000E+00  0.00000000000E+00  0.10065743071E+04  0.10065743071E+04  0.25500000920E-02 0. -1.
        2   -1    0    0  501    0  0.00000000000E+00  0.00000000000E+00 -0.17062827103E+04  0.17062827103E+04  0.25500000920E-02 0.  1.
    10030    2    1    2    0    0  0.00000000000E+00  0.00000000000E+00 -0.69970840324E+03  0.27128570175E+04  0.26210687415E+04 0.  0.
        5    1    3    3  502    0  0.66351600767E+03  0.79762091231E+03  0.47882452918E+03  0.11426931486E+04  0.46999998093E+01 0. -1.
       -5    1    3    3    0  502 -0.66351600767E+03 -0.79762091231E+03 -0.11785329324E+04  0.15701638688E+04  0.46999998093E+01 0.  1.
</event>
<event>
 5   0  0.1723605E-06  0.2615293E+04  0.7818609E-02  0.8363025E-01
        1   -1    0    0  501    0  0.00000000000E+00  0.00000000000E+00  0.94239102440E+03  0.94239102441E+03  0.50400001928E-02 0.  1.
       -1   -1    0    0    0  501  0.00000000000E+00  0.00000000000E+00 -0.18144691201E+04  0.18144691201E+04  0.50400001928E-02 0. -1.
    10030    2    1    2    0    0  0.00000000000E+00  0.00000000000E+00 -0.87207809568E+03  0.27568601445E+04  0.26152930336E+04 0.  0.
        1    1    3    3  502    0  0.27638472427E+03 -0.12350329732E+04 -0.89224584012E+02  0.12687221867E+04  0.50400001928E-02 0. -1.
       -1    1    3    3    0  502 -0.27638472427E+03  0.12350329732E+04 -0.78285351167E+03  0.14881379578E+04  0.50400001928E-02 0.  1.
</event>
<event>
 5   0  0.4448804E-06  0.2694851E+04  0.7818609E-02  0.8336678E-01
       -2   -1    0    0    0  501  0.00000000000E+00  0.00000000000E+00  0.94285237318E+03  0.94285237319E+03  0.25500000920E-02 0.  1.
        2   -1    0    0  501    0  0.00000000000E+00  0.00000000000E+00 -0.19255988123E+04  0.19255988123E+04  0.25500000920E-02 0. -1.
    10030    2    1    2    0    0  0.00000000000E+00  0.00000000000E+00 -0.98274643912E+03  0.28684511855E+04  0.26948509495E+04 0.  0.
        2    1    3    3  502    0 -0.13172797803E+04  0.16682880544E+03 -0.24748984754E+03  0.13506698688E+04  0.25500000920E-02 0.  1.
       -2    1    3    3    0  502  0.13172797803E+04 -0.16682880544E+03 -0.73525659158E+03  0.15177813167E+04  0.25500000920E-02 0. -1.
</event>
<event>
 5   0  0.4401659E-06  0.2707270E+04  0.7818609E-02  0.8332650E-01
        2   -1    0    0  501    0  0.00000000000E+00  0.00000000000E+00  0.18281622398E+04  0.18281622398E+04  0.25500000920E-02 0. -1.
       -2   -1    0    0    0  501  0.00000000000E+00  0.00000000000E+00 -0.10022784100E+04  0.10022784100E+04  0.25500000920E-02 0.  1.
    10030    2    1    2    0    0  0.00000000000E+00  0.00000000000E+00  0.82588382988E+03  0.28304406498E+04  0.27072698742E+04 0.  0.
        5    1    3    3  502    0 -0.32801078349E+03  0.69164789201E+03 -0.75424482760E+03  0.10746512134E+04  0.46999998093E+01 0.  1.
       -5    1    3    3    0  502  0.32801078349E+03 -0.69164789201E+03  0.15801286575E+04  0.17557894363E+04  0.46999998093E+01 0. -1.
</event>
<event>
 5   0  0.1828511E-06  0.2743330E+04  0.7818609E-02  0.8321081E-01
       -1   -1    0    0    0  501  0.00000000000E+00  0.00000000000E+00  0.67503911097E+03  0.67503911098E+03  0.50400001928E-02 0. -1.
        1   -1    0    0  501    0  0.00000000000E+00  0.00000000000E+00 -0.27871946816E+04  0.27871946816E+04  0.50400001928E-02 0.  1.
    10030    2    1    2    0    0  0.00000000000E+00  0.00000000000E+00 -0.21121555706E+04  0.34622337925E+04  0.27433303993E+04 0.  0.
        4    1    3    3  502    0 -0.21697186834E+02  0.74388432933E+03  0.39809717970E+03  0.84398912358E+03  0.12699999809E+01 0.  1.
       -4    1    3    3    0  502  0.21697186834E+02 -0.74388432933E+03 -0.25102527503E+04  0.26182446690E+04  0.12699999809E+01 0. -1.
</event>
<event>
 5   0  0.4401659E-06  0.2702684E+04  0.7818609E-02  0.8334135E-01
        2   -1    0    0  501    0  0.00000000000E+00  0.00000000000E+00  0.12264121267E+04  0.12264121268E+04  0.25500000920E-02 0.  1.
       -2   -1    0    0    0  501  0.00000000000E+00  0.00000000000E+00 -0.14889982259E+04  0.14889982259E+04  0.25500000920E-02 0. -1.
    10030    2    1    2    0    0  0.00000000000E+00  0.00000000000E+00 -0.26258609914E+03  0.27154103526E+04  0.27026842072E+04 0.  0.
        5    1    3    3  502    0 -0.26152695175E+01  0.64919720088E+03 -0.13220485907E+04  0.14728538323E+04  0.46999998093E+01 0. -1.
       -5    1    3    3    0  502  0.26152695175E+01 -0.64919720088E+03  0.10594624915E+04  0.12425565203E+04  0.46999998093E+01 0.  1.
</event>
<event>
 5   0  0.1828511E-06  0.2697209E+04  0.7818609E-02  0.8335911E-01
        1   -1    0    0  501    0  0.00000000000E+00  0.00000000000E+00  0.24531916764E+04  0.24531916764E+04  0.50400001928E-02 0. -1.
       -1   -1    0    0    0  501  0.00000000000E+00  0.00000000000E+00 -0.74137443413E+03  0.74137443414E+03  0.50400001928E-02 0.  1.
    10030    2    1    2    0    0  0.00000000000E+00  0.00000000000E+00  0.17118172423E+04  0.31945661106E+04  0.26972086245E+04 0.  0.
        4    1    3    3  502    0 -0.10288184002E+04 -0.78889579514E+03  0.41607114443E+03  0.13615949054E+04  0.12699999809E+01 0.  1.
       -4    1    3    3    0  502  0.10288184002E+04  0.78889579514E+03  0.12957460979E+04  0.18329712052E+04  0.12699999809E+01 0. -1.
</event>
<event>
 5   0  0.1732312E-06  0.2614963E+04  0.7818609E-02  0.8363136E-01
       -1   -1    0    0    0  501  0.00000000000E+00  0.00000000000E+00  0.67940701934E+03  0.67940701936E+03  0.50400001928E-02 0.  1.
        1   -1    0    0  501    0  0.00000000000E+00  0.00000000000E+00 -0.25161767304E+04  0.25161767304E+04  0.50400001928E-02 0. -1.
    10030    2    1    2    0    0  0.00000000000E+00  0.00000000000E+00 -0.18367697111E+04  0.31955837498E+04  0.26149631987E+04 0.  0.
        5    1    3    3  502    0 -0.93424385169E+03  0.88562124543E+03 -0.63878251684E+03  0.14370809854E+04  0.46999998093E+01 0. -1.
       -5    1    3    3    0  502  0.93424385169E+03 -0.88562124543E+03 -0.11979871943E+04  0.17585027644E+04  0.46999998093E+01 0.  1.
</event>
<event>
 5   0  0.1732312E-06  0.2718517E+04  0.7818609E-02  0.8329022E-01
        1   -1    0    0  501    0  0.00000000000E+00  0.00000000000E+00  0.19237558619E+04  0.19237558619E+04  0.50400001928E-02 0.  1.
       -1   -1    0    0    0  501  0.00000000000E+00  0.00000000000E+00 -0.96040414394E+03  0.96040414395E+03  0.50400001928E-02 0. -1.
    10030    2    1    2    0    0  0.00000000000E+00  0.00000000000E+00  0.96335171797E+03  0.28841600059E+04  0.27185165821E+04 0.  0.
        5    1    3    3  502    0 -0.12728369312E+04  0.45115572364E+03  0.31764036262E+03  0.13872897427E+04  0.46999998093E+01 0. -1.
       -5    1    3    3    0  502  0.12728369312E+04 -0.45115572364E+03  0.64571135534E+03  0.14968702631E+04  0.46999998093E+01 0.  1.
</event>
<event>
 5   0  0.4487186E-06  0.2696397E+04  0.7818609E-02  0.8336175E-01
        2   -1    0    0  501    0  0.00000000000E+00  0.00000000000E+00  0.12494514333E+04  0.12494514333E+04  0.25500000920E-02 0.  1.
       -2   -1    0    0    0  501  0.00000000000E+00  0.00000000000E+00 -0.14547493533E+04  0.14547493533E+04  0.25500000920E-02 0. -1.
    10030    2    1    2    0    0  0.00000000000E+00  0.00000000000E+00 -0.20529792007E+03  0.27042007866E+04  0.26963966063E+04 0.  0.
        3    1    3    3  502    0  0.10057345471E+03  0.10792930751E+04 -0.90662378571E+03  0.14131366745E+04  0.10100000352E+00 0. -1.
       -3    1    3    3    0  502 -0.10057345471E+03 -0.10792930751E+04  0.70132586564E+03  0.12910641122E+04  0.10100000352E+00 0.  1.
</event>
<event>
 5   0  0.1732312E-06  0.2675948E+04  0.7818609E-02  0.8342851E-01
       -1   -1    0    0    0  501  0.00000000000E+00  0.00000000000E+00  0.12805382559E+04  0.12805382559E+04  0.50400001928E-02 0.  1.
        1   -1    0    0  501    0  0.00000000000E+00  0.00000000000E+00 -0.13979857489E+04  0.13979857489E+04  0.50400001928E-02 0. -1.
    10030    2    1    2    0    0  0.00000000000E+00  0.00000000000E+00 -0.11744749292E+03  0.26785240048E+04  0.26759478565E+04 0.  0.
        5    1    3    3  502    0 -0.85356659419E+03 -0.60437771471E+03 -0.89397526876E+03  0.13758859778E+04  0.46999998093E+01 0. -1.
       -5    1    3    3    0  502  0.85356659419E+03  0.60437771471E+03  0.77652777584E+03  0.13026380270E+04  0.46999998093E+01 0.  1.
</event>
<event>
 5   0  0.1732312E-06  0.2694417E+04  0.7818609E-02  0.8336819E-01
       -1   -1    0    0    0  501  0.00000000000E+00  0.00000000000E+00  0.11649835159E+04  0.11649835159E+04  0.50400001928E-02 0.  1.
        1   -1    0    0  501    0  0.00000000000E+00  0.00000000000E+00 -0.15579366252E+04  0.15579366252E+04  0.50400001928E-02 0. -1.
    10030    2    1    2    0    0  0.00000000000E+00  0.00000000000E+00 -0.39295310937E+03  0.27229201411E+04  0.26944168105E+04 0.  0.
        5    1    3    3  502    0  0.51938136162E+03 -0.11204349435E+04 -0.74051802442E+03  0.14399723941E+04  0.46999998093E+01 0.  1.
       -5    1    3    3    0  502 -0.51938136162E+03  0.11204349435E+04  0.34756491505E+03  0.12829477470E+04  0.46999998093E+01 0. -1.
</event>
<event>
 5   0  0.4487186E-06  0.2705400E+04  0.7818609E-02  0.8333255E-01
        2   -1    0    0  501    0  0.00000000000E+00  0.00000000000E+00  0.18063818858E+04  0.18063818858E+04  0.25500000920E-02 0. -1.
       -2   -1    0    0    0  501  0.00000000000E+00  0.00000000000E+00 -0.10129624188E+04  0.10129624188E+04  0.25500000920E-02 0.  1.
    10030    2    1    2    0    0  0.00000000000E+00  0.00000000000E+00  0.79341946699E+03  0.28193443046E+04  0.27053997593E+04 0.  0.
        3    1    3    3  502    0  0.67113372088E+03 -0.11974443229E+03  0.16142658890E+04  0.17523166297E+04  0.10100000352E+00 0. -1.
       -3    1    3    3    0  502 -0.67113372088E+03  0.11974443229E+03 -0.82084642196E+03  0.10670276749E+04  0.10100000352E+00 0.  1.
</event>
<event>
 5   0  0.4655882E-06  0.2697967E+04  0.7818609E-02  0.8335665E-01
        2   -1    0    0  501    0  0.00000000000E+00  0.00000000000E+00  0.20365974203E+04  0.20365974203E+04  0.25500000920E-02 0.  1.
       -2   -1    0    0    0  501  0.00000000000E+00  0.00000000000E+00 -0.89352766914E+03  0.89352766914E+03  0.25500000920E-02 0. -1.
    10030    2    1    2    0    0  0.00000000000E+00  0.00000000000E+00  0.11430697511E+04  0.29301250894E+04  0.26979667499E+04 0.  0.
        1    1    3    3  502    0 -0.50639017852E+02 -0.12631543746E+04  0.10828241060E+04  0.16645213513E+04  0.50400001928E-02 0.  1.
       -1    1    3    3    0  502  0.50639017852E+02  0.12631543746E+04  0.60245645104E+02  0.12656037381E+04  0.50400001928E-02 0. -1.
</event>
<event>
 5   0  0.4439357E-06  0.2688476E+04  0.7818609E-02  0.8338754E-01
       -2   -1    0    0    0  501  0.00000000000E+00  0.00000000000E+00  0.15536964309E+04  0.15536964309E+04  0.25500000920E-02 0. -1.
        2   -1    0    0  501    0  0.00000000000E+00  0.00000000000E+00 -0.11630171315E+04  0.11630171315E+04  0.25500000920E-02 0.  1.
    10030    2    1    2    0    0  0.00000000000E+00  0.00000000000E+00  0.39067929938E+03  0.27167135624E+04  0.26884758257E+04 0.  0.
        4    1    3    3  502    0 -0.70508639119E+03  0.11360512131E+04  0.33541295388E+03  0.13785001416E+04  0.12699999809E+01 0. -1.
       -4    1    3    3    0  502  0.70508639119E+03 -0.11360512131E+04  0.55266345504E+02  0.13382134208E+04  0.12699999809E+01 0.  1.
</event>
<event>
 5   0  0.1771016E-06  0.2703401E+04  0.7818609E-02  0.8333902E-01
        1   -1    0    0  501    0  0.00000000000E+00  0.00000000000E+00  0.25177067594E+04  0.25177067594E+04  0.50400001928E-02 0. -1.
       -1   -1    0    0    0  501  0.00000000000E+00  0.00000000000E+00 -0.72569773188E+03  0.72569773190E+03  0.50400001928E-02 0.  1.
    10030    2    1    2    0    0  0.00000000000E+00  0.00000000000E+00  0.17920090275E+04  0.32434044913E+04  0.27034008840E+04 0.  0.
        2    1    3    3  502    0 -0.29089694314E+03  0.13196042434E+04  0.93611446732E+03  0.16438633418E+04  0.25500000920E-02 0. -1.
       -2    1    3    3    0  502  0.29089694314E+03 -0.13196042434E+04  0.85589456017E+03  0.15995411494E+04  0.25500000920E-02 0.  1.
</event>
<event>
 5   0  0.4401659E-06  0.2649531E+04  0.7818609E-02  0.8351569E-01
       -2   -1    0    0    0  501  0.00000000000E+00  0.00000000000E+00  0.16636561009E+04  0.16636561009E+04  0.25500000920E-02 0. -1.
        2   -1    0    0  501    0  0.00000000000E+00  0.00000000000E+00 -0.10549078992E+04  0.10549078992E+04  0.25500000920E-02 0.  1.
    10030    2    1    2    0    0  0.00000000000E+00  0.00000000000E+00  0.60874820167E+03  0.27185640001E+04  0.26495312509E+04 0.  0.
        5    1    3    3  502    0 -0.12645376109E+04  0.71279399199E+02  0.70288211071E+03  0.14485169912E+04  0.46999998093E+01 0. -1.
       -5    1    3    3    0  502  0.12645376109E+04 -0.71279399199E+02 -0.94133909043E+02  0.12700470090E+04  0.46999998093E+01 0.  1.
</event>
<event>
 5   0  0.1828511E-06  0.2707890E+04  0.7818609E-02  0.8332449E-01
        1   -1    0    0  501    0  0.00000000000E+00  0.00000000000E+00  0.12187844075E+04  0.12187844075E+04  0.50400001928E-02 0. -1.
       -1   -1    0    0    0  501  0.00000000000E+00  0.00000000000E+00 -0.15040949135E+04  0.15040949135E+04  0.50400001928E-02 0.  1.
    10030    2    1    2    0    0  0.00000000000E+00  0.00000000000E+00 -0.28531050604E+03  0.27228793210E+04  0.27078902695E+04 0.  0.
        4    1    3    3  502    0  0.11197746897E+04 -0.55408551057E+03 -0.66732861818E+03  0.14164163251E+04  0.12699999809E+01 0. -1.
       -4    1    3    3    0  502 -0.11197746897E+04  0.55408551057E+03  0.38201811214E+03  0.13064629958E+04  0.12699999809E+01 0.  1.
</event>
<event>
 5   0  0.4655882E-06  0.2693508E+04  0.7818609E-02  0.8337115E-01
        2   -1    0    0  501    0  0.00000000000E+00  0.00000000000E+00  0.23677134364E+04  0.23677134364E+04  0.25500000920E-02 0. -1.
       -2   -1    0    0    0  501  0.00000000000E+00  0.00000000000E+00 -0.76603270386E+03  0.76603270386E+03  0.25500000920E-02 0.  1.
    10030    2    1    2    0    0  0.00000000000E+00  0.00000000000E+00  0.16016807325E+04  0.31337461403E+04  0.26935076949E+04 0.  0.
        1    1    3    3  502    0 -0.62625983032E+03  0.66399439725E+03  0.19529768636E+04  0.21557385195E+04  0.50400001928E-02 0. -1.
       -1    1    3    3    0  502  0.62625983032E+03 -0.66399439725E+03 -0.35129613102E+03  0.97800762080E+03  0.50400001928E-02 0.  1.
</event>
<event>
 5   0  0.1482875E-06  0.2706150E+04  0.7818609E-02  0.8333012E-01
        4   -1    0    0  501    0  0.00000000000E+00  0.00000000000E+00  0.14511803744E+04  0.14511809301E+04  0.12699999809E+01 0.  1.
       -4   -1    0    0    0  501  0.00000000000E+00  0.00000000000E+00 -0.12616012396E+04  0.12616018789E+04  0.12699999809E+01 0. -1.
    10030    2    1    2    0    0  0.00000000000E+00  0.00000000000E+00  0.18957913478E+03  0.27127828090E+04  0.27061504615E+04 0.  0.
        1    1    3    3  502    0 -0.66070519173E+03 -0.11254964733E+04 -0.26321160567E+03  0.13313729797E+04  0.50400001928E-02 0. -1.
       -1    1    3    3    0  502  0.66070519173E+03  0.11254964733E+04  0.45279074045E+03  0.13814098293E+04  0.50400001928E-02 0.  1.
</event>
<event>
 5   0  0.4448804E-06  0.2695652E+04  0.7818609E-02  0.8336417E-01
       -2   -1    0    0    0  501  0.00000000000E+00  0.00000000000E+00  0.12304232695E+04  0.12304232695E+04  0.25500000920E-02 0. -1.
        2   -1    0    0  501    0  0.00000000000E+00  0.00000000000E+00 -0.14764305418E+04  0.14764305418E+04  0.25500000920E-02 0.  1.
    10030    2    1    2    0    0  0.00000000000E+00  0.00000000000E+00 -0.24600727231E+03  0.27068538114E+04  0.26956516797E+04 0.  0.
        2    1    3    3  502    0  0.26288236783E+03 -0.14330226270E+03  0.11966080944E+04  0.12334964976E+04  0.25500000920E-02 0. -1.
       -2    1    3    3    0  502 -0.26288236783E+03  0.14330226270E+03 -0.14426153667E+04  0.14733573138E+04  0.25500000920E-02 0.  1.
</event>
<event>
 5   0  0.1723605E-06  0.2688734E+04  0.7818609E-02  0.8338670E-01
       -1   -1    0    0    0  501  0.00000000000E+00  0.00000000000E+00  0.14805606478E+04  0.14805606478E+04  0.50400001928E-02 0. -1.
        1   -1    0    0  501    0  0.00000000000E+00  0.00000000000E+00 -0.12207010990E+04  0.12207010991E+04  0.50400001928E-02 0.  1.
    10030    2    1    2    0    0  0.00000000000E+00  0.00000000000E+00  0.25985954871E+03  0.27012617468E+04  0.26887335383E+04 0.  0.
        1    1    3    3  502    0  0.11540498522E+04  0.68666112079E+03  0.66489254606E+02  0.13445279384E+04  0.50400001928E-02 0. -1.
       -1    1    3    3    0  502 -0.11540498522E+04 -0.68666112079E+03  0.19337029411E+03  0.13567338084E+04  0.50400001928E-02 0.  1.
</event>
<event>
 5   0  0.1828511E-06  0.2696106E+04  0.7818609E-02  0.8336269E-01
       -1   -1    0    0    0  501  0.00000000000E+00  0.00000000000E+00  0.82444293031E+03  0.82444293032E+03  0.50400001928E-02 0.  1.
        1   -1    0    0  501    0  0.00000000000E+00  0.00000000000E+00 -0.22042123393E+04  0.22042123393E+04  0.50400001928E-02 0. -1.
    10030    2    1    2    0    0  0.00000000000E+00  0.00000000000E+00 -0.13797694090E+04  0.30286552696E+04  0.26961062887E+04 0.  0.
        4    1    3    3  502    0 -0.10560510361E+04 -0.55092991017E+03 -0.13989970864E+04  0.18373791164E+04  0.12699999809E+01 0. -1.
       -4    1    3    3    0  502  0.10560510361E+04  0.55092991017E+03  0.19227677477E+02  0.11912761532E+04  0.12699999809E+01 0.  1.
</event>
<event>
 5   0  0.4448804E-06  0.2654660E+04  0.7818609E-02  0.8349868E-01
       -2   -1    0    0    0  501  0.00000000000E+00  0.00000000000E+00  0.11401344732E+04  0.11401344733E+04  0.25500000920E-02 0.  1.
        2   -1    0    0  501    0  0.00000000000E+00  0.00000000000E+00 -0.15452601226E+04  0.15452601226E+04  0.25500000920E-02 0. -1.
    10030    2    1    2    0    0  0.00000000000E+00  0.00000000000E+00 -0.40512564935E+03  0.26853945959E+04  0.26546595533E+04 0.  0.
        2    1    3    3  502    0  0.10217926327E+04  0.64109119493E+03 -0.76282189424E+03  0.14272194459E+04  0.25500000920E-02 0. -1.
       -2    1    3    3    0  502 -0.10217926327E+04 -0.64109119493E+03  0.35769624488E+03  0.12581751500E+04  0.25500000920E-02 0.  1.
</event>
<event>
 5   0  0.4401659E-06  0.2692460E+04  0.7818609E-02  0.8337456E-01
        2   -1    0    0  501    0  0.00000000000E+00  0.00000000000E+00  0.13049052746E+04  0.13049052746E+04  0.25500000920E-02 0.  1.
       -2   -1    0    0    0  501  0.00000000000E+00  0.00000000000E+00 -0.13888631603E+04  0.13888631603E+04  0.25500000920E-02 0. -1.
    10030    2    1    2    0    0  0.00000000000E+00  0.00000000000E+00 -0.83957885669E+02  0.26937684349E+04  0.26924597405E+04 0.  0.
        5    1    3    3  502    0 -0.63848753866E+03 -0.63874455360E+03  0.95683081408E+03  0.13157538670E+04  0.46999998093E+01 0.  1.
       -5    1    3    3    0  502  0.63848753866E+03  0.63874455360E+03 -0.10407886997E+04  0.13780145679E+04  0.46999998093E+01 0. -1.
</event>
<event>
 5   0  0.1723605E-06  0.2743543E+04  0.7818609E-02  0.8321014E-01
       -1   -1    0    0    0  501  0.00000000000E+00  0.00000000000E+00  0.13019689381E+04  0.13019689381E+04  0.50400001928E-02 0. -1.
        1   -1    0    0  501    0  0.00000000000E+00  0.00000000000E+00 -0.14453159610E+04  0.14453159610E+04  0.50400001928E-02 0.  1.
    10030    2    1    2    0    0  0.00000000000E+00  0.00000000000E+00 -0.14334702283E+03  0.27472848991E+04  0.27435425909E+04 0.  0.
        1    1    3    3  502    0  0.97645124613E+03  0.93498885578E+03 -0.30457470860E+03  0.13857946997E+04  0.50400001928E-02 0.  1.
       -1    1    3    3    0  502 -0.97645124613E+03 -0.93498885578E+03  0.16122768578E+03  0.13614901994E+04  0.50400001928E-02 0. -1.
</event>
<event>
 5   0  0.1771016E-06  0.2703973E+04  0.7818609E-02  0.8333717E-01
       -1   -1    0    0    0  501  0.00000000000E+00  0.00000000000E+00  0.25972566710E+04  0.25972566710E+04  0.50400001928E-02 0.  1.
        1   -1    0    0  501    0  0.00000000000E+00  0.00000000000E+00 -0.70376855059E+03  0.70376855060E+03  0.50400001928E-02 0. -1.
    10030    2    1    2    0    0  0.00000000000E+00  0.00000000000E+00  0.18934881204E+04  0.33010252216E+04  0.27039730494E+04 0.  0.
        2    1    3    3  502    0  0.61964777071E+02  0.60725212036E+03  0.24194589874E+04  0.24952708396E+04  0.25500000920E-02 0.  1.
       -2    1    3    3    0  502 -0.61964777071E+02 -0.60725212036E+03 -0.52597086695E+03  0.80575438203E+03  0.25500000920E-02 0. -1.
</event>
<event>
 5   0  0.4439357E-06  0.2691167E+04  0.7818609E-02  0.8337877E-01
       -2   -1    0    0    0  501  0.00000000000E+00  0.00000000000E+00  0.83026329864E+03  0.83026329864E+03  0.25500000920E-02 0.  1.
        2   -1    0    0  501    0  0.00000000000E+00  0.00000000000E+00 -0.21807472953E+04  0.21807472953E+04  0.25500000920E-02 0. -1.
    10030    2    1    2    0    0  0.00000000000E+00  0.00000000000E+00 -0.13504839966E+04  0.30110105939E+04  0.26911666190E+04 0.  0.
        4    1    3    3  502    0 -0.74314351110E+02  0.11285860387E+04 -0.14908240545E+04  0.18713062400E+04  0.12699999809E+01 0. -1.
       -4    1    3    3    0  502  0.74314351110E+02 -0.11285860387E+04  0.14034005785E+03  0.11397043539E+04  0.12699999809E+01 0.  1.
</event>
<event>
 5   0  0.1482875E-06  0.2674681E+04  0.7818609E-02  0.8343267E-01
       -3   -1    0    0    0  501  0.00000000000E+00  0.00000000000E+00  0.93319947419E+03  0.93319947965E+03  0.10100000352E+00 0.  1.
        3   -1    0    0  501    0  0.00000000000E+00  0.00000000000E+00 -0.19165031112E+04  0.19165031139E+04  0.10100000352E+00 0. -1.
    10030    2    1    2    0    0  0.00000000000E+00  0.00000000000E+00 -0.98330363706E+03  0.28497025936E+04  0.26746810705E+04 0.  0.
        5    1    3    3  502    0 -0.17153630535E+03 -0.12820810410E+04 -0.12987203736E+03  0.13000174368E+04  0.46999998093E+01 0. -1.
       -5    1    3    3    0  502  0.17153630535E+03  0.12820810410E+04 -0.85343159970E+03  0.15496851568E+04  0.46999998093E+01 0.  1.
</event>
<event>
 5   0  0.4439357E-06  0.2704812E+04  0.7818609E-02  0.8333445E-01
        2   -1    0    0  501    0  0.00000000000E+00  0.00000000000E+00  0.17528791501E+04  0.17528791501E+04  0.25500000920E-02 0. -1.
       -2   -1    0    0    0  501  0.00000000000E+00  0.00000000000E+00 -0.10434273859E+04  0.10434273859E+04  0.25500000920E-02 0.  1.
    10030    2    1    2    0    0  0.00000000000E+00  0.00000000000E+00  0.70945176419E+03  0.27963065359E+04  0.27048120891E+04 0.  0.
        4    1    3    3  502    0 -0.98710203556E+03  0.71975529834E+02 -0.59810644835E+03  0.11564098936E+04  0.12699999809E+01 0.  1.
       -4    1    3    3    0  502  0.98710203556E+03 -0.71975529834E+02  0.13075582125E+04  0.16398966423E+04  0.12699999809E+01 0. -1.
</event>
<event>
 5   0  0.4439357E-06  0.2699633E+04  0.7818609E-02  0.8335124E-01
        2   -1    0    0  501    0  0.00000000000E+00  0.00000000000E+00  0.14561185885E+04  0.14561185885E+04  0.25500000920E-02 0.  1.
       -2   -1    0    0    0  501  0.00000000000E+00  0.00000000000E+00 -0.12512747979E+04  0.12512747979E+04  0.25500000920E-02 0. -1.
    10030    2    1    2    0    0  0.00000000000E+00  0.00000000000E+00  0.20484379064E+03  0.27073933864E+04  0.26996329325E+04 0.  0.
        4    1    3    3  502    0 -0.79234196347E+03  0.84936911873E+03 -0.58713678624E+03  0.13015240703E+04  0.12699999809E+01 0.  1.
       -4    1    3    3    0  502  0.79234196347E+03 -0.84936911873E+03  0.79198057689E+03  0.14058693161E+04  0.12699999809E+01 0. -1.
</event>
<event>
 5   0  0.4401659E-06  0.2700505E+04  0.7818609E-02  0.8334841E-01
       -2   -1    0    0    0  501  0.00000000000E+00  0.00000000000E+00  0.93508038110E+03  0.93508038110E+03  0.25500000920E-02 0. -1.
        2   -1    0    0  501    0  0.00000000000E+00  0.00000000000E+00 -0.19497593431E+04  0.19497593431E+04  0.25500000920E-02 0.  1.
    10030    2    1    2    0    0  0.00000000000E+00  0.00000000000E+00 -0.10146789620E+04  0.28848397242E+04  0.27005049229E+04 0.  0.
        5    1    3    3  502    0  0.91143558129E+03  0.56255374323E+03  0.37096080696E+03  0.11334970415E+04  0.46999998093E+01 0. -1.
       -5    1    3    3    0  502 -0.91143558129E+03 -0.56255374323E+03 -0.13856397690E+04  0.17513426827E+04  0.46999998093E+01 0.  1.
</event>
<event>
 5   0  0.1771016E-06  0.2704589E+04  0.7818609E-02  0.8333517E-01
        1   -1    0    0  501    0  0.00000000000E+00  0.00000000000E+00  0.10575622247E+04  0.10575622247E+04  0.50400001928E-02 0.  1.
       -1   -1    0    0    0  501  0.00000000000E+00  0.00000000000E+00 -0.17291662336E+04  0.17291662336E+04  0.50400001928E-02 0. -1.
    10030    2    1    2    0    0  0.00000000000E+00  0.00000000000E+00 -0.67160400886E+03  0.27867284583E+04  0.27045893506E+04 0.  0.
        2    1    3    3  502    0  0.38535961909E+02  0.54515054949E+03 -0.16103107810E+04  0.17005219650E+04  0.25500000920E-02 0. -1.
       -2    1    3    3    0  502 -0.38535961909E+02 -0.54515054949E+03  0.93870677217E+03  0.10862064933E+04  0.25500000920E-02 0.  1.
</event>
<event>
 5   0  0.1723605E-06  0.2696212E+04  0.7818609E-02  0.8336235E-01
       -1   -1    0    0    0  501  0.00000000000E+00  0.00000000000E+00  0.79457949165E+03  0.79457949167E+03  0.50400001928E-02 0.  1.
        1   -1    0    0  501    0  0.00000000000E+00  0.00000000000E+00 -0.22872354384E+04  0.22872354384E+04  0.50400001928E-02 0. -1.
    10030    2    1    2    0    0  0.00000000000E+00  0.00000000000E+00 -0.14926559468E+04  0.30818149301E+04  0.26962124338E+04 0.  0.
        1    1    3    3  502    0  0.91660592938E+03  0.96497564854E+03 -0.50105589066E+03  0.14221116122E+04  0.50400001928E-02 0.  1.
       -1    1    3    3    0  502 -0.91660592938E+03 -0.96497564854E+03 -0.99160005611E+03  0.16597033179E+04  0.50400001928E-02 0. -1.
</event>
<event>
 5   0  0.1482875E-06  0.2694334E+04  0.7818609E-02  0.8336846E-01
        3   -1    0    0  501    0  0.00000000000E+00  0.00000000000E+00  0.94463582413E+03  0.94463582953E+03  0.10100000352E+00 0.  1.
       -3   -1    0    0    0  501  0.00000000000E+00  0.00000000000E+00 -0.19212266410E+04  0.19212266437E+04  0.10100000352E+00 0. -1.
    10030    2    1    2    0    0  0.00000000000E+00  0.00000000000E+00 -0.97659081687E+03  0.28658624732E+04  0.26943344432E+04 0.  0.
        4    1    3    3  502    0 -0.12852779903E+04  0.37117523226E+03 -0.65697009406E+03  0.14904099714E+04  0.12699999809E+01 0.  1.
       -4    1    3    3    0  502  0.12852779903E+04 -0.37117523226E+03 -0.31962072281E+03  0.13754525018E+04  0.12699999809E+01 0. -1.
</event>
<event>
 5   0  0.4655882E-06  0.2790691E+04  0.7818609E-02  0.8306164E-01
       -2   -1    0    0    0  501  0.00000000000E+00  0.00000000000E+00  0.59809920895E+03  0.59809920895E+03  0.25500000920E-02 0. -1.
        2   -1    0    0  501    0  0.00000000000E+00  0.00000000000E+00 -0.32552936324E+04  0.32552936324E+04  0.25500000920E-02 0.  1.
    10030    2    1    2    0    0  0.00000000000E+00  0.00000000000E+00 -0.26571944235E+04  0.38533928414E+04  0.27906906288E+04 0.  0.
        1    1    3    3  502    0  0.13623001956E+03  0.64727888969E+03 -0.30250523987E+04  0.30965255682E+04  0.50400001928E-02 0.  1.
       -1    1    3    3    0  502 -0.13623001956E+03 -0.64727888969E+03  0.36785797525E+03  0.75686727321E+03  0.50400001928E-02 0. -1.
</event>
<event>
 5   0  0.1482875E-06  0.2766413E+04  0.7818609E-02  0.8313772E-01
        4   -1    0    0  501    0  0.00000000000E+00  0.00000000000E+00  0.90883493635E+03  0.90883582369E+03  0.12699999809E+01 0.  1.
       -4   -1    0    0    0  501  0.00000000000E+00  0.00000000000E+00 -0.21051776167E+04  0.21051779998E+04  0.12699999809E+01 0. -1.
    10030    2    1    2    0    0  0.00000000000E+00  0.00000000000E+00 -0.11963426803E+04  0.30140138235E+04  0.27664134758E+04 0.  0.
        4    1    3    3  502    0  0.13090362805E+04  0.18669233093E+03 -0.15584245715E+03  0.13314347503E+04  0.12699999809E+01 0.  1.
       -4    1    3    3    0  502 -0.13090362805E+04 -0.18669233093E+03 -0.10405002232E+04  0.16825790731E+04  0.12699999809E+01 0. -1.
</event>
<event>
 5   0  0.4439357E-06  0.2702138E+04  0.7818609E-02  0.8334311E-01
       -2   -1    0    0    0  501  0.00000000000E+00  0.00000000000E+00  0.12931448936E+04  0.12931448936E+04  0.25500000920E-02 0.  1.
        2   -1    0    0  501    0  0.00000000000E+00  0.00000000000E+00 -0.14115880367E+04  0.14115880367E+04  0.25500000920E-02 0. -1.
    10030    2    1    2    0    0  0.00000000000E+00  0.00000000000E+00 -0.11844314311E+03  0.27047329304E+04  0.27021383100E+04 0.  0.
        4    1    3    3  502    0 -0.72041251025E+03  0.86815012065E+03  0.68493524785E+03  0.13197790435E+04  0.12699999809E+01 0.  1.
       -4    1    3    3    0  502  0.72041251025E+03 -0.86815012065E+03 -0.80337839095E+03  0.13849538869E+04  0.12699999809E+01 0. -1.
</event>
<event>
 5   0  0.1482875E-06  0.2697786E+04  0.7818609E-02  0.8335724E-01
        3   -1    0    0  501    0  0.00000000000E+00  0.00000000000E+00  0.18181342427E+04  0.18181342455E+04  0.10100000352E+00 0.  1.
       -3   -1    0    0    0  501  0.00000000000E+00  0.00000000000E+00 -0.10007576682E+04  0.10007576733E+04  0.10100000352E+00 0. -1.
    10030    2    1    2    0    0  0.00000000000E+00  0.00000000000E+00  0.81737657456E+03  0.28188919188E+04  0.26977856077E+04 0.  0.
        2    1    3    3  502    0 -0.24736726561E+03 -0.33202206339E+03  0.17500950016E+04  0.17984053295E+04  0.25500000920E-02 0.  1.
       -2    1    3    3    0  502  0.24736726561E+03  0.33202206339E+03 -0.93271842705E+03  0.10204865892E+04  0.25500000920E-02 0. -1.
</event>
<event>
 5   0  0.1753474E-06  0.2702776E+04  0.7818609E-02  0.8334105E-01
       -1   -1    0    0    0  501  0.00000000000E+00  0.00000000000E+00  0.76021476633E+03  0.76021476635E+03  0.50400001928E-02 0. -1.
        1   -1    0    0  501    0  0.00000000000E+00  0.00000000000E+00 -0.24022816542E+04  0.24022816542E+04  0.50400001928E-02 0.  1.
    10030    2    1    2    0    0  0.00000000000E+00  0.00000000000E+00 -0.16420668879E+04  0.31624964206E+04  0.27027763403E+04 0.  0.
        3    1    3    3  502    0 -0.10180863792E+03  0.34889181448E+03  0.70195665220E+03  0.79046419827E+03  0.10100000352E+00 0. -1.
       -3    1    3    3    0  502  0.10180863792E+03 -0.34889181448E+03 -0.23440235401E+04  0.23720322223E+04  0.10100000352E+00 0.  1.
</event>
<event>
 5   0  0.1771016E-06  0.2706662E+04  0.7818609E-02  0.8332847E-01
        1   -1    0    0  501    0  0.00000000000E+00  0.00000000000E+00  0.23489140710E+04  0.23489140710E+04  0.50400001928E-02 0. -1.
       -1   -1    0    0    0  501  0.00000000000E+00  0.00000000000E+00 -0.77972388152E+03  0.77972388154E+03  0.50400001928E-02 0.  1.
    10030    2    1    2    0    0  0.00000000000E+00  0.00000000000E+00  0.15691901895E+04  0.31286379526E+04  0.27066617054E+04 0.  0.
        2    1    3    3  502    0  0.11327413303E+04 -0.62298887216E+03  0.12473697732E+04  0.17964268444E+04  0.25500000920E-02 0. -1.
       -2    1    3    3    0  502 -0.11327413303E+04  0.62298887216E+03  0.32182041633E+03  0.13322111081E+04  0.25500000920E-02 0.  1.
</event>
<event>
 5   0  0.1771016E-06  0.2710647E+04  0.7818609E-02  0.8331559E-01
        1   -1    0    0  501    0  0.00000000000E+00  0.00000000000E+00  0.21743765718E+04  0.21743765718E+04  0.50400001928E-02 0.  1.
       -1   -1    0    0    0  501  0.00000000000E+00  0.00000000000E+00 -0.84479459055E+03  0.84479459056E+03  0.50400001928E-02 0. -1.
    10030    2    1    2    0    0  0.00000000000E+00  0.00000000000E+00  0.13295819813E+04  0.30191711624E+04  0.27106468348E+04 0.  0.
        2    1    3    3  502    0 -0.78206509158E+03  0.98083138813E+01  0.18976535603E+04  0.20525133484E+04  0.25500000920E-02 0.  1.
       -2    1    3    3    0  502  0.78206509158E+03 -0.98083138813E+01 -0.56807157900E+03  0.96665781400E+03  0.25500000920E-02 0. -1.
</event>
<event>
 5   0  0.1732312E-06  0.2696577E+04  0.7818609E-02  0.8336116E-01
       -1   -1    0    0    0  501  0.00000000000E+00  0.00000000000E+00  0.14220758593E+04  0.14220758593E+04  0.50400001928E-02 0.  1.
        1   -1    0    0  501    0  0.00000000000E+00  0.00000000000E+00 -0.12783298897E+04  0.12783298897E+04  0.50400001928E-02 0. -1.
    10030    2    1    2    0    0  0.00000000000E+00  0.00000000000E+00  0.14374596964E+03  0.27004057490E+04  0.26965771463E+04 0.  0.
        5    1    3    3  502    0  0.53303731663E+03  0.10811337841E+03 -0.11635895870E+04  0.12844376593E+04  0.46999998093E+01 0. -1.
       -5    1    3    3    0  502 -0.53303731663E+03 -0.10811337841E+03  0.13073355567E+04  0.14159680898E+04  0.46999998093E+01 0.  1.
</event>
<event>
 5   0  0.4655882E-06  0.2704562E+04  0.7818609E-02  0.8333526E-01
       -2   -1    0    0    0  501  0.00000000000E+00  0.00000000000E+00  0.96351452930E+03  0.96351452931E+03  0.25500000920E-02 0. -1.
        2   -1    0    0  501    0  0.00000000000E+00  0.00000000000E+00 -0.18979099682E+04  0.18979099682E+04  0.25500000920E-02 0.  1.
    10030    2    1    2    0    0  0.00000000000E+00  0.00000000000E+00 -0.93439543885E+03  0.28614244975E+04  0.27045619458E+04 0.  0.
        1    1    3    3  502    0  0.84208407867E+03  0.75806655209E+03  0.31378442807E+03  0.11756832738E+04  0.50400001928E-02 0.  1.
       -1    1    3    3    0  502 -0.84208407867E+03 -0.75806655209E+03 -0.12481798669E+04  0.16857412237E+04  0.50400001928E-02 0. -1.
</event>
<event>
 5   0  0.1828511E-06  0.2664117E+04  0.7818609E-02  0.8346743E-01
       -1   -1    0    0    0  501  0.00000000000E+00  0.00000000000E+00  0.15077401679E+04  0.15077401679E+04  0.50400001928E-02 0. -1.
        1   -1    0    0  501    0  0.00000000000E+00  0.00000000000E+00 -0.11768470803E+04  0.11768470803E+04  0.50400001928E-02 0.  1.
    10030    2    1    2    0    0  0.00000000000E+00  0.00000000000E+00  0.33089308764E+03  0.26845872482E+04  0.26641168251E+04 0.  0.
        4    1    3    3  502    0  0.90769225108E+03  0.71050470160E+03 -0.50725753739E+03  0.12593784085E+04  0.12699999809E+01 0. -1.
       -4    1    3    3    0  502 -0.90769225108E+03 -0.71050470160E+03  0.83815062503E+03  0.14252088397E+04  0.12699999809E+01 0.  1.
</event>
<event>
 5   0  0.1723605E-06  0.2701609E+04  0.7818609E-02  0.8334483E-01
       -1   -1    0    0    0  501  0.00000000000E+00  0.00000000000E+00  0.17888815798E+04  0.17888815798E+04  0.50400001928E-02 0. -1.
        1   -1    0    0  501    0  0.00000000000E+00  0.00000000000E+00 -0.10200078657E+04  0.10200078657E+04  0.50400001928E-02 0.  1.
    10030    2    1    2    0    0  0.00000000000E+00  0.00000000000E+00  0.76887371409E+03  0.28088894456E+04  0.27016093591E+04 0.  0.
        1    1    3    3  502    0  0.75408931099E+03  0.17393861478E+03 -0.76667154860E+03  0.10893532917E+04  0.50400001928E-02 0.  1.
       -1    1    3    3    0  502 -0.75408931099E+03 -0.17393861478E+03  0.15355452627E+04  0.17195361539E+04  0.50400001928E-02 0. -1.
</event>
<event>
 5   0  0.4439357E-06  0.2683327E+04  0.7818609E-02  0.8340435E-01
       -2   -1    0    0    0  501  0.00000000000E+00  0.00000000000E+00  0.13101667597E+04  0.13101667597E+04  0.25500000920E-02 0. -1.
        2   -1    0    0  501    0  0.00000000000E+00  0.00000000000E+00 -0.13739173255E+04  0.13739173255E+04  0.25500000920E-02 0.  1.
    10030    2    1    2    0    0  0.00000000000E+00  0.00000000000E+00 -0.63750565853E+02  0.26840840852E+04  0.26833268981E+04 0.  0.
        4    1    3    3  502    0  0.57957240390E+03  0.38808948118E+03  0.11145465424E+04  0.13148129999E+04  0.12699999809E+01 0. -1.
       -4    1    3    3    0  502 -0.57957240390E+03 -0.38808948118E+03 -0.11782971082E+04  0.13692710853E+04  0.12699999809E+01 0.  1.
</event>
<event>
 5   0  0.1732312E-06  0.2700826E+04  0.7818609E-02  0.8334737E-01
        1   -1    0    0  501    0  0.00000000000E+00  0.00000000000E+00  0.12159397099E+04  0.12159397099E+04  0.50400001928E-02 0.  1.
       -1   -1    0    0    0  501  0.00000000000E+00  0.00000000000E+00 -0.14997583333E+04  0.14997583333E+04  0.50400001928E-02 0. -1.
    10030    2    1    2    0    0  0.00000000000E+00  0.00000000000E+00 -0.28381862343E+03  0.27156980432E+04  0.27008263274E+04 0.  0.
        5    1    3    3  502    0 -0.10786948855E+04 -0.67247755854E+03 -0.60025358853E+03  0.14057507543E+04  0.46999998093E+01 0.  1.
       -5    1    3    3    0  502  0.10786948855E+04  0.67247755854E+03  0.31643496510E+03  0.13099472889E+04  0.46999998093E+01 0. -1.
</event>
<event>
 5   0  0.1482875E-06  0.2761111E+04  0.7818609E-02  0.8315445E-01
        3   -1    0    0  501    0  0.00000000000E+00  0.00000000000E+00  0.23443207701E+04  0.23443207723E+04  0.10100000352E+00 0. -1.
       -3   -1    0    0    0  501  0.00000000000E+00  0.00000000000E+00 -0.81300003336E+03  0.81300003963E+03  0.10100000352E+00 0.  1.
    10030    2    1    2    0    0  0.00000000000E+00  0.00000000000E+00  0.15313207368E+04  0.31573208119E+04  0.27611105575E+04 0.  0.
        4    1    3    3  502    0  0.12455691092E+04 -0.51233257445E+03  0.11125079923E+04  0.17468837164E+04  0.12699999809E+01 0.  1.
       -4    1    3    3    0  502 -0.12455691092E+04  0.51233257445E+03  0.41881274449E+03  0.14104370956E+04  0.12699999809E+01 0. -1.
</event>
<event>
 5   0  0.1828511E-06  0.2703211E+04  0.7818609E-02  0.8333964E-01
        1   -1    0    0  501    0  0.00000000000E+00  0.00000000000E+00  0.11328265390E+04  0.11328265390E+04  0.50400001928E-02 0.  1.
       -1   -1    0    0    0  501  0.00000000000E+00  0.00000000000E+00 -0.16126363419E+04  0.16126363419E+04  0.50400001928E-02 0. -1.
    10030    2    1    2    0    0  0.00000000000E+00  0.00000000000E+00 -0.47980980294E+03  0.27454628809E+04  0.27032108656E+04 0.  0.
        4    1    3    3  502    0  0.56103304518E+03 -0.10318977008E+04  0.43932681791E+03  0.12540257608E+04  0.12699999809E+01 0.  1.
       -4    1    3    3    0  502 -0.56103304518E+03  0.10318977008E+04 -0.91913662086E+03  0.14914371202E+04  0.12699999809E+01 0. -1.
</event>
<event>
 5   0  0.4655882E-06  0.2715398E+04  0.7818609E-02  0.8330026E-01
       -2   -1    0    0    0  501  0.00000000000E+00  0.00000000000E+00  0.15842553489E+04  0.15842553489E+04  0.25500000920E-02 0.  1.
        2   -1    0    0  501    0  0.00000000000E+00  0.00000000000E+00 -0.11635416643E+04  0.11635416643E+04  0.25500000920E-02 0. -1.
    10030    2    1    2    0    0  0.00000000000E+00  0.00000000000E+00  0.42071368458E+03  0.27477970132E+04  0.27153983909E+04 0.  0.
        1    1    3    3  502    0  0.12461034157E+04  0.45534326568E+03  0.50230545278E+03  0.14185985973E+04  0.50400001928E-02 0.  1.
       -1    1    3    3    0  502 -0.12461034157E+04 -0.45534326568E+03 -0.81591768197E+02  0.13291984159E+04  0.50400001928E-02 0. -1.
</event>
<event>
 5   0  0.1828511E-06  0.2708159E+04  0.7818609E-02  0.8332362E-01
       -1   -1    0    0    0  501  0.00000000000E+00  0.00000000000E+00  0.19442245550E+04  0.19442245550E+04  0.50400001928E-02 0. -1.
        1   -1    0    0  501    0  0.00000000000E+00  0.00000000000E+00 -0.94306573963E+03  0.94306573964E+03  0.50400001928E-02 0.  1.
    10030    2    1    2    0    0  0.00000000000E+00  0.00000000000E+00  0.10011588154E+04  0.28872902947E+04  0.27081592036E+04 0.  0.
        4    1    3    3  502    0  0.70894761265E+03 -0.12038367670E+03  0.17238296522E+04  0.18678033167E+04  0.12699999809E+01 0. -1.
       -4    1    3    3    0  502 -0.70894761265E+03  0.12038367670E+03 -0.72267083678E+03  0.10194869780E+04  0.12699999809E+01 0.  1.
</event>
<event>
 5   0  0.4655882E-06  0.2676188E+04  0.7818609E-02  0.8342773E-01
        2   -1    0    0  501    0  0.00000000000E+00  0.00000000000E+00  0.11813019692E+04  0.11813019692E+04  0.25500000920E-02 0.  1.
       -2   -1    0    0    0  501  0.00000000000E+00  0.00000000000E+00 -0.15156972367E+04  0.15156972367E+04  0.25500000920E-02 0. -1.
    10030    2    1    2    0    0  0.00000000000E+00  0.00000000000E+00 -0.33439526755E+03  0.26969992059E+04  0.26761884317E+04 0.  0.
        1    1    3    3  502    0 -0.11811917419E+03 -0.10023365644E+04  0.71819298701E+03  0.12387218793E+04  0.50400001928E-02 0.  1.
       -1    1    3    3    0  502  0.11811917419E+03  0.10023365644E+04 -0.10525882546E+04  0.14582773266E+04  0.50400001928E-02 0. -1.
</event>
<event>
 5   0  0.4487186E-06  0.2684535E+04  0.7818609E-02  0.8340040E-01
        2   -1    0    0  501    0  0.00000000000E+00  0.00000000000E+00  0.13437896138E+04  0.13437896138E+04  0.25500000920E-02 0. -1.
       -2   -1    0    0    0  501  0.00000000000E+00  0.00000000000E+00 -0.13407471110E+04  0.13407471110E+04  0.25500000920E-02 0.  1.
    10030    2    1    2    0    0  0.00000000000E+00  0.00000000000E+00  0.30425027658E+01  0.26845367248E+04  0.26845350007E+04 0.  0.
        3    1    3    3  502    0 -0.21189486976E+03 -0.75469607046E+03  0.10911165720E+04  0.13435032484E+04  0.10100000352E+00 0. -1.
       -3    1    3    3    0  502  0.21189486976E+03  0.75469607046E+03 -0.10880740692E+04  0.13410334764E+04  0.10100000352E+00 0.  1.
</event>
<event>
 5   0  0.4487186E-06  0.2702329E+04  0.7818609E-02  0.8334250E-01
        2   -1    0    0  501    0  0.00000000000E+00  0.00000000000E+00  0.21537027232E+04  0.21537027232E+04  0.25500000920E-02 0.  1.
       -2   -1    0    0    0  501  0.00000000000E+00  0.00000000000E+00 -0.84767745834E+03  0.84767745834E+03  0.25500000920E-02 0. -1.
    10030    2    1    2    0    0  0.00000000000E+00  0.00000000000E+00  0.13060252649E+04  0.30013801816E+04  0.27023288108E+04 0.  0.
        3    1    3    3  502    0  0.31554135744E+02 -0.10253118577E+04 -0.32373133903E+03  0.10756681919E+04  0.10100000352E+00 0. -1.
       -3    1    3    3    0  502 -0.31554135744E+02  0.10253118577E+04  0.16297566039E+04  0.19257119897E+04  0.10100000352E+00 0.  1.
</event>
<event>
 5   0  0.1723605E-06  0.2699768E+04  0.7818609E-02  0.8335080E-01
        1   -1    0    0  501    0  0.00000000000E+00  0.00000000000E+00  0.90486522453E+03  0.90486522455E+03  0.50400001928E-02 0. -1.
       -1   -1    0    0    0  501  0.00000000000E+00  0.00000000000E+00 -0.20137662673E+04  0.20137662673E+04  0.50400001928E-02 0.  1.
    10030    2    1    2    0    0  0.00000000000E+00  0.00000000000E+00 -0.11089010428E+04  0.29186314919E+04  0.26997681868E+04 0.  0.
        1    1    3    3  502    0  0.37830886004E+03 -0.40441719819E+03 -0.18853126920E+04  0.19649617834E+04  0.50400001928E-02 0.  1.
       -1    1    3    3    0  502 -0.37830886004E+03  0.40441719819E+03  0.77641164919E+03  0.95366970844E+03  0.50400001928E-02 0. -1.
</event>
<event>
 5   0  0.1732312E-06  0.2693322E+04  0.7818609E-02  0.8337175E-01
        1   -1    0    0  501    0  0.00000000000E+00  0.00000000000E+00  0.25431007323E+04  0.25431007323E+04  0.50400001928E-02 0. -1.
       -1   -1    0    0    0  501  0.00000000000E+00  0.00000000000E+00 -0.71310431735E+03  0.71310431737E+03  0.50400001928E-02 0.  1.
    10030    2    1    2    0    0  0.00000000000E+00  0.00000000000E+00  0.18299964150E+04  0.32562050497E+04  0.26933221951E+04 0.  0.
        5    1    3    3  502    0 -0.56690634632E+03 -0.34369589773E+03 -0.50213660558E+03  0.83166876596E+03  0.46999998093E+01 0.  1.
       -5    1    3    3    0  502  0.56690634632E+03  0.34369589773E+03  0.23321330206E+04  0.24245362837E+04  0.46999998093E+01 0. -1.
</event>
<event>
 5   0  0.4487186E-06  0.2659086E+04  0.7818609E-02  0.8348403E-01
        2   -1    0    0  501    0  0.00000000000E+00  0.00000000000E+00  0.24056005696E+04  0.24056005696E+04  0.25500000920E-02 0. -1.
       -2   -1    0    0    0  501  0.00000000000E+00  0.00000000000E+00 -0.73482058715E+03  0.73482058715E+03  0.25500000920E-02 0.  1.
    10030    2    1    2    0    0  0.00000000000E+00  0.00000000000E+00  0.16707799825E+04  0.31404211568E+04  0.26590861761E+04 0.  0.
        3    1    3    3  502    0  0.10985372581E+04  0.12592487055E+03  0.17072989046E+04  0.20340872008E+04  0.10100000352E+00 0. -1.
       -3    1    3    3    0  502 -0.10985372581E+04 -0.12592487055E+03 -0.36518922118E+02  0.11063339560E+04  0.10100000352E+00 0.  1.
</event>
<event>
 5   0  0.1732312E-06  0.2699810E+04  0.7818609E-02  0.8335067E-01
        1   -1    0    0  501    0  0.00000000000E+00  0.00000000000E+00  0.11500645203E+04  0.11500645203E+04  0.50400001928E-02 0. -1.
       -1   -1    0    0    0  501  0.00000000000E+00  0.00000000000E+00 -0.15844704531E+04  0.15844704531E+04  0.50400001928E-02 0.  1.
    10030    2    1    2    0    0  0.00000000000E+00  0.00000000000E+00 -0.43440593286E+03  0.27345349734E+04  0.26998098093E+04 0.  0.
        5    1    3    3  502    0  0.91679905983E+03 -0.41932729350E+03  0.69204330758E+03  0.12228253860E+04  0.46999998093E+01 0. -1.
       -5    1    3    3    0  502 -0.91679905983E+03  0.41932729350E+03 -0.11264492404E+04  0.15117095873E+04  0.46999998093E+01 0.  1.
</event>
<event>
 5   0  0.4448804E-06  0.2697028E+04  0.7818609E-02  0.8335970E-01
       -2   -1    0    0    0  501  0.00000000000E+00  0.00000000000E+00  0.89980656240E+03  0.89980656241E+03  0.25500000920E-02 0. -1.
        2   -1    0    0  501    0  0.00000000000E+00  0.00000000000E+00 -0.20209787409E+04  0.20209787409E+04  0.25500000920E-02 0.  1.
    10030    2    1    2    0    0  0.00000000000E+00  0.00000000000E+00 -0.11211721785E+04  0.29207853033E+04  0.26970279447E+04 0.  0.
        2    1    3    3  502    0 -0.80303794351E+03  0.63457386165E+03  0.39028874589E+03  0.10953899898E+04  0.25500000920E-02 0. -1.
       -2    1    3    3    0  502  0.80303794351E+03 -0.63457386165E+03 -0.15114609244E+04  0.18253953135E+04  0.25500000920E-02 0.  1.
</event>
<event>
 5   0  0.1753474E-06  0.2700118E+04  0.7818609E-02  0.8334967E-01
       -1   -1    0    0    0  501  0.00000000000E+00  0.00000000000E+00  0.17183540398E+04  0.17183540398E+04  0.50400001928E-02 0. -1.
        1   -1    0    0  501    0  0.00000000000E+00  0.00000000000E+00 -0.10607003012E+04  0.10607003012E+04  0.50400001928E-02 0.  1.
    10030    2    1    2    0    0  0.00000000000E+00  0.00000000000E+00  0.65765373861E+03  0.27790543410E+04  0.27001175142E+04 0.  0.
        3    1    3    3  502    0 -0.27038468459E+03  0.10517079212E+04  0.11544380356E+04  0.15849052393E+04  0.10100000352E+00 0. -1.
       -3    1    3    3    0  502  0.27038468459E+03 -0.10517079212E+04 -0.49678429698E+03  0.11941491017E+04  0.10100000352E+00 0.  1.
</event>
<event>
 5   0  0.1753474E-06  0.2696875E+04  0.7818609E-02  0.8336020E-01
       -1   -1    0    0    0  501  0.00000000000E+00  0.00000000000E+00  0.11761314533E+04  0.11761314533E+04  0.50400001928E-02 0. -1.
        1   -1    0    0  501    0  0.00000000000E+00  0.00000000000E+00 -0.15459870747E+04  0.15459870747E+04  0.50400001928E-02 0.  1.
    10030    2    1    2    0    0  0.00000000000E+00  0.00000000000E+00 -0.36985562137E+03  0.27221185280E+04  0.26968752474E+04 0.  0.
        3    1    3    3  502    0 -0.84997023599E+03 -0.24936096827E+03 -0.12111318278E+04  0.15004901229E+04  0.10100000352E+00 0.  1.
       -3    1    3    3    0  502  0.84997023599E+03  0.24936096827E+03  0.84127620639E+03  0.12216284051E+04  0.10100000352E+00 0. -1.
</event>
<event>
 5   0  0.1828511E-06  0.2714545E+04  0.7818609E-02  0.8330301E-01
       -1   -1    0    0    0  501  0.00000000000E+00  0.00000000000E+00  0.14122448358E+04  0.14122448358E+04  0.50400001928E-02 0.  1.
        1   -1    0    0  501    0  0.00000000000E+00  0.00000000000E+00 -0.13044397938E+04  0.13044397939E+04  0.50400001928E-02 0. -1.
    10030    2    1    2    0    0  0.00000000000E+00  0.00000000000E+00  0.10780504192E+03  0.27166846296E+04  0.27145447960E+04 0.  0.
        4    1    3    3  502    0  0.28357889241E+03 -0.64817746621E+03 -0.11053005452E+04  0.13123421520E+04  0.12699999809E+01 0. -1.
       -4    1    3    3    0  502 -0.28357889241E+03  0.64817746621E+03  0.12131055871E+04  0.14043424776E+04  0.12699999809E+01 0.  1.
</event>
<event>
 5   0  0.4439357E-06  0.2700851E+04  0.7818609E-02  0.8334729E-01
        2   -1    0    0  501    0  0.00000000000E+00  0.00000000000E+00  0.10377649233E+04  0.10377649233E+04  0.25500000920E-02 0. -1.
       -2   -1    0    0    0  501  0.00000000000E+00  0.00000000000E+00 -0.17572851319E+04  0.17572851320E+04  0.25500000920E-02 0.  1.
    10030    2    1    2    0    0  0.00000000000E+00  0.00000000000E+00 -0.71952020866E+03  0.27950500552E+04  0.27008508809E+04 0.  0.
        4    1    3    3  502    0  0.77680547935E+03 -0.10658619001E+04 -0.59540501643E+02  0.13202405186E+04  0.12699999809E+01 0. -1.
       -4    1    3    3    0  502 -0.77680547935E+03  0.10658619001E+04 -0.65997970702E+03  0.14748095366E+04  0.12699999809E+01 0.  1.
</event>
<event>
 5   0  0.1732312E-06  0.2698206E+04  0.7818609E-02  0.8335587E-01
       -1   -1    0    0    0  501  0.00000000000E+00  0.00000000000E+00  0.14372048829E+04  0.14372048829E+04  0.50400001928E-02 0.  1.
        1   -1    0    0  501    0  0.00000000000E+00  0.00000000000E+00 -0.12664022979E+04  0.12664022979E+04  0.50400001928E-02 0. -1.
    10030    2    1    2    0    0  0.00000000000E+00  0.00000000000E+00  0.17080258504E+03  0.27036071808E+04  0.26982064904E+04 0.  0.
        5    1    3    3  502    0 -0.36781678991E+03 -0.12665292258E+04  0.36999797655E+03  0.13697832176E+04  0.46999998093E+01 0.  1.
       -5    1    3    3    0  502  0.36781678991E+03  0.12665292258E+04 -0.19919539151E+03  0.13338239631E+04  0.46999998093E+01 0. -1.
</event>
<event>
 5   0  0.1732312E-06  0.2699272E+04  0.7818609E-02  0.8335241E-01
        1   -1    0    0  501    0  0.00000000000E+00  0.00000000000E+00  0.14545375145E+04  0.14545375145E+04  0.50400001928E-02 0. -1.
       -1   -1    0    0    0  501  0.00000000000E+00  0.00000000000E+00 -0.12522999651E+04  0.12522999651E+04  0.50400001928E-02 0.  1.
    10030    2    1    2    0    0  0.00000000000E+00  0.00000000000E+00  0.20223754944E+03  0.27068374796E+04  0.26992719601E+04 0.  0.
        5    1    3    3  502    0 -0.35289851907E+03  0.10815934254E+04  0.82917949618E+03  0.14078147710E+04  0.46999998093E+01 0. -1.
       -5    1    3    3    0  502  0.35289851907E+03 -0.10815934254E+04 -0.62694194674E+03  0.12990227085E+04  0.46999998093E+01 0.  1.
</event>
<event>
 5   0  0.1828511E-06  0.2703301E+04  0.7818609E-02  0.8333935E-01
       -1   -1    0    0    0  501  0.00000000000E+00  0.00000000000E+00  0.14374796766E+04  0.14374796766E+04  0.50400001928E-02 0. -1.
        1   -1    0    0  501    0  0.00000000000E+00  0.00000000000E+00 -0.12709460539E+04  0.12709460539E+04  0.50400001928E-02 0.  1.
    10030    2    1    2    0    0  0.00000000000E+00  0.00000000000E+00  0.16653362268E+03  0.27084257306E+04  0.27033010358E+04 0.  0.
        4    1    3    3  502    0  0.41199613697E+03  0.12853548543E+04  0.11860450028E+02  0.13498222852E+04  0.12699999809E+01 0.  1.
       -4    1    3    3    0  502 -0.41199613697E+03 -0.12853548543E+04  0.15467317266E+03  0.13586034453E+04  0.12699999809E+01 0. -1.
</event>
<event>
 5   0  0.4448804E-06  0.2698394E+04  0.7818609E-02  0.8335526E-01
       -2   -1    0    0    0  501  0.00000000000E+00  0.00000000000E+00  0.80415397294E+03  0.80415397294E+03  0.25500000920E-02 0. -1.
        2   -1    0    0  501    0  0.00000000000E+00  0.00000000000E+00 -0.22636616750E+04  0.22636616750E+04  0.25500000920E-02 0.  1.
    10030    2    1    2    0    0  0.00000000000E+00  0.00000000000E+00 -0.14595077021E+04  0.30678156480E+04  0.26983939885E+04 0.  0.
        2    1    3    3  502    0  0.74793666624E+03  0.10909653940E+03 -0.20003537184E+04  0.21383933946E+04  0.25500000920E-02 0.  1.
       -2    1    3    3    0  502 -0.74793666624E+03 -0.10909653940E+03  0.54084601629E+03  0.92942225332E+03  0.25500000920E-02 0. -1.
</event>
<event>
 5   0  0.4439357E-06  0.2698196E+04  0.7818609E-02  0.8335590E-01
        2   -1    0    0  501    0  0.00000000000E+00  0.00000000000E+00  0.15806430480E+04  0.15806430480E+04  0.25500000920E-02 0. -1.
       -2   -1    0    0    0  501  0.00000000000E+00  0.00000000000E+00 -0.11514717891E+04  0.11514717891E+04  0.25500000920E-02 0.  1.
    10030    2    1    2    0    0  0.00000000000E+00  0.00000000000E+00  0.42917125892E+03  0.27321148371E+04  0.26981963445E+04 0.  0.
        4    1    3    3  502    0  0.20008380949E+03 -0.62195542953E+03 -0.98059204656E+03  0.11783142458E+04  0.12699999809E+01 0.  1.
       -4    1    3    3    0  502 -0.20008380949E+03  0.62195542953E+03  0.14097633055E+04  0.15538005913E+04  0.12699999809E+01 0. -1.
</event>
<event>
 5   0  0.4439357E-06  0.2760976E+04  0.7818609E-02  0.8315487E-01
        2   -1    0    0  501    0  0.00000000000E+00  0.00000000000E+00  0.67890639677E+03  0.67890639678E+03  0.25500000920E-02 0.  1.
       -2   -1    0    0    0  501  0.00000000000E+00  0.00000000000E+00 -0.28070844704E+04  0.28070844704E+04  0.25500000920E-02 0. -1.
    10030    2    1    2    0    0  0.00000000000E+00  0.00000000000E+00 -0.21281780737E+04  0.34859908672E+04  0.27609763514E+04 0.  0.
        4    1    3    3  502    0  0.24466872332E+03 -0.10597004122E+03  0.64608611398E+03  0.69894299723E+03  0.12699999809E+01 0.  1.
       -4    1    3    3    0  502 -0.24466872332E+03  0.10597004122E+03 -0.27742641877E+04  0.27870478700E+04  0.12699999809E+01 0. -1.
</event>
<event>
 5   0  0.1828511E-06  0.2693761E+04  0.7818609E-02  0.8337032E-01
        1   -1    0    0  501    0  0.00000000000E+00  0.00000000000E+00  0.28215760852E+04  0.28215760852E+04  0.50400001928E-02 0. -1.
       -1   -1    0    0    0  501  0.00000000000E+00  0.00000000000E+00 -0.64293406886E+03  0.64293406888E+03  0.50400001928E-02 0.  1.
    10030    2    1    2    0    0  0.00000000000E+00  0.00000000000E+00  0.21786420164E+04  0.34645101541E+04  0.26937612315E+04 0.  0.
        4    1    3    3  502    0 -0.16444893111E+03  0.10906543461E+04  0.20834833342E+04  0.23574296957E+04  0.12699999809E+01 0. -1.
       -4    1    3    3    0  502  0.16444893111E+03 -0.10906543461E+04  0.95158682187E+02  0.11070804584E+04  0.12699999809E+01 0.  1.
</event>
<event>
 5   0  0.4448804E-06  0.2677718E+04  0.7818609E-02  0.8342271E-01
       -2   -1    0    0    0  501  0.00000000000E+00  0.00000000000E+00  0.16337694539E+04  0.16337694539E+04  0.25500000920E-02 0.  1.
        2   -1    0    0  501    0  0.00000000000E+00  0.00000000000E+00 -0.10971829600E+04  0.10971829600E+04  0.25500000920E-02 0. -1.
    10030    2    1    2    0    0  0.00000000000E+00  0.00000000000E+00  0.53658649390E+03  0.27309524140E+04  0.26777184359E+04 0.  0.
        2    1    3    3  502    0  0.84568708786E+03 -0.67208638915E+03 -0.53841679203E+03  0.12069711707E+04  0.25500000920E-02 0. -1.
       -2    1    3    3    0  502 -0.84568708786E+03  0.67208638915E+03  0.10750032859E+04  0.15239812433E+04  0.25500000920E-02 0.  1.
</event>
<event>
 5   0  0.4439357E-06  0.2701447E+04  0.7818609E-02  0.8334536E-01
       -2   -1    0    0    0  501  0.00000000000E+00  0.00000000000E+00  0.15594166998E+04  0.15594166998E+04  0.25500000920E-02 0.  1.
        2   -1    0    0  501    0  0.00000000000E+00  0.00000000000E+00 -0.11699594684E+04  0.11699594684E+04  0.25500000920E-02 0. -1.
    10030    2    1    2    0    0  0.00000000000E+00  0.00000000000E+00  0.38945723141E+03  0.27293761682E+04  0.27014472662E+04 0.  0.
        4    1    3    3  502    0 -0.12096345865E+04  0.60021407090E+03  0.16310072224E+03  0.13601750705E+04  0.12699999809E+01 0. -1.
       -4    1    3    3    0  502  0.12096345865E+04 -0.60021407090E+03  0.22635650917E+03  0.13692010977E+04  0.12699999809E+01 0.  1.
</event>
<event>
 5   0  0.4401659E-06  0.2722798E+04  0.7818609E-02  0.8327645E-01
       -2   -1    0    0    0  501  0.00000000000E+00  0.00000000000E+00  0.67127052432E+03  0.67127052432E+03  0.25500000920E-02 0.  1.
        2   -1    0    0  501    0  0.00000000000E+00  0.00000000000E+00 -0.27610441637E+04  0.27610441637E+04  0.25500000920E-02 0. -1.
    10030    2    1    2    0    0  0.00000000000E+00  0.00000000000E+00 -0.20897736393E+04  0.34323146880E+04  0.27227982396E+04 0.  0.
        5    1    3    3  502    0  0.12911984168E+04 -0.42202445355E+03 -0.11582516428E+04  0.17851798086E+04  0.46999998093E+01 0. -1.
       -5    1    3    3    0  502 -0.12911984168E+04  0.42202445355E+03 -0.93152199651E+03  0.16471348794E+04  0.46999998093E+01 0.  1.
</event>
<event>
 5   0  0.1771016E-06  0.2703927E+04  0.7818609E-02  0.8333732E-01
        1   -1    0    0  501    0  0.00000000000E+00  0.00000000000E+00  0.14240948864E+04  0.14240948864E+04  0.50400001928E-02 0.  1.
       -1   -1    0    0    0  501  0.00000000000E+00  0.00000000000E+00 -0.12834856748E+04  0.12834856749E+04  0.50400001928E-02 0. -1.
    10030    2    1    2    0    0  0.00000000000E+00  0.00000000000E+00  0.14060921158E+03  0.27075805613E+04  0.27039270599E+04 0.  0.
        2    1    3    3  502    0 -0.13262140856E+04  0.22838239356E+03 -0.59497191418E+02  0.13470494550E+04  0.25500000920E-02 0.  1.
       -2    1    3    3    0  502  0.13262140856E+04 -0.22838239356E+03  0.20010640300E+03  0.13605311062E+04  0.25500000920E-02 0. -1.
</event>
<event>
 5   0  0.4401659E-06  0.2710060E+04  0.7818609E-02  0.8331748E-01
        2   -1    0    0  501    0  0.00000000000E+00  0.00000000000E+00  0.19612466476E+04  0.19612466476E+04  0.25500000920E-02 0. -1.
       -2   -1    0    0    0  501  0.00000000000E+00  0.00000000000E+00 -0.93619342992E+03  0.93619342992E+03  0.25500000920E-02 0.  1.
    10030    2    1    2    0    0  0.00000000000E+00  0.00000000000E+00  0.10250532177E+04  0.28974400775E+04  0.27100599447E+04 0.  0.
        5    1    3    3  502    0 -0.86948837370E+03 -0.90896765335E+03 -0.26147104105E+02  0.12581486351E+04  0.46999998093E+01 0.  1.
       -5    1    3    3    0  502  0.86948837370E+03  0.90896765335E+03  0.10512003218E+04  0.16392914425E+04  0.46999998093E+01 0. -1.
</event>
<event>
 5   0  0.1482875E-06  0.2700050E+04  0.7818609E-02  0.8334989E-01
        3   -1    0    0  501    0  0.00000000000E+00  0.00000000000E+00  0.20462892425E+04  0.20462892450E+04  0.10100000352E+00 0. -1.
       -3   -1    0    0    0  501  0.00000000000E+00  0.00000000000E+00 -0.89066927101E+03  0.89066927674E+03  0.10100000352E+00 0.  1.
    10030    2    1    2    0    0  0.00000000000E+00  0.00000000000E+00  0.11556199715E+04  0.29369585218E+04  0.27000495995E+04 0.  0.
        1    1    3    3  502    0  0.73979322510E+03 -0.42886998030E+03 -0.55852610621E+03  0.10213593331E+04  0.50400001928E-02 0.  1.
       -1    1    3    3    0  502 -0.73979322510E+03  0.42886998030E+03  0.17141460777E+04  0.19155991887E+04  0.50400001928E-02 0. -1.
</event>
<event>
 5   0  0.1771016E-06  0.2695278E+04  0.7818609E-02  0.8336539E-01
        1   -1    0    0  501    0  0.00000000000E+00  0.00000000000E+00  0.75007475370E+03  0.75007475372E+03  0.50400001928E-02 0.  1.
       -1   -1    0    0    0  501  0.00000000000E+00  0.00000000000E+00 -0.24212663993E+04  0.24212663993E+04  0.50400001928E-02 0. -1.
    10030    2    1    2    0    0  0.00000000000E+00  0.00000000000E+00 -0.16711916456E+04  0.31713411531E+04  0.26952779435E+04 0.  0.
        2    1    3    3  502    0  0.12624259465E+03 -0.60851982665E+03  0.57139679156E+03  0.84423211591E+03  0.25500000920E-02 0.  1.
       -2    1    3    3    0  502 -0.12624259465E+03  0.60851982665E+03 -0.22425884372E+04  0.23271090372E+04  0.25500000920E-02 0. -1.
</event>
<event>
 5   0  0.4655882E-06  0.2702984E+04  0.7818609E-02  0.8334038E-01
        2   -1    0    0  501    0  0.00000000000E+00  0.00000000000E+00  0.21026069777E+04  0.21026069777E+04  0.25500000920E-02 0. -1.
       -2   -1    0    0    0  501  0.00000000000E+00  0.00000000000E+00 -0.86869786422E+03  0.86869786423E+03  0.25500000920E-02 0.  1.
    10030    2    1    2    0    0  0.00000000000E+00  0.00000000000E+00  0.12339091134E+04  0.29713048419E+04  0.27029836779E+04 0.  0.
        1    1    3    3  502    0  0.11316481746E+04 -0.37547766879E+03 -0.82545782804E+02  0.11951673009E+04  0.50400001928E-02 0.  1.
       -1    1    3    3    0  502 -0.11316481746E+04  0.37547766879E+03  0.13164548962E+04  0.17761375410E+04  0.50400001928E-02 0. -1.
</event>
<event>
 5   0  0.1723605E-06  0.2699763E+04  0.7818609E-02  0.8335082E-01
       -1   -1    0    0    0  501  0.00000000000E+00  0.00000000000E+00  0.12400607893E+04  0.12400607893E+04  0.50400001928E-02 0. -1.
        1   -1    0    0  501    0  0.00000000000E+00  0.00000000000E+00 -0.14694278507E+04  0.14694278507E+04  0.50400001928E-02 0.  1.
    10030    2    1    2    0    0  0.00000000000E+00  0.00000000000E+00 -0.22936706142E+03  0.27094886400E+04  0.26997628491E+04 0.  0.
        1    1    3    3  502    0  0.92999083896E+03 -0.17898654883E+03  0.85068642661E+03  0.12730226006E+04  0.50400001928E-02 0.  1.
       -1    1    3    3    0  502 -0.92999083896E+03  0.17898654883E+03 -0.10800534880E+04  0.14364660394E+04  0.50400001928E-02 0. -1.
</event>
<event>
 5   0  0.4487186E-06  0.2697943E+04  0.7818609E-02  0.8335673E-01
       -2   -1    0    0    0  501  0.00000000000E+00  0.00000000000E+00  0.75083007012E+03  0.75083007013E+03  0.25500000920E-02 0. -1.
        2   -1    0    0  501    0  0.00000000000E+00  0.00000000000E+00 -0.24236165848E+04  0.24236165848E+04  0.25500000920E-02 0.  1.
    10030    2    1    2    0    0  0.00000000000E+00  0.00000000000E+00 -0.16727865147E+04  0.31744466549E+04  0.26979430760E+04 0.  0.
        3    1    3    3  502    0 -0.10813518741E+04  0.63970411288E+03 -0.14142321533E+04  0.18917176907E+04  0.10100000352E+00 0.  1.
       -3    1    3    3    0  502  0.10813518741E+04 -0.63970411288E+03 -0.25855436140E+03  0.12827289642E+04  0.10100000352E+00 0. -1.
</event>
<event>
 5   0  0.1732312E-06  0.2686322E+04  0.7818609E-02  0.8339457E-01
       -1   -1    0    0    0  501  0.00000000000E+00  0.00000000000E+00  0.11394722264E+04  0.11394722264E+04  0.50400001928E-02 0.  1.
        1   -1    0    0  501    0  0.00000000000E+00  0.00000000000E+00 -0.15832602991E+04  0.15832602991E+04  0.50400001928E-02 0. -1.
    10030    2    1    2    0    0  0.00000000000E+00  0.00000000000E+00 -0.44378807269E+03  0.27227325256E+04  0.26863217515E+04 0.  0.
        5    1    3    3  502    0  0.98742693147E+03  0.32748892974E+03 -0.10829964752E+04  0.15017204798E+04  0.46999998093E+01 0. -1.
       -5    1    3    3    0  502 -0.98742693147E+03 -0.32748892974E+03  0.63920840253E+03  0.12210120458E+04  0.46999998093E+01 0.  1.
</event>
<event>
 5   0  0.1753474E-06  0.2746788E+04  0.7818609E-02  0.8319982E-01
       -1   -1    0    0    0  501  0.00000000000E+00  0.00000000000E+00  0.15988489316E+04  0.15988489316E+04  0.50400001928E-02 0.  1.
        1   -1    0    0  501    0  0.00000000000E+00  0.00000000000E+00 -0.11797304068E+04  0.11797304069E+04  0.50400001928E-02 0. -1.
    10030    2    1    2    0    0  0.00000000000E+00  0.00000000000E+00  0.41911852471E+03  0.27785793384E+04  0.27467877243E+04 0.  0.
        3    1    3    3  502    0 -0.84348557047E+03  0.32810820431E+03  0.12545147216E+04  0.15469098546E+04  0.10100000352E+00 0.  1.
       -3    1    3    3    0  502  0.84348557047E+03 -0.32810820431E+03 -0.83539619691E+03  0.12316694838E+04  0.10100000352E+00 0. -1.
</event>
<event>
 5   0  0.4448804E-06  0.2809957E+04  0.7818609E-02  0.8300184E-01
        2   -1    0    0  501    0  0.00000000000E+00  0.00000000000E+00  0.26512012217E+04  0.26512012217E+04  0.25500000920E-02 0.  1.
       -2   -1    0    0    0  501  0.00000000000E+00  0.00000000000E+00 -0.74455482622E+03  0.74455482623E+03  0.25500000920E-02 0. -1.
    10030    2    1    2    0    0  0.00000000000E+00  0.00000000000E+00  0.19066463955E+04  0.33957560479E+04  0.28099570565E+04 0.  0.
        2    1    3    3  502    0  0.22173051035E+02 -0.52652941435E+03 -0.62058872103E+03  0.81415921603E+03  0.25500000920E-02 0. -1.
       -2    1    3    3    0  502 -0.22173051035E+02  0.52652941435E+03  0.25272351165E+04  0.25815968319E+04  0.25500000920E-02 0.  1.
</event>
<event>
 5   0  0.4401659E-06  0.2714551E+04  0.7818609E-02  0.8330299E-01
       -2   -1    0    0    0  501  0.00000000000E+00  0.00000000000E+00  0.14200210401E+04  0.14200210401E+04  0.25500000920E-02 0. -1.
        2   -1    0    0  501    0  0.00000000000E+00  0.00000000000E+00 -0.12973024031E+04  0.12973024031E+04  0.25500000920E-02 0.  1.
    10030    2    1    2    0    0  0.00000000000E+00  0.00000000000E+00  0.12271863705E+03  0.27173234432E+04  0.27145509446E+04 0.  0.
        5    1    3    3  502    0 -0.95158802901E+03 -0.30468589873E+03 -0.85817637570E+03  0.13171340310E+04  0.46999998093E+01 0.  1.
       -5    1    3    3    0  502  0.95158802901E+03  0.30468589873E+03  0.98089501275E+03  0.14001894121E+04  0.46999998093E+01 0. -1.
</event>
<event>
 5   0  0.1723605E-06  0.2719400E+04  0.7818609E-02  0.8328738E-01
        1   -1    0    0  501    0  0.00000000000E+00  0.00000000000E+00  0.10784832435E+04  0.10784832435E+04  0.50400001928E-02 0.  1.
       -1   -1    0    0    0  501  0.00000000000E+00  0.00000000000E+00 -0.17142444433E+04  0.17142444433E+04  0.50400001928E-02 0. -1.
    10030    2    1    2    0    0  0.00000000000E+00  0.00000000000E+00 -0.63576119984E+03  0.27927276868E+04  0.27193998657E+04 0.  0.
        1    1    3    3  502    0  0.25583185249E+03  0.81895518085E+03 -0.14011440722E+04  0.16429675091E+04  0.50400001928E-02 0. -1.
       -1    1    3    3    0  502 -0.25583185249E+03 -0.81895518085E+03  0.76538287234E+03  0.11497601777E+04  0.50400001928E-02 0.  1.
</event>
<event>
 5   0  0.4439357E-06  0.2662299E+04  0.7818609E-02  0.8347342E-01
       -2   -1    0    0    0  501  0.00000000000E+00  0.00000000000E+00  0.12620325753E+04  0.12620325753E+04  0.25500000920E-02 0. -1.
        2   -1    0    0  501    0  0.00000000000E+00  0.00000000000E+00 -0.14040522267E+04  0.14040522267E+04  0.25500000920E-02 0.  1.
    10030    2    1    2    0    0  0.00000000000E+00  0.00000000000E+00 -0.14201965138E+03  0.26660848020E+04  0.26622994929E+04 0.  0.
        4    1    3    3  502    0 -0.58930744443E+03  0.10560520800E+04 -0.62806395593E+03  0.13627161133E+04  0.12699999809E+01 0.  1.
       -4    1    3    3    0  502  0.58930744443E+03 -0.10560520800E+04  0.48604430455E+03  0.13033686887E+04  0.12699999809E+01 0. -1.
</event>
<event>
 5   0  0.1732312E-06  0.2715916E+04  0.7818609E-02  0.8329859E-01
        1   -1    0    0  501    0  0.00000000000E+00  0.00000000000E+00  0.13120736988E+04  0.13120736988E+04  0.50400001928E-02 0. -1.
       -1   -1    0    0    0  501  0.00000000000E+00  0.00000000000E+00 -0.14054472365E+04  0.14054472365E+04  0.50400001928E-02 0.  1.
    10030    2    1    2    0    0  0.00000000000E+00  0.00000000000E+00 -0.93373537679E+02  0.27175209353E+04  0.27159163125E+04 0.  0.
        5    1    3    3  502    0 -0.86332951142E+03  0.65925633842E+03 -0.86207405527E+03  0.13867770303E+04  0.46999998093E+01 0.  1.
       -5    1    3    3    0  502  0.86332951142E+03 -0.65925633842E+03  0.76870051759E+03  0.13307439050E+04  0.46999998093E+01 0. -1.
</event>
<event>
 5   0  0.4448804E-06  0.2691911E+04  0.7818609E-02  0.8337634E-01
       -2   -1    0    0    0  501  0.00000000000E+00  0.00000000000E+00  0.18428314827E+04  0.18428314827E+04  0.25500000920E-02 0. -1.
        2   -1    0    0  501    0  0.00000000000E+00  0.00000000000E+00 -0.98305013136E+03  0.98305013136E+03  0.25500000920E-02 0.  1.
    10030    2    1    2    0    0  0.00000000000E+00  0.00000000000E+00  0.85978135134E+03  0.28258816141E+04  0.26919106457E+04 0.  0.
        2    1    3    3  502    0 -0.42870173136E+02  0.13232521008E+04  0.17541826080E+03  0.13355169561E+04  0.25500000920E-02 0.  1.
       -2    1    3    3    0  502  0.42870173136E+02 -0.13232521008E+04  0.68436309055E+03  0.14903646579E+04  0.25500000920E-02 0. -1.
</event>
<event>
 5   0  0.4487186E-06  0.2690327E+04  0.7818609E-02  0.8338150E-01
       -2   -1    0    0    0  501  0.00000000000E+00  0.00000000000E+00  0.11799450105E+04  0.11799450106E+04  0.25500000920E-02 0. -1.
        2   -1    0    0  501    0  0.00000000000E+00  0.00000000000E+00 -0.15335166460E+04  0.15335166460E+04  0.25500000920E-02 0.  1.
    10030    2    1    2    0    0  0.00000000000E+00  0.00000000000E+00 -0.35357163544E+03  0.27134616565E+04  0.26903273519E+04 0.  0.
        3    1    3    3  502    0 -0.69434602562E+03  0.10408466855E+04  0.32141217757E+03  0.12918142375E+04  0.10100000352E+00 0. -1.
       -3    1    3    3    0  502  0.69434602562E+03 -0.10408466855E+04 -0.67498381301E+03  0.14216474191E+04  0.10100000352E+00 0.  1.
</event>
<event>
 5   0  0.1828511E-06  0.2703540E+04  0.7818609E-02  0.8333857E-01
       -1   -1    0    0    0  501  0.00000000000E+00  0.00000000000E+00  0.77596534948E+03  0.77596534950E+03  0.50400001928E-02 0.  1.
        1   -1    0    0  501    0  0.00000000000E+00  0.00000000000E+00 -0.23548501329E+04  0.23548501329E+04  0.50400001928E-02 0. -1.
    10030    2    1    2    0    0  0.00000000000E+00  0.00000000000E+00 -0.15788847834E+04  0.31308154824E+04  0.27035399804E+04 0.  0.
        4    1    3    3  502    0 -0.91085467943E+03 -0.14855343256E+03  0.35435948880E+03  0.98858314246E+03  0.12699999809E+01 0.  1.
       -4    1    3    3    0  502  0.91085467943E+03  0.14855343256E+03 -0.19332442722E+04  0.21422323400E+04  0.12699999809E+01 0. -1.
</event>
<event>
 5   0  0.1732312E-06  0.2759051E+04  0.7818609E-02  0.8316095E-01
       -1   -1    0    0    0  501  0.00000000000E+00  0.00000000000E+00  0.12346082431E+04  0.12346082431E+04  0.50400001928E-02 0. -1.
        1   -1    0    0  501    0  0.00000000000E+00  0.00000000000E+00 -0.15414532602E+04  0.15414532602E+04  0.50400001928E-02 0.  1.
    10030    2    1    2    0    0  0.00000000000E+00  0.00000000000E+00 -0.30684501707E+03  0.27760615033E+04  0.27590512147E+04 0.  0.
        5    1    3    3  502    0 -0.11824463522E+04  0.35022377619E+03 -0.77548392437E+03  0.14567887549E+04  0.46999998093E+01 0.  1.
       -5    1    3    3    0  502  0.11824463522E+04 -0.35022377619E+03  0.46863890730E+03  0.13192727484E+04  0.46999998093E+01 0. -1.
</event>
<event>
 5   0  0.4487186E-06  0.2699171E+04  0.7818609E-02  0.8335274E-01
       -2   -1    0    0    0  501  0.00000000000E+00  0.00000000000E+00  0.10561620592E+04  0.10561620592E+04  0.25500000920E-02 0. -1.
        2   -1    0    0  501    0  0.00000000000E+00  0.00000000000E+00 -0.17245277947E+04  0.17245277947E+04  0.25500000920E-02 0.  1.
    10030    2    1    2    0    0  0.00000000000E+00  0.00000000000E+00 -0.66836573556E+03  0.27806898539E+04  0.26991708555E+04 0.  0.
        3    1    3    3  502    0 -0.41764156219E+03 -0.64906357590E+03 -0.14747200639E+04  0.16644840874E+04  0.10100000352E+00 0.  1.
       -3    1    3    3    0  502  0.41764156219E+03  0.64906357590E+03  0.80635432838E+03  0.11162057665E+04  0.10100000352E+00 0. -1.
</event>
<event>
 5   0  0.4487186E-06  0.2716151E+04  0.7818609E-02  0.8329784E-01
       -2   -1    0    0    0  501  0.00000000000E+00  0.00000000000E+00  0.10030030159E+04  0.10030030159E+04  0.25500000920E-02 0.  1.
        2   -1    0    0  501    0  0.00000000000E+00  0.00000000000E+00 -0.18388465796E+04  0.18388465796E+04  0.25500000920E-02 0. -1.
    10030    2    1    2    0    0  0.00000000000E+00  0.00000000000E+00 -0.83584356364E+03  0.28418495955E+04  0.27161507065E+04 0.  0.
        3    1    3    3  502    0 -0.82675345929E+03 -0.75960620708E+03  0.38153740909E+03  0.11857882092E+04  0.10100000352E+00 0.  1.
       -3    1    3    3    0  502  0.82675345929E+03  0.75960620708E+03 -0.12173809727E+04  0.16560613863E+04  0.10100000352E+00 0. -1.
</event>
<event>
 5   0  0.4448804E-06  0.2692610E+04  0.7818609E-02  0.8337407E-01
        2   -1    0    0  501    0  0.00000000000E+00  0.00000000000E+00  0.15009121557E+04  0.15009121557E+04  0.25500000920E-02 0. -1.
       -2   -1    0    0    0  501  0.00000000000E+00  0.00000000000E+00 -0.12076240464E+04  0.12076240464E+04  0.25500000920E-02 0.  1.
    10030    2    1    2    0    0  0.00000000000E+00  0.00000000000E+00  0.29328810936E+03  0.27085362021E+04  0.26926103400E+04 0.  0.
        2    1    3    3  502    0  0.61833474030E+03  0.11844012972E+04  0.31313228070E+03  0.13722959262E+04  0.25500000920E-02 0. -1.
       -2    1    3    3    0  502 -0.61833474030E+03 -0.11844012972E+04 -0.19844171331E+02  0.13362402759E+04  0.25500000920E-02 0.  1.
</event>
<event>
 5   0  0.1723605E-06  0.2698730E+04  0.7818609E-02  0.8335417E-01
       -1   -1    0    0    0  501  0.00000000000E+00  0.00000000000E+00  0.98008467119E+03  0.98008467120E+03  0.50400001928E-02 0.  1.
        1   -1    0    0  501    0  0.00000000000E+00  0.00000000000E+00 -0.18577847778E+04  0.18577847778E+04  0.50400001928E-02 0. -1.
    10030    2    1    2    0    0  0.00000000000E+00  0.00000000000E+00 -0.87770010664E+03  0.28378694490E+04  0.26987303557E+04 0.  0.
        1    1    3    3  502    0  0.63073875263E+03  0.42268528870E+03 -0.16118394876E+04  0.17817184854E+04  0.50400001928E-02 0. -1.
       -1    1    3    3    0  502 -0.63073875263E+03 -0.42268528870E+03  0.73413938095E+03  0.10561509637E+04  0.50400001928E-02 0.  1.
</event>
<event>
 5   0  0.4439357E-06  0.2699324E+04  0.7818609E-02  0.8335224E-01
       -2   -1    0    0    0  501  0.00000000000E+00  0.00000000000E+00  0.13420436328E+04  0.13420436328E+04  0.25500000920E-02 0. -1.
        2   -1    0    0  501    0  0.00000000000E+00  0.00000000000E+00 -0.13573231700E+04  0.13573231700E+04  0.25500000920E-02 0.  1.
    10030    2    1    2    0    0  0.00000000000E+00  0.00000000000E+00 -0.15279537191E+02  0.26993668027E+04  0.26993235581E+04 0.  0.
        4    1    3    3  502    0  0.42627198755E+03  0.15549348739E+02 -0.12881428929E+04  0.13569315809E+04  0.12699999809E+01 0.  1.
       -4    1    3    3    0  502 -0.42627198755E+03 -0.15549348739E+02  0.12728633558E+04  0.13424352219E+04  0.12699999809E+01 0. -1.
</event>
<event>
 5   0  0.4487186E-06  0.2702936E+04  0.7818609E-02  0.8334053E-01
        2   -1    0    0  501    0  0.00000000000E+00  0.00000000000E+00  0.16106039575E+04  0.16106039575E+04  0.25500000920E-02 0.  1.
       -2   -1    0    0    0  501  0.00000000000E+00  0.00000000000E+00 -0.11340252052E+04  0.11340252052E+04  0.25500000920E-02 0. -1.
    10030    2    1    2    0    0  0.00000000000E+00  0.00000000000E+00  0.47657875238E+03  0.27446291627E+04  0.27029357990E+04 0.  0.
        3    1    3    3  502    0 -0.50523367414E+03  0.99063261780E+01  0.15110617041E+04  0.15933193919E+04  0.10100000352E+00 0.  1.
       -3    1    3    3    0  502  0.50523367414E+03 -0.99063261780E+01 -0.10344829517E+04  0.11513097708E+04  0.10100000352E+00 0. -1.
</event>
<event>
 5   0  0.1771016E-06  0.2704557E+04  0.7818609E-02  0.8333528E-01
       -1   -1    0    0    0  501  0.00000000000E+00  0.00000000000E+00  0.11971638899E+04  0.11971638900E+04  0.50400001928E-02 0.  1.
        1   -1    0    0  501    0  0.00000000000E+00  0.00000000000E+00 -0.15274915987E+04  0.15274915987E+04  0.50400001928E-02 0. -1.
    10030    2    1    2    0    0  0.00000000000E+00  0.00000000000E+00 -0.33032770878E+03  0.27246554887E+04  0.27045574752E+04 0.  0.
        2    1    3    3  502    0 -0.13855098773E+03  0.13175016781E+04  0.10823955640E+03  0.13291812704E+04  0.25500000920E-02 0.  1.
       -2    1    3    3    0  502  0.13855098773E+03 -0.13175016781E+04 -0.43856726518E+03  0.13954742183E+04  0.25500000920E-02 0. -1.
</event>
<event>
 5   0  0.1723605E-06  0.2704750E+04  0.7818609E-02  0.8333465E-01
       -1   -1    0    0    0  501  0.00000000000E+00  0.00000000000E+00  0.17301551071E+04  0.17301551071E+04  0.50400001928E-02 0. -1.
        1   -1    0    0  501    0  0.00000000000E+00  0.00000000000E+00 -0.10570836965E+04  0.10570836966E+04  0.50400001928E-02 0.  1.
    10030    2    1    2    0    0  0.00000000000E+00  0.00000000000E+00  0.67307141051E+03  0.27872388036E+04  0.27047504552E+04 0.  0.
        1    1    3    3  502    0  0.85137478265E+03  0.96340730470E+03 -0.95691516834E+02  0.12892437790E+04  0.50400001928E-02 0.  1.
       -1    1    3    3    0  502 -0.85137478265E+03 -0.96340730470E+03  0.76876292734E+03  0.14979950246E+04  0.50400001928E-02 0. -1.
</event>
<event>
 5   0  0.4655882E-06  0.2702134E+04  0.7818609E-02  0.8334313E-01
        2   -1    0    0  501    0  0.00000000000E+00  0.00000000000E+00  0.20300261329E+04  0.20300261329E+04  0.25500000920E-02 0.  1.
       -2   -1    0    0    0  501  0.00000000000E+00  0.00000000000E+00 -0.89919138750E+03  0.89919138751E+03  0.25500000920E-02 0. -1.
    10030    2    1    2    0    0  0.00000000000E+00  0.00000000000E+00  0.11308347454E+04  0.29292175204E+04  0.27021339827E+04 0.  0.
        1    1    3    3  502    0  0.77532171733E+02  0.12710654191E+04  0.76080529363E+02  0.12756985476E+04  0.50400001928E-02 0. -1.
       -1    1    3    3    0  502 -0.77532171733E+02 -0.12710654191E+04  0.10547542161E+04  0.16535189729E+04  0.50400001928E-02 0.  1.
</event>
<event>
 5   0  0.1732312E-06  0.2700488E+04  0.7818609E-02  0.8334846E-01
       -1   -1    0    0    0  501  0.00000000000E+00  0.00000000000E+00  0.13189381461E+04  0.13189381461E+04  0.50400001928E-02 0. -1.
        1   -1    0    0  501    0  0.00000000000E+00  0.00000000000E+00 -0.13822934118E+04  0.13822934118E+04  0.50400001928E-02 0.  1.
    10030    2    1    2    0    0  0.00000000000E+00  0.00000000000E+00 -0.63355265724E+02  0.27012315579E+04  0.27004884817E+04 0.  0.
        5    1    3    3  502    0  0.73162211564E+03 -0.11215253664E+04  0.14171178557E+03  0.13465490663E+04  0.46999998093E+01 0. -1.
       -5    1    3    3    0  502 -0.73162211564E+03  0.11215253664E+04 -0.20506705129E+03  0.13546824917E+04  0.46999998093E+01 0.  1.
</event>
<event>
 5   0  0.1723605E-06  0.2705649E+04  0.7818609E-02  0.8333174E-01
       -1   -1    0    0    0  501  0.00000000000E+00  0.00000000000E+00  0.13693807124E+04  0.13693807125E+04  0.50400001928E-02 0. -1.
        1   -1    0    0  501    0  0.00000000000E+00  0.00000000000E+00 -0.13364687705E+04  0.13364687706E+04  0.50400001928E-02 0.  1.
    10030    2    1    2    0    0  0.00000000000E+00  0.00000000000E+00  0.32911941902E+02  0.27058494830E+04  0.27056493174E+04 0.  0.
        1    1    3    3  502    0  0.18455618957E+03 -0.12168838411E+04  0.57798418616E+03  0.13597547533E+04  0.50400001928E-02 0. -1.
       -1    1    3    3    0  502 -0.18455618957E+03  0.12168838411E+04 -0.54507224426E+03  0.13460947297E+04  0.50400001928E-02 0.  1.
</event>
<event>
 5   0  0.4487186E-06  0.2700923E+04  0.7818609E-02  0.8334706E-01
       -2   -1    0    0    0  501  0.00000000000E+00  0.00000000000E+00  0.88579531346E+03  0.88579531347E+03  0.25500000920E-02 0. -1.
        2   -1    0    0  501    0  0.00000000000E+00  0.00000000000E+00 -0.20588797629E+04  0.20588797629E+04  0.25500000920E-02 0.  1.
    10030    2    1    2    0    0  0.00000000000E+00  0.00000000000E+00 -0.11730844494E+04  0.29446750764E+04  0.27009228386E+04 0.  0.
        3    1    3    3  502    0 -0.24446848685E+03  0.49955428209E+03  0.75513897438E+03  0.93784551107E+03  0.10100000352E+00 0. -1.
       -3    1    3    3    0  502  0.24446848685E+03 -0.49955428209E+03 -0.19282234238E+04  0.20068295653E+04  0.10100000352E+00 0.  1.
</event>
<event>
 5   0  0.1723605E-06  0.2702691E+04  0.7818609E-02  0.8334133E-01
        1   -1    0    0  501    0  0.00000000000E+00  0.00000000000E+00  0.25004444529E+04  0.25004444529E+04  0.50400001928E-02 0. -1.
       -1   -1    0    0    0  501  0.00000000000E+00  0.00000000000E+00 -0.73032376631E+03  0.73032376632E+03  0.50400001928E-02 0.  1.
    10030    2    1    2    0    0  0.00000000000E+00  0.00000000000E+00  0.17701206866E+04  0.32307682192E+04  0.27026905189E+04 0.  0.
        1    1    3    3  502    0  0.80726463749E+02 -0.13485755125E+04  0.92212388989E+03  0.16356910292E+04  0.50400001928E-02 0.  1.
       -1    1    3    3    0  502 -0.80726463749E+02  0.13485755125E+04  0.84799679667E+03  0.15950771900E+04  0.50400001928E-02 0. -1.
</event>
<event>
 5   0  0.1723605E-06  0.2691246E+04  0.7818609E-02  0.8337851E-01
       -1   -1    0    0    0  501  0.00000000000E+00  0.00000000000E+00  0.87323089210E+03  0.87323089211E+03  0.50400001928E-02 0.  1.
        1   -1    0    0  501    0  0.00000000000E+00  0.00000000000E+00 -0.20735646921E+04  0.20735646921E+04  0.50400001928E-02 0. -1.
    10030    2    1    2    0    0  0.00000000000E+00  0.00000000000E+00 -0.12003338000E+04  0.29467955842E+04  0.26912456193E+04 0.  0.
        1    1    3    3  502    0 -0.10216398826E+03 -0.85339442775E+03 -0.17338463183E+04  0.19351854137E+04  0.50400001928E-02 0. -1.
       -1    1    3    3    0  502  0.10216398826E+03  0.85339442775E+03  0.53351251833E+03  0.10116101705E+04  0.50400001928E-02 0.  1.
</event>
<event>
 5   0  0.1771016E-06  0.2698049E+04  0.7818609E-02  0.8335638E-01
       -1   -1    0    0    0  501  0.00000000000E+00  0.00000000000E+00  0.90569622087E+03  0.90569622089E+03  0.50400001928E-02 0.  1.
        1   -1    0    0  501    0  0.00000000000E+00  0.00000000000E+00 -0.20093571994E+04  0.20093571994E+04  0.50400001928E-02 0. -1.
    10030    2    1    2    0    0  0.00000000000E+00  0.00000000000E+00 -0.11036609785E+04  0.29150534203E+04  0.26980490892E+04 0.  0.
        2    1    3    3  502    0  0.67253195648E+03  0.70929023085E+03 -0.15563837780E+04  0.18378580817E+04  0.25500000920E-02 0. -1.
       -2    1    3    3    0  502 -0.67253195648E+03 -0.70929023085E+03  0.45272279956E+03  0.10771953385E+04  0.25500000920E-02 0.  1.
</event>
<event>
 5   0  0.4655882E-06  0.2707253E+04  0.7818609E-02  0.8332655E-01
       -2   -1    0    0    0  501  0.00000000000E+00  0.00000000000E+00  0.80185427513E+03  0.80185427514E+03  0.25500000920E-02 0. -1.
        2   -1    0    0  501    0  0.00000000000E+00  0.00000000000E+00 -0.22850846386E+04  0.22850846387E+04  0.25500000920E-02 0.  1.
    10030    2    1    2    0    0  0.00000000000E+00  0.00000000000E+00 -0.14832303635E+04  0.30869389138E+04  0.27072531367E+04 0.  0.
        1    1    3    3  502    0 -0.25078289190E+03  0.14886928221E+02 -0.22582693256E+04  0.22722002611E+04  0.50400001928E-02 0.  1.
       -1    1    3    3    0  502  0.25078289190E+03 -0.14886928221E+02  0.77503896206E+03  0.81473865273E+03  0.50400001928E-02 0. -1.
</event>
<event>
 5   0  0.4487186E-06  0.2742112E+04  0.7818609E-02  0.8321469E-01
        2   -1    0    0  501    0  0.00000000000E+00  0.00000000000E+00  0.93624709447E+03  0.93624709447E+03  0.25500000920E-02 0. -1.
       -2   -1    0    0    0  501  0.00000000000E+00  0.00000000000E+00 -0.20077971127E+04  0.20077971127E+04  0.25500000920E-02 0.  1.
    10030    2    1    2    0    0  0.00000000000E+00  0.00000000000E+00 -0.10715500183E+04  0.29440442072E+04  0.27421117505E+04 0.  0.
        3    1    3    3  502    0 -0.74645324533E+03 -0.53530831885E+03 -0.16285955650E+04  0.18697783206E+04  0.10100000352E+00 0.  1.
       -3    1    3    3    0  502  0.74645324533E+03  0.53530831885E+03  0.55704554676E+03  0.10742658866E+04  0.10100000352E+00 0. -1.
</event>
<event>
 5   0  0.4448804E-06  0.2693513E+04  0.7818609E-02  0.8337113E-01
       -2   -1    0    0    0  501  0.00000000000E+00  0.00000000000E+00  0.12632578488E+04  0.12632578488E+04  0.25500000920E-02 0. -1.
        2   -1    0    0  501    0  0.00000000000E+00  0.00000000000E+00 -0.14357747255E+04  0.14357747255E+04  0.25500000920E-02 0.  1.
    10030    2    1    2    0    0  0.00000000000E+00  0.00000000000E+00 -0.17251687674E+03  0.26990325743E+04  0.26935134609E+04 0.  0.
        2    1    3    3  502    0  0.13976400926E+03  0.72855325863E+03  0.10400686900E+04  0.12775236627E+04  0.25500000920E-02 0. -1.
       -2    1    3    3    0  502 -0.13976400926E+03 -0.72855325863E+03 -0.12125855667E+04  0.14215089115E+04  0.25500000920E-02 0.  1.
</event>
<event>
 5   0  0.4655882E-06  0.2697202E+04  0.7818609E-02  0.8335913E-01
       -2   -1    0    0    0  501  0.00000000000E+00  0.00000000000E+00  0.13615977263E+04  0.13615977263E+04  0.25500000920E-02 0. -1.
        2   -1    0    0  501    0  0.00000000000E+00  0.00000000000E+00 -0.13357282034E+04  0.13357282034E+04  0.25500000920E-02 0.  1.
    10030    2    1    2    0    0  0.00000000000E+00  0.00000000000E+00  0.25869522842E+02  0.26973259297E+04  0.26972018721E+04 0.  0.
        1    1    3    3  502    0  0.45069920211E+03  0.12675793105E+04  0.10694656118E+03  0.13495646135E+04  0.50400001928E-02 0.  1.
       -1    1    3    3    0  502 -0.45069920211E+03 -0.12675793105E+04 -0.81077038343E+02  0.13477613161E+04  0.50400001928E-02 0. -1.
</event>
<event>
 5   0  0.4487186E-06  0.2693275E+04  0.7818609E-02  0.8337190E-01
       -2   -1    0    0    0  501  0.00000000000E+00  0.00000000000E+00  0.10289953056E+04  0.10289953056E+04  0.25500000920E-02 0.  1.
        2   -1    0    0  501    0  0.00000000000E+00  0.00000000000E+00 -0.17623329798E+04  0.17623329798E+04  0.25500000920E-02 0. -1.
    10030    2    1    2    0    0  0.00000000000E+00  0.00000000000E+00 -0.73333767418E+03  0.27913282855E+04  0.26932748565E+04 0.  0.
        3    1    3    3  502    0  0.12729470868E+04 -0.34772355720E+03 -0.88327728211E+02  0.13225383759E+04  0.10100000352E+00 0.  1.
       -3    1    3    3    0  502 -0.12729470868E+04  0.34772355720E+03 -0.64500994597E+03  0.14687899096E+04  0.10100000352E+00 0. -1.
</event>
<event>
 5   0  0.1753474E-06  0.2690694E+04  0.7818609E-02  0.8338031E-01
        1   -1    0    0  501    0  0.00000000000E+00  0.00000000000E+00  0.16905987914E+04  0.16905987915E+04  0.50400001928E-02 0. -1.
       -1   -1    0    0    0  501  0.00000000000E+00  0.00000000000E+00 -0.10706021586E+04  0.10706021586E+04  0.50400001928E-02 0.  1.
    10030    2    1    2    0    0  0.00000000000E+00  0.00000000000E+00  0.61999663288E+03  0.27612009500E+04  0.26906941227E+04 0.  0.
        3    1    3    3  502    0 -0.90434901496E+03  0.40527842992E+03  0.12437091226E+04  0.15902547401E+04  0.10100000352E+00 0. -1.
       -3    1    3    3    0  502  0.90434901496E+03 -0.40527842992E+03 -0.62371248968E+03  0.11709462100E+04  0.10100000352E+00 0.  1.
</event>
<event>
 5   0  0.4439357E-06  0.2719715E+04  0.7818609E-02  0.8328636E-01
       -2   -1    0    0    0  501  0.00000000000E+00  0.00000000000E+00  0.14887093555E+04  0.14887093555E+04  0.25500000920E-02 0.  1.
        2   -1    0    0  501    0  0.00000000000E+00  0.00000000000E+00 -0.12421583210E+04  0.12421583210E+04  0.25500000920E-02 0. -1.
    10030    2    1    2    0    0  0.00000000000E+00  0.00000000000E+00  0.24655103447E+03  0.27308676764E+04  0.27197152155E+04 0.  0.
        4    1    3    3  502    0  0.37023057847E+03  0.12488856072E+04 -0.26874207339E+03  0.13300412986E+04  0.12699999809E+01 0. -1.
       -4    1    3    3    0  502 -0.37023057847E+03 -0.12488856072E+04  0.51529310786E+03  0.14008263779E+04  0.12699999809E+01 0.  1.
</event>
<event>
 5   0  0.4448804E-06  0.2696507E+04  0.7818609E-02  0.8336139E-01
        2   -1    0    0  501    0  0.00000000000E+00  0.00000000000E+00  0.20921152467E+04  0.20921152467E+04  0.25500000920E-02 0.  1.
       -2   -1    0    0    0  501  0.00000000000E+00  0.00000000000E+00 -0.86887535838E+03  0.86887535839E+03  0.25500000920E-02 0. -1.
    10030    2    1    2    0    0  0.00000000000E+00  0.00000000000E+00  0.12232398883E+04  0.29609906051E+04  0.26965069143E+04 0.  0.
        2    1    3    3  502    0 -0.11192729540E+04 -0.72363467635E+03  0.83496137768E+03  0.15727617723E+04  0.25500000920E-02 0.  1.
       -2    1    3    3    0  502  0.11192729540E+04  0.72363467635E+03  0.38827851066E+03  0.13882288328E+04  0.25500000920E-02 0. -1.
</event>
<event>
 5   0  0.1771016E-06  0.2705345E+04  0.7818609E-02  0.8333273E-01
        1   -1    0    0  501    0  0.00000000000E+00  0.00000000000E+00  0.15228547479E+04  0.15228547479E+04  0.50400001928E-02 0. -1.
       -1   -1    0    0    0  501  0.00000000000E+00  0.00000000000E+00 -0.12015082434E+04  0.12015082434E+04  0.50400001928E-02 0.  1.
    10030    2    1    2    0    0  0.00000000000E+00  0.00000000000E+00  0.32134650447E+03  0.27243629913E+04  0.27053447345E+04 0.  0.
        2    1    3    3  502    0 -0.19580537824E+03  0.25792102552E+02 -0.11869109269E+04  0.12032300392E+04  0.25500000920E-02 0.  1.
       -2    1    3    3    0  502  0.19580537824E+03 -0.25792102552E+02  0.15082574314E+04  0.15211329521E+04  0.25500000920E-02 0. -1.
</event>
<event>
 5   0  0.1771016E-06  0.2700495E+04  0.7818609E-02  0.8334844E-01
       -1   -1    0    0    0  501  0.00000000000E+00  0.00000000000E+00  0.98055553990E+03  0.98055553991E+03  0.50400001928E-02 0.  1.
        1   -1    0    0  501    0  0.00000000000E+00  0.00000000000E+00 -0.18593223166E+04  0.18593223166E+04  0.50400001928E-02 0. -1.
    10030    2    1    2    0    0  0.00000000000E+00  0.00000000000E+00 -0.87876677672E+03  0.28398778565E+04  0.27004953605E+04 0.  0.
        2    1    3    3  502    0 -0.77852536518E+03  0.84727557113E+03  0.30361807490E+03  0.11900258708E+04  0.25500000920E-02 0.  1.
       -2    1    3    3    0  502  0.77852536518E+03 -0.84727557113E+03 -0.11823848516E+04  0.16498519858E+04  0.25500000920E-02 0. -1.
</event>
<event>
 5   0  0.4655882E-06  0.2686485E+04  0.7818609E-02  0.8339403E-01
       -2   -1    0    0    0  501  0.00000000000E+00  0.00000000000E+00  0.11165019151E+04  0.11165019151E+04  0.25500000920E-02 0. -1.
        2   -1    0    0  501    0  0.00000000000E+00  0.00000000000E+00 -0.16160298002E+04  0.16160298002E+04  0.25500000920E-02 0.  1.
    10030    2    1    2    0    0  0.00000000000E+00  0.00000000000E+00 -0.49952788508E+03  0.27325317154E+04  0.26864849651E+04 0.  0.
        1    1    3    3  502    0  0.13365766496E+04 -0.13144931866E+03 -0.22517725825E+03  0.13617712221E+04  0.50400001928E-02 0.  1.
       -1    1    3    3    0  502 -0.13365766496E+04  0.13144931866E+03 -0.27435062684E+03  0.13707604933E+04  0.50400001928E-02 0. -1.
</event>
<event>
 5   0  0.1723605E-06  0.2697852E+04  0.7818609E-02  0.8335702E-01
       -1   -1    0    0    0  501  0.00000000000E+00  0.00000000000E+00  0.91902907918E+03  0.91902907920E+03  0.50400001928E-02 0. -1.
        1   -1    0    0  501    0  0.00000000000E+00  0.00000000000E+00 -0.19799171287E+04  0.19799171288E+04  0.50400001928E-02 0.  1.
    10030    2    1    2    0    0  0.00000000000E+00  0.00000000000E+00 -0.10608880496E+04  0.28989462079E+04  0.26978520461E+04 0.  0.
        1    1    3    3  502    0  0.91065323973E+03 -0.80660720290E+03 -0.11567229941E+04  0.16786639294E+04  0.50400001928E-02 0.  1.
       -1    1    3    3    0  502 -0.91065323973E+03  0.80660720290E+03  0.95834944488E+02  0.12202822786E+04  0.50400001928E-02 0. -1.
</event>
<event>
 5   0  0.1732312E-06  0.2676905E+04  0.7818609E-02  0.8342537E-01
        1   -1    0    0  501    0  0.00000000000E+00  0.00000000000E+00  0.21075953197E+04  0.21075953197E+04  0.50400001928E-02 0. -1.
       -1   -1    0    0    0  501  0.00000000000E+00  0.00000000000E+00 -0.84999973991E+03  0.84999973992E+03  0.50400001928E-02 0.  1.
    10030    2    1    2    0    0  0.00000000000E+00  0.00000000000E+00  0.12575955797E+04  0.29575950596E+04  0.26769052830E+04 0.  0.
        5    1    3    3  502    0  0.53555848168E+03 -0.11069201545E+04  0.44854160012E+02  0.12304995333E+04  0.46999998093E+01 0.  1.
       -5    1    3    3    0  502 -0.53555848168E+03  0.11069201545E+04  0.12127414197E+04  0.17270955263E+04  0.46999998093E+01 0. -1.
</event>
<event>
 5   0  0.1723605E-06  0.2680015E+04  0.7818609E-02  0.8341519E-01
        1   -1    0    0  501    0  0.00000000000E+00  0.00000000000E+00  0.20018726256E+04  0.20018726256E+04  0.50400001928E-02 0.  1.
       -1   -1    0    0    0  501  0.00000000000E+00  0.00000000000E+00 -0.89697022412E+03  0.89697022414E+03  0.50400001928E-02 0. -1.
    10030    2    1    2    0    0  0.00000000000E+00  0.00000000000E+00  0.11049024014E+04  0.28988428497E+04  0.26800150280E+04 0.  0.
        1    1    3    3  502    0  0.97040884428E+03 -0.72841480216E+03  0.11675094946E+04  0.16838526863E+04  0.50400001928E-02 0.  1.
       -1    1    3    3    0  502 -0.97040884428E+03  0.72841480216E+03 -0.62607093170E+02  0.12149901634E+04  0.50400001928E-02 0. -1.
</event>
<event>
 5   0  0.1753474E-06  0.2711412E+04  0.7818609E-02  0.8331312E-01
        1   -1    0    0  501    0  0.00000000000E+00  0.00000000000E+00  0.16831937025E+04  0.16831937025E+04  0.50400001928E-02 0. -1.
       -1   -1    0    0    0  501  0.00000000000E+00  0.00000000000E+00 -0.10919352099E+04  0.10919352099E+04  0.50400001928E-02 0.  1.
    10030    2    1    2    0    0  0.00000000000E+00  0.00000000000E+00  0.59125849261E+03  0.27751289124E+04  0.27114117864E+04 0.  0.
        3    1    3    3  502    0 -0.12778523053E+04 -0.45273140251E+03  0.30395814527E+03  0.13893389800E+04  0.10100000352E+00 0. -1.
       -3    1    3    3    0  502  0.12778523053E+04  0.45273140251E+03  0.28730034735E+03  0.13857899324E+04  0.10100000352E+00 0.  1.
</event>
<event>
 5   0  0.4487186E-06  0.2702145E+04  0.7818609E-02  0.8334309E-01
        2   -1    0    0  501    0  0.00000000000E+00  0.00000000000E+00  0.91618569091E+03  0.91618569091E+03  0.25500000920E-02 0. -1.
       -2   -1    0    0    0  501  0.00000000000E+00  0.00000000000E+00 -0.19923875419E+04  0.19923875419E+04  0.25500000920E-02 0.  1.
    10030    2    1    2    0    0  0.00000000000E+00  0.00000000000E+00 -0.10762018510E+04  0.29085732328E+04  0.27021450417E+04 0.  0.
        3    1    3    3  502    0 -0.11777499949E+04 -0.61837355974E+03 -0.79263125297E+03  0.15484654414E+04  0.10100000352E+00 0.  1.
       -3    1    3    3    0  502  0.11777499949E+04  0.61837355974E+03 -0.28357059801E+03  0.13601077914E+04  0.10100000352E+00 0. -1.
</event>
<event>
 5   0  0.4655882E-06  0.2690936E+04  0.7818609E-02  0.8337952E-01
        2   -1    0    0  501    0  0.00000000000E+00  0.00000000000E+00  0.14083420322E+04  0.14083420322E+04  0.25500000920E-02 0. -1.
       -2   -1    0    0    0  501  0.00000000000E+00  0.00000000000E+00 -0.12854013562E+04  0.12854013562E+04  0.25500000920E-02 0.  1.
    10030    2    1    2    0    0  0.00000000000E+00  0.00000000000E+00  0.12294067605E+03  0.26937433884E+04  0.26909364602E+04 0.  0.
        1    1    3    3  502    0 -0.21873172446E+03  0.11082105482E+04  0.79319831801E+03  0.13802672778E+04  0.50400001928E-02 0. -1.
       -1    1    3    3    0  502  0.21873172446E+03 -0.11082105482E+04 -0.67025764196E+03  0.13134761106E+04  0.50400001928E-02 0.  1.
</event>
<event>
 5   0  0.4439357E-06  0.2707653E+04  0.7818609E-02  0.8332526E-01
        2   -1    0    0  501    0  0.00000000000E+00  0.00000000000E+00  0.19936864515E+04  0.19936864515E+04  0.25500000920E-02 0. -1.
       -2   -1    0    0    0  501  0.00000000000E+00  0.00000000000E+00 -0.91932525742E+03  0.91932525743E+03  0.25500000920E-02 0.  1.
    10030    2    1    2    0    0  0.00000000000E+00  0.00000000000E+00  0.10743611941E+04  0.29130117089E+04  0.27076530873E+04 0.  0.
        4    1    3    3  502    0 -0.82244517839E+03  0.10677974553E+04  0.40009082534E+03  0.14059451477E+04  0.12699999809E+01 0.  1.
       -4    1    3    3    0  502  0.82244517839E+03 -0.10677974553E+04  0.67427036875E+03  0.15070665612E+04  0.12699999809E+01 0. -1.
</event>
<event>
 5   0  0.1771016E-06  0.2704262E+04  0.7818609E-02  0.8333624E-01
       -1   -1    0    0    0  501  0.00000000000E+00  0.00000000000E+00  0.77437882419E+03  0.77437882421E+03  0.50400001928E-02 0.  1.
        1   -1    0    0  501    0  0.00000000000E+00  0.00000000000E+00 -0.23609347157E+04  0.23609347157E+04  0.50400001928E-02 0. -1.
    10030    2    1    2    0    0  0.00000000000E+00  0.00000000000E+00 -0.15865558915E+04  0.31353135399E+04  0.27042617101E+04 0.  0.
        2    1    3    3  502    0  0.74480097238E+03 -0.64846004189E+02  0.51294878147E+03  0.90666970013E+03  0.25500000920E-02 0.  1.
       -2    1    3    3    0  502 -0.74480097238E+03  0.64846004189E+02 -0.20995046730E+04  0.22286438398E+04  0.25500000920E-02 0. -1.
</event>
<event>
 5   0  0.4401659E-06  0.2695425E+04  0.7818609E-02  0.8336491E-01
        2   -1    0    0  501    0  0.00000000000E+00  0.00000000000E+00  0.19800223149E+04  0.19800223149E+04  0.25500000920E-02 0.  1.
       -2   -1    0    0    0  501  0.00000000000E+00  0.00000000000E+00 -0.91732748882E+03  0.91732748883E+03  0.25500000920E-02 0. -1.
    10030    2    1    2    0    0  0.00000000000E+00  0.00000000000E+00  0.10626948261E+04  0.28973498038E+04  0.26954249372E+04 0.  0.
        5    1    3    3  502    0  0.11238200005E+04 -0.51445315842E+03 -0.46185906478E+02  0.12368462612E+04  0.46999998093E+01 0. -1.
       -5    1    3    3    0  502 -0.11238200005E+04  0.51445315842E+03  0.11088807326E+04  0.16605035426E+04  0.46999998093E+01 0.  1.
</event>
<event>
 5   0  0.4401659E-06  0.2701516E+04  0.7818609E-02  0.8334513E-01
        2   -1    0    0  501    0  0.00000000000E+00  0.00000000000E+00  0.76307968711E+03  0.76307968711E+03  0.25500000920E-02 0. -1.
       -2   -1    0    0    0  501  0.00000000000E+00  0.00000000000E+00 -0.23910302150E+04  0.23910302150E+04  0.25500000920E-02 0.  1.
    10030    2    1    2    0    0  0.00000000000E+00  0.00000000000E+00 -0.16279505279E+04  0.31541099021E+04  0.27015155660E+04 0.  0.
        5    1    3    3  502    0  0.62090435027E+03  0.50433243877E+03 -0.20847383025E+04  0.22329418490E+04  0.46999998093E+01 0.  1.
       -5    1    3    3    0  502 -0.62090435027E+03 -0.50433243877E+03  0.45678777465E+03  0.92116805310E+03  0.46999998093E+01 0. -1.
</event>
<event>
 5   0  0.4487186E-06  0.2691232E+04  0.7818609E-02  0.8337856E-01
       -2   -1    0    0    0  501  0.00000000000E+00  0.00000000000E+00  0.83770607693E+03  0.83770607693E+03  0.25500000920E-02 0.  1.
        2   -1    0    0  501    0  0.00000000000E+00  0.00000000000E+00 -0.21614763601E+04  0.21614763601E+04  0.25500000920E-02 0. -1.
    10030    2    1    2    0    0  0.00000000000E+00  0.00000000000E+00 -0.13237702831E+04  0.29991824370E+04  0.26912316006E+04 0.  0.
        3    1    3    3  502    0  0.82731160773E+03 -0.93417214818E+03 -0.10071831756E+03  0.12519050637E+04  0.10100000352E+00 0.  1.
       -3    1    3    3    0  502 -0.82731160773E+03  0.93417214818E+03 -0.12230519656E+04  0.17472773734E+04  0.10100000352E+00 0. -1.
</event>
<event>
 5   0  0.4401659E-06  0.2698417E+04  0.7818609E-02  0.8335519E-01
        2   -1    0    0  501    0  0.00000000000E+00  0.00000000000E+00  0.10588972729E+04  0.10588972729E+04  0.25500000920E-02 0. -1.
       -2   -1    0    0    0  501  0.00000000000E+00  0.00000000000E+00 -0.17191122571E+04  0.17191122571E+04  0.25500000920E-02 0.  1.
    10030    2    1    2    0    0  0.00000000000E+00  0.00000000000E+00 -0.66021498419E+03  0.27780095300E+04  0.26984167809E+04 0.  0.
        5    1    3    3  502    0 -0.99224334790E+03  0.65964105004E+03  0.32154646865E+03  0.12341342706E+04  0.46999998093E+01 0. -1.
       -5    1    3    3    0  502  0.99224334790E+03 -0.65964105004E+03 -0.98176145285E+03  0.15438752594E+04  0.46999998093E+01 0.  1.
</event>
<event>
 5   0  0.4448804E-06  0.2672246E+04  0.7818609E-02  0.8344067E-01
       -2   -1    0    0    0  501  0.00000000000E+00  0.00000000000E+00  0.99645031917E+03  0.99645031917E+03  0.25500000920E-02 0.  1.
        2   -1    0    0  501    0  0.00000000000E+00  0.00000000000E+00 -0.17915842900E+04  0.17915842900E+04  0.25500000920E-02 0. -1.
    10030    2    1    2    0    0  0.00000000000E+00  0.00000000000E+00 -0.79513397085E+03  0.27880346092E+04  0.26722460498E+04 0.  0.
        2    1    3    3  502    0  0.31254662323E+03  0.34574731922E+03 -0.17040220837E+04  0.17666119728E+04  0.25500000920E-02 0. -1.
       -2    1    3    3    0  502 -0.31254662323E+03 -0.34574731922E+03  0.90888811289E+03  0.10214226364E+04  0.25500000920E-02 0.  1.
</event>
<event>
 5   0  0.4401659E-06  0.2706564E+04  0.7818609E-02  0.8332878E-01
       -2   -1    0    0    0  501  0.00000000000E+00  0.00000000000E+00  0.10793827378E+04  0.10793827378E+04  0.25500000920E-02 0. -1.
        2   -1    0    0  501    0  0.00000000000E+00  0.00000000000E+00 -0.16966850660E+04  0.16966850660E+04  0.25500000920E-02 0.  1.
    10030    2    1    2    0    0  0.00000000000E+00  0.00000000000E+00 -0.61730232813E+03  0.27760678038E+04  0.27065642957E+04 0.  0.
        5    1    3    3  502    0  0.40051118518E+03  0.12835015901E+04 -0.15120035565E+03  0.13530222388E+04  0.46999998093E+01 0.  1.
       -5    1    3    3    0  502 -0.40051118518E+03 -0.12835015901E+04 -0.46610197248E+03  0.14230455650E+04  0.46999998093E+01 0. -1.
</event>
<event>
 5   0  0.4448804E-06  0.2696472E+04  0.7818609E-02  0.8336151E-01
        2   -1    0    0  501    0  0.00000000000E+00  0.00000000000E+00  0.83535829454E+03  0.83535829455E+03  0.25500000920E-02 0. -1.
       -2   -1    0    0    0  501  0.00000000000E+00  0.00000000000E+00 -0.21760000005E+04  0.21760000005E+04  0.25500000920E-02 0.  1.
    10030    2    1    2    0    0  0.00000000000E+00  0.00000000000E+00 -0.13406417059E+04  0.30113582950E+04  0.26964715087E+04 0.  0.
        2    1    3    3  502    0  0.93382578813E+03  0.56945016852E+03  0.21004794814E+03  0.11137433446E+04  0.25500000920E-02 0. -1.
       -2    1    3    3    0  502 -0.93382578813E+03 -0.56945016852E+03 -0.15506896541E+04  0.18976149505E+04  0.25500000920E-02 0.  1.
</event>
<event>
 5   0  0.4439357E-06  0.2706784E+04  0.7818609E-02  0.8332807E-01
        2   -1    0    0  501    0  0.00000000000E+00  0.00000000000E+00  0.19886372109E+04  0.19886372109E+04  0.25500000920E-02 0. -1.
       -2   -1    0    0    0  501  0.00000000000E+00  0.00000000000E+00 -0.92106764528E+03  0.92106764528E+03  0.25500000920E-02 0.  1.
    10030    2    1    2    0    0  0.00000000000E+00  0.00000000000E+00  0.10675695656E+04  0.29097048562E+04  0.27067836213E+04 0.  0.
        4    1    3    3  502    0 -0.37477690527E+03 -0.88056662766E+03  0.15625083146E+04  0.18322906867E+04  0.12699999809E+01 0. -1.
       -4    1    3    3    0  502  0.37477690527E+03  0.88056662766E+03 -0.49493874897E+03  0.10774141695E+04  0.12699999809E+01 0.  1.
</event>
<event>
 5   0  0.4655882E-06  0.2698533E+04  0.7818609E-02  0.8335481E-01
       -2   -1    0    0    0  501  0.00000000000E+00  0.00000000000E+00  0.77682910058E+03  0.77682910058E+03  0.25500000920E-02 0. -1.
        2   -1    0    0  501    0  0.00000000000E+00  0.00000000000E+00 -0.23435264908E+04  0.23435264908E+04  0.25500000920E-02 0.  1.
    10030    2    1    2    0    0  0.00000000000E+00  0.00000000000E+00 -0.15666973902E+04  0.31203555914E+04  0.26985326205E+04 0.  0.
        1    1    3    3  502    0 -0.13733249089E+03 -0.64218362654E+03  0.57956423580E+03  0.87587369335E+03  0.50400001928E-02 0. -1.
       -1    1    3    3    0  502  0.13733249089E+03  0.64218362654E+03 -0.21462616260E+04  0.22444818980E+04  0.50400001928E-02 0.  1.
</event>
<event>
 5   0  0.1723605E-06  0.2693420E+04  0.7818609E-02  0.8337143E-01
        1   -1    0    0  501    0  0.00000000000E+00  0.00000000000E+00  0.16260726448E+04  0.16260726448E+04  0.50400001928E-02 0. -1.
       -1   -1    0    0    0  501  0.00000000000E+00  0.00000000000E+00 -0.11153427355E+04  0.11153427355E+04  0.50400001928E-02 0.  1.
    10030    2    1    2    0    0  0.00000000000E+00  0.00000000000E+00  0.51072990928E+03  0.27414153803E+04  0.26934203621E+04 0.  0.
        1    1    3    3  502    0 -0.74941894457E+03 -0.85908148367E+03  0.98506304268E+03  0.15066515683E+04  0.50400001928E-02 0. -1.
       -1    1    3    3    0  502  0.74941894457E+03  0.85908148367E+03 -0.47433313340E+03  0.12347638120E+04  0.50400001928E-02 0.  1.
</event>
<event>
 5   0  0.1732312E-06  0.2689431E+04  0.7818609E-02  0.8338442E-01
       -1   -1    0    0    0  501  0.00000000000E+00  0.00000000000E+00  0.91265508504E+03  0.91265508505E+03  0.50400001928E-02 0.  1.
        1   -1    0    0  501    0  0.00000000000E+00  0.00000000000E+00 -0.19813176713E+04  0.19813176713E+04  0.50400001928E-02 0. -1.
    10030    2    1    2    0    0  0.00000000000E+00  0.00000000000E+00 -0.10686625863E+04  0.28939727564E+04  0.26894309047E+04 0.  0.
        5    1    3    3  502    0  0.76058575566E+03  0.11085752645E+04 -0.50374884136E+03  0.14356931406E+04  0.46999998093E+01 0. -1.
       -5    1    3    3    0  502 -0.76058575566E+03 -0.11085752645E+04 -0.56491374491E+03  0.14582796158E+04  0.46999998093E+01 0.  1.
</event>
<event>
 5   0  0.1771016E-06  0.2733900E+04  0.7818609E-02  0.8324089E-01
        1   -1    0    0  501    0  0.00000000000E+00  0.00000000000E+00  0.14882468959E+04  0.14882468959E+04  0.50400001928E-02 0. -1.
       -1   -1    0    0    0  501  0.00000000000E+00  0.00000000000E+00 -0.12555392702E+04  0.12555392702E+04  0.50400001928E-02 0.  1.
    10030    2    1    2    0    0  0.00000000000E+00  0.00000000000E+00  0.23270762569E+03  0.27437861661E+04  0.27339000871E+04 0.  0.
        2    1    3    3  502    0 -0.31211378606E+03 -0.95744793409E+02  0.14485461158E+04  0.14848797697E+04  0.25500000920E-02 0. -1.
       -2    1    3    3    0  502  0.31211378606E+03  0.95744793409E+02 -0.12158384901E+04  0.12589063964E+04  0.25500000920E-02 0.  1.
</event>
<event>
 5   0  0.1482875E-06  0.2712870E+04  0.7818609E-02  0.8330841E-01
        3   -1    0    0  501    0  0.00000000000E+00  0.00000000000E+00  0.15678567482E+04  0.15678567514E+04  0.10100000352E+00 0.  1.
       -3   -1    0    0    0  501  0.00000000000E+00  0.00000000000E+00 -0.11735232882E+04  0.11735232925E+04  0.10100000352E+00 0. -1.
    10030    2    1    2    0    0  0.00000000000E+00  0.00000000000E+00  0.39433345998E+03  0.27413800440E+04  0.27128703743E+04 0.  0.
        4    1    3    3  502    0 -0.27981421572E+03 -0.12456462493E+04  0.66022276049E+03  0.14372982572E+04  0.12699999809E+01 0.  1.
       -4    1    3    3    0  502  0.27981421572E+03  0.12456462493E+04 -0.26588930051E+03  0.13040817868E+04  0.12699999809E+01 0. -1.
</event>
<event>
 5   0  0.4487186E-06  0.2691220E+04  0.7818609E-02  0.8337860E-01
       -2   -1    0    0    0  501  0.00000000000E+00  0.00000000000E+00  0.82161417789E+03  0.82161417789E+03  0.25500000920E-02 0.  1.
        2   -1    0    0  501    0  0.00000000000E+00  0.00000000000E+00 -0.22037906966E+04  0.22037906966E+04  0.25500000920E-02 0. -1.
    10030    2    1    2    0    0  0.00000000000E+00  0.00000000000E+00 -0.13821765187E+04  0.30254048745E+04  0.26912195610E+04 0.  0.
        3    1    3    3  502    0 -0.10106757731E+04 -0.29674507265E+03 -0.16324087717E+04  0.19427510300E+04  0.10100000352E+00 0.  1.
       -3    1    3    3    0  502  0.10106757731E+04  0.29674507265E+03  0.25023225297E+03  0.10826538445E+04  0.10100000352E+00 0. -1.
</event>
<event>
 5   0  0.4439357E-06  0.2697267E+04  0.7818609E-02  0.8335892E-01
       -2   -1    0    0    0  501  0.00000000000E+00  0.00000000000E+00  0.10070975940E+04  0.10070975940E+04  0.25500000920E-02 0.  1.
        2   -1    0    0  501    0  0.00000000000E+00  0.00000000000E+00 -0.18059947128E+04  0.18059947128E+04  0.25500000920E-02 0. -1.
    10030    2    1    2    0    0  0.00000000000E+00  0.00000000000E+00 -0.79889711881E+03  0.28130923067E+04  0.26972674543E+04 0.  0.
        4    1    3    3  502    0 -0.54084758770E+03 -0.12115888424E+04 -0.65137385152E+03  0.14780910471E+04  0.12699999809E+01 0. -1.
       -4    1    3    3    0  502  0.54084758770E+03  0.12115888424E+04 -0.14752326729E+03  0.13350012597E+04  0.12699999809E+01 0.  1.
</event>
<event>
 5   0  0.1828511E-06  0.2714824E+04  0.7818609E-02  0.8330211E-01
       -1   -1    0    0    0  501  0.00000000000E+00  0.00000000000E+00  0.14428911299E+04  0.14428911299E+04  0.50400001928E-02 0. -1.
        1   -1    0    0  501    0  0.00000000000E+00  0.00000000000E+00 -0.12769969596E+04  0.12769969596E+04  0.50400001928E-02 0.  1.
    10030    2    1    2    0    0  0.00000000000E+00  0.00000000000E+00  0.16589417030E+03  0.27198880895E+04  0.27148241829E+04 0.  0.
        4    1    3    3  502    0  0.15308789563E+03  0.62699705249E+01  0.14341995828E+04  0.14423610063E+04  0.12699999809E+01 0. -1.
       -4    1    3    3    0  502 -0.15308789563E+03 -0.62699705249E+01 -0.12683054125E+04  0.12775270833E+04  0.12699999809E+01 0.  1.
</event>
<event>
 5   0  0.1771016E-06  0.2689882E+04  0.7818609E-02  0.8338295E-01
        1   -1    0    0  501    0  0.00000000000E+00  0.00000000000E+00  0.21587301876E+04  0.21587301876E+04  0.50400001928E-02 0. -1.
       -1   -1    0    0    0  501  0.00000000000E+00  0.00000000000E+00 -0.83793086035E+03  0.83793086037E+03  0.50400001928E-02 0.  1.
    10030    2    1    2    0    0  0.00000000000E+00  0.00000000000E+00  0.13207993272E+04  0.29966610479E+04  0.26898822601E+04 0.  0.
        2    1    3    3  502    0  0.55795963769E+03 -0.32231656002E+03  0.19755721846E+04  0.20780020160E+04  0.25500000920E-02 0. -1.
       -2    1    3    3    0  502 -0.55795963769E+03  0.32231656002E+03 -0.65477285737E+03  0.91865903190E+03  0.25500000920E-02 0.  1.
</event>
<event>
 5   0  0.1771016E-06  0.2698155E+04  0.7818609E-02  0.8335604E-01
       -1   -1    0    0    0  501  0.00000000000E+00  0.00000000000E+00  0.10288031874E+04  0.10288031875E+04  0.50400001928E-02 0.  1.
        1   -1    0    0  501    0  0.00000000000E+00  0.00000000000E+00 -0.17690553397E+04  0.17690553397E+04  0.50400001928E-02 0. -1.
    10030    2    1    2    0    0  0.00000000000E+00  0.00000000000E+00 -0.74025215222E+03  0.27978585271E+04  0.26981547563E+04 0.  0.
        2    1    3    3  502    0  0.10986869561E+03  0.38101639565E+03 -0.17072582894E+04  0.17527051922E+04  0.25500000920E-02 0. -1.
       -2    1    3    3    0  502 -0.10986869561E+03 -0.38101639565E+03  0.96700613721E+03  0.10451533349E+04  0.25500000920E-02 0.  1.
</event>
<event>
 5   0  0.4448804E-06  0.2715947E+04  0.7818609E-02  0.8329849E-01
        2   -1    0    0  501    0  0.00000000000E+00  0.00000000000E+00  0.18803535958E+04  0.18803535958E+04  0.25500000920E-02 0.  1.
       -2   -1    0    0    0  501  0.00000000000E+00  0.00000000000E+00 -0.98071571282E+03  0.98071571283E+03  0.25500000920E-02 0. -1.
    10030    2    1    2    0    0  0.00000000000E+00  0.00000000000E+00  0.89963788296E+03  0.28610693086E+04  0.27159472138E+04 0.  0.
        2    1    3    3  502    0  0.12541149980E+04  0.20338258387E+03  0.95494369653E+03  0.15893666560E+04  0.25500000920E-02 0.  1.
       -2    1    3    3    0  502 -0.12541149980E+04 -0.20338258387E+03 -0.55305813573E+02  0.12717026526E+04  0.25500000920E-02 0. -1.
</event>
<event>
 5   0  0.1723605E-06  0.2721702E+04  0.7818609E-02  0.8327998E-01
        1   -1    0    0  501    0  0.00000000000E+00  0.00000000000E+00  0.80766753747E+03  0.80766753749E+03  0.50400001928E-02 0.  1.
       -1   -1    0    0    0  501  0.00000000000E+00  0.00000000000E+00 -0.22929181984E+04  0.22929181984E+04  0.50400001928E-02 0. -1.
    10030    2    1    2    0    0  0.00000000000E+00  0.00000000000E+00 -0.14852506609E+04  0.31005857358E+04  0.27217021108E+04 0.  0.
        1    1    3    3  502    0  0.11270482800E+04  0.70393854992E+03 -0.40825596655E+03  0.13901223837E+04  0.50400001928E-02 0.  1.
       -1    1    3    3    0  502 -0.11270482800E+04 -0.70393854992E+03 -0.10769946943E+04  0.17104633522E+04  0.50400001928E-02 0. -1.
</event>
<event>
 5   0  0.1828511E-06  0.2701995E+04  0.7818609E-02  0.8334358E-01
        1   -1    0    0  501    0  0.00000000000E+00  0.00000000000E+00  0.21905144599E+04  0.21905144599E+04  0.50400001928E-02 0.  1.
       -1   -1    0    0    0  501  0.00000000000E+00  0.00000000000E+00 -0.83322602378E+03  0.83322602379E+03  0.50400001928E-02 0. -1.
    10030    2    1    2    0    0  0.00000000000E+00  0.00000000000E+00  0.13572884361E+04  0.30237404837E+04  0.27019945621E+04 0.  0.
        4    1    3    3  502    0  0.89358651012E+03  0.10132596612E+04  0.67889058294E+03  0.15119808294E+04  0.12699999809E+01 0. -1.
       -4    1    3    3    0  502 -0.89358651012E+03 -0.10132596612E+04  0.67839785314E+03  0.15117596542E+04  0.12699999809E+01 0.  1.
</event>
<event>
 5   0  0.1753474E-06  0.2702976E+04  0.7818609E-02  0.8334040E-01
        1   -1    0    0  501    0  0.00000000000E+00  0.00000000000E+00  0.13656490849E+04  0.13656490849E+04  0.50400001928E-02 0. -1.
       -1   -1    0    0    0  501  0.00000000000E+00  0.00000000000E+00 -0.13374741466E+04  0.13374741466E+04  0.50400001928E-02 0.  1.
    10030    2    1    2    0    0  0.00000000000E+00  0.00000000000E+00  0.28174938280E+02  0.27031232315E+04  0.27029763923E+04 0.  0.
        3    1    3    3  502    0  0.72637292462E+03 -0.11369133285E+04 -0.65483128161E+02  0.13507322430E+04  0.10100000352E+00 0.  1.
       -3    1    3    3    0  502 -0.72637292462E+03  0.11369133285E+04  0.93658066441E+02  0.13523909885E+04  0.10100000352E+00 0. -1.
</event>
<event>
 5   0  0.1828511E-06  0.2700365E+04  0.7818609E-02  0.8334887E-01
        1   -1    0    0  501    0  0.00000000000E+00  0.00000000000E+00  0.13608822021E+04  0.13608822021E+04  0.50400001928E-02 0. -1.
       -1   -1    0    0    0  501  0.00000000000E+00  0.00000000000E+00 -0.13395665606E+04  0.13395665606E+04  0.50400001928E-02 0.  1.
    10030    2    1    2    0    0  0.00000000000E+00  0.00000000000E+00  0.21315641440E+02  0.27004487627E+04  0.27003646353E+04 0.  0.
        4    1    3    3  502    0  0.14635766736E+02 -0.32207036333E+03 -0.13005074114E+04  0.13398748690E+04  0.12699999809E+01 0.  1.
       -4    1    3    3    0  502 -0.14635766736E+02  0.32207036333E+03  0.13218230528E+04  0.13605738938E+04  0.12699999809E+01 0. -1.
</event>
<event>
 5   0  0.4439357E-06  0.2698751E+04  0.7818609E-02  0.8335410E-01
        2   -1    0    0  501    0  0.00000000000E+00  0.00000000000E+00  0.18926947183E+04  0.18926947183E+04  0.25500000920E-02 0.  1.
       -2   -1    0    0    0  501  0.00000000000E+00  0.00000000000E+00 -0.96202215760E+03  0.96202215760E+03  0.25500000920E-02 0. -1.
    10030    2    1    2    0    0  0.00000000000E+00  0.00000000000E+00  0.93067256069E+03  0.28547168759E+04  0.26987510123E+04 0.  0.
        4    1    3    3  502    0  0.12075814600E+04  0.46253394557E+03  0.87313118015E+03  0.15603045549E+04  0.12699999809E+01 0.  1.
       -4    1    3    3    0  502 -0.12075814600E+04 -0.46253394557E+03  0.57541380542E+02  0.12944123210E+04  0.12699999809E+01 0. -1.
</event>
<event>
 5   0  0.4448804E-06  0.2704479E+04  0.7818609E-02  0.8333553E-01
        2   -1    0    0  501    0  0.00000000000E+00  0.00000000000E+00  0.11892178858E+04  0.11892178858E+04  0.25500000920E-02 0.  1.
       -2   -1    0    0    0  501  0.00000000000E+00  0.00000000000E+00 -0.15376088042E+04  0.15376088042E+04  0.25500000920E-02 0. -1.
    10030    2    1    2    0    0  0.00000000000E+00  0.00000000000E+00 -0.34839091840E+03  0.27268266900E+04  0.27044791671E+04 0.  0.
        2    1    3    3  502    0 -0.99946889761E+03  0.67003662793E+03  0.44788307617E+03  0.12839339586E+04  0.25500000920E-02 0.  1.
       -2    1    3    3    0  502  0.99946889761E+03 -0.67003662793E+03 -0.79627399457E+03  0.14428927315E+04  0.25500000920E-02 0. -1.
</event>
<event>
 5   0  0.4401659E-06  0.2694851E+04  0.7818609E-02  0.8336678E-01
        2   -1    0    0  501    0  0.00000000000E+00  0.00000000000E+00  0.20804437992E+04  0.20804437992E+04  0.25500000920E-02 0.  1.
       -2   -1    0    0    0  501  0.00000000000E+00  0.00000000000E+00 -0.87267705343E+03  0.87267705344E+03  0.25500000920E-02 0. -1.
    10030    2    1    2    0    0  0.00000000000E+00  0.00000000000E+00  0.12077667458E+04  0.29531208527E+04  0.26948510642E+04 0.  0.
        5    1    3    3  502    0  0.91301842876E+03  0.83187494985E+03  0.13843020642E+02  0.12352458470E+04  0.46999998093E+01 0. -1.
       -5    1    3    3    0  502 -0.91301842876E+03 -0.83187494985E+03  0.11939237252E+04  0.17178750056E+04  0.46999998093E+01 0.  1.
</event>
<event>
 5   0  0.4487186E-06  0.2715426E+04  0.7818609E-02  0.8330017E-01
       -2   -1    0    0    0  501  0.00000000000E+00  0.00000000000E+00  0.15839708046E+04  0.15839708046E+04  0.25500000920E-02 0.  1.
        2   -1    0    0  501    0  0.00000000000E+00  0.00000000000E+00 -0.11637744185E+04  0.11637744185E+04  0.25500000920E-02 0. -1.
    10030    2    1    2    0    0  0.00000000000E+00  0.00000000000E+00  0.42019638608E+03  0.27477452231E+04  0.27154260822E+04 0.  0.
        3    1    3    3  502    0  0.47501661076E+03  0.12660754391E+04  0.33318847115E+03  0.13926960780E+04  0.10100000352E+00 0. -1.
       -3    1    3    3    0  502 -0.47501661076E+03 -0.12660754391E+04  0.87007914923E+02  0.13550491451E+04  0.10100000352E+00 0.  1.
</event>
<event>
 5   0  0.4655882E-06  0.2703916E+04  0.7818609E-02  0.8333736E-01
        2   -1    0    0  501    0  0.00000000000E+00  0.00000000000E+00  0.18922478959E+04  0.18922478959E+04  0.25500000920E-02 0.  1.
       -2   -1    0    0    0  501  0.00000000000E+00  0.00000000000E+00 -0.96593577848E+03  0.96593577849E+03  0.25500000920E-02 0. -1.
    10030    2    1    2    0    0  0.00000000000E+00  0.00000000000E+00  0.92631211745E+03  0.28581836744E+04  0.27039156381E+04 0.  0.
        1    1    3    3  502    0  0.31378229576E+03 -0.73375232738E+03 -0.69040768597E+03  0.10552320029E+04  0.50400001928E-02 0. -1.
       -1    1    3    3    0  502 -0.31378229576E+03  0.73375232738E+03  0.16167198034E+04  0.18029516715E+04  0.50400001928E-02 0.  1.
</event>
<event>
 5   0  0.1753474E-06  0.2710603E+04  0.7818609E-02  0.8331573E-01
        1   -1    0    0  501    0  0.00000000000E+00  0.00000000000E+00  0.17290270084E+04  0.17290270084E+04  0.50400001928E-02 0.  1.
       -1   -1    0    0    0  501  0.00000000000E+00  0.00000000000E+00 -0.10623559633E+04  0.10623559633E+04  0.50400001928E-02 0. -1.
    10030    2    1    2    0    0  0.00000000000E+00  0.00000000000E+00  0.66667104507E+03  0.27913829717E+04  0.27106029979E+04 0.  0.
        3    1    3    3  502    0  0.78983327105E+03 -0.10814468182E+04  0.11860690937E+03  0.13444074627E+04  0.10100000352E+00 0.  1.
       -3    1    3    3    0  502 -0.78983327105E+03  0.10814468182E+04  0.54806413569E+03  0.14469755090E+04  0.10100000352E+00 0. -1.
</event>
<event>
 5   0  0.1753474E-06  0.2705018E+04  0.7818609E-02  0.8333379E-01
       -1   -1    0    0    0  501  0.00000000000E+00  0.00000000000E+00  0.10173176936E+04  0.10173176936E+04  0.50400001928E-02 0. -1.
        1   -1    0    0  501    0  0.00000000000E+00  0.00000000000E+00 -0.17981409736E+04  0.17981409736E+04  0.50400001928E-02 0.  1.
    10030    2    1    2    0    0  0.00000000000E+00  0.00000000000E+00 -0.78082327998E+03  0.28154586671E+04  0.27050180243E+04 0.  0.
        3    1    3    3  502    0  0.10348919152E+04  0.12126445210E+03 -0.12879255138E+04  0.16566407223E+04  0.10100000352E+00 0.  1.
       -3    1    3    3    0  502 -0.10348919152E+04 -0.12126445210E+03  0.50710223383E+03  0.11588179448E+04  0.10100000352E+00 0. -1.
</event>
<event>
 5   0  0.4401659E-06  0.2697037E+04  0.7818609E-02  0.8335967E-01
       -2   -1    0    0    0  501  0.00000000000E+00  0.00000000000E+00  0.68526844141E+03  0.68526844142E+03  0.25500000920E-02 0.  1.
        2   -1    0    0  501    0  0.00000000000E+00  0.00000000000E+00 -0.26537068127E+04  0.26537068127E+04  0.25500000920E-02 0. -1.
    10030    2    1    2    0    0  0.00000000000E+00  0.00000000000E+00 -0.19684383713E+04  0.33389752542E+04  0.26970365452E+04 0.  0.
        5    1    3    3  502    0  0.22859393260E+03 -0.46527719263E+02  0.66008807643E+03  0.70011311466E+03  0.46999998093E+01 0.  1.
       -5    1    3    3    0  502 -0.22859393260E+03  0.46527719263E+02 -0.26285264478E+04  0.26388621395E+04  0.46999998093E+01 0. -1.
</event>
<event>
 5   0  0.1828511E-06  0.2704967E+04  0.7818609E-02  0.8333395E-01
        1   -1    0    0  501    0  0.00000000000E+00  0.00000000000E+00  0.14020210270E+04  0.14020210270E+04  0.50400001928E-02 0. -1.
       -1   -1    0    0    0  501  0.00000000000E+00  0.00000000000E+00 -0.13046967383E+04  0.13046967383E+04  0.50400001928E-02 0.  1.
    10030    2    1    2    0    0  0.00000000000E+00  0.00000000000E+00  0.97324288675E+02  0.27067177652E+04  0.27049674755E+04 0.  0.
        4    1    3    3  502    0 -0.19050433265E+03 -0.11693393465E+04 -0.60411281957E+03  0.13298873335E+04  0.12699999809E+01 0.  1.
       -4    1    3    3    0  502  0.19050433265E+03  0.11693393465E+04  0.70143710824E+03  0.13768304318E+04  0.12699999809E+01 0. -1.
</event>
<event>
 5   0  0.4655882E-06  0.2700914E+04  0.7818609E-02  0.8334708E-01
       -2   -1    0    0    0  501  0.00000000000E+00  0.00000000000E+00  0.11083987884E+04  0.11083987884E+04  0.25500000920E-02 0.  1.
        2   -1    0    0  501    0  0.00000000000E+00  0.00000000000E+00 -0.16453773373E+04  0.16453773373E+04  0.25500000920E-02 0. -1.
    10030    2    1    2    0    0  0.00000000000E+00  0.00000000000E+00 -0.53697854885E+03  0.27537761257E+04  0.27009141024E+04 0.  0.
        1    1    3    3  502    0  0.49745370411E+03  0.62786254157E+03  0.84001688979E+03  0.11607324989E+04  0.50400001928E-02 0.  1.
       -1    1    3    3    0  502 -0.49745370411E+03 -0.62786254157E+03 -0.13769954386E+04  0.15930436268E+04  0.50400001928E-02 0. -1.
</event>
<event>
 5   0  0.4487186E-06  0.2649524E+04  0.7818609E-02  0.8351571E-01
       -2   -1    0    0    0  501  0.00000000000E+00  0.00000000000E+00  0.12899588314E+04  0.12899588314E+04  0.25500000920E-02 0. -1.
        2   -1    0    0  501    0  0.00000000000E+00  0.00000000000E+00 -0.13605044978E+04  0.13605044978E+04  0.25500000920E-02 0.  1.
    10030    2    1    2    0    0  0.00000000000E+00  0.00000000000E+00 -0.70545666376E+02  0.26504633292E+04  0.26495243287E+04 0.  0.
        3    1    3    3  502    0  0.80965186283E+03  0.93319692006E+03  0.44302018868E+03  0.13125012489E+04  0.10100000352E+00 0. -1.
       -3    1    3    3    0  502 -0.80965186283E+03 -0.93319692006E+03 -0.51356585506E+03  0.13379620803E+04  0.10100000352E+00 0.  1.
</event>
<event>
 5   0  0.1753474E-06  0.2701233E+04  0.7818609E-02  0.8334605E-01
       -1   -1    0    0    0  501  0.00000000000E+00  0.00000000000E+00  0.14347223722E+04  0.14347223723E+04  0.50400001928E-02 0. -1.
        1   -1    0    0  501    0  0.00000000000E+00  0.00000000000E+00 -0.12714409832E+04  0.12714409832E+04  0.50400001928E-02 0.  1.
    10030    2    1    2    0    0  0.00000000000E+00  0.00000000000E+00  0.16328138907E+03  0.27061633554E+04  0.27012329211E+04 0.  0.
        3    1    3    3  502    0  0.72245227278E+02  0.12979822846E+04  0.44862533801E+03  0.13752243774E+04  0.10100000352E+00 0.  1.
       -3    1    3    3    0  502 -0.72245227278E+02 -0.12979822846E+04 -0.28534394895E+03  0.13309389781E+04  0.10100000352E+00 0. -1.
</event>
<event>
 5   0  0.4487186E-06  0.2688883E+04  0.7818609E-02  0.8338621E-01
        2   -1    0    0  501    0  0.00000000000E+00  0.00000000000E+00  0.18555641894E+04  0.18555641894E+04  0.25500000920E-02 0.  1.
       -2   -1    0    0    0  501  0.00000000000E+00  0.00000000000E+00 -0.97410947048E+03  0.97410947048E+03  0.25500000920E-02 0. -1.
    10030    2    1    2    0    0  0.00000000000E+00  0.00000000000E+00  0.88145471892E+03  0.28296736599E+04  0.26888827791E+04 0.  0.
        3    1    3    3  502    0 -0.90125173251E+03  0.96052043879E+03  0.72441303323E+03  0.15032060576E+04  0.10100000352E+00 0. -1.
       -3    1    3    3    0  502  0.90125173251E+03 -0.96052043879E+03  0.15704168569E+03  0.13264676023E+04  0.10100000352E+00 0.  1.
</event>
<event>
 5   0  0.4655882E-06  0.2694304E+04  0.7818609E-02  0.8336855E-01
        2   -1    0    0  501    0  0.00000000000E+00  0.00000000000E+00  0.29288062607E+04  0.29288062607E+04  0.25500000920E-02 0.  1.
       -2   -1    0    0    0  501  0.00000000000E+00  0.00000000000E+00 -0.61964449987E+03  0.61964449987E+03  0.25500000920E-02 0. -1.
    10030    2    1    2    0    0  0.00000000000E+00  0.00000000000E+00  0.23091617608E+04  0.35484507605E+04  0.26943041333E+04 0.  0.
        1    1    3    3  502    0  0.10569863083E+04 -0.83360290699E+03  0.10860853859E+04  0.17296517938E+04  0.50400001928E-02 0.  1.
       -1    1    3    3    0  502 -0.10569863083E+04  0.83360290699E+03  0.12230763749E+04  0.18187989667E+04  0.50400001928E-02 0. -1.
</event>
<event>
 5   0  0.1828511E-06  0.2703518E+04  0.7818609E-02  0.8333864E-01
       -1   -1    0    0    0  501  0.00000000000E+00  0.00000000000E+00  0.23807741589E+04  0.23807741589E+04  0.50400001928E-02 0.  1.
        1   -1    0    0  501    0  0.00000000000E+00  0.00000000000E+00 -0.76750341262E+03  0.76750341264E+03  0.50400001928E-02 0. -1.
    10030    2    1    2    0    0  0.00000000000E+00  0.00000000000E+00  0.16132707462E+04  0.31482775715E+04  0.27035179242E+04 0.  0.
        4    1    3    3  502    0 -0.11646837820E+04  0.23263246292E+03  0.15583042887E+04  0.19593162184E+04  0.12699999809E+01 0. -1.
       -4    1    3    3    0  502  0.11646837820E+04 -0.23263246292E+03  0.54966457573E+02  0.11889613531E+04  0.12699999809E+01 0.  1.
</event>
<event>
 5   0  0.4439357E-06  0.2710710E+04  0.7818609E-02  0.8331538E-01
        2   -1    0    0  501    0  0.00000000000E+00  0.00000000000E+00  0.14877250453E+04  0.14877250453E+04  0.25500000920E-02 0. -1.
       -2   -1    0    0    0  501  0.00000000000E+00  0.00000000000E+00 -0.12347622122E+04  0.12347622122E+04  0.25500000920E-02 0.  1.
    10030    2    1    2    0    0  0.00000000000E+00  0.00000000000E+00  0.25296283306E+03  0.27224872575E+04  0.27107096253E+04 0.  0.
        4    1    3    3  502    0 -0.63910274240E+03 -0.38354306107E+03 -0.10104384910E+04  0.12556054922E+04  0.12699999809E+01 0.  1.
       -4    1    3    3    0  502  0.63910274240E+03  0.38354306107E+03  0.12634013240E+04  0.14668817653E+04  0.12699999809E+01 0. -1.
</event>
<event>
 5   0  0.4448804E-06  0.2701388E+04  0.7818609E-02  0.8334555E-01
        2   -1    0    0  501    0  0.00000000000E+00  0.00000000000E+00  0.18336826026E+04  0.18336826026E+04  0.25500000920E-02 0. -1.
       -2   -1    0    0    0  501  0.00000000000E+00  0.00000000000E+00 -0.99492401908E+03  0.99492401908E+03  0.25500000920E-02 0.  1.
    10030    2    1    2    0    0  0.00000000000E+00  0.00000000000E+00  0.83875858352E+03  0.28286066217E+04  0.27013884317E+04 0.  0.
        2    1    3    3  502    0  0.75196664221E+03  0.98695816517E+03 -0.13945352348E+03  0.12485942239E+04  0.25500000920E-02 0.  1.
       -2    1    3    3    0  502 -0.75196664221E+03 -0.98695816517E+03  0.97821210700E+03  0.15800123978E+04  0.25500000920E-02 0. -1.
</event>
<event>
 5   0  0.1753474E-06  0.2546603E+04  0.7818609E-02  0.8386568E-01
        1   -1    0    0  501    0  0.00000000000E+00  0.00000000000E+00  0.99747771849E+03  0.99747771850E+03  0.50400001928E-02 0. -1.
       -1   -1    0    0    0  501  0.00000000000E+00  0.00000000000E+00 -0.16253966656E+04  0.16253966656E+04  0.50400001928E-02 0.  1.
    10030    2    1    2    0    0  0.00000000000E+00  0.00000000000E+00 -0.62791894712E+03  0.26228743841E+04  0.25466031946E+04 0.  0.
        3    1    3    3  502    0 -0.70919254699E+03  0.26187593289E+03 -0.13692256634E+04  0.15640690523E+04  0.10100000352E+00 0.  1.
       -3    1    3    3    0  502  0.70919254699E+03 -0.26187593289E+03  0.74130671625E+03  0.10588053318E+04  0.10100000352E+00 0. -1.
</event>
<event>
 5   0  0.1828511E-06  0.2691570E+04  0.7818609E-02  0.8337746E-01
        1   -1    0    0  501    0  0.00000000000E+00  0.00000000000E+00  0.16804020070E+04  0.16804020070E+04  0.50400001928E-02 0.  1.
       -1   -1    0    0    0  501  0.00000000000E+00  0.00000000000E+00 -0.10777996966E+04  0.10777996966E+04  0.50400001928E-02 0. -1.
    10030    2    1    2    0    0  0.00000000000E+00  0.00000000000E+00  0.60260231041E+03  0.27582017036E+04  0.26915696338E+04 0.  0.
        4    1    3    3  502    0  0.13037611237E+04 -0.30089797065E+03  0.15349987058E+03  0.13468097415E+04  0.12699999809E+01 0. -1.
       -4    1    3    3    0  502 -0.13037611237E+04  0.30089797065E+03  0.44910243982E+03  0.14113919622E+04  0.12699999809E+01 0.  1.
</event>
<event>
 5   0  0.1732312E-06  0.2692239E+04  0.7818609E-02  0.8337528E-01
       -1   -1    0    0    0  501  0.00000000000E+00  0.00000000000E+00  0.67208206373E+03  0.67208206375E+03  0.50400001928E-02 0. -1.
        1   -1    0    0  501    0  0.00000000000E+00  0.00000000000E+00 -0.26961549905E+04  0.26961549905E+04  0.50400001928E-02 0.  1.
    10030    2    1    2    0    0  0.00000000000E+00  0.00000000000E+00 -0.20240729268E+04  0.33682370543E+04  0.26922387786E+04 0.  0.
        5    1    3    3  502    0 -0.63600711178E+03 -0.10293268502E+04 -0.27400221166E+03  0.12406119913E+04  0.46999998093E+01 0. -1.
       -5    1    3    3    0  502  0.63600711178E+03  0.10293268502E+04 -0.17500707151E+04  0.21276250630E+04  0.46999998093E+01 0.  1.
</event>
<event>
 5   0  0.1828511E-06  0.2703989E+04  0.7818609E-02  0.8333712E-01
        1   -1    0    0  501    0  0.00000000000E+00  0.00000000000E+00  0.11410682767E+04  0.11410682767E+04  0.50400001928E-02 0. -1.
       -1   -1    0    0    0  501  0.00000000000E+00  0.00000000000E+00 -0.16019098545E+04  0.16019098545E+04  0.50400001928E-02 0.  1.
    10030    2    1    2    0    0  0.00000000000E+00  0.00000000000E+00 -0.46084157781E+03  0.27429781312E+04  0.27039885481E+04 0.  0.
        4    1    3    3  502    0 -0.23356563106E+03 -0.56621640401E+03  0.99225241914E+03  0.11660704937E+04  0.12699999809E+01 0. -1.
       -4    1    3    3    0  502  0.23356563106E+03  0.56621640401E+03 -0.14530939970E+04  0.15769076375E+04  0.12699999809E+01 0.  1.
</event>
<event>
 5   0  0.1723605E-06  0.2704381E+04  0.7818609E-02  0.8333585E-01
        1   -1    0    0  501    0  0.00000000000E+00  0.00000000000E+00  0.18663400263E+04  0.18663400263E+04  0.50400001928E-02 0. -1.
       -1   -1    0    0    0  501  0.00000000000E+00  0.00000000000E+00 -0.97968176794E+03  0.97968176796E+03  0.50400001928E-02 0.  1.
    10030    2    1    2    0    0  0.00000000000E+00  0.00000000000E+00  0.88665825831E+03  0.28460217942E+04  0.27043811096E+04 0.  0.
        1    1    3    3  502    0 -0.12643121267E+03  0.40574266005E+03 -0.90757193619E+03  0.10021470836E+04  0.50400001928E-02 0.  1.
       -1    1    3    3    0  502  0.12643121267E+03 -0.40574266005E+03  0.17942301945E+04  0.18438747107E+04  0.50400001928E-02 0. -1.
</event>
<event>
 5   0  0.4401659E-06  0.2698474E+04  0.7818609E-02  0.8335500E-01
       -2   -1    0    0    0  501  0.00000000000E+00  0.00000000000E+00  0.14809960454E+04  0.14809960454E+04  0.25500000920E-02 0.  1.
        2   -1    0    0  501    0  0.00000000000E+00  0.00000000000E+00 -0.12291998243E+04  0.12291998243E+04  0.25500000920E-02 0. -1.
    10030    2    1    2    0    0  0.00000000000E+00  0.00000000000E+00  0.25179622105E+03  0.27101958697E+04  0.26984737010E+04 0.  0.
        5    1    3    3  502    0 -0.54123115178E+03 -0.81191102817E+03  0.10617652890E+04  0.14420465652E+04  0.46999998093E+01 0.  1.
       -5    1    3    3    0  502  0.54123115178E+03  0.81191102817E+03 -0.80996906799E+03  0.12681493045E+04  0.46999998093E+01 0. -1.
</event>
<event>
 5   0  0.1828511E-06  0.2701853E+04  0.7818609E-02  0.8334404E-01
       -1   -1    0    0    0  501  0.00000000000E+00  0.00000000000E+00  0.16505882622E+04  0.16505882622E+04  0.50400001928E-02 0.  1.
        1   -1    0    0  501    0  0.00000000000E+00  0.00000000000E+00 -0.11056676447E+04  0.11056676447E+04  0.50400001928E-02 0. -1.
    10030    2    1    2    0    0  0.00000000000E+00  0.00000000000E+00  0.54492061752E+03  0.27562559069E+04  0.27018527245E+04 0.  0.
        4    1    3    3  502    0  0.97339630467E+03  0.89080188574E+03  0.56807448919E+03  0.14365718234E+04  0.12699999809E+01 0.  1.
       -4    1    3    3    0  502 -0.97339630467E+03 -0.89080188574E+03 -0.23153871669E+02  0.13196840835E+04  0.12699999809E+01 0. -1.
</event>
<event>
 5   0  0.1771016E-06  0.2700772E+04  0.7818609E-02  0.8334754E-01
        1   -1    0    0  501    0  0.00000000000E+00  0.00000000000E+00  0.13235187122E+04  0.13235187122E+04  0.50400001928E-02 0.  1.
       -1   -1    0    0    0  501  0.00000000000E+00  0.00000000000E+00 -0.13777988664E+04  0.13777988664E+04  0.50400001928E-02 0. -1.
    10030    2    1    2    0    0  0.00000000000E+00  0.00000000000E+00 -0.54280154240E+02  0.27013175786E+04  0.27007721721E+04 0.  0.
        2    1    3    3  502    0 -0.13178730720E+04 -0.11716897783E+03 -0.29742525023E+03  0.13560898875E+04  0.25500000920E-02 0. -1.
       -2    1    3    3    0  502  0.13178730720E+04  0.11716897783E+03  0.24314509599E+03  0.13452276912E+04  0.25500000920E-02 0.  1.
</event>
<event>
 5   0  0.4487186E-06  0.2687828E+04  0.7818609E-02  0.8338965E-01
        2   -1    0    0  501    0  0.00000000000E+00  0.00000000000E+00  0.28695904232E+04  0.28695904232E+04  0.25500000920E-02 0. -1.
       -2   -1    0    0    0  501  0.00000000000E+00  0.00000000000E+00 -0.62939474468E+03  0.62939474469E+03  0.25500000920E-02 0.  1.
    10030    2    1    2    0    0  0.00000000000E+00  0.00000000000E+00  0.22401956785E+04  0.34989851679E+04  0.26878282176E+04 0.  0.
        3    1    3    3  502    0  0.10149058713E+04  0.71343760806E+03  0.17928570132E+04  0.21802209586E+04  0.10100000352E+00 0. -1.
       -3    1    3    3    0  502 -0.10149058713E+04 -0.71343760806E+03  0.44733866533E+03  0.13187642093E+04  0.10100000352E+00 0.  1.
</event>
<event>
 5   0  0.4487186E-06  0.2700831E+04  0.7818609E-02  0.8334735E-01
        2   -1    0    0  501    0  0.00000000000E+00  0.00000000000E+00  0.15901996032E+04  0.15901996032E+04  0.25500000920E-02 0. -1.
       -2   -1    0    0    0  501  0.00000000000E+00  0.00000000000E+00 -0.11467881453E+04  0.11467881453E+04  0.25500000920E-02 0.  1.
    10030    2    1    2    0    0  0.00000000000E+00  0.00000000000E+00  0.44341145792E+03  0.27369877485E+04  0.27008310230E+04 0.  0.
        3    1    3    3  502    0  0.69247304464E+03  0.59727049270E+03  0.12286736657E+04  0.15316298332E+04  0.10100000352E+00 0. -1.
       -3    1    3    3    0  502 -0.69247304464E+03 -0.59727049270E+03 -0.78526220774E+03  0.12053579154E+04  0.10100000352E+00 0.  1.
</event>
<event>
 5   0  0.1732312E-06  0.2700612E+04  0.7818609E-02  0.8334806E-01
       -1   -1    0    0    0  501  0.00000000000E+00  0.00000000000E+00  0.89574598170E+03  0.89574598172E+03  0.50400001928E-02 0. -1.
        1   -1    0    0  501    0  0.00000000000E+00  0.00000000000E+00 -0.20355399064E+04  0.20355399064E+04  0.50400001928E-02 0.  1.
    10030    2    1    2    0    0  0.00000000000E+00  0.00000000000E+00 -0.11397939247E+04  0.29312858881E+04  0.27006122948E+04 0.  0.
        5    1    3    3  502    0 -0.25228334014E+03 -0.45835903993E+03 -0.19210383430E+04  0.19910174028E+04  0.46999998093E+01 0.  1.
       -5    1    3    3    0  502  0.25228334014E+03  0.45835903993E+03  0.78124441832E+03  0.94026848525E+03  0.46999998093E+01 0. -1.
</event>
<event>
 5   0  0.4401659E-06  0.2699477E+04  0.7818609E-02  0.8335175E-01
       -2   -1    0    0    0  501  0.00000000000E+00  0.00000000000E+00  0.80082320974E+03  0.80082320974E+03  0.25500000920E-02 0.  1.
        2   -1    0    0  501    0  0.00000000000E+00  0.00000000000E+00 -0.22749017882E+04  0.22749017882E+04  0.25500000920E-02 0. -1.
    10030    2    1    2    0    0  0.00000000000E+00  0.00000000000E+00 -0.14740785784E+04  0.30757249979E+04  0.26994770989E+04 0.  0.
        5    1    3    3  502    0  0.12180138312E+04  0.17861240475E+03 -0.10644527408E+03  0.12356426548E+04  0.46999998093E+01 0.  1.
       -5    1    3    3    0  502 -0.12180138312E+04 -0.17861240475E+03 -0.13676333043E+04  0.18400823431E+04  0.46999998093E+01 0. -1.
</event>
<event>
 5   0  0.4487186E-06  0.2705704E+04  0.7818609E-02  0.8333157E-01
        2   -1    0    0  501    0  0.00000000000E+00  0.00000000000E+00  0.33566105941E+04  0.33566105941E+04  0.25500000920E-02 0.  1.
       -2   -1    0    0    0  501  0.00000000000E+00  0.00000000000E+00 -0.54525503313E+03  0.54525503314E+03  0.25500000920E-02 0. -1.
    10030    2    1    2    0    0  0.00000000000E+00  0.00000000000E+00  0.28113555610E+04  0.39018656272E+04  0.27057042120E+04 0.  0.
        3    1    3    3  502    0 -0.17463463345E+03  0.57198819447E+03 -0.34427245337E+03  0.69006614332E+03  0.10100000352E+00 0. -1.
       -3    1    3    3    0  502  0.17463463345E+03 -0.57198819447E+03  0.31556280143E+04  0.32117994839E+04  0.10100000352E+00 0.  1.
</event>
<event>
 5   0  0.1753474E-06  0.2682229E+04  0.7818609E-02  0.8340794E-01
        1   -1    0    0  501    0  0.00000000000E+00  0.00000000000E+00  0.22896238464E+04  0.22896238465E+04  0.50400001928E-02 0. -1.
       -1   -1    0    0    0  501  0.00000000000E+00  0.00000000000E+00 -0.78553862170E+03  0.78553862172E+03  0.50400001928E-02 0.  1.
    10030    2    1    2    0    0  0.00000000000E+00  0.00000000000E+00  0.15040852247E+04  0.30751624682E+04  0.26822288945E+04 0.  0.
        3    1    3    3  502    0  0.32367942940E+03 -0.10823907556E+04  0.15805786105E+04  0.19428244581E+04  0.10100000352E+00 0. -1.
       -3    1    3    3    0  502 -0.32367942940E+03  0.10823907556E+04 -0.76493385729E+02  0.11323380101E+04  0.10100000352E+00 0.  1.
</event>
<event>
 5   0  0.1753474E-06  0.2693458E+04  0.7818609E-02  0.8337131E-01
       -1   -1    0    0    0  501  0.00000000000E+00  0.00000000000E+00  0.25823528636E+04  0.25823528636E+04  0.50400001928E-02 0. -1.
        1   -1    0    0  501    0  0.00000000000E+00  0.00000000000E+00 -0.70233570179E+03  0.70233570181E+03  0.50400001928E-02 0.  1.
    10030    2    1    2    0    0  0.00000000000E+00  0.00000000000E+00  0.18800171618E+04  0.32846885654E+04  0.26934577114E+04 0.  0.
        3    1    3    3  502    0  0.27219983409E+03  0.55214200213E+03  0.24007333025E+04  0.24784014889E+04  0.10100000352E+00 0. -1.
       -3    1    3    3    0  502 -0.27219983409E+03 -0.55214200213E+03 -0.52071614077E+03  0.80628707645E+03  0.10100000352E+00 0.  1.
</event>
<event>
 5   0  0.1828511E-06  0.2696233E+04  0.7818609E-02  0.8336228E-01
       -1   -1    0    0    0  501  0.00000000000E+00  0.00000000000E+00  0.68031801565E+03  0.68031801567E+03  0.50400001928E-02 0. -1.
        1   -1    0    0  501    0  0.00000000000E+00  0.00000000000E+00 -0.26714250755E+04  0.26714250755E+04  0.50400001928E-02 0.  1.
    10030    2    1    2    0    0  0.00000000000E+00  0.00000000000E+00 -0.19911070599E+04  0.33517430912E+04  0.26962333774E+04 0.  0.
        4    1    3    3  502    0 -0.37160292781E+03  0.28883326976E+03  0.57486918869E+03  0.74296001957E+03  0.12699999809E+01 0. -1.
       -4    1    3    3    0  502  0.37160292781E+03 -0.28883326976E+03 -0.25659762486E+04  0.26087830716E+04  0.12699999809E+01 0.  1.
</event>
<event>
 5   0  0.4655882E-06  0.2736851E+04  0.7818609E-02  0.8323146E-01
        2   -1    0    0  501    0  0.00000000000E+00  0.00000000000E+00  0.18150333428E+04  0.18150333428E+04  0.25500000920E-02 0. -1.
       -2   -1    0    0    0  501  0.00000000000E+00  0.00000000000E+00 -0.10317098525E+04  0.10317098526E+04  0.25500000920E-02 0.  1.
    10030    2    1    2    0    0  0.00000000000E+00  0.00000000000E+00  0.78332349027E+03  0.28467431954E+04  0.27368505860E+04 0.  0.
        1    1    3    3  502    0 -0.50319282168E+03 -0.12703560117E+04  0.31396036861E+03  0.14019909148E+04  0.50400001928E-02 0. -1.
       -1    1    3    3    0  502  0.50319282168E+03  0.12703560117E+04  0.46936312166E+03  0.14447522805E+04  0.50400001928E-02 0.  1.
</event>
<event>
 5   0  0.1771016E-06  0.2709158E+04  0.7818609E-02  0.8332040E-01
       -1   -1    0    0    0  501  0.00000000000E+00  0.00000000000E+00  0.13242022688E+04  0.13242022688E+04  0.50400001928E-02 0.  1.
        1   -1    0    0  501    0  0.00000000000E+00  0.00000000000E+00 -0.13856526460E+04  0.13856526460E+04  0.50400001928E-02 0. -1.
    10030    2    1    2    0    0  0.00000000000E+00  0.00000000000E+00 -0.61450377186E+02  0.27098549148E+04  0.27091580814E+04 0.  0.
        2    1    3    3  502    0  0.34319165668E+03  0.69006358968E+03  0.10835254792E+04  0.13296600073E+04  0.25500000920E-02 0.  1.
       -2    1    3    3    0  502 -0.34319165668E+03 -0.69006358968E+03 -0.11449758563E+04  0.13801949075E+04  0.25500000920E-02 0. -1.
</event>
<event>
 5   0  0.4448804E-06  0.2706653E+04  0.7818609E-02  0.8332850E-01
        2   -1    0    0  501    0  0.00000000000E+00  0.00000000000E+00  0.17761973612E+04  0.17761973612E+04  0.25500000920E-02 0. -1.
       -2   -1    0    0    0  501  0.00000000000E+00  0.00000000000E+00 -0.10311311832E+04  0.10311311832E+04  0.25500000920E-02 0.  1.
    10030    2    1    2    0    0  0.00000000000E+00  0.00000000000E+00  0.74506617801E+03  0.28073285444E+04  0.27066529047E+04 0.  0.
        2    1    3    3  502    0  0.78056104700E+03 -0.47081387842E+03 -0.66494836100E+03  0.11283162584E+04  0.25500000920E-02 0.  1.
       -2    1    3    3    0  502 -0.78056104700E+03  0.47081387842E+03  0.14100145390E+04  0.16790122860E+04  0.25500000920E-02 0. -1.
</event>
<event>
 5   0  0.4487186E-06  0.2627456E+04  0.7818609E-02  0.8358935E-01
       -2   -1    0    0    0  501  0.00000000000E+00  0.00000000000E+00  0.10933656110E+04  0.10933656110E+04  0.25500000920E-02 0.  1.
        2   -1    0    0  501    0  0.00000000000E+00  0.00000000000E+00 -0.15785028524E+04  0.15785028524E+04  0.25500000920E-02 0. -1.
    10030    2    1    2    0    0  0.00000000000E+00  0.00000000000E+00 -0.48513724144E+03  0.26718684635E+04  0.26274556025E+04 0.  0.
        3    1    3    3  502    0  0.65338602297E+03 -0.28586904622E+03 -0.13645067881E+04  0.15396470997E+04  0.10100000352E+00 0. -1.
       -3    1    3    3    0  502 -0.65338602297E+03  0.28586904622E+03  0.87936954671E+03  0.11322213637E+04  0.10100000352E+00 0.  1.
</event>
<event>
 5   0  0.1828511E-06  0.2710536E+04  0.7818609E-02  0.8331595E-01
        1   -1    0    0  501    0  0.00000000000E+00  0.00000000000E+00  0.21772679756E+04  0.21772679756E+04  0.50400001928E-02 0. -1.
       -1   -1    0    0    0  501  0.00000000000E+00  0.00000000000E+00 -0.84360357681E+03  0.84360357682E+03  0.50400001928E-02 0.  1.
    10030    2    1    2    0    0  0.00000000000E+00  0.00000000000E+00  0.13336643987E+04  0.30208715524E+04  0.27105357787E+04 0.  0.
        4    1    3    3  502    0 -0.12950398404E+04  0.39765106787E+03  0.62374183772E+03  0.14914121003E+04  0.12699999809E+01 0. -1.
       -4    1    3    3    0  502  0.12950398404E+04 -0.39765106787E+03  0.70992256102E+03  0.15294594521E+04  0.12699999809E+01 0.  1.
</event>
<event>
 5   0  0.1723605E-06  0.2709033E+04  0.7818609E-02  0.8332080E-01
       -1   -1    0    0    0  501  0.00000000000E+00  0.00000000000E+00  0.82031879036E+03  0.82031879038E+03  0.50400001928E-02 0.  1.
        1   -1    0    0  501    0  0.00000000000E+00  0.00000000000E+00 -0.22365876475E+04  0.22365876475E+04  0.50400001928E-02 0. -1.
    10030    2    1    2    0    0  0.00000000000E+00  0.00000000000E+00 -0.14162688572E+04  0.30569064379E+04  0.27090329445E+04 0.  0.
        1    1    3    3  502    0 -0.39132213243E+03  0.76989416141E+03  0.46933830541E+03  0.98292852031E+03  0.50400001928E-02 0.  1.
       -1    1    3    3    0  502  0.39132213243E+03 -0.76989416141E+03 -0.18856071626E+04  0.20739779176E+04  0.50400001928E-02 0. -1.
</event>
<event>
 5   0  0.4487186E-06  0.2697047E+04  0.7818609E-02  0.8335964E-01
       -2   -1    0    0    0  501  0.00000000000E+00  0.00000000000E+00  0.15292392212E+04  0.15292392212E+04  0.25500000920E-02 0. -1.
        2   -1    0    0  501    0  0.00000000000E+00  0.00000000000E+00 -0.11891635796E+04  0.11891635796E+04  0.25500000920E-02 0.  1.
    10030    2    1    2    0    0  0.00000000000E+00  0.00000000000E+00  0.34007564163E+03  0.27184028008E+04  0.26970469676E+04 0.  0.
        3    1    3    3  502    0 -0.36310747511E+03 -0.76207085544E+03 -0.88991486077E+03  0.12265999742E+04  0.10100000352E+00 0.  1.
       -3    1    3    3    0  502  0.36310747511E+03  0.76207085544E+03  0.12299905024E+04  0.14918028266E+04  0.10100000352E+00 0. -1.
</event>
<event>
 5   0  0.4401659E-06  0.2700759E+04  0.7818609E-02  0.8334759E-01
        2   -1    0    0  501    0  0.00000000000E+00  0.00000000000E+00  0.18365892445E+04  0.18365892445E+04  0.25500000920E-02 0.  1.
       -2   -1    0    0    0  501  0.00000000000E+00  0.00000000000E+00 -0.99288674278E+03  0.99288674279E+03  0.25500000920E-02 0. -1.
    10030    2    1    2    0    0  0.00000000000E+00  0.00000000000E+00  0.84370250172E+03  0.28294759873E+04  0.27007592361E+04 0.  0.
        5    1    3    3  502    0  0.18190403252E+03  0.61074082666E+03  0.16691423575E+04  0.17866593783E+04  0.46999998093E+01 0.  1.
       -5    1    3    3    0  502 -0.18190403252E+03 -0.61074082666E+03 -0.82543985581E+03  0.10428166090E+04  0.46999998093E+01 0. -1.
</event>
<event>
 5   0  0.1753474E-06  0.2706956E+04  0.7818609E-02  0.8332752E-01
        1   -1    0    0  501    0  0.00000000000E+00  0.00000000000E+00  0.28003845535E+04  0.28003845535E+04  0.50400001928E-02 0. -1.
       -1   -1    0    0    0  501  0.00000000000E+00  0.00000000000E+00 -0.65416103985E+03  0.65416103987E+03  0.50400001928E-02 0.  1.
    10030    2    1    2    0    0  0.00000000000E+00  0.00000000000E+00  0.21462235137E+04  0.34545455934E+04  0.27069558338E+04 0.  0.
        3    1    3    3  502    0 -0.71612566626E+03  0.11006226646E+04  0.65430851709E+03  0.14670807291E+04  0.10100000352E+00 0.  1.
       -3    1    3    3    0  502  0.71612566626E+03 -0.11006226646E+04  0.14919149966E+04  0.19874648643E+04  0.10100000352E+00 0. -1.
</event>
<event>
 5   0  0.1828511E-06  0.2699754E+04  0.7818609E-02  0.8335085E-01
        1   -1    0    0  501    0  0.00000000000E+00  0.00000000000E+00  0.29984974150E+04  0.29984974150E+04  0.50400001928E-02 0.  1.
       -1   -1    0    0    0  501  0.00000000000E+00  0.00000000000E+00 -0.60769386691E+03  0.60769386693E+03  0.50400001928E-02 0. -1.
    10030    2    1    2    0    0  0.00000000000E+00  0.00000000000E+00  0.23908035481E+04  0.36061912819E+04  0.26997544252E+04 0.  0.
        4    1    3    3  502    0  0.11533668766E+04 -0.65378400876E+03  0.85622123182E+03  0.15782284666E+04  0.12699999809E+01 0. -1.
       -4    1    3    3    0  502 -0.11533668766E+04  0.65378400876E+03  0.15345823163E+04  0.20279628153E+04  0.12699999809E+01 0.  1.
</event>
<event>
 5   0  0.1771016E-06  0.2675809E+04  0.7818609E-02  0.8342897E-01
       -1   -1    0    0    0  501  0.00000000000E+00  0.00000000000E+00  0.96750487296E+03  0.96750487297E+03  0.50400001928E-02 0. -1.
        1   -1    0    0  501    0  0.00000000000E+00  0.00000000000E+00 -0.18501076007E+04  0.18501076007E+04  0.50400001928E-02 0.  1.
    10030    2    1    2    0    0  0.00000000000E+00  0.00000000000E+00 -0.88260272773E+03  0.28176124737E+04  0.26758087519E+04 0.  0.
        2    1    3    3  502    0  0.11945763496E+04 -0.43150124532E+03  0.14351940472E+01  0.12701212696E+04  0.25500000920E-02 0. -1.
       -2    1    3    3    0  502 -0.11945763496E+04  0.43150124532E+03 -0.88403792178E+03  0.15474912041E+04  0.25500000920E-02 0.  1.
</event>
<event>
 5   0  0.4439357E-06  0.2707145E+04  0.7818609E-02  0.8332690E-01
        2   -1    0    0  501    0  0.00000000000E+00  0.00000000000E+00  0.97562087786E+03  0.97562087786E+03  0.25500000920E-02 0.  1.
       -2   -1    0    0    0  501  0.00000000000E+00  0.00000000000E+00 -0.18779413496E+04  0.18779413496E+04  0.25500000920E-02 0. -1.
    10030    2    1    2    0    0  0.00000000000E+00  0.00000000000E+00 -0.90232047175E+03  0.28535622275E+04  0.27071452034E+04 0.  0.
        4    1    3    3  502    0  0.79547758014E+03  0.10867849461E+04 -0.59364153100E+03  0.14718349024E+04  0.12699999809E+01 0.  1.
       -4    1    3    3    0  502 -0.79547758014E+03 -0.10867849461E+04 -0.30867894075E+03  0.13817273251E+04  0.12699999809E+01 0. -1.
</event>
<event>
 5   0  0.1732312E-06  0.2684027E+04  0.7818609E-02  0.8340206E-01
       -1   -1    0    0    0  501  0.00000000000E+00  0.00000000000E+00  0.80222507443E+03  0.80222507445E+03  0.50400001928E-02 0.  1.
        1   -1    0    0  501    0  0.00000000000E+00  0.00000000000E+00 -0.22450069664E+04  0.22450069664E+04  0.50400001928E-02 0. -1.
    10030    2    1    2    0    0  0.00000000000E+00  0.00000000000E+00 -0.14427818920E+04  0.30472320408E+04  0.26840274818E+04 0.  0.
        5    1    3    3  502    0 -0.43894727099E+03  0.10808414233E+03 -0.21559538924E+04  0.22028427463E+04  0.46999998093E+01 0. -1.
       -5    1    3    3    0  502  0.43894727099E+03 -0.10808414233E+03  0.71317200047E+03  0.84438929457E+03  0.46999998093E+01 0.  1.
</event>
<event>
 5   0  0.4401659E-06  0.2701500E+04  0.7818609E-02  0.8334518E-01
        2   -1    0    0  501    0  0.00000000000E+00  0.00000000000E+00  0.15035352940E+04  0.15035352940E+04  0.25500000920E-02 0.  1.
       -2   -1    0    0    0  501  0.00000000000E+00  0.00000000000E+00 -0.12134904545E+04  0.12134904545E+04  0.25500000920E-02 0. -1.
    10030    2    1    2    0    0  0.00000000000E+00  0.00000000000E+00  0.29004483949E+03  0.27170257486E+04  0.27015001221E+04 0.  0.
        5    1    3    3  502    0  0.74132970918E+03  0.58973468008E+03 -0.82339599594E+03  0.12551333741E+04  0.46999998093E+01 0. -1.
       -5    1    3    3    0  502 -0.74132970918E+03 -0.58973468008E+03  0.11134408354E+04  0.14618923745E+04  0.46999998093E+01 0.  1.
</event>
<event>
 5   0  0.1771016E-06  0.2697591E+04  0.7818609E-02  0.8335787E-01
       -1   -1    0    0    0  501  0.00000000000E+00  0.00000000000E+00  0.13755169528E+04  0.13755169528E+04  0.50400001928E-02 0.  1.
        1   -1    0    0  501    0  0.00000000000E+00  0.00000000000E+00 -0.13225926896E+04  0.13225926896E+04  0.50400001928E-02 0. -1.
    10030    2    1    2    0    0  0.00000000000E+00  0.00000000000E+00  0.52924263174E+02  0.26981096424E+04  0.26975905295E+04 0.  0.
        2    1    3    3  502    0 -0.65899483458E+03 -0.66059738133E+03 -0.94767887086E+03  0.13299467412E+04  0.25500000920E-02 0. -1.
       -2    1    3    3    0  502  0.65899483458E+03  0.66059738133E+03  0.10006031340E+04  0.13681629011E+04  0.25500000920E-02 0.  1.
</event>
<event>
 5   0  0.4655882E-06  0.2686274E+04  0.7818609E-02  0.8339472E-01
       -2   -1    0    0    0  501  0.00000000000E+00  0.00000000000E+00  0.10916093985E+04  0.10916093985E+04  0.25500000920E-02 0.  1.
        2   -1    0    0  501    0  0.00000000000E+00  0.00000000000E+00 -0.16526210059E+04  0.16526210059E+04  0.25500000920E-02 0. -1.
    10030    2    1    2    0    0  0.00000000000E+00  0.00000000000E+00 -0.56101160740E+03  0.27442304044E+04  0.26862737181E+04 0.  0.
        1    1    3    3  502    0 -0.98028937276E+03  0.89676219970E+03 -0.48190623669E+03  0.14132881228E+04  0.50400001928E-02 0. -1.
       -1    1    3    3    0  502  0.98028937276E+03 -0.89676219970E+03 -0.79105370707E+02  0.13309422816E+04  0.50400001928E-02 0.  1.
</event>
<event>
 5   0  0.1732312E-06  0.2698337E+04  0.7818609E-02  0.8335545E-01
        1   -1    0    0  501    0  0.00000000000E+00  0.00000000000E+00  0.12281052157E+04  0.12281052157E+04  0.50400001928E-02 0. -1.
       -1   -1    0    0    0  501  0.00000000000E+00  0.00000000000E+00 -0.14821653363E+04  0.14821653363E+04  0.50400001928E-02 0.  1.
    10030    2    1    2    0    0  0.00000000000E+00  0.00000000000E+00 -0.25406012060E+03  0.27102705520E+04  0.26983365098E+04 0.  0.
        5    1    3    3  502    0 -0.23731475703E+03  0.77430201682E+03 -0.12108626950E+04  0.14567334909E+04  0.46999998093E+01 0.  1.
       -5    1    3    3    0  502  0.23731475703E+03 -0.77430201682E+03  0.95680257444E+03  0.12535370611E+04  0.46999998093E+01 0. -1.
</event>
<event>
 5   0  0.1771016E-06  0.2693707E+04  0.7818609E-02  0.8337050E-01
       -1   -1    0    0    0  501  0.00000000000E+00  0.00000000000E+00  0.71649191293E+03  0.71649191294E+03  0.50400001928E-02 0. -1.
        1   -1    0    0  501    0  0.00000000000E+00  0.00000000000E+00 -0.25317997966E+04  0.25317997966E+04  0.50400001928E-02 0.  1.
    10030    2    1    2    0    0  0.00000000000E+00  0.00000000000E+00 -0.18153078837E+04  0.32482917096E+04  0.26937067988E+04 0.  0.
        2    1    3    3  502    0 -0.11362608534E+04 -0.15275391910E+03 -0.55315135560E+02  0.11478162967E+04  0.25500000920E-02 0. -1.
       -2    1    3    3    0  502  0.11362608534E+04  0.15275391910E+03 -0.17599927481E+04  0.21004754129E+04  0.25500000920E-02 0.  1.
</event>
<event>
 5   0  0.4448804E-06  0.2702447E+04  0.7818609E-02  0.8334212E-01
        2   -1    0    0  501    0  0.00000000000E+00  0.00000000000E+00  0.13640552615E+04  0.13640552615E+04  0.25500000920E-02 0. -1.
       -2   -1    0    0    0  501  0.00000000000E+00  0.00000000000E+00 -0.13385120489E+04  0.13385120489E+04  0.25500000920E-02 0.  1.
    10030    2    1    2    0    0  0.00000000000E+00  0.00000000000E+00  0.25543212657E+02  0.27025673104E+04  0.27024465973E+04 0.  0.
        2    1    3    3  502    0  0.68899746204E+03 -0.22629779420E+03 -0.11274004583E+04  0.13405073621E+04  0.25500000920E-02 0.  1.
       -2    1    3    3    0  502 -0.68899746204E+03  0.22629779420E+03  0.11529436710E+04  0.13620599483E+04  0.25500000920E-02 0. -1.
</event>
<event>
 5   0  0.4448804E-06  0.2696525E+04  0.7818609E-02  0.8336133E-01
       -2   -1    0    0    0  501  0.00000000000E+00  0.00000000000E+00  0.11685366607E+04  0.11685366607E+04  0.25500000920E-02 0. -1.
        2   -1    0    0  501    0  0.00000000000E+00  0.00000000000E+00 -0.15556306591E+04  0.15556306591E+04  0.25500000920E-02 0.  1.
    10030    2    1    2    0    0  0.00000000000E+00  0.00000000000E+00 -0.38709399842E+03  0.27241673199E+04  0.26965247677E+04 0.  0.
        2    1    3    3  502    0  0.61260118287E+03 -0.47414000869E+03 -0.13083638641E+04  0.15204949714E+04  0.25500000920E-02 0.  1.
       -2    1    3    3    0  502 -0.61260118287E+03  0.47414000869E+03  0.92126986568E+03  0.12036723485E+04  0.25500000920E-02 0. -1.
</event>
<event>
 5   0  0.4439357E-06  0.2702514E+04  0.7818609E-02  0.8334190E-01
        2   -1    0    0  501    0  0.00000000000E+00  0.00000000000E+00  0.11290128127E+04  0.11290128127E+04  0.25500000920E-02 0. -1.
       -2   -1    0    0    0  501  0.00000000000E+00  0.00000000000E+00 -0.16172492790E+04  0.16172492790E+04  0.25500000920E-02 0.  1.
    10030    2    1    2    0    0  0.00000000000E+00  0.00000000000E+00 -0.48823646627E+03  0.27462620917E+04  0.27025137611E+04 0.  0.
        4    1    3    3  502    0 -0.10319580514E+04 -0.60306526047E+03 -0.88461374014E+03  0.14869997345E+04  0.12699999809E+01 0.  1.
       -4    1    3    3    0  502  0.10319580514E+04  0.60306526047E+03  0.39637727387E+03  0.12592623572E+04  0.12699999809E+01 0. -1.
</event>
<event>
 5   0  0.4448804E-06  0.2707293E+04  0.7818609E-02  0.8332642E-01
       -2   -1    0    0    0  501  0.00000000000E+00  0.00000000000E+00  0.10117710719E+04  0.10117710719E+04  0.25500000920E-02 0.  1.
        2   -1    0    0  501    0  0.00000000000E+00  0.00000000000E+00 -0.18110414297E+04  0.18110414297E+04  0.25500000920E-02 0. -1.
    10030    2    1    2    0    0  0.00000000000E+00  0.00000000000E+00 -0.79927035782E+03  0.28228125016E+04  0.27072933558E+04 0.  0.
        2    1    3    3  502    0  0.93519685014E+02  0.13162721037E+04 -0.71424014455E+03  0.15004856435E+04  0.25500000920E-02 0. -1.
       -2    1    3    3    0  502 -0.93519685014E+02 -0.13162721037E+04 -0.85030213277E+02  0.13223268581E+04  0.25500000920E-02 0.  1.
</event>
<event>
 5   0  0.4448804E-06  0.2696724E+04  0.7818609E-02  0.8336069E-01
        2   -1    0    0  501    0  0.00000000000E+00  0.00000000000E+00  0.13188173573E+04  0.13188173573E+04  0.25500000920E-02 0.  1.
       -2   -1    0    0    0  501  0.00000000000E+00  0.00000000000E+00 -0.13785688991E+04  0.13785688991E+04  0.25500000920E-02 0. -1.
    10030    2    1    2    0    0  0.00000000000E+00  0.00000000000E+00 -0.59751541802E+02  0.26973862564E+04  0.26967243777E+04 0.  0.
        2    1    3    3  502    0 -0.33189867268E+03 -0.76901483623E+03 -0.10867997015E+04  0.13721057315E+04  0.25500000920E-02 0. -1.
       -2    1    3    3    0  502  0.33189867268E+03  0.76901483623E+03  0.10270481597E+04  0.13252805249E+04  0.25500000920E-02 0.  1.
</event>
<event>
 5   0  0.4487186E-06  0.2694913E+04  0.7818609E-02  0.8336657E-01
       -2   -1    0    0    0  501  0.00000000000E+00  0.00000000000E+00  0.84260314814E+03  0.84260314814E+03  0.25500000920E-02 0. -1.
        2   -1    0    0  501    0  0.00000000000E+00  0.00000000000E+00 -0.21547971986E+04  0.21547971986E+04  0.25500000920E-02 0.  1.
    10030    2    1    2    0    0  0.00000000000E+00  0.00000000000E+00 -0.13121940505E+04  0.29974003467E+04  0.26949129137E+04 0.  0.
        3    1    3    3  502    0 -0.62024960699E+03  0.61995426827E+03  0.48175944400E+03  0.10005723571E+04  0.10100000352E+00 0. -1.
       -3    1    3    3    0  502  0.62024960699E+03 -0.61995426827E+03 -0.17939534944E+04  0.19968279896E+04  0.10100000352E+00 0.  1.
</event>
<event>
 5   0  0.1828511E-06  0.2679973E+04  0.7818609E-02  0.8341532E-01
       -1   -1    0    0    0  501  0.00000000000E+00  0.00000000000E+00  0.10242524051E+04  0.10242524051E+04  0.50400001928E-02 0.  1.
        1   -1    0    0  501    0  0.00000000000E+00  0.00000000000E+00 -0.17530481193E+04  0.17530481193E+04  0.50400001928E-02 0. -1.
    10030    2    1    2    0    0  0.00000000000E+00  0.00000000000E+00 -0.72879571427E+03  0.27773005244E+04  0.26799729494E+04 0.  0.
        4    1    3    3  502    0 -0.80181801590E+03  0.92369016066E+03  0.20269226614E+03  0.12398392683E+04  0.12699999809E+01 0. -1.
       -4    1    3    3    0  502  0.80181801590E+03 -0.92369016066E+03 -0.93148798041E+03  0.15374612561E+04  0.12699999809E+01 0.  1.
</event>
<event>
 5   0  0.1723605E-06  0.2695617E+04  0.7818609E-02  0.8336429E-01
       -1   -1    0    0    0  501  0.00000000000E+00  0.00000000000E+00  0.85706476347E+03  0.85706476349E+03  0.50400001928E-02 0.  1.
        1   -1    0    0  501    0  0.00000000000E+00  0.00000000000E+00 -0.21195452966E+04  0.21195452966E+04  0.50400001928E-02 0. -1.
    10030    2    1    2    0    0  0.00000000000E+00  0.00000000000E+00 -0.12624805331E+04  0.29766100601E+04  0.26956168781E+04 0.  0.
        1    1    3    3  502    0 -0.10572700370E+04  0.83518698029E+03 -0.66997323469E+03  0.15047329858E+04  0.50400001928E-02 0.  1.
       -1    1    3    3    0  502  0.10572700370E+04 -0.83518698029E+03 -0.59250729845E+03  0.14718770743E+04  0.50400001928E-02 0. -1.
</event>
<event>
 5   0  0.1753474E-06  0.2707258E+04  0.7818609E-02  0.8332654E-01
       -1   -1    0    0    0  501  0.00000000000E+00  0.00000000000E+00  0.13230695402E+04  0.13230695402E+04  0.50400001928E-02 0. -1.
        1   -1    0    0  501    0  0.00000000000E+00  0.00000000000E+00 -0.13848944779E+04  0.13848944779E+04  0.50400001928E-02 0.  1.
    10030    2    1    2    0    0  0.00000000000E+00  0.00000000000E+00 -0.61824937717E+02  0.27079640182E+04  0.27072581703E+04 0.  0.
        3    1    3    3  502    0 -0.88740425134E+03 -0.73709833552E+03  0.67744688552E+03  0.13378096107E+04  0.10100000352E+00 0. -1.
       -3    1    3    3    0  502  0.88740425134E+03  0.73709833552E+03 -0.73927182324E+03  0.13701544075E+04  0.10100000352E+00 0.  1.
</event>
<event>
 5   0  0.1771016E-06  0.2690173E+04  0.7818609E-02  0.8338200E-01
       -1   -1    0    0    0  501  0.00000000000E+00  0.00000000000E+00  0.89993100193E+03  0.89993100195E+03  0.50400001928E-02 0. -1.
        1   -1    0    0  501    0  0.00000000000E+00  0.00000000000E+00 -0.20104410861E+04  0.20104410861E+04  0.50400001928E-02 0.  1.
    10030    2    1    2    0    0  0.00000000000E+00  0.00000000000E+00 -0.11105100842E+04  0.29103720880E+04  0.26901734226E+04 0.  0.
        2    1    3    3  502    0  0.49901506177E+03 -0.75878216356E+03 -0.16286864617E+04  0.18647750519E+04  0.25500000920E-02 0.  1.
       -2    1    3    3    0  502 -0.49901506177E+03  0.75878216356E+03  0.51817637760E+03  0.10455970361E+04  0.25500000920E-02 0. -1.
</event>
<event>
 5   0  0.1753474E-06  0.2707422E+04  0.7818609E-02  0.8332601E-01
        1   -1    0    0  501    0  0.00000000000E+00  0.00000000000E+00  0.18432877803E+04  0.18432877803E+04  0.50400001928E-02 0.  1.
       -1   -1    0    0    0  501  0.00000000000E+00  0.00000000000E+00 -0.99416571524E+03  0.99416571525E+03  0.50400001928E-02 0. -1.
    10030    2    1    2    0    0  0.00000000000E+00  0.00000000000E+00  0.84912206502E+03  0.28374534955E+04  0.27074220317E+04 0.  0.
        3    1    3    3  502    0  0.13181864880E+04  0.26392979127E+03  0.59112477115E+03  0.14685717746E+04  0.10100000352E+00 0.  1.
       -3    1    3    3    0  502 -0.13181864880E+04 -0.26392979127E+03  0.25799729387E+03  0.13688817209E+04  0.10100000352E+00 0. -1.
</event>
<event>
 5   0  0.4439357E-06  0.2681547E+04  0.7818609E-02  0.8341017E-01
       -2   -1    0    0    0  501  0.00000000000E+00  0.00000000000E+00  0.81633912289E+03  0.81633912289E+03  0.25500000920E-02 0. -1.
        2   -1    0    0  501    0  0.00000000000E+00  0.00000000000E+00 -0.22021160688E+04  0.22021160688E+04  0.25500000920E-02 0.  1.
    10030    2    1    2    0    0  0.00000000000E+00  0.00000000000E+00 -0.13857769459E+04  0.30184551917E+04  0.26815469417E+04 0.  0.
        4    1    3    3  502    0 -0.29828616877E+03 -0.12910638318E+04 -0.46260939293E+03  0.14035061523E+04  0.12699999809E+01 0.  1.
       -4    1    3    3    0  502  0.29828616877E+03  0.12910638318E+04 -0.92316755299E+03  0.16149490394E+04  0.12699999809E+01 0. -1.
</event>
<event>
 5   0  0.4439357E-06  0.2759882E+04  0.7818609E-02  0.8315833E-01
       -2   -1    0    0    0  501  0.00000000000E+00  0.00000000000E+00  0.11807245819E+04  0.11807245819E+04  0.25500000920E-02 0. -1.
        2   -1    0    0  501    0  0.00000000000E+00  0.00000000000E+00 -0.16127694928E+04  0.16127694928E+04  0.25500000920E-02 0.  1.
    10030    2    1    2    0    0  0.00000000000E+00  0.00000000000E+00 -0.43204491090E+03  0.27934940747E+04  0.27598815808E+04 0.  0.
        4    1    3    3  502    0 -0.10988277062E+04  0.37138468170E+03 -0.97271411328E+03  0.15137778135E+04  0.12699999809E+01 0.  1.
       -4    1    3    3    0  502  0.10988277062E+04 -0.37138468170E+03  0.54066920237E+03  0.12797162611E+04  0.12699999809E+01 0. -1.
</event>
<event>
 5   0  0.4448804E-06  0.2669008E+04  0.7818609E-02  0.8345131E-01
       -2   -1    0    0    0  501  0.00000000000E+00  0.00000000000E+00  0.11414344392E+04  0.11414344392E+04  0.25500000920E-02 0. -1.
        2   -1    0    0  501    0  0.00000000000E+00  0.00000000000E+00 -0.15602309380E+04  0.15602309380E+04  0.25500000920E-02 0.  1.
    10030    2    1    2    0    0  0.00000000000E+00  0.00000000000E+00 -0.41879649888E+03  0.27016653772E+04  0.26690082995E+04 0.  0.
        2    1    3    3  502    0 -0.13106955740E+04 -0.24237838347E+03 -0.14355500598E+03  0.13406260508E+04  0.25500000920E-02 0.  1.
       -2    1    3    3    0  502  0.13106955740E+04  0.24237838347E+03 -0.27524149290E+03  0.13610393264E+04  0.25500000920E-02 0. -1.
</event>
<event>
 5   0  0.1723605E-06  0.2587823E+04  0.7818609E-02  0.8372349E-01
       -1   -1    0    0    0  501  0.00000000000E+00  0.00000000000E+00  0.13090981756E+04  0.13090981756E+04  0.50400001928E-02 0.  1.
        1   -1    0    0  501    0  0.00000000000E+00  0.00000000000E+00 -0.12789009107E+04  0.12789009107E+04  0.50400001928E-02 0. -1.
    10030    2    1    2    0    0  0.00000000000E+00  0.00000000000E+00  0.30197264901E+02  0.25879990863E+04  0.25878229066E+04 0.  0.
        1    1    3    3  502    0 -0.21016068650E+03  0.11850936672E+04 -0.45989931775E+03  0.12884571768E+04  0.50400001928E-02 0. -1.
       -1    1    3    3    0  502  0.21016068650E+03 -0.11850936672E+04  0.49009658265E+03  0.12995419095E+04  0.50400001928E-02 0.  1.
</event>
<event>
 5   0  0.1753474E-06  0.2703474E+04  0.7818609E-02  0.8333879E-01
        1   -1    0    0  501    0  0.00000000000E+00  0.00000000000E+00  0.13301088554E+04  0.13301088554E+04  0.50400001928E-02 0. -1.
       -1   -1    0    0    0  501  0.00000000000E+00  0.00000000000E+00 -0.13737172980E+04  0.13737172981E+04  0.50400001928E-02 0.  1.
    10030    2    1    2    0    0  0.00000000000E+00  0.00000000000E+00 -0.43608442616E+02  0.27038261535E+04  0.27034744630E+04 0.  0.
        3    1    3    3  502    0  0.13505716559E+03  0.12069802722E+03 -0.13615250760E+04  0.13735206568E+04  0.10100000352E+00 0.  1.
       -3    1    3    3    0  502 -0.13505716559E+03 -0.12069802722E+03  0.13179166334E+04  0.13303054967E+04  0.10100000352E+00 0. -1.
</event>
<event>
 5   0  0.1828511E-06  0.2662714E+04  0.7818609E-02  0.8347205E-01
        1   -1    0    0  501    0  0.00000000000E+00  0.00000000000E+00  0.13865498838E+04  0.13865498838E+04  0.50400001928E-02 0. -1.
       -1   -1    0    0    0  501  0.00000000000E+00  0.00000000000E+00 -0.12783607562E+04  0.12783607562E+04  0.50400001928E-02 0.  1.
    10030    2    1    2    0    0  0.00000000000E+00  0.00000000000E+00  0.10818912756E+03  0.26649106400E+04  0.26627136218E+04 0.  0.
        4    1    3    3  502    0 -0.10500259949E+04 -0.31876516366E+03 -0.70041308928E+03  0.13018240772E+04  0.12699999809E+01 0.  1.
       -4    1    3    3    0  502  0.10500259949E+04  0.31876516366E+03  0.80860221684E+03  0.13630865628E+04  0.12699999809E+01 0. -1.
</event>
<event>
 5   0  0.1828511E-06  0.2696455E+04  0.7818609E-02  0.8336156E-01
        1   -1    0    0  501    0  0.00000000000E+00  0.00000000000E+00  0.15893595087E+04  0.15893595087E+04  0.50400001928E-02 0. -1.
       -1   -1    0    0    0  501  0.00000000000E+00  0.00000000000E+00 -0.11436794705E+04  0.11436794705E+04  0.50400001928E-02 0.  1.
    10030    2    1    2    0    0  0.00000000000E+00  0.00000000000E+00  0.44568003824E+03  0.27330389792E+04  0.26964553334E+04 0.  0.
        4    1    3    3  502    0  0.40590376840E+03  0.39737314869E+03 -0.10164726254E+04  0.11644232476E+04  0.12699999809E+01 0.  1.
       -4    1    3    3    0  502 -0.40590376840E+03 -0.39737314869E+03  0.14621526637E+04  0.15686157315E+04  0.12699999809E+01 0. -1.
</event>
<event>
 5   0  0.4487186E-06  0.2727284E+04  0.7818609E-02  0.8326206E-01
        2   -1    0    0  501    0  0.00000000000E+00  0.00000000000E+00  0.12607672471E+04  0.12607672471E+04  0.25500000920E-02 0. -1.
       -2   -1    0    0    0  501  0.00000000000E+00  0.00000000000E+00 -0.14749105638E+04  0.14749105638E+04  0.25500000920E-02 0.  1.
    10030    2    1    2    0    0  0.00000000000E+00  0.00000000000E+00 -0.21414331671E+03  0.27356778110E+04  0.27272835799E+04 0.  0.
        3    1    3    3  502    0  0.32353504232E+03 -0.12243727880E+03 -0.14301663959E+04  0.14714080810E+04  0.10100000352E+00 0.  1.
       -3    1    3    3    0  502 -0.32353504232E+03  0.12243727880E+03  0.12160230792E+04  0.12642697300E+04  0.10100000352E+00 0. -1.
</event>
<event>
 5   0  0.4448804E-06  0.2703879E+04  0.7818609E-02  0.8333747E-01
       -2   -1    0    0    0  501  0.00000000000E+00  0.00000000000E+00  0.98050858516E+03  0.98050858516E+03  0.25500000920E-02 0.  1.
        2   -1    0    0  501    0  0.00000000000E+00  0.00000000000E+00 -0.18640743052E+04  0.18640743052E+04  0.25500000920E-02 0. -1.
    10030    2    1    2    0    0  0.00000000000E+00  0.00000000000E+00 -0.88356572002E+03  0.28445828904E+04  0.27038793313E+04 0.  0.
        2    1    3    3  502    0 -0.44522320073E+03 -0.36761744501E+03  0.84427652349E+03  0.10228240965E+04  0.25500000920E-02 0.  1.
       -2    1    3    3    0  502  0.44522320073E+03  0.36761744501E+03 -0.17278422435E+04  0.18217587938E+04  0.25500000920E-02 0. -1.
</event>
<event>
 5   0  0.4487186E-06  0.2599229E+04  0.7818609E-02  0.8368463E-01
       -2   -1    0    0    0  501  0.00000000000E+00  0.00000000000E+00  0.91084010163E+03  0.91084010164E+03  0.25500000920E-02 0. -1.
        2   -1    0    0  501    0  0.00000000000E+00  0.00000000000E+00 -0.18543302016E+04  0.18543302016E+04  0.25500000920E-02 0.  1.
    10030    2    1    2    0    0  0.00000000000E+00  0.00000000000E+00 -0.94349009993E+03  0.27651703032E+04  0.25992293545E+04 0.  0.
        3    1    3    3  502    0  0.11880613438E+04 -0.32604666448E+03 -0.31563491336E+02  0.12323929764E+04  0.10100000352E+00 0. -1.
       -3    1    3    3    0  502 -0.11880613438E+04  0.32604666448E+03 -0.91192660860E+03  0.15327773268E+04  0.10100000352E+00 0.  1.
</event>
<event>
 5   0  0.4401659E-06  0.2780656E+04  0.7818609E-02  0.8309299E-01
       -2   -1    0    0    0  501  0.00000000000E+00  0.00000000000E+00  0.12490635996E+04  0.12490635996E+04  0.25500000920E-02 0.  1.
        2   -1    0    0  501    0  0.00000000000E+00  0.00000000000E+00 -0.15475684964E+04  0.15475684964E+04  0.25500000920E-02 0. -1.
    10030    2    1    2    0    0  0.00000000000E+00  0.00000000000E+00 -0.29850489674E+03  0.27966320960E+04  0.27806556613E+04 0.  0.
        5    1    3    3  502    0 -0.37312090693E+03  0.10333339320E+04 -0.10061991117E+04  0.14897842020E+04  0.46999998093E+01 0. -1.
       -5    1    3    3    0  502  0.37312090693E+03 -0.10333339320E+04  0.70769421496E+03  0.13068478940E+04  0.46999998093E+01 0.  1.
</event>
<event>
 5   0  0.1732312E-06  0.2710322E+04  0.7818609E-02  0.8331664E-01
       -1   -1    0    0    0  501  0.00000000000E+00  0.00000000000E+00  0.12291502227E+04  0.12291502227E+04  0.50400001928E-02 0.  1.
        1   -1    0    0  501    0  0.00000000000E+00  0.00000000000E+00 -0.14940898665E+04  0.14940898665E+04  0.50400001928E-02 0. -1.
    10030    2    1    2    0    0  0.00000000000E+00  0.00000000000E+00 -0.26493964378E+03  0.27232400892E+04  0.27103216725E+04 0.  0.
        5    1    3    3  502    0 -0.82462660550E+03 -0.61029426198E+03  0.75717161635E+03  0.12750682614E+04  0.46999998093E+01 0.  1.
       -5    1    3    3    0  502  0.82462660550E+03  0.61029426198E+03 -0.10221112601E+04  0.14481718278E+04  0.46999998093E+01 0. -1.
</event>
<event>
 5   0  0.1771016E-06  0.2693943E+04  0.7818609E-02  0.8336973E-01
       -1   -1    0    0    0  501  0.00000000000E+00  0.00000000000E+00  0.11721434461E+04  0.11721434461E+04  0.50400001928E-02 0. -1.
        1   -1    0    0  501    0  0.00000000000E+00  0.00000000000E+00 -0.15478750880E+04  0.15478750880E+04  0.50400001928E-02 0.  1.
    10030    2    1    2    0    0  0.00000000000E+00  0.00000000000E+00 -0.37573164186E+03  0.27200185342E+04  0.26939425680E+04 0.  0.
        2    1    3    3  502    0  0.10587462716E+04  0.57947427714E+03 -0.79164869220E+03  0.14434132317E+04  0.25500000920E-02 0. -1.
       -2    1    3    3    0  502 -0.10587462716E+04 -0.57947427714E+03  0.41591705034E+03  0.12766053025E+04  0.25500000920E-02 0.  1.
</event>
<event>
 5   0  0.1732312E-06  0.2709567E+04  0.7818609E-02  0.8331908E-01
        1   -1    0    0  501    0  0.00000000000E+00  0.00000000000E+00  0.19844851802E+04  0.19844851803E+04  0.50400001928E-02 0.  1.
       -1   -1    0    0    0  501  0.00000000000E+00  0.00000000000E+00 -0.92489381977E+03  0.92489381979E+03  0.50400001928E-02 0. -1.
    10030    2    1    2    0    0  0.00000000000E+00  0.00000000000E+00  0.10595913605E+04  0.29093790000E+04  0.27095668131E+04 0.  0.
        5    1    3    3  502    0  0.13381837232E+04 -0.19764150978E+03  0.44931402157E+03  0.14253782036E+04  0.46999998093E+01 0.  1.
       -5    1    3    3    0  502 -0.13381837232E+04  0.19764150978E+03  0.61027733890E+03  0.14840007964E+04  0.46999998093E+01 0. -1.
</event>
<event>
 5   0  0.4448804E-06  0.2701097E+04  0.7818609E-02  0.8334649E-01
       -2   -1    0    0    0  501  0.00000000000E+00  0.00000000000E+00  0.12959575648E+04  0.12959575648E+04  0.25500000920E-02 0. -1.
        2   -1    0    0  501    0  0.00000000000E+00  0.00000000000E+00 -0.14074393080E+04  0.14074393080E+04  0.25500000920E-02 0.  1.
    10030    2    1    2    0    0  0.00000000000E+00  0.00000000000E+00 -0.11148174324E+03  0.27033968728E+04  0.27010972720E+04 0.  0.
        2    1    3    3  502    0 -0.23357262884E+03 -0.10504733191E+03 -0.13829129846E+04  0.14064279000E+04  0.25500000920E-02 0.  1.
       -2    1    3    3    0  502  0.23357262884E+03  0.10504733191E+03  0.12714312414E+04  0.12969689728E+04  0.25500000920E-02 0. -1.
</event>
<event>
 5   0  0.4655882E-06  0.2691437E+04  0.7818609E-02  0.8337789E-01
       -2   -1    0    0    0  501  0.00000000000E+00  0.00000000000E+00  0.11070807564E+04  0.11070807564E+04  0.25500000920E-02 0. -1.
        2   -1    0    0  501    0  0.00000000000E+00  0.00000000000E+00 -0.16357965220E+04  0.16357965220E+04  0.25500000920E-02 0.  1.
    10030    2    1    2    0    0  0.00000000000E+00  0.00000000000E+00 -0.52871576559E+03  0.27428772784E+04  0.26914374233E+04 0.  0.
        1    1    3    3  502    0  0.95475012362E+03  0.80423918368E+03 -0.77656745796E+03  0.14701719219E+04  0.50400001928E-02 0.  1.
       -1    1    3    3    0  502 -0.95475012362E+03 -0.80423918368E+03  0.24785169237E+03  0.12727053565E+04  0.50400001928E-02 0. -1.
</event>
<event>
 5   0  0.4655882E-06  0.2703257E+04  0.7818609E-02  0.8333949E-01
       -2   -1    0    0    0  501  0.00000000000E+00  0.00000000000E+00  0.73775794476E+03  0.73775794476E+03  0.25500000920E-02 0. -1.
        2   -1    0    0  501    0  0.00000000000E+00  0.00000000000E+00 -0.24762865957E+04  0.24762865957E+04  0.25500000920E-02 0.  1.
    10030    2    1    2    0    0  0.00000000000E+00  0.00000000000E+00 -0.17385286510E+04  0.32140445405E+04  0.27032573755E+04 0.  0.
        1    1    3    3  502    0  0.10115385485E+04 -0.16633534023E+03 -0.19166379454E+04  0.21735635933E+04  0.50400001928E-02 0.  1.
       -1    1    3    3    0  502 -0.10115385485E+04  0.16633534023E+03  0.17810929443E+03  0.10404809471E+04  0.50400001928E-02 0. -1.
</event>
<event>
 5   0  0.4487186E-06  0.2685846E+04  0.7818609E-02  0.8339612E-01
       -2   -1    0    0    0  501  0.00000000000E+00  0.00000000000E+00  0.91577969728E+03  0.91577969728E+03  0.25500000920E-02 0. -1.
        2   -1    0    0  501    0  0.00000000000E+00  0.00000000000E+00 -0.19692962626E+04  0.19692962626E+04  0.25500000920E-02 0.  1.
    10030    2    1    2    0    0  0.00000000000E+00  0.00000000000E+00 -0.10535165653E+04  0.28850759599E+04  0.26858455170E+04 0.  0.
        3    1    3    3  502    0 -0.69167729852E+01 -0.51628866859E+02 -0.19682106593E+04  0.19688998429E+04  0.10100000352E+00 0.  1.
       -3    1    3    3    0  502  0.69167729852E+01  0.51628866859E+02  0.91469409398E+03  0.91617611702E+03  0.10100000352E+00 0. -1.
</event>
<event>
 5   0  0.1828511E-06  0.2711607E+04  0.7818609E-02  0.8331249E-01
        1   -1    0    0  501    0  0.00000000000E+00  0.00000000000E+00  0.17426436824E+04  0.17426436824E+04  0.50400001928E-02 0.  1.
       -1   -1    0    0    0  501  0.00000000000E+00  0.00000000000E+00 -0.10548362773E+04  0.10548362773E+04  0.50400001928E-02 0. -1.
    10030    2    1    2    0    0  0.00000000000E+00  0.00000000000E+00  0.68780740519E+03  0.27974799597E+04  0.27116074750E+04 0.  0.
        4    1    3    3  502    0 -0.11767605273E+04  0.64853166294E+03  0.15693672318E+03  0.13527710096E+04  0.12699999809E+01 0. -1.
       -4    1    3    3    0  502  0.11767605273E+04 -0.64853166294E+03  0.53087068201E+03  0.14447089501E+04  0.12699999809E+01 0.  1.
</event>
<event>
 5   0  0.4487186E-06  0.2697953E+04  0.7818609E-02  0.8335669E-01
        2   -1    0    0  501    0  0.00000000000E+00  0.00000000000E+00  0.26466228772E+04  0.26466228772E+04  0.25500000920E-02 0.  1.
       -2   -1    0    0    0  501  0.00000000000E+00  0.00000000000E+00 -0.68756977385E+03  0.68756977385E+03  0.25500000920E-02 0. -1.
    10030    2    1    2    0    0  0.00000000000E+00  0.00000000000E+00  0.19590531034E+04  0.33341926511E+04  0.26979532191E+04 0.  0.
        3    1    3    3  502    0 -0.87152529772E+03 -0.10228452659E+04  0.11255896454E+04  0.17529178083E+04  0.10100000352E+00 0. -1.
       -3    1    3    3    0  502  0.87152529772E+03  0.10228452659E+04  0.83346345793E+03  0.15812748428E+04  0.10100000352E+00 0.  1.
</event>
<event>
 5   0  0.1771016E-06  0.2712414E+04  0.7818609E-02  0.8330988E-01
        1   -1    0    0  501    0  0.00000000000E+00  0.00000000000E+00  0.16827681450E+04  0.16827681450E+04  0.50400001928E-02 0.  1.
       -1   -1    0    0    0  501  0.00000000000E+00  0.00000000000E+00 -0.10930188897E+04  0.10930188897E+04  0.50400001928E-02 0. -1.
    10030    2    1    2    0    0  0.00000000000E+00  0.00000000000E+00  0.58974925528E+03  0.27757870346E+04  0.27124139576E+04 0.  0.
        2    1    3    3  502    0  0.90285133404E+03 -0.16309926479E+03  0.13169871266E+04  0.16050535795E+04  0.25500000920E-02 0.  1.
       -2    1    3    3    0  502 -0.90285133404E+03  0.16309926479E+03 -0.72723787129E+03  0.11707334551E+04  0.25500000920E-02 0. -1.
</event>
<event>
 5   0  0.1482875E-06  0.2707265E+04  0.7818609E-02  0.8332652E-01
        4   -1    0    0  501    0  0.00000000000E+00  0.00000000000E+00  0.96499643203E+03  0.96499726773E+03  0.12699999809E+01 0. -1.
       -4   -1    0    0    0  501  0.00000000000E+00  0.00000000000E+00 -0.18987832198E+04  0.18987836445E+04  0.12699999809E+01 0.  1.
    10030    2    1    2    0    0  0.00000000000E+00  0.00000000000E+00 -0.93378678779E+03  0.28637809123E+04  0.27072649203E+04 0.  0.
        5    1    3    3  502    0 -0.29069900885E+03 -0.54904430726E+03 -0.17390621069E+04  0.18467037301E+04  0.46999998093E+01 0.  1.
       -5    1    3    3    0  502  0.29069900885E+03  0.54904430726E+03  0.80527531907E+03  0.10170771822E+04  0.46999998093E+01 0. -1.
</event>
<event>
 5   0  0.4487186E-06  0.2703424E+04  0.7818609E-02  0.8333895E-01
        2   -1    0    0  501    0  0.00000000000E+00  0.00000000000E+00  0.27064699651E+04  0.27064699651E+04  0.25500000920E-02 0. -1.
       -2   -1    0    0    0  501  0.00000000000E+00  0.00000000000E+00 -0.67509523002E+03  0.67509523002E+03  0.25500000920E-02 0.  1.
    10030    2    1    2    0    0  0.00000000000E+00  0.00000000000E+00  0.20313747351E+04  0.33815651951E+04  0.27034237283E+04 0.  0.
        3    1    3    3  502    0  0.68854972404E+03 -0.11601578066E+04  0.11207739783E+04  0.17539102541E+04  0.10100000352E+00 0. -1.
       -3    1    3    3    0  502 -0.68854972404E+03  0.11601578066E+04  0.91060075674E+03  0.16276549410E+04  0.10100000352E+00 0.  1.
</event>
<event>
 5   0  0.1771016E-06  0.2685169E+04  0.7818609E-02  0.8339833E-01
        1   -1    0    0  501    0  0.00000000000E+00  0.00000000000E+00  0.15608392975E+04  0.15608392975E+04  0.50400001928E-02 0.  1.
       -1   -1    0    0    0  501  0.00000000000E+00  0.00000000000E+00 -0.11548486205E+04  0.11548486205E+04  0.50400001928E-02 0. -1.
    10030    2    1    2    0    0  0.00000000000E+00  0.00000000000E+00  0.40599067702E+03  0.27156879179E+04  0.26851689775E+04 0.  0.
        2    1    3    3  502    0 -0.10147244852E+02 -0.29050613311E+03  0.15286317081E+04  0.15560243182E+04  0.25500000920E-02 0.  1.
       -2    1    3    3    0  502  0.10147244852E+02  0.29050613311E+03 -0.11226410310E+04  0.11596635997E+04  0.25500000920E-02 0. -1.
</event>
<event>
 5   0  0.1771016E-06  0.2695798E+04  0.7818609E-02  0.8336370E-01
        1   -1    0    0  501    0  0.00000000000E+00  0.00000000000E+00  0.19961318413E+04  0.19961318413E+04  0.50400001928E-02 0.  1.
       -1   -1    0    0    0  501  0.00000000000E+00  0.00000000000E+00 -0.91017623663E+03  0.91017623664E+03  0.50400001928E-02 0. -1.
    10030    2    1    2    0    0  0.00000000000E+00  0.00000000000E+00  0.10859556047E+04  0.29063080780E+04  0.26957980393E+04 0.  0.
        2    1    3    3  502    0  0.42602372633E+03  0.57873255578E+03 -0.68642294961E+03  0.99378269872E+03  0.25500000920E-02 0. -1.
       -2    1    3    3    0  502 -0.42602372633E+03 -0.57873255578E+03  0.17723785543E+04  0.19125253793E+04  0.25500000920E-02 0.  1.
</event>
<event>
 5   0  0.1482875E-06  0.2690641E+04  0.7818609E-02  0.8338048E-01
       -3   -1    0    0    0  501  0.00000000000E+00  0.00000000000E+00  0.87256446431E+03  0.87256447016E+03  0.10100000352E+00 0. -1.
        3   -1    0    0  501    0  0.00000000000E+00  0.00000000000E+00 -0.20742156458E+04  0.20742156483E+04  0.10100000352E+00 0.  1.
    10030    2    1    2    0    0  0.00000000000E+00  0.00000000000E+00 -0.12016511815E+04  0.29467801184E+04  0.26906407238E+04 0.  0.
        1    1    3    3  502    0 -0.10203934701E+04  0.75051566551E+03 -0.10445835677E+03  0.12709792076E+04  0.50400001928E-02 0. -1.
       -1    1    3    3    0  502  0.10203934701E+04 -0.75051566551E+03 -0.10971928247E+04  0.16758009108E+04  0.50400001928E-02 0.  1.
</event>
<event>
 5   0  0.4448804E-06  0.2705566E+04  0.7818609E-02  0.8333201E-01
       -2   -1    0    0    0  501  0.00000000000E+00  0.00000000000E+00  0.58851800452E+03  0.58851800453E+03  0.25500000920E-02 0. -1.
        2   -1    0    0  501    0  0.00000000000E+00  0.00000000000E+00 -0.31095421403E+04  0.31095421403E+04  0.25500000920E-02 0.  1.
    10030    2    1    2    0    0  0.00000000000E+00  0.00000000000E+00 -0.25210241358E+04  0.36980601449E+04  0.27055657711E+04 0.  0.
        2    1    3    3  502    0  0.88835542606E+03  0.62381906771E+03 -0.23639257963E+04  0.26012440798E+04  0.25500000920E-02 0.  1.
       -2    1    3    3    0  502 -0.88835542606E+03 -0.62381906771E+03 -0.15709833947E+03  0.10968160650E+04  0.25500000920E-02 0. -1.
</event>
<event>
 5   0  0.4448804E-06  0.2683521E+04  0.7818609E-02  0.8340372E-01
       -2   -1    0    0    0  501  0.00000000000E+00  0.00000000000E+00  0.13463647717E+04  0.13463647717E+04  0.25500000920E-02 0.  1.
        2   -1    0    0  501    0  0.00000000000E+00  0.00000000000E+00 -0.13371721352E+04  0.13371721352E+04  0.25500000920E-02 0. -1.
    10030    2    1    2    0    0  0.00000000000E+00  0.00000000000E+00  0.91926364606E+01  0.26835369069E+04  0.26835211619E+04 0.  0.
        2    1    3    3  502    0 -0.90605996816E+03 -0.85558999856E+03  0.50193468138E+03  0.13434721195E+04  0.25500000920E-02 0.  1.
       -2    1    3    3    0  502  0.90605996816E+03  0.85558999856E+03 -0.49274204492E+03  0.13400647874E+04  0.25500000920E-02 0. -1.
</event>
<event>
 5   0  0.1753474E-06  0.2692370E+04  0.7818609E-02  0.8337485E-01
       -1   -1    0    0    0  501  0.00000000000E+00  0.00000000000E+00  0.20327933714E+04  0.20327933714E+04  0.50400001928E-02 0. -1.
        1   -1    0    0  501    0  0.00000000000E+00  0.00000000000E+00 -0.89148970196E+03  0.89148970198E+03  0.50400001928E-02 0.  1.
    10030    2    1    2    0    0  0.00000000000E+00  0.00000000000E+00  0.11413036695E+04  0.29242830734E+04  0.26923702248E+04 0.  0.
        3    1    3    3  502    0 -0.10108780285E+04  0.55218233444E+03 -0.18609394538E+03  0.11667950487E+04  0.10100000352E+00 0. -1.
       -3    1    3    3    0  502  0.10108780285E+04 -0.55218233444E+03  0.13273976148E+04  0.17574880247E+04  0.10100000352E+00 0.  1.
</event>
<event>
 5   0  0.4439357E-06  0.2699591E+04  0.7818609E-02  0.8335138E-01
        2   -1    0    0  501    0  0.00000000000E+00  0.00000000000E+00  0.12311905087E+04  0.12311905087E+04  0.25500000920E-02 0. -1.
       -2   -1    0    0    0  501  0.00000000000E+00  0.00000000000E+00 -0.14798260739E+04  0.14798260739E+04  0.25500000920E-02 0.  1.
    10030    2    1    2    0    0  0.00000000000E+00  0.00000000000E+00 -0.24863556516E+03  0.27110165826E+04  0.26995909443E+04 0.  0.
        4    1    3    3  502    0 -0.96671288732E+03 -0.57491574322E+03  0.62508740111E+03  0.12867780657E+04  0.12699999809E+01 0. -1.
       -4    1    3    3    0  502  0.96671288732E+03  0.57491574322E+03 -0.87372296628E+03  0.14242385169E+04  0.12699999809E+01 0.  1.
</event>
<event>
 5   0  0.1723605E-06  0.2699757E+04  0.7818609E-02  0.8335084E-01
       -1   -1    0    0    0  501  0.00000000000E+00  0.00000000000E+00  0.95428354209E+03  0.95428354211E+03  0.50400001928E-02 0.  1.
        1   -1    0    0  501    0  0.00000000000E+00  0.00000000000E+00 -0.19094655765E+04  0.19094655765E+04  0.50400001928E-02 0. -1.
    10030    2    1    2    0    0  0.00000000000E+00  0.00000000000E+00 -0.95518203438E+03  0.28637491186E+04  0.26997567104E+04 0.  0.
        1    1    3    3  502    0  0.84233890259E+03 -0.40260172537E+03 -0.15117742731E+04  0.17768186257E+04  0.50400001928E-02 0. -1.
       -1    1    3    3    0  502 -0.84233890259E+03  0.40260172537E+03  0.55659223868E+03  0.10869304928E+04  0.50400001928E-02 0.  1.
</event>
<event>
 5   0  0.4448804E-06  0.2692728E+04  0.7818609E-02  0.8337368E-01
        2   -1    0    0  501    0  0.00000000000E+00  0.00000000000E+00  0.21084115663E+04  0.21084115663E+04  0.25500000920E-02 0.  1.
       -2   -1    0    0    0  501  0.00000000000E+00  0.00000000000E+00 -0.85974476646E+03  0.85974476647E+03  0.25500000920E-02 0. -1.
    10030    2    1    2    0    0  0.00000000000E+00  0.00000000000E+00  0.12486667998E+04  0.29681563328E+04  0.26927278434E+04 0.  0.
        2    1    3    3  502    0 -0.10100802645E+04 -0.70125967528E+03  0.12287526705E+04  0.17383499067E+04  0.25500000920E-02 0.  1.
       -2    1    3    3    0  502  0.10100802645E+04  0.70125967528E+03  0.19914129318E+02  0.12298064260E+04  0.25500000920E-02 0. -1.
</event>
<event>
 5   0  0.1732312E-06  0.2694296E+04  0.7818609E-02  0.8336858E-01
       -1   -1    0    0    0  501  0.00000000000E+00  0.00000000000E+00  0.10472708174E+04  0.10472708174E+04  0.50400001928E-02 0. -1.
        1   -1    0    0  501    0  0.00000000000E+00  0.00000000000E+00 -0.17328923109E+04  0.17328923109E+04  0.50400001928E-02 0.  1.
    10030    2    1    2    0    0  0.00000000000E+00  0.00000000000E+00 -0.68562149354E+03  0.27801631283E+04  0.26942958611E+04 0.  0.
        5    1    3    3  502    0  0.34660352328E+03 -0.12822115891E+04 -0.11073197192E+03  0.13328481613E+04  0.46999998093E+01 0.  1.
       -5    1    3    3    0  502 -0.34660352328E+03  0.12822115891E+04 -0.57488952162E+03  0.14473149670E+04  0.46999998093E+01 0. -1.
</event>
<event>
 5   0  0.4655882E-06  0.2728922E+04  0.7818609E-02  0.8325681E-01
        2   -1    0    0  501    0  0.00000000000E+00  0.00000000000E+00  0.12109697781E+04  0.12109697781E+04  0.25500000920E-02 0.  1.
       -2   -1    0    0    0  501  0.00000000000E+00  0.00000000000E+00 -0.15374069772E+04  0.15374069773E+04  0.25500000920E-02 0. -1.
    10030    2    1    2    0    0  0.00000000000E+00  0.00000000000E+00 -0.32643719912E+03  0.27483767554E+04  0.27289216816E+04 0.  0.
        1    1    3    3  502    0  0.45745159916E+03 -0.87982399293E+03  0.78069370128E+03  0.12620756235E+04  0.50400001928E-02 0.  1.
       -1    1    3    3    0  502 -0.45745159916E+03  0.87982399293E+03 -0.11071309004E+04  0.14863011319E+04  0.50400001928E-02 0. -1.
</event>
<event>
 5   0  0.1482875E-06  0.2685666E+04  0.7818609E-02  0.8339671E-01
       -4   -1    0    0    0  501  0.00000000000E+00  0.00000000000E+00  0.25784239574E+04  0.25784242702E+04  0.12699999809E+01 0. -1.
        4   -1    0    0  501    0  0.00000000000E+00  0.00000000000E+00 -0.69934117020E+03  0.69934232336E+03  0.12699999809E+01 0.  1.
    10030    2    1    2    0    0  0.00000000000E+00  0.00000000000E+00  0.18790827872E+04  0.32777665936E+04  0.26856659734E+04 0.  0.
        5    1    3    3  502    0 -0.81633646573E+03 -0.64604077451E+03  0.19747135512E+04  0.22323282928E+04  0.46999998093E+01 0. -1.
       -5    1    3    3    0  502  0.81633646573E+03  0.64604077451E+03 -0.95630763993E+02  0.10454383007E+04  0.46999998093E+01 0.  1.
</event>
<event>
 5   0  0.1753474E-06  0.2696339E+04  0.7818609E-02  0.8336194E-01
        1   -1    0    0  501    0  0.00000000000E+00  0.00000000000E+00  0.10386560623E+04  0.10386560624E+04  0.50400001928E-02 0. -1.
       -1   -1    0    0    0  501  0.00000000000E+00  0.00000000000E+00 -0.17499155674E+04  0.17499155674E+04  0.50400001928E-02 0.  1.
    10030    2    1    2    0    0  0.00000000000E+00  0.00000000000E+00 -0.71125950506E+03  0.27885716298E+04  0.26963385638E+04 0.  0.
        3    1    3    3  502    0  0.78783820163E+03 -0.10908940910E+04 -0.44104704859E+03  0.14160725472E+04  0.10100000352E+00 0.  1.
       -3    1    3    3    0  502 -0.78783820163E+03  0.10908940910E+04 -0.27021245647E+03  0.13724990825E+04  0.10100000352E+00 0. -1.
</event>
<event>
 5   0  0.1828511E-06  0.2700030E+04  0.7818609E-02  0.8334995E-01
        1   -1    0    0  501    0  0.00000000000E+00  0.00000000000E+00  0.14157612767E+04  0.14157612767E+04  0.50400001928E-02 0. -1.
       -1   -1    0    0    0  501  0.00000000000E+00  0.00000000000E+00 -0.12873220954E+04  0.12873220954E+04  0.50400001928E-02 0.  1.
    10030    2    1    2    0    0  0.00000000000E+00  0.00000000000E+00  0.12843918125E+03  0.27030833721E+04  0.27000302023E+04 0.  0.
        4    1    3    3  502    0  0.11450431413E+03 -0.75462149702E+03  0.11790201144E+04  0.14045123299E+04  0.12699999809E+01 0. -1.
       -4    1    3    3    0  502 -0.11450431413E+03  0.75462149702E+03 -0.10505809331E+04  0.12985710422E+04  0.12699999809E+01 0.  1.
</event>
<event>
 5   0  0.1828511E-06  0.2694979E+04  0.7818609E-02  0.8336636E-01
        1   -1    0    0  501    0  0.00000000000E+00  0.00000000000E+00  0.23289369535E+04  0.23289369535E+04  0.50400001928E-02 0. -1.
       -1   -1    0    0    0  501  0.00000000000E+00  0.00000000000E+00 -0.77963805139E+03  0.77963805140E+03  0.50400001928E-02 0.  1.
    10030    2    1    2    0    0  0.00000000000E+00  0.00000000000E+00  0.15492989021E+04  0.31085750049E+04  0.26949789374E+04 0.  0.
        4    1    3    3  502    0 -0.63159476999E+03 -0.63027223700E+03  0.19393512787E+04  0.21347693181E+04  0.12699999809E+01 0. -1.
       -4    1    3    3    0  502  0.63159476999E+03  0.63027223700E+03 -0.39005237664E+03  0.97380568680E+03  0.12699999809E+01 0.  1.
</event>
<event>
 5   0  0.4448804E-06  0.2783234E+04  0.7818609E-02  0.8308492E-01
       -2   -1    0    0    0  501  0.00000000000E+00  0.00000000000E+00  0.15566817349E+04  0.15566817349E+04  0.25500000920E-02 0.  1.
        2   -1    0    0  501    0  0.00000000000E+00  0.00000000000E+00 -0.12440554885E+04  0.12440554885E+04  0.25500000920E-02 0. -1.
    10030    2    1    2    0    0  0.00000000000E+00  0.00000000000E+00  0.31262624638E+03  0.28007372235E+04  0.27832344179E+04 0.  0.
        2    1    3    3  502    0  0.89098294637E+03 -0.95737802716E+03  0.63488263647E+03  0.14537879005E+04  0.25500000920E-02 0.  1.
       -2    1    3    3    0  502 -0.89098294637E+03  0.95737802716E+03 -0.32225639008E+03  0.13469493229E+04  0.25500000920E-02 0. -1.
</event>
<event>
 5   0  0.4448804E-06  0.2705915E+04  0.7818609E-02  0.8333088E-01
       -2   -1    0    0    0  501  0.00000000000E+00  0.00000000000E+00  0.89153453256E+03  0.89153453256E+03  0.25500000920E-02 0.  1.
        2   -1    0    0  501    0  0.00000000000E+00  0.00000000000E+00 -0.20531952822E+04  0.20531952822E+04  0.25500000920E-02 0. -1.
    10030    2    1    2    0    0  0.00000000000E+00  0.00000000000E+00 -0.11616607497E+04  0.29447298148E+04  0.27059153691E+04 0.  0.
        2    1    3    3  502    0  0.82496063521E+03  0.53746037073E+03  0.42900521893E+03  0.10739968238E+04  0.25500000920E-02 0.  1.
       -2    1    3    3    0  502 -0.82496063521E+03 -0.53746037073E+03 -0.15906659686E+04  0.18707329909E+04  0.25500000920E-02 0. -1.
</event>
<event>
 5   0  0.4439357E-06  0.2684328E+04  0.7818609E-02  0.8340108E-01
        2   -1    0    0  501    0  0.00000000000E+00  0.00000000000E+00  0.15161977101E+04  0.15161977101E+04  0.25500000920E-02 0.  1.
       -2   -1    0    0    0  501  0.00000000000E+00  0.00000000000E+00 -0.11881059600E+04  0.11881059600E+04  0.25500000920E-02 0. -1.
    10030    2    1    2    0    0  0.00000000000E+00  0.00000000000E+00  0.32809175010E+03  0.27043036700E+04  0.26843275030E+04 0.  0.
        4    1    3    3  502    0  0.78597688052E+03  0.10875929445E+04  0.13584014662E+03  0.13487298573E+04  0.12699999809E+01 0.  1.
       -4    1    3    3    0  502 -0.78597688052E+03 -0.10875929445E+04  0.19225160348E+03  0.13555738127E+04  0.12699999809E+01 0. -1.
</event>
<event>
 5   0  0.4401659E-06  0.2662148E+04  0.7818609E-02  0.8347392E-01
       -2   -1    0    0    0  501  0.00000000000E+00  0.00000000000E+00  0.98637229733E+03  0.98637229733E+03  0.25500000920E-02 0. -1.
        2   -1    0    0  501    0  0.00000000000E+00  0.00000000000E+00 -0.17962368711E+04  0.17962368711E+04  0.25500000920E-02 0.  1.
    10030    2    1    2    0    0  0.00000000000E+00  0.00000000000E+00 -0.80986457382E+03  0.27826091685E+04  0.26621482221E+04 0.  0.
        5    1    3    3  502    0  0.35826509120E+03  0.38229017052E+03 -0.16839165167E+04  0.17635465900E+04  0.46999998093E+01 0.  1.
       -5    1    3    3    0  502 -0.35826509120E+03 -0.38229017052E+03  0.87405194284E+03  0.10190625785E+04  0.46999998093E+01 0. -1.
</event>
<event>
 5   0  0.4448804E-06  0.2696880E+04  0.7818609E-02  0.8336018E-01
        2   -1    0    0  501    0  0.00000000000E+00  0.00000000000E+00  0.15138337305E+04  0.15138337305E+04  0.25500000920E-02 0.  1.
       -2   -1    0    0    0  501  0.00000000000E+00  0.00000000000E+00 -0.12011160657E+04  0.12011160657E+04  0.25500000920E-02 0. -1.
    10030    2    1    2    0    0  0.00000000000E+00  0.00000000000E+00  0.31271766479E+03  0.27149497962E+04  0.26968796892E+04 0.  0.
        2    1    3    3  502    0  0.12329001319E+04  0.39386919807E+03 -0.22448050215E+03  0.13136084563E+04  0.25500000920E-02 0. -1.
       -2    1    3    3    0  502 -0.12329001319E+04 -0.39386919807E+03  0.53719816694E+03  0.14013413400E+04  0.25500000920E-02 0.  1.
</event>
<event>
 5   0  0.4655882E-06  0.2703873E+04  0.7818609E-02  0.8333749E-01
       -2   -1    0    0    0  501  0.00000000000E+00  0.00000000000E+00  0.14986512783E+04  0.14986512783E+04  0.25500000920E-02 0. -1.
        2   -1    0    0  501    0  0.00000000000E+00  0.00000000000E+00 -0.12195851682E+04  0.12195851682E+04  0.25500000920E-02 0.  1.
    10030    2    1    2    0    0  0.00000000000E+00  0.00000000000E+00  0.27906611007E+03  0.27182364464E+04  0.27038734225E+04 0.  0.
        1    1    3    3  502    0  0.10294670273E+02  0.13106977368E+04  0.47249982242E+03  0.13933020562E+04  0.50400001928E-02 0.  1.
       -1    1    3    3    0  502 -0.10294670273E+02 -0.13106977368E+04 -0.19343371235E+03  0.13249343903E+04  0.50400001928E-02 0. -1.
</event>
<event>
 5   0  0.4439357E-06  0.2707609E+04  0.7818609E-02  0.8332540E-01
        2   -1    0    0  501    0  0.00000000000E+00  0.00000000000E+00  0.20589977763E+04  0.20589977763E+04  0.25500000920E-02 0.  1.
       -2   -1    0    0    0  501  0.00000000000E+00  0.00000000000E+00 -0.89013501410E+03  0.89013501411E+03  0.25500000920E-02 0. -1.
    10030    2    1    2    0    0  0.00000000000E+00  0.00000000000E+00  0.11688627622E+04  0.29491327904E+04  0.27076085497E+04 0.  0.
        4    1    3    3  502    0 -0.74243478718E+03 -0.92657370957E+03  0.12928617844E+04  0.17553465353E+04  0.12699999809E+01 0. -1.
       -4    1    3    3    0  502  0.74243478718E+03  0.92657370957E+03 -0.12399902220E+03  0.11937862551E+04  0.12699999809E+01 0.  1.
</event>
<event>
 5   0  0.4439357E-06  0.2704190E+04  0.7818609E-02  0.8333647E-01
       -2   -1    0    0    0  501  0.00000000000E+00  0.00000000000E+00  0.15091829913E+04  0.15091829913E+04  0.25500000920E-02 0.  1.
        2   -1    0    0  501    0  0.00000000000E+00  0.00000000000E+00 -0.12113583278E+04  0.12113583278E+04  0.25500000920E-02 0. -1.
    10030    2    1    2    0    0  0.00000000000E+00  0.00000000000E+00  0.29782466348E+03  0.27205413192E+04  0.27041903666E+04 0.  0.
        4    1    3    3  502    0 -0.68679342663E+03 -0.67661497370E+03 -0.80480000141E+03  0.12558653147E+04  0.12699999809E+01 0. -1.
       -4    1    3    3    0  502  0.68679342663E+03  0.67661497370E+03  0.11026246649E+04  0.14646760045E+04  0.12699999809E+01 0.  1.
</event>
<event>
 5   0  0.4401659E-06  0.2685969E+04  0.7818609E-02  0.8339572E-01
       -2   -1    0    0    0  501  0.00000000000E+00  0.00000000000E+00  0.82031378752E+03  0.82031378752E+03  0.25500000920E-02 0. -1.
        2   -1    0    0  501    0  0.00000000000E+00  0.00000000000E+00 -0.21986798570E+04  0.21986798570E+04  0.25500000920E-02 0.  1.
    10030    2    1    2    0    0  0.00000000000E+00  0.00000000000E+00 -0.13783660694E+04  0.30189936445E+04  0.26859690252E+04 0.  0.
        5    1    3    3  502    0  0.66828928210E+03 -0.87086982397E+03  0.18040834143E+03  0.11124720556E+04  0.46999998093E+01 0.  1.
       -5    1    3    3    0  502 -0.66828928210E+03  0.87086982397E+03 -0.15587744109E+04  0.19065215889E+04  0.46999998093E+01 0. -1.
</event>
<event>
 5   0  0.1828511E-06  0.2702077E+04  0.7818609E-02  0.8334331E-01
        1   -1    0    0  501    0  0.00000000000E+00  0.00000000000E+00  0.22263068452E+04  0.22263068452E+04  0.50400001928E-02 0. -1.
       -1   -1    0    0    0  501  0.00000000000E+00  0.00000000000E+00 -0.81988030799E+03  0.81988030801E+03  0.50400001928E-02 0.  1.
    10030    2    1    2    0    0  0.00000000000E+00  0.00000000000E+00  0.14064265372E+04  0.30461871532E+04  0.27020770840E+04 0.  0.
        4    1    3    3  502    0  0.10916382456E+04  0.65799216964E+03  0.12082306457E+04  0.17562604193E+04  0.12699999809E+01 0.  1.
       -4    1    3    3    0  502 -0.10916382456E+04 -0.65799216964E+03  0.19819589157E+03  0.12899267339E+04  0.12699999809E+01 0. -1.
</event>
<event>
 5   0  0.4401659E-06  0.2687760E+04  0.7818609E-02  0.8338987E-01
        2   -1    0    0  501    0  0.00000000000E+00  0.00000000000E+00  0.17150961352E+04  0.17150961352E+04  0.25500000920E-02 0.  1.
       -2   -1    0    0    0  501  0.00000000000E+00  0.00000000000E+00 -0.10530099565E+04  0.10530099566E+04  0.25500000920E-02 0. -1.
    10030    2    1    2    0    0  0.00000000000E+00  0.00000000000E+00  0.66208617870E+03  0.27681060918E+04  0.26877598902E+04 0.  0.
        5    1    3    3  502    0 -0.79101900354E+02  0.52244539207E+03  0.16036116604E+04  0.16884308531E+04  0.46999998093E+01 0.  1.
       -5    1    3    3    0  502  0.79101900354E+02 -0.52244539207E+03 -0.94152548171E+03  0.10796752387E+04  0.46999998093E+01 0. -1.
</event>
<event>
 5   0  0.4487186E-06  0.2669754E+04  0.7818609E-02  0.8344886E-01
        2   -1    0    0  501    0  0.00000000000E+00  0.00000000000E+00  0.20248792404E+04  0.20248792404E+04  0.25500000920E-02 0. -1.
       -2   -1    0    0    0  501  0.00000000000E+00  0.00000000000E+00 -0.88000174634E+03  0.88000174634E+03  0.25500000920E-02 0.  1.
    10030    2    1    2    0    0  0.00000000000E+00  0.00000000000E+00  0.11448774941E+04  0.29048809867E+04  0.26697544963E+04 0.  0.
        3    1    3    3  502    0 -0.24907817207E+03 -0.44631980145E+03 -0.76931402472E+03  0.92362621217E+03  0.10100000352E+00 0.  1.
       -3    1    3    3    0  502  0.24907817207E+03  0.44631980145E+03  0.19141915188E+04  0.19812547746E+04  0.10100000352E+00 0. -1.
</event>
<event>
 5   0  0.1771016E-06  0.2712376E+04  0.7818609E-02  0.8331001E-01
       -1   -1    0    0    0  501  0.00000000000E+00  0.00000000000E+00  0.12360807099E+04  0.12360807099E+04  0.50400001928E-02 0. -1.
        1   -1    0    0  501    0  0.00000000000E+00  0.00000000000E+00 -0.14879653964E+04  0.14879653964E+04  0.50400001928E-02 0.  1.
    10030    2    1    2    0    0  0.00000000000E+00  0.00000000000E+00 -0.25188468642E+03  0.27240461063E+04  0.27123755813E+04 0.  0.
        2    1    3    3  502    0 -0.86385746092E+02 -0.11876613319E+04 -0.77776758761E+03  0.14222954534E+04  0.25500000920E-02 0.  1.
       -2    1    3    3    0  502  0.86385746092E+02  0.11876613319E+04  0.52588290119E+03  0.13017506529E+04  0.25500000920E-02 0. -1.
</event>
<event>
 5   0  0.1723605E-06  0.2693411E+04  0.7818609E-02  0.8337146E-01
       -1   -1    0    0    0  501  0.00000000000E+00  0.00000000000E+00  0.96331755306E+03  0.96331755307E+03  0.50400001928E-02 0. -1.
        1   -1    0    0  501    0  0.00000000000E+00  0.00000000000E+00 -0.18826762666E+04  0.18826762666E+04  0.50400001928E-02 0.  1.
    10030    2    1    2    0    0  0.00000000000E+00  0.00000000000E+00 -0.91935871358E+03  0.28459938197E+04  0.26934105476E+04 0.  0.
        1    1    3    3  502    0  0.11773847137E+04 -0.61952000241E+03 -0.23910675109E+03  0.13517439979E+04  0.50400001928E-02 0. -1.
       -1    1    3    3    0  502 -0.11773847137E+04  0.61952000241E+03 -0.68025196249E+03  0.14942498218E+04  0.50400001928E-02 0.  1.
</event>
<event>
 5   0  0.1732312E-06  0.2749215E+04  0.7818609E-02  0.8319211E-01
        1   -1    0    0  501    0  0.00000000000E+00  0.00000000000E+00  0.18261100883E+04  0.18261100883E+04  0.50400001928E-02 0.  1.
       -1   -1    0    0    0  501  0.00000000000E+00  0.00000000000E+00 -0.10347384092E+04  0.10347384092E+04  0.50400001928E-02 0. -1.
    10030    2    1    2    0    0  0.00000000000E+00  0.00000000000E+00  0.79137167903E+03  0.28608484975E+04  0.27492153410E+04 0.  0.
        5    1    3    3  502    0  0.20366382011E+03 -0.15997115609E+03 -0.10091139718E+04  0.10418266749E+04  0.46999998093E+01 0. -1.
       -5    1    3    3    0  502 -0.20366382011E+03  0.15997115609E+03  0.18004856508E+04  0.18190218226E+04  0.46999998093E+01 0.  1.
</event>
<event>
 5   0  0.1732312E-06  0.2717390E+04  0.7818609E-02  0.8329384E-01
        1   -1    0    0  501    0  0.00000000000E+00  0.00000000000E+00  0.18882132509E+04  0.18882132509E+04  0.50400001928E-02 0.  1.
       -1   -1    0    0    0  501  0.00000000000E+00  0.00000000000E+00 -0.97767166631E+03  0.97767166632E+03  0.50400001928E-02 0. -1.
    10030    2    1    2    0    0  0.00000000000E+00  0.00000000000E+00  0.91054158459E+03  0.28658849172E+04  0.27173903624E+04 0.  0.
        5    1    3    3  502    0 -0.12760659343E+02 -0.12335819910E+04 -0.14517683785E+03  0.12421697820E+04  0.46999998093E+01 0. -1.
       -5    1    3    3    0  502  0.12760659343E+02  0.12335819910E+04  0.10557184224E+04  0.16237151353E+04  0.46999998093E+01 0.  1.
</event>
<event>
 5   0  0.4655882E-06  0.2699225E+04  0.7818609E-02  0.8335257E-01
       -2   -1    0    0    0  501  0.00000000000E+00  0.00000000000E+00  0.15496978332E+04  0.15496978332E+04  0.25500000920E-02 0. -1.
        2   -1    0    0  501    0  0.00000000000E+00  0.00000000000E+00 -0.11753605459E+04  0.11753605459E+04  0.25500000920E-02 0.  1.
    10030    2    1    2    0    0  0.00000000000E+00  0.00000000000E+00  0.37433728725E+03  0.27250583791E+04  0.26992248452E+04 0.  0.
        1    1    3    3  502    0 -0.13094611273E+04  0.30625759012E+03  0.72185958338E+02  0.13467341861E+04  0.50400001928E-02 0. -1.
       -1    1    3    3    0  502  0.13094611273E+04 -0.30625759012E+03  0.30215132892E+03  0.13783241930E+04  0.50400001928E-02 0.  1.
</event>
<event>
 5   0  0.4655882E-06  0.2699913E+04  0.7818609E-02  0.8335033E-01
       -2   -1    0    0    0  501  0.00000000000E+00  0.00000000000E+00  0.83564719201E+03  0.83564719202E+03  0.25500000920E-02 0. -1.
        2   -1    0    0  501    0  0.00000000000E+00  0.00000000000E+00 -0.21808034650E+04  0.21808034650E+04  0.25500000920E-02 0.  1.
    10030    2    1    2    0    0  0.00000000000E+00  0.00000000000E+00 -0.13451562730E+04  0.30164506570E+04  0.26999128074E+04 0.  0.
        1    1    3    3  502    0 -0.12251229812E+04  0.19193511538E+02 -0.39498650187E+02  0.12259098064E+04  0.50400001928E-02 0.  1.
       -1    1    3    3    0  502  0.12251229812E+04 -0.19193511538E+02 -0.13056576228E+04  0.17905408507E+04  0.50400001928E-02 0. -1.
</event>
<event>
 5   0  0.1723605E-06  0.2701165E+04  0.7818609E-02  0.8334627E-01
        1   -1    0    0  501    0  0.00000000000E+00  0.00000000000E+00  0.14131499298E+04  0.14131499298E+04  0.50400001928E-02 0. -1.
       -1   -1    0    0    0  501  0.00000000000E+00  0.00000000000E+00 -0.12907852840E+04  0.12907852840E+04  0.50400001928E-02 0.  1.
    10030    2    1    2    0    0  0.00000000000E+00  0.00000000000E+00  0.12236464574E+03  0.27039352138E+04  0.27011650327E+04 0.  0.
        1    1    3    3  502    0 -0.19778941997E+03 -0.99369768149E+03  0.95513647388E+03  0.13924228598E+04  0.50400001928E-02 0. -1.
       -1    1    3    3    0  502  0.19778941997E+03  0.99369768149E+03 -0.83277182814E+03  0.13115123540E+04  0.50400001928E-02 0.  1.
</event>
<event>
 5   0  0.4448804E-06  0.2692463E+04  0.7818609E-02  0.8337455E-01
        2   -1    0    0  501    0  0.00000000000E+00  0.00000000000E+00  0.26550335772E+04  0.26550335772E+04  0.25500000920E-02 0. -1.
       -2   -1    0    0    0  501  0.00000000000E+00  0.00000000000E+00 -0.68260506452E+03  0.68260506453E+03  0.25500000920E-02 0.  1.
    10030    2    1    2    0    0  0.00000000000E+00  0.00000000000E+00  0.19724285127E+04  0.33376386418E+04  0.26924630852E+04 0.  0.
        2    1    3    3  502    0 -0.16545030414E+03 -0.18382228028E+03 -0.65420297698E+03  0.69938971179E+03  0.25500000920E-02 0.  1.
       -2    1    3    3    0  502  0.16545030414E+03  0.18382228028E+03  0.26266314897E+04  0.26382489300E+04  0.25500000920E-02 0. -1.
</event>
<event>
 5   0  0.4401659E-06  0.2699232E+04  0.7818609E-02  0.8335254E-01
       -2   -1    0    0    0  501  0.00000000000E+00  0.00000000000E+00  0.14706304085E+04  0.14706304085E+04  0.25500000920E-02 0.  1.
        2   -1    0    0  501    0  0.00000000000E+00  0.00000000000E+00 -0.12385595914E+04  0.12385595914E+04  0.25500000920E-02 0. -1.
    10030    2    1    2    0    0  0.00000000000E+00  0.00000000000E+00  0.23207081711E+03  0.27091899999E+04  0.26992320373E+04 0.  0.
        5    1    3    3  502    0  0.61912103061E+02  0.81923481262E+03 -0.95864461173E+03  0.12625372740E+04  0.46999998093E+01 0. -1.
       -5    1    3    3    0  502 -0.61912103061E+02 -0.81923481262E+03  0.11907154288E+04  0.14466527258E+04  0.46999998093E+01 0.  1.
</event>
<event>
 5   0  0.4401659E-06  0.2684137E+04  0.7818609E-02  0.8340171E-01
       -2   -1    0    0    0  501  0.00000000000E+00  0.00000000000E+00  0.10496698593E+04  0.10496698593E+04  0.25500000920E-02 0.  1.
        2   -1    0    0  501    0  0.00000000000E+00  0.00000000000E+00 -0.17159177976E+04  0.17159177976E+04  0.25500000920E-02 0. -1.
    10030    2    1    2    0    0  0.00000000000E+00  0.00000000000E+00 -0.66624793836E+03  0.27655876569E+04  0.26841365041E+04 0.  0.
        5    1    3    3  502    0  0.87687313914E+02  0.32907283227E+03  0.10044005114E+04  0.10605755377E+04  0.46999998093E+01 0.  1.
       -5    1    3    3    0  502 -0.87687313914E+02 -0.32907283227E+03 -0.16706484497E+04  0.17050121192E+04  0.46999998093E+01 0. -1.
</event>
<event>
 5   0  0.1723605E-06  0.2693701E+04  0.7818609E-02  0.8337052E-01
       -1   -1    0    0    0  501  0.00000000000E+00  0.00000000000E+00  0.94513555288E+03  0.94513555290E+03  0.50400001928E-02 0.  1.
        1   -1    0    0  501    0  0.00000000000E+00  0.00000000000E+00 -0.19193083945E+04  0.19193083945E+04  0.50400001928E-02 0. -1.
    10030    2    1    2    0    0  0.00000000000E+00  0.00000000000E+00 -0.97417284165E+03  0.28644439474E+04  0.26937012460E+04 0.  0.
        1    1    3    3  502    0  0.12264466459E+04  0.53570104202E+03 -0.64786396615E+03  0.14869010392E+04  0.50400001928E-02 0. -1.
       -1    1    3    3    0  502 -0.12264466459E+04 -0.53570104202E+03 -0.32630887550E+03  0.13775429082E+04  0.50400001928E-02 0.  1.
</event>
<event>
 5   0  0.1828511E-06  0.2707318E+04  0.7818609E-02  0.8332635E-01
        1   -1    0    0  501    0  0.00000000000E+00  0.00000000000E+00  0.27711810262E+04  0.27711810262E+04  0.50400001928E-02 0. -1.
       -1   -1    0    0    0  501  0.00000000000E+00  0.00000000000E+00 -0.66123158111E+03  0.66123158113E+03  0.50400001928E-02 0.  1.
    10030    2    1    2    0    0  0.00000000000E+00  0.00000000000E+00  0.21099494451E+04  0.34324126073E+04  0.27073177956E+04 0.  0.
        4    1    3    3  502    0 -0.10550897148E+04  0.76654807567E+03  0.59508248116E+03  0.14335044579E+04  0.12699999809E+01 0.  1.
       -4    1    3    3    0  502  0.10550897148E+04 -0.76654807567E+03  0.15148669639E+04  0.19989081494E+04  0.12699999809E+01 0. -1.
</event>
<event>
 5   0  0.4487186E-06  0.2707819E+04  0.7818609E-02  0.8332472E-01
       -2   -1    0    0    0  501  0.00000000000E+00  0.00000000000E+00  0.70227653439E+03  0.70227653439E+03  0.25500000920E-02 0. -1.
        2   -1    0    0  501    0  0.00000000000E+00  0.00000000000E+00 -0.26101844443E+04  0.26101844443E+04  0.25500000920E-02 0.  1.
    10030    2    1    2    0    0  0.00000000000E+00  0.00000000000E+00 -0.19079079099E+04  0.33124609787E+04  0.27078192596E+04 0.  0.
        3    1    3    3  502    0  0.91317606768E+03  0.91990587493E+03 -0.14323762529E+04  0.19317916786E+04  0.10100000352E+00 0.  1.
       -3    1    3    3    0  502 -0.91317606768E+03 -0.91990587493E+03 -0.47553165703E+03  0.13806693001E+04  0.10100000352E+00 0. -1.
</event>
<event>
 5   0  0.4655882E-06  0.2704958E+04  0.7818609E-02  0.8333398E-01
        2   -1    0    0  501    0  0.00000000000E+00  0.00000000000E+00  0.11931268366E+04  0.11931268366E+04  0.25500000920E-02 0.  1.
       -2   -1    0    0    0  501  0.00000000000E+00  0.00000000000E+00 -0.15331137483E+04  0.15331137483E+04  0.25500000920E-02 0. -1.
    10030    2    1    2    0    0  0.00000000000E+00  0.00000000000E+00 -0.33998691178E+03  0.27262405849E+04  0.27049577865E+04 0.  0.
        1    1    3    3  502    0  0.12416560442E+04  0.53617624883E+03 -0.16786623013E+03  0.13628550081E+04  0.50400001928E-02 0.  1.
       -1    1    3    3    0  502 -0.12416560442E+04 -0.53617624883E+03 -0.17212068165E+03  0.13633855768E+04  0.50400001928E-02 0. -1.
</event>
<event>
 5   0  0.4401659E-06  0.2794121E+04  0.7818609E-02  0.8305096E-01
        2   -1    0    0  501    0  0.00000000000E+00  0.00000000000E+00  0.12767066225E+04  0.12767066225E+04  0.25500000920E-02 0. -1.
       -2   -1    0    0    0  501  0.00000000000E+00  0.00000000000E+00 -0.15287600480E+04  0.15287600480E+04  0.25500000920E-02 0.  1.
    10030    2    1    2    0    0  0.00000000000E+00  0.00000000000E+00 -0.25205342548E+03  0.28054666705E+04  0.27941210264E+04 0.  0.
        5    1    3    3  502    0  0.11761917134E+04 -0.17290670727E+03 -0.86278572531E+03  0.14689264698E+04  0.46999998093E+01 0.  1.
       -5    1    3    3    0  502 -0.11761917134E+04  0.17290670727E+03  0.61073229983E+03  0.13365402007E+04  0.46999998093E+01 0. -1.
</event>
<event>
 5   0  0.1771016E-06  0.2675885E+04  0.7818609E-02  0.8342872E-01
        1   -1    0    0  501    0  0.00000000000E+00  0.00000000000E+00  0.16237733297E+04  0.16237733298E+04  0.50400001928E-02 0. -1.
       -1   -1    0    0    0  501  0.00000000000E+00  0.00000000000E+00 -0.11024264860E+04  0.11024264860E+04  0.50400001928E-02 0.  1.
    10030    2    1    2    0    0  0.00000000000E+00  0.00000000000E+00  0.52134684372E+03  0.27261998158E+04  0.26758854430E+04 0.  0.
        2    1    3    3  502    0  0.43141419704E+02  0.40481074845E+03  0.15591407203E+04  0.16114132648E+04  0.25500000920E-02 0. -1.
       -2    1    3    3    0  502 -0.43141419704E+02 -0.40481074845E+03 -0.10377938766E+04  0.11147865510E+04  0.25500000920E-02 0.  1.
</event>
<event>
 5   0  0.4487186E-06  0.2692704E+04  0.7818609E-02  0.8337376E-01
        2   -1    0    0  501    0  0.00000000000E+00  0.00000000000E+00  0.14027112025E+04  0.14027112025E+04  0.25500000920E-02 0. -1.
       -2   -1    0    0    0  501  0.00000000000E+00  0.00000000000E+00 -0.12922572681E+04  0.12922572681E+04  0.25500000920E-02 0.  1.
    10030    2    1    2    0    0  0.00000000000E+00  0.00000000000E+00  0.11045393448E+03  0.26949684706E+04  0.26927040286E+04 0.  0.
        3    1    3    3  502    0 -0.84185955699E+03  0.97702394497E+03  0.44202374830E+03  0.13633371949E+04  0.10100000352E+00 0.  1.
       -3    1    3    3    0  502  0.84185955699E+03 -0.97702394497E+03 -0.33156981381E+03  0.13316312757E+04  0.10100000352E+00 0. -1.
</event>
<event>
 5   0  0.4439357E-06  0.2705890E+04  0.7818609E-02  0.8333096E-01
       -2   -1    0    0    0  501  0.00000000000E+00  0.00000000000E+00  0.26078958873E+04  0.26078958873E+04  0.25500000920E-02 0. -1.
        2   -1    0    0  501    0  0.00000000000E+00  0.00000000000E+00 -0.70189143956E+03  0.70189143957E+03  0.25500000920E-02 0.  1.
    10030    2    1    2    0    0  0.00000000000E+00  0.00000000000E+00  0.19060044477E+04  0.33097873268E+04  0.27058897232E+04 0.  0.
        4    1    3    3  502    0  0.42977913291E+03 -0.99845833360E+03 -0.32267493584E+02  0.10875072189E+04  0.12699999809E+01 0.  1.
       -4    1    3    3    0  502 -0.42977913291E+03  0.99845833360E+03  0.19382719413E+04  0.22222801080E+04  0.12699999809E+01 0. -1.
</event>
<event>
 5   0  0.4487186E-06  0.2696955E+04  0.7818609E-02  0.8335994E-01
       -2   -1    0    0    0  501  0.00000000000E+00  0.00000000000E+00  0.20548946218E+04  0.20548946218E+04  0.25500000920E-02 0. -1.
        2   -1    0    0  501    0  0.00000000000E+00  0.00000000000E+00 -0.88490739155E+03  0.88490739156E+03  0.25500000920E-02 0.  1.
    10030    2    1    2    0    0  0.00000000000E+00  0.00000000000E+00  0.11699872302E+04  0.29398020133E+04  0.26969549048E+04 0.  0.
        3    1    3    3  502    0 -0.20168868346E+03 -0.13247531264E+04  0.42060899086E+03  0.14044789441E+04  0.10100000352E+00 0.  1.
       -3    1    3    3    0  502  0.20168868346E+03  0.13247531264E+04  0.74937823936E+03  0.15353230692E+04  0.10100000352E+00 0. -1.
</event>
<event>
 5   0  0.4439357E-06  0.2694875E+04  0.7818609E-02  0.8336670E-01
        2   -1    0    0  501    0  0.00000000000E+00  0.00000000000E+00  0.13615611207E+04  0.13615611207E+04  0.25500000920E-02 0. -1.
       -2   -1    0    0    0  501  0.00000000000E+00  0.00000000000E+00 -0.13334601262E+04  0.13334601262E+04  0.25500000920E-02 0.  1.
    10030    2    1    2    0    0  0.00000000000E+00  0.00000000000E+00  0.28100994450E+02  0.26950212469E+04  0.26948747383E+04 0.  0.
        4    1    3    3  502    0  0.62724134371E+03 -0.12050291283E+03  0.12005521844E+04  0.13598822800E+04  0.12699999809E+01 0. -1.
       -4    1    3    3    0  502 -0.62724134371E+03  0.12050291283E+03 -0.11724511899E+04  0.13351389669E+04  0.12699999809E+01 0.  1.
</event>
<event>
 5   0  0.4655882E-06  0.2700651E+04  0.7818609E-02  0.8334794E-01
        2   -1    0    0  501    0  0.00000000000E+00  0.00000000000E+00  0.14686293051E+04  0.14686293051E+04  0.25500000920E-02 0.  1.
       -2   -1    0    0    0  501  0.00000000000E+00  0.00000000000E+00 -0.12415511261E+04  0.12415511261E+04  0.25500000920E-02 0. -1.
    10030    2    1    2    0    0  0.00000000000E+00  0.00000000000E+00  0.22707817895E+03  0.27101804312E+04  0.27006505642E+04 0.  0.
        1    1    3    3  502    0  0.75353879689E+03  0.59185477760E+03  0.10683509659E+04  0.14350911408E+04  0.50400001928E-02 0.  1.
       -1    1    3    3    0  502 -0.75353879689E+03 -0.59185477760E+03 -0.84127278694E+03  0.12750892903E+04  0.50400001928E-02 0. -1.
</event>
<event>
 5   0  0.1828511E-06  0.2711073E+04  0.7818609E-02  0.8331421E-01
        1   -1    0    0  501    0  0.00000000000E+00  0.00000000000E+00  0.99832556579E+03  0.99832556580E+03  0.50400001928E-02 0.  1.
       -1   -1    0    0    0  501  0.00000000000E+00  0.00000000000E+00 -0.18405609348E+04  0.18405609348E+04  0.50400001928E-02 0. -1.
    10030    2    1    2    0    0  0.00000000000E+00  0.00000000000E+00 -0.84223536902E+03  0.28388865006E+04  0.27110728774E+04 0.  0.
        4    1    3    3  502    0 -0.10266206401E+04 -0.18909289092E+03  0.48438814856E+03  0.11507995270E+04  0.12699999809E+01 0.  1.
       -4    1    3    3    0  502  0.10266206401E+04  0.18909289092E+03 -0.13266235176E+04  0.16880869736E+04  0.12699999809E+01 0. -1.
</event>
<event>
 5   0  0.4487186E-06  0.2702523E+04  0.7818609E-02  0.8334187E-01
        2   -1    0    0  501    0  0.00000000000E+00  0.00000000000E+00  0.29322131853E+04  0.29322131854E+04  0.25500000920E-02 0. -1.
       -2   -1    0    0    0  501  0.00000000000E+00  0.00000000000E+00 -0.62270631658E+03  0.62270631658E+03  0.25500000920E-02 0.  1.
    10030    2    1    2    0    0  0.00000000000E+00  0.00000000000E+00  0.23095068688E+04  0.35549195019E+04  0.27025230227E+04 0.  0.
        3    1    3    3  502    0 -0.55401440111E+03  0.43943790011E+03  0.26693984036E+04  0.27614716135E+04  0.10100000352E+00 0. -1.
       -3    1    3    3    0  502  0.55401440111E+03 -0.43943790011E+03 -0.35989153481E+03  0.79344788847E+03  0.10100000352E+00 0.  1.
</event>
<event>
 5   0  0.4401659E-06  0.2690410E+04  0.7818609E-02  0.8338123E-01
        2   -1    0    0  501    0  0.00000000000E+00  0.00000000000E+00  0.10199579734E+04  0.10199579734E+04  0.25500000920E-02 0.  1.
       -2   -1    0    0    0  501  0.00000000000E+00  0.00000000000E+00 -0.17741677131E+04  0.17741677131E+04  0.25500000920E-02 0. -1.
    10030    2    1    2    0    0  0.00000000000E+00  0.00000000000E+00 -0.75420973976E+03  0.27941256865E+04  0.26904100097E+04 0.  0.
        5    1    3    3  502    0  0.49047823638E+03  0.30665791362E+03 -0.16383967287E+04  0.17375194695E+04  0.46999998093E+01 0. -1.
       -5    1    3    3    0  502 -0.49047823638E+03 -0.30665791362E+03  0.88418698894E+03  0.10566062170E+04  0.46999998093E+01 0.  1.
</event>
<event>
 5   0  0.1753474E-06  0.2721513E+04  0.7818609E-02  0.8328058E-01
       -1   -1    0    0    0  501  0.00000000000E+00  0.00000000000E+00  0.73820638018E+03  0.73820638020E+03  0.50400001928E-02 0.  1.
        1   -1    0    0  501    0  0.00000000000E+00  0.00000000000E+00 -0.25083203659E+04  0.25083203659E+04  0.50400001928E-02 0. -1.
    10030    2    1    2    0    0  0.00000000000E+00  0.00000000000E+00 -0.17701139857E+04  0.32465267461E+04  0.27215128864E+04 0.  0.
        3    1    3    3  502    0 -0.13415320997E+03  0.20793825898E+03 -0.24812535725E+04  0.24935626530E+04  0.10100000352E+00 0. -1.
       -3    1    3    3    0  502  0.13415320997E+03 -0.20793825898E+03  0.71113958681E+03  0.75296409305E+03  0.10100000352E+00 0.  1.
</event>
<event>
 5   0  0.1828511E-06  0.2698642E+04  0.7818609E-02  0.8335446E-01
        1   -1    0    0  501    0  0.00000000000E+00  0.00000000000E+00  0.26539767413E+04  0.26539767413E+04  0.50400001928E-02 0. -1.
       -1   -1    0    0    0  501  0.00000000000E+00  0.00000000000E+00 -0.68601462934E+03  0.68601462936E+03  0.50400001928E-02 0.  1.
    10030    2    1    2    0    0  0.00000000000E+00  0.00000000000E+00  0.19679621120E+04  0.33399913707E+04  0.26986417847E+04 0.  0.
        4    1    3    3  502    0 -0.96220027752E+03 -0.94511566506E+03  0.10333674749E+04  0.16990947429E+04  0.12699999809E+01 0. -1.
       -4    1    3    3    0  502  0.96220027752E+03  0.94511566506E+03  0.93459463711E+03  0.16408966278E+04  0.12699999809E+01 0.  1.
</event>
<event>
 5   0  0.4439357E-06  0.2695484E+04  0.7818609E-02  0.8336472E-01
        2   -1    0    0  501    0  0.00000000000E+00  0.00000000000E+00  0.88793743279E+03  0.88793743280E+03  0.25500000920E-02 0.  1.
       -2   -1    0    0    0  501  0.00000000000E+00  0.00000000000E+00 -0.20456498846E+04  0.20456498846E+04  0.25500000920E-02 0. -1.
    10030    2    1    2    0    0  0.00000000000E+00  0.00000000000E+00 -0.11577124518E+04  0.29335873174E+04  0.26954844514E+04 0.  0.
        4    1    3    3  502    0 -0.99759232986E+03 -0.47708741010E+03  0.25965876659E+03  0.11358816582E+04  0.12699999809E+01 0. -1.
       -4    1    3    3    0  502  0.99759232986E+03  0.47708741010E+03 -0.14173712184E+04  0.17977056592E+04  0.12699999809E+01 0.  1.
</event>
<event>
 5   0  0.1753474E-06  0.2697568E+04  0.7818609E-02  0.8335794E-01
        1   -1    0    0  501    0  0.00000000000E+00  0.00000000000E+00  0.14577720284E+04  0.14577720285E+04  0.50400001928E-02 0.  1.
       -1   -1    0    0    0  501  0.00000000000E+00  0.00000000000E+00 -0.12479445709E+04  0.12479445709E+04  0.50400001928E-02 0. -1.
    10030    2    1    2    0    0  0.00000000000E+00  0.00000000000E+00  0.20982745754E+03  0.27057165994E+04  0.26975683039E+04 0.  0.
        3    1    3    3  502    0 -0.10737981616E+04  0.80095357166E+03  0.26238976089E+03  0.13650705156E+04  0.10100000352E+00 0.  1.
       -3    1    3    3    0  502  0.10737981616E+04 -0.80095357166E+03 -0.52562303355E+02  0.13406460837E+04  0.10100000352E+00 0. -1.
</event>
<event>
 5   0  0.4401659E-06  0.2721328E+04  0.7818609E-02  0.8328118E-01
       -2   -1    0    0    0  501  0.00000000000E+00  0.00000000000E+00  0.10371925942E+04  0.10371925942E+04  0.25500000920E-02 0.  1.
        2   -1    0    0  501    0  0.00000000000E+00  0.00000000000E+00 -0.17850175136E+04  0.17850175136E+04  0.25500000920E-02 0. -1.
    10030    2    1    2    0    0  0.00000000000E+00  0.00000000000E+00 -0.74782491946E+03  0.28222101078E+04  0.27213283121E+04 0.  0.
        5    1    3    3  502    0 -0.70834956129E+03 -0.64233684401E+03  0.62997481675E+03  0.11450965382E+04  0.46999998093E+01 0.  1.
       -5    1    3    3    0  502  0.70834956129E+03  0.64233684401E+03 -0.13777997362E+04  0.16771135696E+04  0.46999998093E+01 0. -1.
</event>
<event>
 5   0  0.4448804E-06  0.2703090E+04  0.7818609E-02  0.8334003E-01
       -2   -1    0    0    0  501  0.00000000000E+00  0.00000000000E+00  0.61099783188E+03  0.61099783189E+03  0.25500000920E-02 0. -1.
        2   -1    0    0  501    0  0.00000000000E+00  0.00000000000E+00 -0.29896570103E+04  0.29896570103E+04  0.25500000920E-02 0.  1.
    10030    2    1    2    0    0  0.00000000000E+00  0.00000000000E+00 -0.23786591784E+04  0.36006548421E+04  0.27030900476E+04 0.  0.
        2    1    3    3  502    0  0.48326528869E+03  0.88510111704E+03 -0.23879720329E+04  0.25921727868E+04  0.25500000920E-02 0.  1.
       -2    1    3    3    0  502 -0.48326528869E+03 -0.88510111704E+03  0.93128545634E+01  0.10084820553E+04  0.25500000920E-02 0. -1.
</event>
<event>
 5   0  0.4401659E-06  0.2714590E+04  0.7818609E-02  0.8330286E-01
       -2   -1    0    0    0  501  0.00000000000E+00  0.00000000000E+00  0.21532917754E+04  0.21532917754E+04  0.25500000920E-02 0. -1.
        2   -1    0    0  501    0  0.00000000000E+00  0.00000000000E+00 -0.85555072761E+03  0.85555072761E+03  0.25500000920E-02 0.  1.
    10030    2    1    2    0    0  0.00000000000E+00  0.00000000000E+00  0.12977410478E+04  0.30088425030E+04  0.27145904628E+04 0.  0.
        5    1    3    3  502    0  0.10504877095E+04  0.45440406106E+03  0.14574841373E+04  0.18531836333E+04  0.46999998093E+01 0. -1.
       -5    1    3    3    0  502 -0.10504877095E+04 -0.45440406106E+03 -0.15974308943E+03  0.11556588697E+04  0.46999998093E+01 0.  1.
</event>
<event>
 5   0  0.1732312E-06  0.2713014E+04  0.7818609E-02  0.8330795E-01
        1   -1    0    0  501    0  0.00000000000E+00  0.00000000000E+00  0.15322611397E+04  0.15322611397E+04  0.50400001928E-02 0. -1.
       -1   -1    0    0    0  501  0.00000000000E+00  0.00000000000E+00 -0.12009120146E+04  0.12009120147E+04  0.50400001928E-02 0.  1.
    10030    2    1    2    0    0  0.00000000000E+00  0.00000000000E+00  0.33134912503E+03  0.27331731543E+04  0.27130136839E+04 0.  0.
        5    1    3    3  502    0 -0.10451334589E+04  0.80904887580E+03 -0.14192140690E+03  0.13292959814E+04  0.46999998093E+01 0. -1.
       -5    1    3    3    0  502  0.10451334589E+04 -0.80904887580E+03  0.47327053193E+03  0.14038771730E+04  0.46999998093E+01 0.  1.
</event>
<event>
 5   0  0.1828511E-06  0.2701771E+04  0.7818609E-02  0.8334430E-01
        1   -1    0    0  501    0  0.00000000000E+00  0.00000000000E+00  0.13550286264E+04  0.13550286264E+04  0.50400001928E-02 0.  1.
       -1   -1    0    0    0  501  0.00000000000E+00  0.00000000000E+00 -0.13467555311E+04  0.13467555311E+04  0.50400001928E-02 0. -1.
    10030    2    1    2    0    0  0.00000000000E+00  0.00000000000E+00  0.82730953206E+01  0.27017841576E+04  0.27017714911E+04 0.  0.
        4    1    3    3  502    0  0.85886317013E+03 -0.17244991096E+03 -0.10242192679E+04  0.13477431649E+04  0.12699999809E+01 0. -1.
       -4    1    3    3    0  502 -0.85886317013E+03  0.17244991096E+03  0.10324923632E+04  0.13540409927E+04  0.12699999809E+01 0.  1.
</event>
<event>
 5   0  0.4487186E-06  0.2704104E+04  0.7818609E-02  0.8333674E-01
       -2   -1    0    0    0  501  0.00000000000E+00  0.00000000000E+00  0.14358995552E+04  0.14358995552E+04  0.25500000920E-02 0. -1.
        2   -1    0    0  501    0  0.00000000000E+00  0.00000000000E+00 -0.12731009567E+04  0.12731009567E+04  0.25500000920E-02 0.  1.
    10030    2    1    2    0    0  0.00000000000E+00  0.00000000000E+00  0.16279859853E+03  0.27090005119E+04  0.27041043600E+04 0.  0.
        3    1    3    3  502    0  0.40308507428E+03 -0.12734797633E+04  0.29110294463E+03  0.13671024904E+04  0.10100000352E+00 0. -1.
       -3    1    3    3    0  502 -0.40308507428E+03  0.12734797633E+04 -0.12830434609E+03  0.13418980215E+04  0.10100000352E+00 0.  1.
</event>
<event>
 5   0  0.1771016E-06  0.2727520E+04  0.7818609E-02  0.8326131E-01
       -1   -1    0    0    0  501  0.00000000000E+00  0.00000000000E+00  0.13002485645E+04  0.13002485645E+04  0.50400001928E-02 0. -1.
        1   -1    0    0  501    0  0.00000000000E+00  0.00000000000E+00 -0.14303732604E+04  0.14303732604E+04  0.50400001928E-02 0.  1.
    10030    2    1    2    0    0  0.00000000000E+00  0.00000000000E+00 -0.13012469593E+03  0.27306218250E+04  0.27275195901E+04 0.  0.
        2    1    3    3  502    0 -0.11733072960E+04 -0.59015847478E+03 -0.43277254834E+03  0.13828337264E+04  0.25500000920E-02 0. -1.
       -2    1    3    3    0  502  0.11733072960E+04  0.59015847478E+03  0.30264785241E+03  0.13477880986E+04  0.25500000920E-02 0.  1.
</event>
<event>
 5   0  0.4439357E-06  0.2697035E+04  0.7818609E-02  0.8335968E-01
        2   -1    0    0  501    0  0.00000000000E+00  0.00000000000E+00  0.10412401654E+04  0.10412401654E+04  0.25500000920E-02 0.  1.
       -2   -1    0    0    0  501  0.00000000000E+00  0.00000000000E+00 -0.17464742455E+04  0.17464742455E+04  0.25500000920E-02 0. -1.
    10030    2    1    2    0    0  0.00000000000E+00  0.00000000000E+00 -0.70523408005E+03  0.27877144109E+04  0.26970347660E+04 0.  0.
        4    1    3    3  502    0 -0.10710004322E+04  0.75949291228E+03 -0.34660890809E+02  0.13134208769E+04  0.12699999809E+01 0. -1.
       -4    1    3    3    0  502  0.10710004322E+04 -0.75949291228E+03 -0.67057318924E+03  0.14742935341E+04  0.12699999809E+01 0.  1.
</event>
<event>
 5   0  0.1828511E-06  0.2698699E+04  0.7818609E-02  0.8335427E-01
       -1   -1    0    0    0  501  0.00000000000E+00  0.00000000000E+00  0.13243415823E+04  0.13243415823E+04  0.50400001928E-02 0. -1.
        1   -1    0    0  501    0  0.00000000000E+00  0.00000000000E+00 -0.13748295695E+04  0.13748295695E+04  0.50400001928E-02 0.  1.
    10030    2    1    2    0    0  0.00000000000E+00  0.00000000000E+00 -0.50487987218E+02  0.26991711519E+04  0.26986989217E+04 0.  0.
        4    1    3    3  502    0 -0.90954773216E+03 -0.29378352349E+03 -0.97785830333E+03  0.13674042234E+04  0.12699999809E+01 0. -1.
       -4    1    3    3    0  502  0.90954773216E+03  0.29378352349E+03  0.92737031611E+03  0.13317669285E+04  0.12699999809E+01 0.  1.
</event>
<event>
 5   0  0.1723605E-06  0.2697915E+04  0.7818609E-02  0.8335682E-01
       -1   -1    0    0    0  501  0.00000000000E+00  0.00000000000E+00  0.11783395081E+04  0.11783395081E+04  0.50400001928E-02 0. -1.
        1   -1    0    0  501    0  0.00000000000E+00  0.00000000000E+00 -0.15442799584E+04  0.15442799584E+04  0.50400001928E-02 0.  1.
    10030    2    1    2    0    0  0.00000000000E+00  0.00000000000E+00 -0.36594045034E+03  0.27226194665E+04  0.26979148145E+04 0.  0.
        1    1    3    3  502    0 -0.11763693917E+04  0.57072078138E+03 -0.51785060613E+03  0.14063201649E+04  0.50400001928E-02 0.  1.
       -1    1    3    3    0  502  0.11763693917E+04 -0.57072078138E+03  0.15191015578E+03  0.13162993016E+04  0.50400001928E-02 0. -1.
</event>
<event>
 5   0  0.1732312E-06  0.2629330E+04  0.7818609E-02  0.8358306E-01
        1   -1    0    0  501    0  0.00000000000E+00  0.00000000000E+00  0.17861823414E+04  0.17861823415E+04  0.50400001928E-02 0.  1.
       -1   -1    0    0    0  501  0.00000000000E+00  0.00000000000E+00 -0.96761878507E+03  0.96761878509E+03  0.50400001928E-02 0. -1.
    10030    2    1    2    0    0  0.00000000000E+00  0.00000000000E+00  0.81856355637E+03  0.27538011265E+04  0.26293296387E+04 0.  0.
        5    1    3    3  502    0  0.26555277473E+01 -0.42795807448E+03  0.17111743666E+04  0.17638863252E+04  0.46999998093E+01 0.  1.
       -5    1    3    3    0  502 -0.26555277473E+01  0.42795807448E+03 -0.89261081023E+03  0.98991480133E+03  0.46999998093E+01 0. -1.
</event>
<event>
 5   0  0.1753474E-06  0.2701341E+04  0.7818609E-02  0.8334570E-01
        1   -1    0    0  501    0  0.00000000000E+00  0.00000000000E+00  0.16553919816E+04  0.16553919816E+04  0.50400001928E-02 0.  1.
       -1   -1    0    0    0  501  0.00000000000E+00  0.00000000000E+00 -0.11020418167E+04  0.11020418168E+04  0.50400001928E-02 0. -1.
    10030    2    1    2    0    0  0.00000000000E+00  0.00000000000E+00  0.55335016484E+03  0.27574337983E+04  0.27013412867E+04 0.  0.
        3    1    3    3  502    0 -0.27140107143E+03 -0.72450162349E+03  0.14068003757E+04  0.16055056684E+04  0.10100000352E+00 0.  1.
       -3    1    3    3    0  502  0.27140107143E+03  0.72450162349E+03 -0.85345021083E+03  0.11519281300E+04  0.10100000352E+00 0. -1.
</event>
<event>
 5   0  0.4448804E-06  0.2699864E+04  0.7818609E-02  0.8335049E-01
        2   -1    0    0  501    0  0.00000000000E+00  0.00000000000E+00  0.26790746199E+04  0.26790746199E+04  0.25500000920E-02 0.  1.
       -2   -1    0    0    0  501  0.00000000000E+00  0.00000000000E+00 -0.68020368623E+03  0.68020368623E+03  0.25500000920E-02 0. -1.
    10030    2    1    2    0    0  0.00000000000E+00  0.00000000000E+00  0.19988709336E+04  0.33592783061E+04  0.26998640204E+04 0.  0.
        2    1    3    3  502    0  0.47816172356E+03  0.12528554747E+04  0.80655438471E+03  0.15648691478E+04  0.25500000920E-02 0. -1.
       -2    1    3    3    0  502 -0.47816172356E+03 -0.12528554747E+04  0.11923165489E+04  0.17944091583E+04  0.25500000920E-02 0.  1.
</event>
<event>
 5   0  0.1828511E-06  0.2704386E+04  0.7818609E-02  0.8333583E-01
       -1   -1    0    0    0  501  0.00000000000E+00  0.00000000000E+00  0.92285493737E+03  0.92285493739E+03  0.50400001928E-02 0. -1.
        1   -1    0    0  501    0  0.00000000000E+00  0.00000000000E+00 -0.19812713538E+04  0.19812713538E+04  0.50400001928E-02 0.  1.
    10030    2    1    2    0    0  0.00000000000E+00  0.00000000000E+00 -0.10584164164E+04  0.29041262912E+04  0.27043861049E+04 0.  0.
        4    1    3    3  502    0  0.78501695990E+03 -0.53990914037E+03 -0.15595919992E+04  0.18275892110E+04  0.12699999809E+01 0.  1.
       -4    1    3    3    0  502 -0.78501695990E+03  0.53990914037E+03  0.50117558285E+03  0.10765370802E+04  0.12699999809E+01 0. -1.
</event>
<event>
 5   0  0.4401659E-06  0.2706620E+04  0.7818609E-02  0.8332860E-01
       -2   -1    0    0    0  501  0.00000000000E+00  0.00000000000E+00  0.14913059414E+04  0.14913059414E+04  0.25500000920E-02 0.  1.
        2   -1    0    0  501    0  0.00000000000E+00  0.00000000000E+00 -0.12280831646E+04  0.12280831646E+04  0.25500000920E-02 0. -1.
    10030    2    1    2    0    0  0.00000000000E+00  0.00000000000E+00  0.26322277684E+03  0.27193891060E+04  0.27066198254E+04 0.  0.
        5    1    3    3  502    0 -0.52767783736E+03  0.87414003311E+03  0.10239800682E+04  0.14460712180E+04  0.46999998093E+01 0.  1.
       -5    1    3    3    0  502  0.52767783736E+03 -0.87414003311E+03 -0.76075729132E+03  0.12733178880E+04  0.46999998093E+01 0. -1.
</event>
<event>
 5   0  0.4439357E-06  0.2705770E+04  0.7818609E-02  0.8333135E-01
        2   -1    0    0  501    0  0.00000000000E+00  0.00000000000E+00  0.21580990380E+04  0.21580990380E+04  0.25500000920E-02 0. -1.
       -2   -1    0    0    0  501  0.00000000000E+00  0.00000000000E+00 -0.84810668848E+03  0.84810668848E+03  0.25500000920E-02 0.  1.
    10030    2    1    2    0    0  0.00000000000E+00  0.00000000000E+00  0.13099923495E+04  0.30062057265E+04  0.27057702996E+04 0.  0.
        4    1    3    3  502    0 -0.11295190481E+04  0.24231949311E+03 -0.12728977171E+03  0.11622118204E+04  0.12699999809E+01 0.  1.
       -4    1    3    3    0  502  0.11295190481E+04 -0.24231949311E+03  0.14372821212E+04  0.18439939060E+04  0.12699999809E+01 0. -1.
</event>
<event>
 5   0  0.1753474E-06  0.2699228E+04  0.7818609E-02  0.8335256E-01
        1   -1    0    0  501    0  0.00000000000E+00  0.00000000000E+00  0.10430447088E+04  0.10430447088E+04  0.50400001928E-02 0. -1.
       -1   -1    0    0    0  501  0.00000000000E+00  0.00000000000E+00 -0.17462888679E+04  0.17462888679E+04  0.50400001928E-02 0.  1.
    10030    2    1    2    0    0  0.00000000000E+00  0.00000000000E+00 -0.70324415916E+03  0.27893335767E+04  0.26992275663E+04 0.  0.
        3    1    3    3  502    0 -0.12326109590E+03 -0.41633155469E+03  0.96889802105E+03  0.10617385020E+04  0.10100000352E+00 0. -1.
       -3    1    3    3    0  502  0.12326109590E+03  0.41633155469E+03 -0.16721421802E+04  0.17275950747E+04  0.10100000352E+00 0.  1.
</event>
<event>
 5   0  0.4401659E-06  0.2692666E+04  0.7818609E-02  0.8337389E-01
       -2   -1    0    0    0  501  0.00000000000E+00  0.00000000000E+00  0.98507872353E+03  0.98507872353E+03  0.25500000920E-02 0. -1.
        2   -1    0    0  501    0  0.00000000000E+00  0.00000000000E+00 -0.18400684331E+04  0.18400684331E+04  0.25500000920E-02 0.  1.
    10030    2    1    2    0    0  0.00000000000E+00  0.00000000000E+00 -0.85498970960E+03  0.28251471567E+04  0.26926657894E+04 0.  0.
        5    1    3    3  502    0  0.71482508330E+03 -0.50842231947E+03 -0.14990787503E+04  0.17368728636E+04  0.46999998093E+01 0.  1.
       -5    1    3    3    0  502 -0.71482508330E+03  0.50842231947E+03  0.64408904069E+03  0.10882742931E+04  0.46999998093E+01 0. -1.
</event>
<event>
 5   0  0.4655882E-06  0.2855342E+04  0.7818609E-02  0.8286290E-01
       -2   -1    0    0    0  501  0.00000000000E+00  0.00000000000E+00  0.88947099163E+03  0.88947099164E+03  0.25500000920E-02 0.  1.
        2   -1    0    0  501    0  0.00000000000E+00  0.00000000000E+00 -0.22915251857E+04  0.22915251857E+04  0.25500000920E-02 0. -1.
    10030    2    1    2    0    0  0.00000000000E+00  0.00000000000E+00 -0.14020541940E+04  0.31809961773E+04  0.28553424868E+04 0.  0.
        1    1    3    3  502    0 -0.10756925267E+04  0.85522398744E+03 -0.26995614090E+03  0.14004994818E+04  0.50400001928E-02 0.  1.
       -1    1    3    3    0  502  0.10756925267E+04 -0.85522398744E+03 -0.11320980531E+04  0.17804966955E+04  0.50400001928E-02 0. -1.
</event>
<event>
 5   0  0.4487186E-06  0.2652714E+04  0.7818609E-02  0.8350513E-01
        2   -1    0    0  501    0  0.00000000000E+00  0.00000000000E+00  0.13489251748E+04  0.13489251748E+04  0.25500000920E-02 0. -1.
       -2   -1    0    0    0  501  0.00000000000E+00  0.00000000000E+00 -0.13041666304E+04  0.13041666304E+04  0.25500000920E-02 0.  1.
    10030    2    1    2    0    0  0.00000000000E+00  0.00000000000E+00  0.44758544411E+02  0.26530918051E+04  0.26527142325E+04 0.  0.
        3    1    3    3  502    0  0.36661694979E+03 -0.92671964492E+03  0.89772147673E+03  0.13413132178E+04  0.10100000352E+00 0. -1.
       -3    1    3    3    0  502 -0.36661694979E+03  0.92671964492E+03 -0.85296293232E+03  0.13117785874E+04  0.10100000352E+00 0.  1.
</event>
<event>
 5   0  0.1723605E-06  0.2695396E+04  0.7818609E-02  0.8336500E-01
       -1   -1    0    0    0  501  0.00000000000E+00  0.00000000000E+00  0.13236866185E+04  0.13236866185E+04  0.50400001928E-02 0. -1.
        1   -1    0    0  501    0  0.00000000000E+00  0.00000000000E+00 -0.13721449304E+04  0.13721449304E+04  0.50400001928E-02 0.  1.
    10030    2    1    2    0    0  0.00000000000E+00  0.00000000000E+00 -0.48458311847E+02  0.26958315489E+04  0.26953959880E+04 0.  0.
        1    1    3    3  502    0  0.19080435654E+03 -0.10306352999E+04 -0.87152274275E+03  0.13631461092E+04  0.50400001928E-02 0.  1.
       -1    1    3    3    0  502 -0.19080435654E+03  0.10306352999E+04  0.82306443090E+03  0.13326854397E+04  0.50400001928E-02 0. -1.
</event>
<event>
 5   0  0.1771016E-06  0.2613824E+04  0.7818609E-02  0.8363521E-01
        1   -1    0    0  501    0  0.00000000000E+00  0.00000000000E+00  0.23540153494E+04  0.23540153494E+04  0.50400001928E-02 0.  1.
       -1   -1    0    0    0  501  0.00000000000E+00  0.00000000000E+00 -0.72557657713E+03  0.72557657715E+03  0.50400001928E-02 0. -1.
    10030    2    1    2    0    0  0.00000000000E+00  0.00000000000E+00  0.16284387723E+04  0.30795919266E+04  0.26138235593E+04 0.  0.
        2    1    3    3  502    0 -0.10702435041E+04  0.64648626900E+03  0.12623248558E+04  0.17767469420E+04  0.25500000920E-02 0.  1.
       -2    1    3    3    0  502  0.10702435041E+04 -0.64648626900E+03  0.36611391644E+03  0.13028449846E+04  0.25500000920E-02 0. -1.
</event>
<event>
 5   0  0.4655882E-06  0.2725820E+04  0.7818609E-02  0.8326676E-01
        2   -1    0    0  501    0  0.00000000000E+00  0.00000000000E+00  0.19237963145E+04  0.19237963145E+04  0.25500000920E-02 0.  1.
       -2   -1    0    0    0  501  0.00000000000E+00  0.00000000000E+00 -0.96555130708E+03  0.96555130708E+03  0.25500000920E-02 0. -1.
    10030    2    1    2    0    0  0.00000000000E+00  0.00000000000E+00  0.95824500745E+03  0.28893476216E+04  0.27258202773E+04 0.  0.
        1    1    3    3  502    0 -0.48172075575E+03  0.36741568009E+03 -0.81496876732E+03  0.10154916347E+04  0.50400001928E-02 0. -1.
       -1    1    3    3    0  502  0.48172075575E+03 -0.36741568009E+03  0.17732137748E+04  0.18738559869E+04  0.50400001928E-02 0.  1.
</event>
<event>
 5   0  0.4487186E-06  0.2698580E+04  0.7818609E-02  0.8335466E-01
        2   -1    0    0  501    0  0.00000000000E+00  0.00000000000E+00  0.21937260302E+04  0.21937260302E+04  0.25500000920E-02 0.  1.
       -2   -1    0    0    0  501  0.00000000000E+00  0.00000000000E+00 -0.82990490283E+03  0.82990490283E+03  0.25500000920E-02 0. -1.
    10030    2    1    2    0    0  0.00000000000E+00  0.00000000000E+00  0.13638211274E+04  0.30236309330E+04  0.26985803586E+04 0.  0.
        3    1    3    3  502    0  0.10878372968E+04  0.12520610833E+03 -0.20141353473E+03  0.11133885108E+04  0.10100000352E+00 0. -1.
       -3    1    3    3    0  502 -0.10878372968E+04 -0.12520610833E+03  0.15652346621E+04  0.19102424222E+04  0.10100000352E+00 0.  1.
</event>
<event>
 5   0  0.1732312E-06  0.2700059E+04  0.7818609E-02  0.8334986E-01
       -1   -1    0    0    0  501  0.00000000000E+00  0.00000000000E+00  0.11279868958E+04  0.11279868958E+04  0.50400001928E-02 0.  1.
        1   -1    0    0  501    0  0.00000000000E+00  0.00000000000E+00 -0.16157805110E+04  0.16157805110E+04  0.50400001928E-02 0. -1.
    10030    2    1    2    0    0  0.00000000000E+00  0.00000000000E+00 -0.48779361526E+03  0.27437674068E+04  0.27000586978E+04 0.  0.
        5    1    3    3  502    0 -0.11692070916E+04  0.64322360913E+03 -0.36198014688E+02  0.13349585089E+04  0.46999998093E+01 0.  1.
       -5    1    3    3    0  502  0.11692070916E+04 -0.64322360913E+03 -0.45159560057E+03  0.14088088979E+04  0.46999998093E+01 0. -1.
</event>
<event>
 5   0  0.4487186E-06  0.2714988E+04  0.7818609E-02  0.8330158E-01
        2   -1    0    0  501    0  0.00000000000E+00  0.00000000000E+00  0.82750735713E+03  0.82750735714E+03  0.25500000920E-02 0. -1.
       -2   -1    0    0    0  501  0.00000000000E+00  0.00000000000E+00 -0.22269166730E+04  0.22269166730E+04  0.25500000920E-02 0.  1.
    10030    2    1    2    0    0  0.00000000000E+00  0.00000000000E+00 -0.13994093159E+04  0.30544240301E+04  0.27149879783E+04 0.  0.
        3    1    3    3  502    0  0.81334450126E+03 -0.72192336683E+03  0.21432882220E+03  0.11084401109E+04  0.10100000352E+00 0. -1.
       -3    1    3    3    0  502 -0.81334450126E+03  0.72192336683E+03 -0.16137381381E+04  0.19459839192E+04  0.10100000352E+00 0.  1.
</event>
<event>
 5   0  0.1828511E-06  0.2694179E+04  0.7818609E-02  0.8336896E-01
       -1   -1    0    0    0  501  0.00000000000E+00  0.00000000000E+00  0.97021419892E+03  0.97021419893E+03  0.50400001928E-02 0.  1.
        1   -1    0    0  501    0  0.00000000000E+00  0.00000000000E+00 -0.18703600787E+04  0.18703600787E+04  0.50400001928E-02 0. -1.
    10030    2    1    2    0    0  0.00000000000E+00  0.00000000000E+00 -0.90014587979E+03  0.28405742777E+04  0.26941788400E+04 0.  0.
        4    1    3    3  502    0  0.18807281532E+03  0.10667726448E+04  0.39423566945E+03  0.11527352843E+04  0.12699999809E+01 0.  1.
       -4    1    3    3    0  502 -0.18807281532E+03 -0.10667726448E+04 -0.12943815492E+04  0.16878389934E+04  0.12699999809E+01 0. -1.
</event>
<event>
 5   0  0.1828511E-06  0.2694757E+04  0.7818609E-02  0.8336708E-01
       -1   -1    0    0    0  501  0.00000000000E+00  0.00000000000E+00  0.13821190346E+04  0.13821190347E+04  0.50400001928E-02 0. -1.
        1   -1    0    0  501    0  0.00000000000E+00  0.00000000000E+00 -0.13135113445E+04  0.13135113446E+04  0.50400001928E-02 0.  1.
    10030    2    1    2    0    0  0.00000000000E+00  0.00000000000E+00  0.68607690096E+02  0.26956303792E+04  0.26947571553E+04 0.  0.
        4    1    3    3  502    0 -0.88122090124E+03  0.10115108793E+04  0.15973539750E+03  0.13510076039E+04  0.12699999809E+01 0. -1.
       -4    1    3    3    0  502  0.88122090124E+03 -0.10115108793E+04 -0.91127707406E+02  0.13446227753E+04  0.12699999809E+01 0.  1.
</event>
<event>
 5   0  0.4487186E-06  0.2753103E+04  0.7818609E-02  0.8317978E-01
        2   -1    0    0  501    0  0.00000000000E+00  0.00000000000E+00  0.17643634302E+04  0.17643634302E+04  0.25500000920E-02 0. -1.
       -2   -1    0    0    0  501  0.00000000000E+00  0.00000000000E+00 -0.10739815131E+04  0.10739815131E+04  0.25500000920E-02 0.  1.
    10030    2    1    2    0    0  0.00000000000E+00  0.00000000000E+00  0.69038191714E+03  0.28383449433E+04  0.27531027633E+04 0.  0.
        3    1    3    3  502    0  0.73587069557E+03  0.10020682641E+04 -0.26407824149E+03  0.12709775035E+04  0.10100000352E+00 0.  1.
       -3    1    3    3    0  502 -0.73587069557E+03 -0.10020682641E+04  0.95446015863E+03  0.15673674398E+04  0.10100000352E+00 0. -1.
</event>
<event>
 5   0  0.1732312E-06  0.2692357E+04  0.7818609E-02  0.8337489E-01
        1   -1    0    0  501    0  0.00000000000E+00  0.00000000000E+00  0.34479496390E+04  0.34479496390E+04  0.50400001928E-02 0.  1.
       -1   -1    0    0    0  501  0.00000000000E+00  0.00000000000E+00 -0.52558669817E+03  0.52558669819E+03  0.50400001928E-02 0. -1.
    10030    2    1    2    0    0  0.00000000000E+00  0.00000000000E+00  0.29223629408E+04  0.39735363371E+04  0.26923569349E+04 0.  0.
        5    1    3    3  502    0 -0.13031152376E+04 -0.24749066725E+03  0.18003509095E+04  0.22362125212E+04  0.46999998093E+01 0.  1.
       -5    1    3    3    0  502  0.13031152376E+04  0.24749066725E+03  0.11220120313E+04  0.17373238159E+04  0.46999998093E+01 0. -1.
</event>
<event>
 5   0  0.1723605E-06  0.2675423E+04  0.7818609E-02  0.8343024E-01
        1   -1    0    0  501    0  0.00000000000E+00  0.00000000000E+00  0.23704940605E+04  0.23704940605E+04  0.50400001928E-02 0.  1.
       -1   -1    0    0    0  501  0.00000000000E+00  0.00000000000E+00 -0.75489392136E+03  0.75489392137E+03  0.50400001928E-02 0. -1.
    10030    2    1    2    0    0  0.00000000000E+00  0.00000000000E+00  0.16156001391E+04  0.31253879819E+04  0.26754226260E+04 0.  0.
        1    1    3    3  502    0 -0.18871871682E+03  0.12469196348E+04  0.28661652034E+03  0.12932796912E+04  0.50400001928E-02 0.  1.
       -1    1    3    3    0  502  0.18871871682E+03 -0.12469196348E+04  0.13289836188E+04  0.18321082907E+04  0.50400001928E-02 0. -1.
</event>
<event>
 5   0  0.1828511E-06  0.2611575E+04  0.7818609E-02  0.8364280E-01
        1   -1    0    0  501    0  0.00000000000E+00  0.00000000000E+00  0.14165379423E+04  0.14165379423E+04  0.50400001928E-02 0.  1.
       -1   -1    0    0    0  501  0.00000000000E+00  0.00000000000E+00 -0.12036955960E+04  0.12036955960E+04  0.50400001928E-02 0. -1.
    10030    2    1    2    0    0  0.00000000000E+00  0.00000000000E+00  0.21284234630E+03  0.26202335383E+04  0.26115746076E+04 0.  0.
        4    1    3    3  502    0  0.16765341236E+03  0.17215380745E+03  0.13941618981E+04  0.14147203296E+04  0.12699999809E+01 0.  1.
       -4    1    3    3    0  502 -0.16765341236E+03 -0.17215380745E+03 -0.11813195518E+04  0.12055132087E+04  0.12699999809E+01 0. -1.
</event>
<event>
 5   0  0.4448804E-06  0.2679436E+04  0.7818609E-02  0.8341708E-01
       -2   -1    0    0    0  501  0.00000000000E+00  0.00000000000E+00  0.87525342684E+03  0.87525342684E+03  0.25500000920E-02 0.  1.
        2   -1    0    0  501    0  0.00000000000E+00  0.00000000000E+00 -0.20506573717E+04  0.20506573717E+04  0.25500000920E-02 0. -1.
    10030    2    1    2    0    0  0.00000000000E+00  0.00000000000E+00 -0.11754039449E+04  0.29259107986E+04  0.26794364272E+04 0.  0.
        2    1    3    3  502    0 -0.62007946945E+03  0.11823745766E+04 -0.46641415087E+03  0.14142313630E+04  0.25500000920E-02 0.  1.
       -2    1    3    3    0  502  0.62007946945E+03 -0.11823745766E+04 -0.70898979401E+03  0.15116794356E+04  0.25500000920E-02 0. -1.
</event>
<event>
 5   0  0.4448804E-06  0.2700330E+04  0.7818609E-02  0.8334898E-01
       -2   -1    0    0    0  501  0.00000000000E+00  0.00000000000E+00  0.60320660605E+03  0.60320660606E+03  0.25500000920E-02 0. -1.
        2   -1    0    0  501    0  0.00000000000E+00  0.00000000000E+00 -0.30220922742E+04  0.30220922742E+04  0.25500000920E-02 0.  1.
    10030    2    1    2    0    0  0.00000000000E+00  0.00000000000E+00 -0.24188856682E+04  0.36252988803E+04  0.27003303679E+04 0.  0.
        2    1    3    3  502    0 -0.82345043674E+02  0.12712134439E+04 -0.60876846573E+03  0.14118652100E+04  0.25500000920E-02 0. -1.
       -2    1    3    3    0  502  0.82345043674E+02 -0.12712134439E+04 -0.18101172025E+04  0.22134336703E+04  0.25500000920E-02 0.  1.
</event>
<event>
 5   0  0.4448804E-06  0.2701224E+04  0.7818609E-02  0.8334608E-01
        2   -1    0    0  501    0  0.00000000000E+00  0.00000000000E+00  0.11475051552E+04  0.11475051552E+04  0.25500000920E-02 0. -1.
       -2   -1    0    0    0  501  0.00000000000E+00  0.00000000000E+00 -0.15896681743E+04  0.15896681743E+04  0.25500000920E-02 0.  1.
    10030    2    1    2    0    0  0.00000000000E+00  0.00000000000E+00 -0.44216301911E+03  0.27371733294E+04  0.27012237412E+04 0.  0.
        2    1    3    3  502    0 -0.10108626266E+04 -0.34848712004E+03  0.61504604188E+03  0.12335186080E+04  0.25500000920E-02 0. -1.
       -2    1    3    3    0  502  0.10108626266E+04  0.34848712004E+03 -0.10572090610E+04  0.15036547214E+04  0.25500000920E-02 0.  1.
</event>
<event>
 5   0  0.1771016E-06  0.2700452E+04  0.7818609E-02  0.8334858E-01
       -1   -1    0    0    0  501  0.00000000000E+00  0.00000000000E+00  0.90668916139E+03  0.90668916141E+03  0.50400001928E-02 0. -1.
        1   -1    0    0  501    0  0.00000000000E+00  0.00000000000E+00 -0.20107334518E+04  0.20107334518E+04  0.50400001928E-02 0.  1.
    10030    2    1    2    0    0  0.00000000000E+00  0.00000000000E+00 -0.11040442904E+04  0.29174226132E+04  0.27004519823E+04 0.  0.
        2    1    3    3  502    0  0.49230779255E+03  0.74126276357E+03  0.54508656485E+03  0.10435309341E+04  0.25500000920E-02 0. -1.
       -2    1    3    3    0  502 -0.49230779255E+03 -0.74126276357E+03 -0.16491308553E+04  0.18738916791E+04  0.25500000920E-02 0.  1.
</event>
<event>
 5   0  0.1828511E-06  0.2690046E+04  0.7818609E-02  0.8338242E-01
       -1   -1    0    0    0  501  0.00000000000E+00  0.00000000000E+00  0.12762495233E+04  0.12762495233E+04  0.50400001928E-02 0.  1.
        1   -1    0    0  501    0  0.00000000000E+00  0.00000000000E+00 -0.14175024912E+04  0.14175024913E+04  0.50400001928E-02 0. -1.
    10030    2    1    2    0    0  0.00000000000E+00  0.00000000000E+00 -0.14125296796E+03  0.26937520145E+04  0.26900460061E+04 0.  0.
        4    1    3    3  502    0 -0.62907336075E-01  0.66016147652E+03  0.11028548912E+04  0.12853418623E+04  0.12699999809E+01 0.  1.
       -4    1    3    3    0  502  0.62907336075E-01 -0.66016147652E+03 -0.12441078591E+04  0.14084101523E+04  0.12699999809E+01 0. -1.
</event>
<event>
 5   0  0.1753474E-06  0.2698149E+04  0.7818609E-02  0.8335606E-01
       -1   -1    0    0    0  501  0.00000000000E+00  0.00000000000E+00  0.72502114986E+03  0.72502114988E+03  0.50400001928E-02 0.  1.
        1   -1    0    0  501    0  0.00000000000E+00  0.00000000000E+00 -0.25102742716E+04  0.25102742716E+04  0.50400001928E-02 0. -1.
    10030    2    1    2    0    0  0.00000000000E+00  0.00000000000E+00 -0.17852531218E+04  0.32352954215E+04  0.26981489499E+04 0.  0.
        3    1    3    3  502    0 -0.11703506429E+04 -0.56605666407E+03 -0.46052319257E+03  0.13792107872E+04  0.10100000352E+00 0.  1.
       -3    1    3    3    0  502  0.11703506429E+04  0.56605666407E+03 -0.13247299292E+04  0.18560846343E+04  0.10100000352E+00 0. -1.
</event>
<event>
 5   0  0.4401659E-06  0.2685714E+04  0.7818609E-02  0.8339655E-01
       -2   -1    0    0    0  501  0.00000000000E+00  0.00000000000E+00  0.82284394600E+03  0.82284394600E+03  0.25500000920E-02 0.  1.
        2   -1    0    0  501    0  0.00000000000E+00  0.00000000000E+00 -0.21915034723E+04  0.21915034723E+04  0.25500000920E-02 0. -1.
    10030    2    1    2    0    0  0.00000000000E+00  0.00000000000E+00 -0.13686595263E+04  0.30143474183E+04  0.26857143295E+04 0.  0.
        5    1    3    3  502    0  0.72894229647E+03 -0.36225428226E+03 -0.18830318457E+04  0.20514424337E+04  0.46999998093E+01 0. -1.
       -5    1    3    3    0  502 -0.72894229647E+03  0.36225428226E+03  0.51437231938E+03  0.96290498469E+03  0.46999998093E+01 0.  1.
</event>
<event>
 5   0  0.1828511E-06  0.2692878E+04  0.7818609E-02  0.8337319E-01
        1   -1    0    0  501    0  0.00000000000E+00  0.00000000000E+00  0.16543582728E+04  0.16543582728E+04  0.50400001928E-02 0.  1.
       -1   -1    0    0    0  501  0.00000000000E+00  0.00000000000E+00 -0.10958315725E+04  0.10958315725E+04  0.50400001928E-02 0. -1.
    10030    2    1    2    0    0  0.00000000000E+00  0.00000000000E+00  0.55852670028E+03  0.27501898453E+04  0.26928780348E+04 0.  0.
        4    1    3    3  502    0  0.11669379604E+04  0.38977242937E+02  0.96408120101E+03  0.15141722504E+04  0.12699999809E+01 0.  1.
       -4    1    3    3    0  502 -0.11669379604E+04 -0.38977242937E+02 -0.40555450073E+03  0.12360175949E+04  0.12699999809E+01 0. -1.
</event>
<event>
 5   0  0.4401659E-06  0.2699075E+04  0.7818609E-02  0.8335305E-01
       -2   -1    0    0    0  501  0.00000000000E+00  0.00000000000E+00  0.63666467688E+03  0.63666467688E+03  0.25500000920E-02 0.  1.
        2   -1    0    0  501    0  0.00000000000E+00  0.00000000000E+00 -0.28606133490E+04  0.28606133490E+04  0.25500000920E-02 0. -1.
    10030    2    1    2    0    0  0.00000000000E+00  0.00000000000E+00 -0.22239486721E+04  0.34972780259E+04  0.26990750071E+04 0.  0.
        5    1    3    3  502    0  0.61539926457E+02 -0.13453453706E+04 -0.12240986284E+04  0.18199397987E+04  0.46999998093E+01 0.  1.
       -5    1    3    3    0  502 -0.61539926457E+02  0.13453453706E+04 -0.99985004368E+03  0.16773382272E+04  0.46999998093E+01 0. -1.
</event>
<event>
 5   0  0.1828511E-06  0.2700636E+04  0.7818609E-02  0.8334799E-01
        1   -1    0    0  501    0  0.00000000000E+00  0.00000000000E+00  0.20598850192E+04  0.20598850192E+04  0.50400001928E-02 0.  1.
       -1   -1    0    0    0  501  0.00000000000E+00  0.00000000000E+00 -0.88517512348E+03  0.88517512350E+03  0.50400001928E-02 0. -1.
    10030    2    1    2    0    0  0.00000000000E+00  0.00000000000E+00  0.11747098957E+04  0.29450601427E+04  0.27006362037E+04 0.  0.
        4    1    3    3  502    0 -0.96019357731E+03 -0.25415186576E+03  0.15849102214E+04  0.18704296030E+04  0.12699999809E+01 0.  1.
       -4    1    3    3    0  502  0.96019357731E+03  0.25415186576E+03 -0.41020032572E+03  0.10746305397E+04  0.12699999809E+01 0. -1.
</event>
<event>
 5   0  0.1482875E-06  0.2694791E+04  0.7818609E-02  0.8336697E-01
        3   -1    0    0  501    0  0.00000000000E+00  0.00000000000E+00  0.65994931547E+03  0.65994932320E+03  0.10100000352E+00 0. -1.
       -3   -1    0    0    0  501  0.00000000000E+00  0.00000000000E+00 -0.27509307535E+04  0.27509307554E+04  0.10100000352E+00 0.  1.
    10030    2    1    2    0    0  0.00000000000E+00  0.00000000000E+00 -0.20909814381E+04  0.34108800786E+04  0.26947911860E+04 0.  0.
        1    1    3    3  502    0  0.75680570625E+03  0.50222419043E+03 -0.23051890983E+04  0.24776764908E+04  0.50400001928E-02 0.  1.
       -1    1    3    3    0  502 -0.75680570625E+03 -0.50222419043E+03  0.21420766020E+03  0.93320358774E+03  0.50400001928E-02 0. -1.
</event>
<event>
 5   0  0.1753474E-06  0.2703358E+04  0.7818609E-02  0.8333916E-01
        1   -1    0    0  501    0  0.00000000000E+00  0.00000000000E+00  0.12821015302E+04  0.12821015302E+04  0.50400001928E-02 0. -1.
       -1   -1    0    0    0  501  0.00000000000E+00  0.00000000000E+00 -0.14250327874E+04  0.14250327874E+04  0.50400001928E-02 0.  1.
    10030    2    1    2    0    0  0.00000000000E+00  0.00000000000E+00 -0.14293125726E+03  0.27071343176E+04  0.27033584426E+04 0.  0.
        3    1    3    3  502    0  0.12999353034E+04 -0.21184755291E+03 -0.37574118974E+03  0.13696322976E+04  0.10100000352E+00 0.  1.
       -3    1    3    3    0  502 -0.12999353034E+04  0.21184755291E+03  0.23280993248E+03  0.13375020200E+04  0.10100000352E+00 0. -1.
</event>
<event>
 5   0  0.1753474E-06  0.2693801E+04  0.7818609E-02  0.8337019E-01
        1   -1    0    0  501    0  0.00000000000E+00  0.00000000000E+00  0.30308828922E+04  0.30308828923E+04  0.50400001928E-02 0. -1.
       -1   -1    0    0    0  501  0.00000000000E+00  0.00000000000E+00 -0.59855207061E+03  0.59855207063E+03  0.50400001928E-02 0.  1.
    10030    2    1    2    0    0  0.00000000000E+00  0.00000000000E+00  0.24323308216E+04  0.36294349629E+04  0.26938012035E+04 0.  0.
        3    1    3    3  502    0 -0.90406563832E+03 -0.52128844298E+03  0.68905238143E+02  0.10458605362E+04  0.10100000352E+00 0.  1.
       -3    1    3    3    0  502  0.90406563832E+03  0.52128844298E+03  0.23634255835E+04  0.25835744267E+04  0.10100000352E+00 0. -1.
</event>
<event>
 5   0  0.4439357E-06  0.2714585E+04  0.7818609E-02  0.8330288E-01
       -2   -1    0    0    0  501  0.00000000000E+00  0.00000000000E+00  0.15532756979E+04  0.15532756979E+04  0.25500000920E-02 0.  1.
        2   -1    0    0  501    0  0.00000000000E+00  0.00000000000E+00 -0.11860372484E+04  0.11860372484E+04  0.25500000920E-02 0. -1.
    10030    2    1    2    0    0  0.00000000000E+00  0.00000000000E+00  0.36723844955E+03  0.27393129463E+04  0.27145849294E+04 0.  0.
        4    1    3    3  502    0 -0.60161479837E+03  0.19145872205E+03 -0.10288433267E+04  0.12071110188E+04  0.12699999809E+01 0. -1.
       -4    1    3    3    0  502  0.60161479837E+03 -0.19145872205E+03  0.13960817763E+04  0.15322019275E+04  0.12699999809E+01 0.  1.
</event>
<event>
 5   0  0.4448804E-06  0.2702672E+04  0.7818609E-02  0.8334139E-01
       -2   -1    0    0    0  501  0.00000000000E+00  0.00000000000E+00  0.73646446906E+03  0.73646446906E+03  0.25500000920E-02 0.  1.
        2   -1    0    0  501    0  0.00000000000E+00  0.00000000000E+00 -0.24795611735E+04  0.24795611735E+04  0.25500000920E-02 0. -1.
    10030    2    1    2    0    0  0.00000000000E+00  0.00000000000E+00 -0.17430967045E+04  0.32160256426E+04  0.27026717915E+04 0.  0.
        2    1    3    3  502    0 -0.25152443183E+03 -0.65989451776E+03  0.49941038373E+03  0.86494857984E+03  0.25500000920E-02 0.  1.
       -2    1    3    3    0  502  0.25152443183E+03  0.65989451776E+03 -0.22425070882E+04  0.23510770628E+04  0.25500000920E-02 0. -1.
</event>
<event>
 5   0  0.1753474E-06  0.2686451E+04  0.7818609E-02  0.8339415E-01
       -1   -1    0    0    0  501  0.00000000000E+00  0.00000000000E+00  0.14355483542E+04  0.14355483542E+04  0.50400001928E-02 0. -1.
        1   -1    0    0  501    0  0.00000000000E+00  0.00000000000E+00 -0.12568398477E+04  0.12568398478E+04  0.50400001928E-02 0.  1.
    10030    2    1    2    0    0  0.00000000000E+00  0.00000000000E+00  0.17870850646E+03  0.26923882020E+04  0.26864507254E+04 0.  0.
        3    1    3    3  502    0 -0.99379340429E+03 -0.53543452782E+03 -0.64022369685E+03  0.12977680287E+04  0.10100000352E+00 0.  1.
       -3    1    3    3    0  502  0.99379340429E+03  0.53543452782E+03  0.81893220331E+03  0.13946201733E+04  0.10100000352E+00 0. -1.
</event>
<event>
 5   0  0.4487186E-06  0.2725023E+04  0.7818609E-02  0.8326931E-01
        2   -1    0    0  501    0  0.00000000000E+00  0.00000000000E+00  0.84027917401E+03  0.84027917401E+03  0.25500000920E-02 0. -1.
       -2   -1    0    0    0  501  0.00000000000E+00  0.00000000000E+00 -0.22093103508E+04  0.22093103508E+04  0.25500000920E-02 0.  1.
    10030    2    1    2    0    0  0.00000000000E+00  0.00000000000E+00 -0.13690311768E+04  0.30495895248E+04  0.27250229186E+04 0.  0.
        3    1    3    3  502    0  0.48289043408E+02 -0.41509392435E+03 -0.21358207726E+04  0.21763191817E+04  0.10100000352E+00 0.  1.
       -3    1    3    3    0  502 -0.48289043408E+02  0.41509392435E+03  0.76678959580E+03  0.87327034312E+03  0.10100000352E+00 0. -1.
</event>
<event>
 5   0  0.1723605E-06  0.2704932E+04  0.7818609E-02  0.8333407E-01
        1   -1    0    0  501    0  0.00000000000E+00  0.00000000000E+00  0.11461579712E+04  0.11461579712E+04  0.50400001928E-02 0. -1.
       -1   -1    0    0    0  501  0.00000000000E+00  0.00000000000E+00 -0.15959089992E+04  0.15959089992E+04  0.50400001928E-02 0.  1.
    10030    2    1    2    0    0  0.00000000000E+00  0.00000000000E+00 -0.44975102800E+03  0.27420669704E+04  0.27049316596E+04 0.  0.
        1    1    3    3  502    0  0.36177347641E+03 -0.12053382835E+04  0.27734845409E+03  0.12886592222E+04  0.50400001928E-02 0. -1.
       -1    1    3    3    0  502 -0.36177347641E+03  0.12053382835E+04 -0.72709948209E+03  0.14534077483E+04  0.50400001928E-02 0.  1.
</event>
<event>
 5   0  0.1828511E-06  0.2694312E+04  0.7818609E-02  0.8336853E-01
        1   -1    0    0  501    0  0.00000000000E+00  0.00000000000E+00  0.92588470306E+03  0.92588470308E+03  0.50400001928E-02 0. -1.
       -1   -1    0    0    0  501  0.00000000000E+00  0.00000000000E+00 -0.19601028933E+04  0.19601028933E+04  0.50400001928E-02 0.  1.
    10030    2    1    2    0    0  0.00000000000E+00  0.00000000000E+00 -0.10342181902E+04  0.28859875964E+04  0.26943119978E+04 0.  0.
        4    1    3    3  502    0  0.13331994708E+04 -0.17988725660E+03 -0.59320849441E+03  0.14702646649E+04  0.12699999809E+01 0. -1.
       -4    1    3    3    0  502 -0.13331994708E+04  0.17988725660E+03 -0.44100969580E+03  0.14157229315E+04  0.12699999809E+01 0.  1.
</event>
<event>
 5   0  0.1732312E-06  0.2697979E+04  0.7818609E-02  0.8335661E-01
        1   -1    0    0  501    0  0.00000000000E+00  0.00000000000E+00  0.16794473306E+04  0.16794473306E+04  0.50400001928E-02 0.  1.
       -1   -1    0    0    0  501  0.00000000000E+00  0.00000000000E+00 -0.10835543323E+04  0.10835543323E+04  0.50400001928E-02 0. -1.
    10030    2    1    2    0    0  0.00000000000E+00  0.00000000000E+00  0.59589299828E+03  0.27630016628E+04  0.26979788219E+04 0.  0.
        5    1    3    3  502    0  0.81043917155E+02 -0.97968401519E+03 -0.64811484878E+03  0.11774650030E+04  0.46999998093E+01 0. -1.
       -5    1    3    3    0  502 -0.81043917155E+02  0.97968401519E+03  0.12440078471E+04  0.15855366598E+04  0.46999998093E+01 0.  1.
</event>
<event>
 5   0  0.4487186E-06  0.2720061E+04  0.7818609E-02  0.8328525E-01
       -2   -1    0    0    0  501  0.00000000000E+00  0.00000000000E+00  0.57539399089E+03  0.57539399089E+03  0.25500000920E-02 0.  1.
        2   -1    0    0  501    0  0.00000000000E+00  0.00000000000E+00 -0.32146380900E+04  0.32146380900E+04  0.25500000920E-02 0. -1.
    10030    2    1    2    0    0  0.00000000000E+00  0.00000000000E+00 -0.26392440991E+04  0.37900320809E+04  0.27200613522E+04 0.  0.
        3    1    3    3  502    0 -0.72234491918E+03 -0.85841842905E+03 -0.24843595754E+03  0.11490799871E+04  0.10100000352E+00 0.  1.
       -3    1    3    3    0  502  0.72234491918E+03  0.85841842905E+03 -0.23908081416E+04  0.26409520938E+04  0.10100000352E+00 0. -1.
</event>
<event>
 5   0  0.1723605E-06  0.2690924E+04  0.7818609E-02  0.8337956E-01
       -1   -1    0    0    0  501  0.00000000000E+00  0.00000000000E+00  0.13432657993E+04  0.13432657993E+04  0.50400001928E-02 0.  1.
        1   -1    0    0  501    0  0.00000000000E+00  0.00000000000E+00 -0.13476614010E+04  0.13476614010E+04  0.50400001928E-02 0. -1.
    10030    2    1    2    0    0  0.00000000000E+00  0.00000000000E+00 -0.43956017131E+01  0.26909272003E+04  0.26909236103E+04 0.  0.
        1    1    3    3  502    0  0.61917543656E+03 -0.11939035096E+04 -0.40716128523E+02  0.13455265195E+04  0.50400001928E-02 0.  1.
       -1    1    3    3    0  502 -0.61917543656E+03  0.11939035096E+04  0.36320526810E+02  0.13454006809E+04  0.50400001928E-02 0. -1.
</event>
<event>
 5   0  0.4655882E-06  0.2696609E+04  0.7818609E-02  0.8336106E-01
        2   -1    0    0  501    0  0.00000000000E+00  0.00000000000E+00  0.15617994355E+04  0.15617994355E+04  0.25500000920E-02 0.  1.
       -2   -1    0    0    0  501  0.00000000000E+00  0.00000000000E+00 -0.11639937907E+04  0.11639937907E+04  0.25500000920E-02 0. -1.
    10030    2    1    2    0    0  0.00000000000E+00  0.00000000000E+00  0.39780564481E+03  0.27257932262E+04  0.26966088669E+04 0.  0.
        1    1    3    3  502    0 -0.40528446695E+03  0.28058056424E+03  0.14674525405E+04  0.15480303326E+04  0.50400001928E-02 0.  1.
       -1    1    3    3    0  502  0.40528446695E+03 -0.28058056424E+03 -0.10696468957E+04  0.11777628936E+04  0.50400001928E-02 0. -1.
</event>
<event>
 5   0  0.1723605E-06  0.2701448E+04  0.7818609E-02  0.8334535E-01
        1   -1    0    0  501    0  0.00000000000E+00  0.00000000000E+00  0.13731949179E+04  0.13731949179E+04  0.50400001928E-02 0. -1.
       -1   -1    0    0    0  501  0.00000000000E+00  0.00000000000E+00 -0.13286205979E+04  0.13286205980E+04  0.50400001928E-02 0.  1.
    10030    2    1    2    0    0  0.00000000000E+00  0.00000000000E+00  0.44574319971E+02  0.27018155159E+04  0.27014477992E+04 0.  0.
        1    1    3    3  502    0  0.11351220967E+04  0.66347204659E+03 -0.28720240745E+03  0.13458018257E+04  0.50400001928E-02 0.  1.
       -1    1    3    3    0  502 -0.11351220967E+04 -0.66347204659E+03  0.33177672742E+03  0.13560136902E+04  0.50400001928E-02 0. -1.
</event>
<event>
 5   0  0.1732312E-06  0.2692654E+04  0.7818609E-02  0.8337393E-01
       -1   -1    0    0    0  501  0.00000000000E+00  0.00000000000E+00  0.93976461838E+03  0.93976461839E+03  0.50400001928E-02 0. -1.
        1   -1    0    0  501    0  0.00000000000E+00  0.00000000000E+00 -0.19287764847E+04  0.19287764847E+04  0.50400001928E-02 0.  1.
    10030    2    1    2    0    0  0.00000000000E+00  0.00000000000E+00 -0.98901186634E+03  0.28685411031E+04  0.26926536332E+04 0.  0.
        5    1    3    3  502    0 -0.51145420454E+03 -0.68440527054E+03 -0.16029407265E+04  0.18164352563E+04  0.46999998093E+01 0.  1.
       -5    1    3    3    0  502  0.51145420454E+03  0.68440527054E+03  0.61392886012E+03  0.10521058468E+04  0.46999998093E+01 0. -1.
</event>
<event>
 5   0  0.1771016E-06  0.2731869E+04  0.7818609E-02  0.8324738E-01
       -1   -1    0    0    0  501  0.00000000000E+00  0.00000000000E+00  0.11105449033E+04  0.11105449033E+04  0.50400001928E-02 0. -1.
        1   -1    0    0  501    0  0.00000000000E+00  0.00000000000E+00 -0.16800551744E+04  0.16800551744E+04  0.50400001928E-02 0.  1.
    10030    2    1    2    0    0  0.00000000000E+00  0.00000000000E+00 -0.56951027112E+03  0.27906000777E+04  0.27318687459E+04 0.  0.
        2    1    3    3  502    0  0.89061314994E+03  0.10350090848E+04 -0.32216378476E+03  0.14029344577E+04  0.25500000920E-02 0.  1.
       -2    1    3    3    0  502 -0.89061314994E+03 -0.10350090848E+04 -0.24734648636E+03  0.13876656200E+04  0.25500000920E-02 0. -1.
</event>
<event>
 5   0  0.1828511E-06  0.2702228E+04  0.7818609E-02  0.8334282E-01
       -1   -1    0    0    0  501  0.00000000000E+00  0.00000000000E+00  0.11623141587E+04  0.11623141588E+04  0.50400001928E-02 0.  1.
        1   -1    0    0  501    0  0.00000000000E+00  0.00000000000E+00 -0.15705813406E+04  0.15705813406E+04  0.50400001928E-02 0. -1.
    10030    2    1    2    0    0  0.00000000000E+00  0.00000000000E+00 -0.40826718183E+03  0.27328954993E+04  0.27022279176E+04 0.  0.
        4    1    3    3  502    0 -0.97174257290E+02  0.10158718520E+03 -0.15631640869E+04  0.15694732773E+04  0.12699999809E+01 0. -1.
       -4    1    3    3    0  502  0.97174257290E+02 -0.10158718520E+03  0.11548969051E+04  0.11634222221E+04  0.12699999809E+01 0.  1.
</event>
<event>
 5   0  0.1732312E-06  0.2694939E+04  0.7818609E-02  0.8336649E-01
       -1   -1    0    0    0  501  0.00000000000E+00  0.00000000000E+00  0.12607297986E+04  0.12607297986E+04  0.50400001928E-02 0. -1.
        1   -1    0    0  501    0  0.00000000000E+00  0.00000000000E+00 -0.14401766219E+04  0.14401766219E+04  0.50400001928E-02 0.  1.
    10030    2    1    2    0    0  0.00000000000E+00  0.00000000000E+00 -0.17944682330E+03  0.27009064204E+04  0.26949386504E+04 0.  0.
        5    1    3    3  502    0 -0.51990064583E+02 -0.12870316178E+04  0.30675107448E+03  0.13241116508E+04  0.46999998093E+01 0. -1.
       -5    1    3    3    0  502  0.51990064583E+02  0.12870316178E+04 -0.48619789779E+03  0.13767947697E+04  0.46999998093E+01 0.  1.
</event>
<event>
 5   0  0.4448804E-06  0.2693557E+04  0.7818609E-02  0.8337099E-01
        2   -1    0    0  501    0  0.00000000000E+00  0.00000000000E+00  0.13580221194E+04  0.13580221194E+04  0.25500000920E-02 0.  1.
       -2   -1    0    0    0  501  0.00000000000E+00  0.00000000000E+00 -0.13356279135E+04  0.13356279135E+04  0.25500000920E-02 0. -1.
    10030    2    1    2    0    0  0.00000000000E+00  0.00000000000E+00  0.22394205888E+02  0.26936500330E+04  0.26935569420E+04 0.  0.
        2    1    3    3  502    0  0.11341116589E+03 -0.37207889045E+03 -0.12782300463E+04  0.13361051024E+04  0.25500000920E-02 0. -1.
       -2    1    3    3    0  502 -0.11341116589E+03  0.37207889045E+03  0.13006242522E+04  0.13575449306E+04  0.25500000920E-02 0.  1.
</event>
<event>
 5   0  0.1723605E-06  0.2694820E+04  0.7818609E-02  0.8336688E-01
        1   -1    0    0  501    0  0.00000000000E+00  0.00000000000E+00  0.15049737656E+04  0.15049737656E+04  0.50400001928E-02 0. -1.
       -1   -1    0    0    0  501  0.00000000000E+00  0.00000000000E+00 -0.12063422361E+04  0.12063422361E+04  0.50400001928E-02 0.  1.
    10030    2    1    2    0    0  0.00000000000E+00  0.00000000000E+00  0.29863152957E+03  0.27113160017E+04  0.26948197844E+04 0.  0.
        1    1    3    3  502    0  0.16173581941E+03 -0.98499691145E+03  0.10599173955E+04  0.14559540776E+04  0.50400001928E-02 0. -1.
       -1    1    3    3    0  502 -0.16173581941E+03  0.98499691145E+03 -0.76128586590E+03  0.12553619241E+04  0.50400001928E-02 0.  1.
</event>
<event>
 5   0  0.1723605E-06  0.2696521E+04  0.7818609E-02  0.8336135E-01
        1   -1    0    0  501    0  0.00000000000E+00  0.00000000000E+00  0.16700053050E+04  0.16700053050E+04  0.50400001928E-02 0.  1.
       -1   -1    0    0    0  501  0.00000000000E+00  0.00000000000E+00 -0.10885031878E+04  0.10885031878E+04  0.50400001928E-02 0. -1.
    10030    2    1    2    0    0  0.00000000000E+00  0.00000000000E+00  0.58150211718E+03  0.27585084928E+04  0.26965207941E+04 0.  0.
        1    1    3    3  502    0 -0.50091149659E+03 -0.70592256751E+03  0.13482293262E+04  0.16021739340E+04  0.50400001928E-02 0.  1.
       -1    1    3    3    0  502  0.50091149659E+03  0.70592256751E+03 -0.76672720907E+03  0.11563345588E+04  0.50400001928E-02 0. -1.
</event>
<event>
 5   0  0.1753474E-06  0.2709838E+04  0.7818609E-02  0.8331820E-01
       -1   -1    0    0    0  501  0.00000000000E+00  0.00000000000E+00  0.88314569968E+03  0.88314569969E+03  0.50400001928E-02 0. -1.
        1   -1    0    0  501    0  0.00000000000E+00  0.00000000000E+00 -0.20787121279E+04  0.20787121279E+04  0.50400001928E-02 0.  1.
    10030    2    1    2    0    0  0.00000000000E+00  0.00000000000E+00 -0.11955664282E+04  0.29618578276E+04  0.27098381329E+04 0.  0.
        3    1    3    3  502    0 -0.57671759358E+03 -0.58779869032E+03  0.57824562379E+03  0.10062199038E+04  0.10100000352E+00 0. -1.
       -3    1    3    3    0  502  0.57671759358E+03  0.58779869032E+03 -0.17738120520E+04  0.19556379238E+04  0.10100000352E+00 0.  1.
</event>
<event>
 5   0  0.4439357E-06  0.2697360E+04  0.7818609E-02  0.8335862E-01
        2   -1    0    0  501    0  0.00000000000E+00  0.00000000000E+00  0.11620203495E+04  0.11620203495E+04  0.25500000920E-02 0.  1.
       -2   -1    0    0    0  501  0.00000000000E+00  0.00000000000E+00 -0.15653230931E+04  0.15653230931E+04  0.25500000920E-02 0. -1.
    10030    2    1    2    0    0  0.00000000000E+00  0.00000000000E+00 -0.40330274359E+03  0.27273434427E+04  0.26973596629E+04 0.  0.
        4    1    3    3  502    0  0.12812393138E+04  0.39169122510E+03 -0.45207582623E+02  0.13405377777E+04  0.12699999809E+01 0.  1.
       -4    1    3    3    0  502 -0.12812393138E+04 -0.39169122510E+03 -0.35809516096E+03  0.13868056649E+04  0.12699999809E+01 0. -1.
</event>
<event>
 5   0  0.1753474E-06  0.2678316E+04  0.7818609E-02  0.8342075E-01
       -1   -1    0    0    0  501  0.00000000000E+00  0.00000000000E+00  0.82061816083E+03  0.82061816084E+03  0.50400001928E-02 0.  1.
        1   -1    0    0  501    0  0.00000000000E+00  0.00000000000E+00 -0.21853582246E+04  0.21853582246E+04  0.50400001928E-02 0. -1.
    10030    2    1    2    0    0  0.00000000000E+00  0.00000000000E+00 -0.13647400638E+04  0.30059763855E+04  0.26783163720E+04 0.  0.
        3    1    3    3  502    0 -0.43209536818E+03  0.97221515854E+03  0.23041303505E+03  0.10885765470E+04  0.10100000352E+00 0.  1.
       -3    1    3    3    0  502  0.43209536818E+03 -0.97221515854E+03 -0.15951530989E+04  0.19173998385E+04  0.10100000352E+00 0. -1.
</event>
<event>
 5   0  0.4439357E-06  0.2697831E+04  0.7818609E-02  0.8335709E-01
        2   -1    0    0  501    0  0.00000000000E+00  0.00000000000E+00  0.78861628856E+03  0.78861628856E+03  0.25500000920E-02 0.  1.
       -2   -1    0    0    0  501  0.00000000000E+00  0.00000000000E+00 -0.23072977663E+04  0.23072977663E+04  0.25500000920E-02 0. -1.
    10030    2    1    2    0    0  0.00000000000E+00  0.00000000000E+00 -0.15186814778E+04  0.30959140549E+04  0.26978306849E+04 0.  0.
        4    1    3    3  502    0 -0.51096992067E+02 -0.94869755873E+03  0.33952090359E+03  0.10089172500E+04  0.12699999809E+01 0.  1.
       -4    1    3    3    0  502  0.51096992067E+02  0.94869755873E+03 -0.18582023813E+04  0.20869968049E+04  0.12699999809E+01 0. -1.
</event>
<event>
 5   0  0.4487186E-06  0.2699922E+04  0.7818609E-02  0.8335030E-01
        2   -1    0    0  501    0  0.00000000000E+00  0.00000000000E+00  0.12405323896E+04  0.12405323896E+04  0.25500000920E-02 0. -1.
       -2   -1    0    0    0  501  0.00000000000E+00  0.00000000000E+00 -0.14690420659E+04  0.14690420659E+04  0.25500000920E-02 0.  1.
    10030    2    1    2    0    0  0.00000000000E+00  0.00000000000E+00 -0.22850967638E+03  0.27095744555E+04  0.26999216762E+04 0.  0.
        3    1    3    3  502    0  0.10741084067E+04  0.63443866773E+03  0.40350921137E+03  0.13111220333E+04  0.10100000352E+00 0.  1.
       -3    1    3    3    0  502 -0.10741084067E+04 -0.63443866773E+03 -0.63201888775E+03  0.13984524222E+04  0.10100000352E+00 0. -1.
</event>
<event>
 5   0  0.4655882E-06  0.2700516E+04  0.7818609E-02  0.8334838E-01
        2   -1    0    0  501    0  0.00000000000E+00  0.00000000000E+00  0.88502542304E+03  0.88502542305E+03  0.25500000920E-02 0. -1.
       -2   -1    0    0    0  501  0.00000000000E+00  0.00000000000E+00 -0.20600498391E+04  0.20600498391E+04  0.25500000920E-02 0.  1.
    10030    2    1    2    0    0  0.00000000000E+00  0.00000000000E+00 -0.11750244161E+04  0.29450752622E+04  0.27005158621E+04 0.  0.
        1    1    3    3  502    0 -0.42678404851E+02 -0.76936615439E+03  0.62170754839E+03  0.99008383560E+03  0.50400001928E-02 0. -1.
       -1    1    3    3    0  502  0.42678404851E+02  0.76936615439E+03 -0.17967319645E+04  0.19549914266E+04  0.50400001928E-02 0.  1.
</event>
<event>
 5   0  0.4439357E-06  0.2696878E+04  0.7818609E-02  0.8336019E-01
       -2   -1    0    0    0  501  0.00000000000E+00  0.00000000000E+00  0.11128558117E+04  0.11128558117E+04  0.25500000920E-02 0.  1.
        2   -1    0    0  501    0  0.00000000000E+00  0.00000000000E+00 -0.16338933374E+04  0.16338933374E+04  0.25500000920E-02 0. -1.
    10030    2    1    2    0    0  0.00000000000E+00  0.00000000000E+00 -0.52103752575E+03  0.27467491491E+04  0.26968779700E+04 0.  0.
        4    1    3    3  502    0 -0.11094888489E+04  0.24442663016E+03  0.47925734438E+03  0.12330446458E+04  0.12699999809E+01 0. -1.
       -4    1    3    3    0  502  0.11094888489E+04 -0.24442663016E+03 -0.10002948701E+04  0.15137045034E+04  0.12699999809E+01 0.  1.
</event>
<event>
 5   0  0.1753474E-06  0.2685698E+04  0.7818609E-02  0.8339660E-01
       -1   -1    0    0    0  501  0.00000000000E+00  0.00000000000E+00  0.88042415259E+03  0.88042415260E+03  0.50400001928E-02 0.  1.
        1   -1    0    0  501    0  0.00000000000E+00  0.00000000000E+00 -0.20481538203E+04  0.20481538203E+04  0.50400001928E-02 0. -1.
    10030    2    1    2    0    0  0.00000000000E+00  0.00000000000E+00 -0.11677296677E+04  0.29285779729E+04  0.26856984876E+04 0.  0.
        3    1    3    3  502    0  0.37901098286E+03 -0.23165760854E+03  0.79799112633E+03  0.91329317342E+03  0.10100000352E+00 0.  1.
       -3    1    3    3    0  502 -0.37901098286E+03  0.23165760854E+03 -0.19657207940E+04  0.20152847995E+04  0.10100000352E+00 0. -1.
</event>
<event>
 5   0  0.4487186E-06  0.2705553E+04  0.7818609E-02  0.8333205E-01
       -2   -1    0    0    0  501  0.00000000000E+00  0.00000000000E+00  0.11462112042E+04  0.11462112042E+04  0.25500000920E-02 0.  1.
        2   -1    0    0  501    0  0.00000000000E+00  0.00000000000E+00 -0.15965683895E+04  0.15965683895E+04  0.25500000920E-02 0. -1.
    10030    2    1    2    0    0  0.00000000000E+00  0.00000000000E+00 -0.45035718529E+03  0.27427795937E+04  0.27055532346E+04 0.  0.
        3    1    3    3  502    0  0.10453057016E+04 -0.83056154255E+03 -0.44614108849E+03  0.14076712567E+04  0.10100000352E+00 0. -1.
       -3    1    3    3    0  502 -0.10453057016E+04  0.83056154255E+03 -0.42160968013E+01  0.13351083370E+04  0.10100000352E+00 0.  1.
</event>
<event>
 5   0  0.1753474E-06  0.2698392E+04  0.7818609E-02  0.8335527E-01
       -1   -1    0    0    0  501  0.00000000000E+00  0.00000000000E+00  0.99814287859E+03  0.99814287860E+03  0.50400001928E-02 0. -1.
        1   -1    0    0  501    0  0.00000000000E+00  0.00000000000E+00 -0.18237170835E+04  0.18237170835E+04  0.50400001928E-02 0.  1.
    10030    2    1    2    0    0  0.00000000000E+00  0.00000000000E+00 -0.82557420493E+03  0.28218599621E+04  0.26983922765E+04 0.  0.
        3    1    3    3  502    0  0.13389156923E+04  0.15870083852E+03 -0.46453905353E+03  0.14260707309E+04  0.10100000352E+00 0.  1.
       -3    1    3    3    0  502 -0.13389156923E+04 -0.15870083852E+03 -0.36103515140E+03  0.13957892312E+04  0.10100000352E+00 0. -1.
</event>
<event>
 5   0  0.4439357E-06  0.2682169E+04  0.7818609E-02  0.8340814E-01
        2   -1    0    0  501    0  0.00000000000E+00  0.00000000000E+00  0.17616063464E+04  0.17616063464E+04  0.25500000920E-02 0. -1.
       -2   -1    0    0    0  501  0.00000000000E+00  0.00000000000E+00 -0.10209478669E+04  0.10209478669E+04  0.25500000920E-02 0.  1.
    10030    2    1    2    0    0  0.00000000000E+00  0.00000000000E+00  0.74065847946E+03  0.27825542133E+04  0.26821694515E+04 0.  0.
        4    1    3    3  502    0  0.74411100880E+03 -0.11545770346E+03  0.15215807542E+04  0.16977164896E+04  0.12699999809E+01 0. -1.
       -4    1    3    3    0  502 -0.74411100880E+03  0.11545770346E+03 -0.78092227471E+03  0.10848377237E+04  0.12699999809E+01 0.  1.
</event>
<event>
 5   0  0.4448804E-06  0.2651746E+04  0.7818609E-02  0.8350834E-01
        2   -1    0    0  501    0  0.00000000000E+00  0.00000000000E+00  0.23957097964E+04  0.23957097964E+04  0.25500000920E-02 0.  1.
       -2   -1    0    0    0  501  0.00000000000E+00  0.00000000000E+00 -0.73378632748E+03  0.73378632748E+03  0.25500000920E-02 0. -1.
    10030    2    1    2    0    0  0.00000000000E+00  0.00000000000E+00  0.16619234689E+04  0.31294961239E+04  0.26517459103E+04 0.  0.
        2    1    3    3  502    0 -0.20588501762E+03 -0.37560197990E+03 -0.64988530865E+03  0.77834208558E+03  0.25500000920E-02 0. -1.
       -2    1    3    3    0  502  0.20588501762E+03  0.37560197990E+03  0.23118087775E+04  0.23511540383E+04  0.25500000920E-02 0.  1.
</event>
<event>
 5   0  0.4655882E-06  0.2695569E+04  0.7818609E-02  0.8336444E-01
        2   -1    0    0  501    0  0.00000000000E+00  0.00000000000E+00  0.27336044398E+04  0.27336044398E+04  0.25500000920E-02 0. -1.
       -2   -1    0    0    0  501  0.00000000000E+00  0.00000000000E+00 -0.66451553581E+03  0.66451553582E+03  0.25500000920E-02 0.  1.
    10030    2    1    2    0    0  0.00000000000E+00  0.00000000000E+00  0.20690889040E+04  0.33981199756E+04  0.26955686740E+04 0.  0.
        1    1    3    3  502    0  0.32384117967E+03 -0.79210665189E+03 -0.27809763838E+03  0.89980239726E+03  0.50400001928E-02 0.  1.
       -1    1    3    3    0  502 -0.32384117967E+03  0.79210665189E+03  0.23471865423E+04  0.24983175783E+04  0.50400001928E-02 0. -1.
</event>
<event>
 5   0  0.4487186E-06  0.2705191E+04  0.7818609E-02  0.8333323E-01
       -2   -1    0    0    0  501  0.00000000000E+00  0.00000000000E+00  0.14585555430E+04  0.14585555430E+04  0.25500000920E-02 0.  1.
        2   -1    0    0  501    0  0.00000000000E+00  0.00000000000E+00 -0.12543335606E+04  0.12543335606E+04  0.25500000920E-02 0. -1.
    10030    2    1    2    0    0  0.00000000000E+00  0.00000000000E+00  0.20422198238E+03  0.27128891036E+04  0.27051914295E+04 0.  0.
        3    1    3    3  502    0  0.51562688233E+03  0.26409156920E+03 -0.11236188548E+04  0.12641735560E+04  0.10100000352E+00 0. -1.
       -3    1    3    3    0  502 -0.51562688233E+03 -0.26409156920E+03  0.13278408372E+04  0.14487155476E+04  0.10100000352E+00 0.  1.
</event>
<event>
 5   0  0.4448804E-06  0.2652889E+04  0.7818609E-02  0.8350455E-01
       -2   -1    0    0    0  501  0.00000000000E+00  0.00000000000E+00  0.70663058316E+03  0.70663058317E+03  0.25500000920E-02 0.  1.
        2   -1    0    0  501    0  0.00000000000E+00  0.00000000000E+00 -0.24899225173E+04  0.24899225173E+04  0.25500000920E-02 0. -1.
    10030    2    1    2    0    0  0.00000000000E+00  0.00000000000E+00 -0.17832919341E+04  0.31965531004E+04  0.26528892931E+04 0.  0.
        2    1    3    3  502    0 -0.27128218930E+03 -0.12722295699E+04 -0.57907495745E+03  0.14238995439E+04  0.25500000920E-02 0. -1.
       -2    1    3    3    0  502  0.27128218930E+03  0.12722295699E+04 -0.12042169767E+04  0.17726535566E+04  0.25500000920E-02 0.  1.
</event>
<event>
 5   0  0.1828511E-06  0.2707833E+04  0.7818609E-02  0.8332468E-01
       -1   -1    0    0    0  501  0.00000000000E+00  0.00000000000E+00  0.12477311086E+04  0.12477311086E+04  0.50400001928E-02 0.  1.
        1   -1    0    0  501    0  0.00000000000E+00  0.00000000000E+00 -0.14691388911E+04  0.14691388911E+04  0.50400001928E-02 0. -1.
    10030    2    1    2    0    0  0.00000000000E+00  0.00000000000E+00 -0.22140778246E+03  0.27168699997E+04  0.27078333016E+04 0.  0.
        4    1    3    3  502    0  0.11502493556E+04  0.62165423287E+03  0.24198180764E+03  0.13296933381E+04  0.12699999809E+01 0.  1.
       -4    1    3    3    0  502 -0.11502493556E+04 -0.62165423287E+03 -0.46338959010E+03  0.13871766616E+04  0.12699999809E+01 0. -1.
</event>
<event>
 5   0  0.1771016E-06  0.2710235E+04  0.7818609E-02  0.8331692E-01
       -1   -1    0    0    0  501  0.00000000000E+00  0.00000000000E+00  0.20771001872E+04  0.20771001872E+04  0.50400001928E-02 0.  1.
        1   -1    0    0  501    0  0.00000000000E+00  0.00000000000E+00 -0.88408981007E+03  0.88408981008E+03  0.50400001928E-02 0. -1.
    10030    2    1    2    0    0  0.00000000000E+00  0.00000000000E+00  0.11930103772E+04  0.29611899973E+04  0.27102347574E+04 0.  0.
        2    1    3    3  502    0 -0.96184597084E+03  0.24797658122E+03  0.16036523954E+04  0.18863565574E+04  0.25500000920E-02 0.  1.
       -2    1    3    3    0  502  0.96184597084E+03 -0.24797658122E+03 -0.41064201820E+03  0.10748334399E+04  0.25500000920E-02 0. -1.
</event>
<event>
 5   0  0.1828511E-06  0.2681417E+04  0.7818609E-02  0.8341060E-01
       -1   -1    0    0    0  501  0.00000000000E+00  0.00000000000E+00  0.91128933139E+03  0.91128933140E+03  0.50400001928E-02 0.  1.
        1   -1    0    0  501    0  0.00000000000E+00  0.00000000000E+00 -0.19724793525E+04  0.19724793525E+04  0.50400001928E-02 0. -1.
    10030    2    1    2    0    0  0.00000000000E+00  0.00000000000E+00 -0.10611900211E+04  0.28837686839E+04  0.26814170809E+04 0.  0.
        4    1    3    3  502    0 -0.34860606691E+03 -0.11501172445E+04  0.10856202288E+03  0.12066827221E+04  0.12699999809E+01 0.  1.
       -4    1    3    3    0  502  0.34860606691E+03  0.11501172445E+04 -0.11697520440E+04  0.16770859619E+04  0.12699999809E+01 0. -1.
</event>
<event>
 5   0  0.1732312E-06  0.2700851E+04  0.7818609E-02  0.8334729E-01
        1   -1    0    0  501    0  0.00000000000E+00  0.00000000000E+00  0.13973997815E+04  0.13973997816E+04  0.50400001928E-02 0. -1.
       -1   -1    0    0    0  501  0.00000000000E+00  0.00000000000E+00 -0.13050300347E+04  0.13050300347E+04  0.50400001928E-02 0.  1.
    10030    2    1    2    0    0  0.00000000000E+00  0.00000000000E+00  0.92369746826E+02  0.27024298163E+04  0.27008507441E+04 0.  0.
        5    1    3    3  502    0  0.38120923355E+03  0.61109216016E+03 -0.10967931404E+04  0.13121476254E+04  0.46999998093E+01 0.  1.
       -5    1    3    3    0  502 -0.38120923355E+03 -0.61109216016E+03  0.11891628872E+04  0.13902821909E+04  0.46999998093E+01 0. -1.
</event>
<event>
 5   0  0.1732312E-06  0.2712817E+04  0.7818609E-02  0.8330858E-01
        1   -1    0    0  501    0  0.00000000000E+00  0.00000000000E+00  0.11933141891E+04  0.11933141891E+04  0.50400001928E-02 0. -1.
       -1   -1    0    0    0  501  0.00000000000E+00  0.00000000000E+00 -0.15417929081E+04  0.15417929081E+04  0.50400001928E-02 0.  1.
    10030    2    1    2    0    0  0.00000000000E+00  0.00000000000E+00 -0.34847871903E+03  0.27351070973E+04  0.27128165098E+04 0.  0.
        5    1    3    3  502    0 -0.39529503997E+03 -0.34501685374E+03  0.10868485841E+04  0.12068789222E+04  0.46999998093E+01 0. -1.
       -5    1    3    3    0  502  0.39529503997E+03  0.34501685374E+03 -0.14353273031E+04  0.15282281751E+04  0.46999998093E+01 0.  1.
</event>
<event>
 5   0  0.4487186E-06  0.2664006E+04  0.7818609E-02  0.8346779E-01
        2   -1    0    0  501    0  0.00000000000E+00  0.00000000000E+00  0.11233933676E+04  0.11233933676E+04  0.25500000920E-02 0. -1.
       -2   -1    0    0    0  501  0.00000000000E+00  0.00000000000E+00 -0.15793509538E+04  0.15793509538E+04  0.25500000920E-02 0.  1.
    10030    2    1    2    0    0  0.00000000000E+00  0.00000000000E+00 -0.45595758615E+03  0.27027443214E+04  0.26640062963E+04 0.  0.
        3    1    3    3  502    0  0.84736200487E+03  0.60816885049E+03  0.61252481118E+03  0.12095777662E+04  0.10100000352E+00 0. -1.
       -3    1    3    3    0  502 -0.84736200487E+03 -0.60816885049E+03 -0.10684823973E+04  0.14931665552E+04  0.10100000352E+00 0.  1.
</event>
<event>
 5   0  0.4487186E-06  0.2703612E+04  0.7818609E-02  0.8333834E-01
        2   -1    0    0  501    0  0.00000000000E+00  0.00000000000E+00  0.21484179254E+04  0.21484179254E+04  0.25500000920E-02 0. -1.
       -2   -1    0    0    0  501  0.00000000000E+00  0.00000000000E+00 -0.85056996566E+03  0.85056996566E+03  0.25500000920E-02 0.  1.
    10030    2    1    2    0    0  0.00000000000E+00  0.00000000000E+00  0.12978479598E+04  0.29989878911E+04  0.27036122215E+04 0.  0.
        3    1    3    3  502    0  0.31202392494E+03 -0.41930878587E+03  0.20318020773E+04  0.20979510192E+04  0.10100000352E+00 0. -1.
       -3    1    3    3    0  502 -0.31202392494E+03  0.41930878587E+03 -0.73395411751E+03  0.90103687186E+03  0.10100000352E+00 0.  1.
</event>
<event>
 5   0  0.1482875E-06  0.2700399E+04  0.7818609E-02  0.8334875E-01
       -3   -1    0    0    0  501  0.00000000000E+00  0.00000000000E+00  0.10657304471E+04  0.10657304519E+04  0.10100000352E+00 0. -1.
        3   -1    0    0  501    0  0.00000000000E+00  0.00000000000E+00 -0.17106005650E+04  0.17106005680E+04  0.10100000352E+00 0.  1.
    10030    2    1    2    0    0  0.00000000000E+00  0.00000000000E+00 -0.64487011789E+03  0.27763310199E+04  0.27003993155E+04 0.  0.
        1    1    3    3  502    0  0.88757351125E+03 -0.42254987590E+03  0.62917417718E+03  0.11671312183E+04  0.50400001928E-02 0. -1.
       -1    1    3    3    0  502 -0.88757351125E+03  0.42254987590E+03 -0.12740442951E+04  0.16091998016E+04  0.50400001928E-02 0.  1.
</event>
<event>
 5   0  0.4655882E-06  0.2707760E+04  0.7818609E-02  0.8332491E-01
        2   -1    0    0  501    0  0.00000000000E+00  0.00000000000E+00  0.12116533828E+04  0.12116533829E+04  0.25500000920E-02 0. -1.
       -2   -1    0    0    0  501  0.00000000000E+00  0.00000000000E+00 -0.15128019926E+04  0.15128019926E+04  0.25500000920E-02 0.  1.
    10030    2    1    2    0    0  0.00000000000E+00  0.00000000000E+00 -0.30114860977E+03  0.27244553755E+04  0.27077604414E+04 0.  0.
        1    1    3    3  502    0  0.11395936506E+04 -0.71087777299E+03  0.20683104075E+02  0.13432976913E+04  0.50400001928E-02 0. -1.
       -1    1    3    3    0  502 -0.11395936506E+04  0.71087777299E+03 -0.32183171384E+03  0.13811576842E+04  0.50400001928E-02 0.  1.
</event>
<event>
 5   0  0.1771016E-06  0.2700533E+04  0.7818609E-02  0.8334832E-01
       -1   -1    0    0    0  501  0.00000000000E+00  0.00000000000E+00  0.21727596111E+04  0.21727596111E+04  0.50400001928E-02 0.  1.
        1   -1    0    0  501    0  0.00000000000E+00  0.00000000000E+00 -0.83912646368E+03  0.83912646370E+03  0.50400001928E-02 0. -1.
    10030    2    1    2    0    0  0.00000000000E+00  0.00000000000E+00  0.13336331474E+04  0.30118860748E+04  0.27005333465E+04 0.  0.
        2    1    3    3  502    0 -0.15960775729E+02 -0.44265578951E+03 -0.75579258836E+03  0.87602587346E+03  0.25500000920E-02 0. -1.
       -2    1    3    3    0  502  0.15960775729E+02  0.44265578951E+03  0.20894257358E+04  0.21358602014E+04  0.25500000920E-02 0.  1.
</event>
<event>
 5   0  0.4487186E-06  0.2678435E+04  0.7818609E-02  0.8342036E-01
        2   -1    0    0  501    0  0.00000000000E+00  0.00000000000E+00  0.12188022184E+04  0.12188022184E+04  0.25500000920E-02 0. -1.
       -2   -1    0    0    0  501  0.00000000000E+00  0.00000000000E+00 -0.14715296967E+04  0.14715296967E+04  0.25500000920E-02 0.  1.
    10030    2    1    2    0    0  0.00000000000E+00  0.00000000000E+00 -0.25272747823E+03  0.26903319151E+04  0.26784351094E+04 0.  0.
        3    1    3    3  502    0 -0.88256309720E+03  0.39928342742E+03  0.80249166490E+03  0.12579100756E+04  0.10100000352E+00 0. -1.
       -3    1    3    3    0  502  0.88256309720E+03 -0.39928342742E+03 -0.10552191431E+04  0.14324218395E+04  0.10100000352E+00 0.  1.
</event>
<event>
 5   0  0.4439357E-06  0.2712901E+04  0.7818609E-02  0.8330831E-01
       -2   -1    0    0    0  501  0.00000000000E+00  0.00000000000E+00  0.10130474274E+04  0.10130474274E+04  0.25500000920E-02 0.  1.
        2   -1    0    0  501    0  0.00000000000E+00  0.00000000000E+00 -0.18162600190E+04  0.18162600190E+04  0.25500000920E-02 0. -1.
    10030    2    1    2    0    0  0.00000000000E+00  0.00000000000E+00 -0.80321259155E+03  0.28293074464E+04  0.27129006910E+04 0.  0.
        4    1    3    3  502    0  0.57896820916E+03 -0.31586161910E+03  0.83457397630E+03  0.10637142870E+04  0.12699999809E+01 0.  1.
       -4    1    3    3    0  502 -0.57896820916E+03  0.31586161910E+03 -0.16377865679E+04  0.17655931594E+04  0.12699999809E+01 0. -1.
</event>
<event>
 5   0  0.4401659E-06  0.2692118E+04  0.7818609E-02  0.8337567E-01
       -2   -1    0    0    0  501  0.00000000000E+00  0.00000000000E+00  0.10475969216E+04  0.10475969216E+04  0.25500000920E-02 0.  1.
        2   -1    0    0  501    0  0.00000000000E+00  0.00000000000E+00 -0.17295537130E+04  0.17295537130E+04  0.25500000920E-02 0. -1.
    10030    2    1    2    0    0  0.00000000000E+00  0.00000000000E+00 -0.68195679140E+03  0.27771506346E+04  0.26921182333E+04 0.  0.
        5    1    3    3  502    0 -0.69071675399E+03  0.84786396898E+03 -0.11505530871E+04  0.15873743857E+04  0.46999998093E+01 0. -1.
       -5    1    3    3    0  502  0.69071675399E+03 -0.84786396898E+03  0.46859629570E+03  0.11897762489E+04  0.46999998093E+01 0.  1.
</event>
<event>
 5   0  0.1723605E-06  0.2717738E+04  0.7818609E-02  0.8329272E-01
        1   -1    0    0  501    0  0.00000000000E+00  0.00000000000E+00  0.17715641177E+04  0.17715641177E+04  0.50400001928E-02 0. -1.
       -1   -1    0    0    0  501  0.00000000000E+00  0.00000000000E+00 -0.10423135836E+04  0.10423135836E+04  0.50400001928E-02 0.  1.
    10030    2    1    2    0    0  0.00000000000E+00  0.00000000000E+00  0.72925053410E+03  0.28138777013E+04  0.27177382833E+04 0.  0.
        1    1    3    3  502    0  0.70004891305E+03 -0.78526548549E+03  0.12551769863E+04  0.16377361297E+04  0.50400001928E-02 0. -1.
       -1    1    3    3    0  502 -0.70004891305E+03  0.78526548549E+03 -0.52592645223E+03  0.11761415716E+04  0.50400001928E-02 0.  1.
</event>
<event>
 5   0  0.1753474E-06  0.2704314E+04  0.7818609E-02  0.8333607E-01
       -1   -1    0    0    0  501  0.00000000000E+00  0.00000000000E+00  0.10815004326E+04  0.10815004326E+04  0.50400001928E-02 0.  1.
        1   -1    0    0  501    0  0.00000000000E+00  0.00000000000E+00 -0.16905481809E+04  0.16905481809E+04  0.50400001928E-02 0. -1.
    10030    2    1    2    0    0  0.00000000000E+00  0.00000000000E+00 -0.60904774829E+03  0.27720486136E+04  0.27043140269E+04 0.  0.
        3    1    3    3  502    0  0.46836670677E+03 -0.27257874344E+03 -0.15743670701E+04  0.16650219894E+04  0.10100000352E+00 0. -1.
       -3    1    3    3    0  502 -0.46836670677E+03  0.27257874344E+03  0.96531932182E+03  0.11070266242E+04  0.10100000352E+00 0.  1.
</event>
<event>
 5   0  0.1828511E-06  0.2689637E+04  0.7818609E-02  0.8338375E-01
       -1   -1    0    0    0  501  0.00000000000E+00  0.00000000000E+00  0.15321106090E+04  0.15321106090E+04  0.50400001928E-02 0. -1.
        1   -1    0    0  501    0  0.00000000000E+00  0.00000000000E+00 -0.11804216551E+04  0.11804216551E+04  0.50400001928E-02 0.  1.
    10030    2    1    2    0    0  0.00000000000E+00  0.00000000000E+00  0.35168895389E+03  0.27125322641E+04  0.26896368088E+04 0.  0.
        4    1    3    3  502    0  0.10835802596E+04  0.62623955783E+03 -0.32049610643E+03  0.12919139019E+04  0.12699999809E+01 0. -1.
       -4    1    3    3    0  502 -0.10835802596E+04 -0.62623955783E+03  0.67218506032E+03  0.14206183622E+04  0.12699999809E+01 0.  1.
</event>
<event>
 5   0  0.1732312E-06  0.2680387E+04  0.7818609E-02  0.8341397E-01
       -1   -1    0    0    0  501  0.00000000000E+00  0.00000000000E+00  0.18406211399E+04  0.18406211399E+04  0.50400001928E-02 0. -1.
        1   -1    0    0  501    0  0.00000000000E+00  0.00000000000E+00 -0.97582188826E+03  0.97582188827E+03  0.50400001928E-02 0.  1.
    10030    2    1    2    0    0  0.00000000000E+00  0.00000000000E+00  0.86479925162E+03  0.28164430282E+04  0.26803868350E+04 0.  0.
        5    1    3    3  502    0 -0.17946108769E+03  0.27851891692E+03 -0.93209909887E+03  0.98924713251E+03  0.46999998093E+01 0.  1.
       -5    1    3    3    0  502  0.17946108769E+03 -0.27851891692E+03  0.17968983505E+04  0.18271958956E+04  0.46999998093E+01 0. -1.
</event>
<event>
 5   0  0.4487186E-06  0.2699282E+04  0.7818609E-02  0.8335238E-01
        2   -1    0    0  501    0  0.00000000000E+00  0.00000000000E+00  0.14351507400E+04  0.14351507400E+04  0.25500000920E-02 0. -1.
       -2   -1    0    0    0  501  0.00000000000E+00  0.00000000000E+00 -0.12692257627E+04  0.12692257627E+04  0.25500000920E-02 0.  1.
    10030    2    1    2    0    0  0.00000000000E+00  0.00000000000E+00  0.16592497728E+03  0.27043765027E+04  0.26992816027E+04 0.  0.
        3    1    3    3  502    0 -0.64716785818E+03  0.49866206583E+03  0.11592527879E+04  0.14182232296E+04  0.10100000352E+00 0. -1.
       -3    1    3    3    0  502  0.64716785818E+03 -0.49866206583E+03 -0.99332781058E+03  0.12861532732E+04  0.10100000352E+00 0.  1.
</event>
<event>
 5   0  0.1771016E-06  0.2734372E+04  0.7818609E-02  0.8323938E-01
       -1   -1    0    0    0  501  0.00000000000E+00  0.00000000000E+00  0.11745536661E+04  0.11745536662E+04  0.50400001928E-02 0.  1.
        1   -1    0    0  501    0  0.00000000000E+00  0.00000000000E+00 -0.15914110056E+04  0.15914110056E+04  0.50400001928E-02 0. -1.
    10030    2    1    2    0    0  0.00000000000E+00  0.00000000000E+00 -0.41685733941E+03  0.27659646717E+04  0.27343720529E+04 0.  0.
        2    1    3    3  502    0  0.24882369761E+03  0.92062975092E+03  0.78254584340E+03  0.12336329956E+04  0.25500000920E-02 0.  1.
       -2    1    3    3    0  502 -0.24882369761E+03 -0.92062975092E+03 -0.11994031828E+04  0.15323316761E+04  0.25500000920E-02 0. -1.
</event>
<event>
 5   0  0.1828511E-06  0.2618934E+04  0.7818609E-02  0.8361798E-01
       -1   -1    0    0    0  501  0.00000000000E+00  0.00000000000E+00  0.92172191745E+03  0.92172191747E+03  0.50400001928E-02 0. -1.
        1   -1    0    0  501    0  0.00000000000E+00  0.00000000000E+00 -0.18603272106E+04  0.18603272106E+04  0.50400001928E-02 0.  1.
    10030    2    1    2    0    0  0.00000000000E+00  0.00000000000E+00 -0.93860529319E+03  0.27820491281E+04  0.26189344121E+04 0.  0.
        4    1    3    3  502    0 -0.46523992513E+03  0.11573908814E+04 -0.46118020401E+02  0.12482509063E+04  0.12699999809E+01 0. -1.
       -4    1    3    3    0  502  0.46523992513E+03 -0.11573908814E+04 -0.89248727279E+03  0.15337982218E+04  0.12699999809E+01 0.  1.
</event>
<event>
 5   0  0.1753474E-06  0.2711698E+04  0.7818609E-02  0.8331219E-01
        1   -1    0    0  501    0  0.00000000000E+00  0.00000000000E+00  0.13318002306E+04  0.13318002306E+04  0.50400001928E-02 0. -1.
       -1   -1    0    0    0  501  0.00000000000E+00  0.00000000000E+00 -0.13803322589E+04  0.13803322589E+04  0.50400001928E-02 0.  1.
    10030    2    1    2    0    0  0.00000000000E+00  0.00000000000E+00 -0.48532028298E+02  0.27121324895E+04  0.27116982286E+04 0.  0.
        3    1    3    3  502    0  0.45320827135E+03 -0.77733756696E+03  0.99013276250E+03  0.13379141706E+04  0.10100000352E+00 0. -1.
       -3    1    3    3    0  502 -0.45320827135E+03  0.77733756696E+03 -0.10386647908E+04  0.13742183189E+04  0.10100000352E+00 0.  1.
</event>
<event>
 5   0  0.1828511E-06  0.2698095E+04  0.7818609E-02  0.8335623E-01
       -1   -1    0    0    0  501  0.00000000000E+00  0.00000000000E+00  0.16664473559E+04  0.16664473559E+04  0.50400001928E-02 0.  1.
        1   -1    0    0  501    0  0.00000000000E+00  0.00000000000E+00 -0.10921013405E+04  0.10921013405E+04  0.50400001928E-02 0. -1.
    10030    2    1    2    0    0  0.00000000000E+00  0.00000000000E+00  0.57434601544E+03  0.27585486964E+04  0.26980951735E+04 0.  0.
        4    1    3    3  502    0 -0.31589683115E+03  0.13108475895E+04  0.24360882269E+03  0.13702040294E+04  0.12699999809E+01 0. -1.
       -4    1    3    3    0  502  0.31589683115E+03 -0.13108475895E+04  0.33073719275E+03  0.13883446670E+04  0.12699999809E+01 0.  1.
</event>
<event>
 5   0  0.4448804E-06  0.2831501E+04  0.7818609E-02  0.8293555E-01
       -2   -1    0    0    0  501  0.00000000000E+00  0.00000000000E+00  0.87162773383E+03  0.87162773384E+03  0.25500000920E-02 0.  1.
        2   -1    0    0  501    0  0.00000000000E+00  0.00000000000E+00 -0.22995477337E+04  0.22995477337E+04  0.25500000920E-02 0. -1.
    10030    2    1    2    0    0  0.00000000000E+00  0.00000000000E+00 -0.14279199999E+04  0.31711754675E+04  0.28315010719E+04 0.  0.
        2    1    3    3  502    0 -0.69639461226E+03  0.13619161358E+03  0.65809069262E+03  0.96777940220E+03  0.25500000920E-02 0.  1.
       -2    1    3    3    0  502  0.69639461226E+03 -0.13619161358E+03 -0.20860106925E+04  0.22033960653E+04  0.25500000920E-02 0. -1.
</event>
<event>
 5   0  0.4401659E-06  0.2693427E+04  0.7818609E-02  0.8337141E-01
        2   -1    0    0  501    0  0.00000000000E+00  0.00000000000E+00  0.13519239652E+04  0.13519239652E+04  0.25500000920E-02 0. -1.
       -2   -1    0    0    0  501  0.00000000000E+00  0.00000000000E+00 -0.13415229484E+04  0.13415229484E+04  0.25500000920E-02 0.  1.
    10030    2    1    2    0    0  0.00000000000E+00  0.00000000000E+00  0.10401016731E+02  0.26934469136E+04  0.26934268313E+04 0.  0.
        5    1    3    3  502    0 -0.57575911853E+01 -0.13466907688E+04  0.75999305417E+01  0.13467327224E+04  0.46999998093E+01 0. -1.
       -5    1    3    3    0  502  0.57575911853E+01  0.13466907688E+04  0.28010861890E+01  0.13467141912E+04  0.46999998093E+01 0.  1.
</event>
<event>
 5   0  0.4487186E-06  0.2759450E+04  0.7818609E-02  0.8315969E-01
        2   -1    0    0  501    0  0.00000000000E+00  0.00000000000E+00  0.19957312076E+04  0.19957312076E+04  0.25500000920E-02 0. -1.
       -2   -1    0    0    0  501  0.00000000000E+00  0.00000000000E+00 -0.95385623440E+03  0.95385623440E+03  0.25500000920E-02 0.  1.
    10030    2    1    2    0    0  0.00000000000E+00  0.00000000000E+00  0.10418749732E+04  0.29495874421E+04  0.27594496949E+04 0.  0.
        3    1    3    3  502    0  0.86067842695E+03 -0.86598052093E+03 -0.16595389872E+03  0.12321648932E+04  0.10100000352E+00 0.  1.
       -3    1    3    3    0  502 -0.86067842695E+03  0.86598052093E+03  0.12078288720E+04  0.17174225489E+04  0.10100000352E+00 0. -1.
</event>
<event>
 5   0  0.4401659E-06  0.2704856E+04  0.7818609E-02  0.8333431E-01
       -2   -1    0    0    0  501  0.00000000000E+00  0.00000000000E+00  0.97825444967E+03  0.97825444967E+03  0.25500000920E-02 0.  1.
        2   -1    0    0  501    0  0.00000000000E+00  0.00000000000E+00 -0.18697189662E+04  0.18697189662E+04  0.25500000920E-02 0. -1.
    10030    2    1    2    0    0  0.00000000000E+00  0.00000000000E+00 -0.89146451657E+03  0.28479734159E+04  0.27048555587E+04 0.  0.
        5    1    3    3  502    0  0.17470738682E+03 -0.12036993220E+04  0.17684395089E+03  0.12291096785E+04  0.46999998093E+01 0.  1.
       -5    1    3    3    0  502 -0.17470738682E+03  0.12036993220E+04 -0.10683084675E+04  0.16188637374E+04  0.46999998093E+01 0. -1.
</event>
<event>
 5   0  0.1828511E-06  0.2695550E+04  0.7818609E-02  0.8336450E-01
       -1   -1    0    0    0  501  0.00000000000E+00  0.00000000000E+00  0.10825250206E+04  0.10825250206E+04  0.50400001928E-02 0.  1.
        1   -1    0    0  501    0  0.00000000000E+00  0.00000000000E+00 -0.16780194473E+04  0.16780194473E+04  0.50400001928E-02 0. -1.
    10030    2    1    2    0    0  0.00000000000E+00  0.00000000000E+00 -0.59549442671E+03  0.27605444680E+04  0.26955504350E+04 0.  0.
        4    1    3    3  502    0  0.90295082788E+03 -0.88024743436E+03 -0.78497112487E+03  0.14853743713E+04  0.12699999809E+01 0. -1.
       -4    1    3    3    0  502 -0.90295082788E+03  0.88024743436E+03  0.18947669816E+03  0.12751700966E+04  0.12699999809E+01 0.  1.
</event>
<event>
 5   0  0.1732312E-06  0.2698985E+04  0.7818609E-02  0.8335334E-01
        1   -1    0    0  501    0  0.00000000000E+00  0.00000000000E+00  0.11698410269E+04  0.11698410270E+04  0.50400001928E-02 0. -1.
       -1   -1    0    0    0  501  0.00000000000E+00  0.00000000000E+00 -0.15567327459E+04  0.15567327459E+04  0.50400001928E-02 0.  1.
    10030    2    1    2    0    0  0.00000000000E+00  0.00000000000E+00 -0.38689171897E+03  0.27265737729E+04  0.26989848715E+04 0.  0.
        5    1    3    3  502    0  0.89698145745E+03 -0.24788582161E+03  0.79382820968E+03  0.12231959909E+04  0.46999998093E+01 0. -1.
       -5    1    3    3    0  502 -0.89698145745E+03  0.24788582161E+03 -0.11807199286E+04  0.15033777820E+04  0.46999998093E+01 0.  1.
</event>
<event>
 5   0  0.1753474E-06  0.2745059E+04  0.7818609E-02  0.8320531E-01
       -1   -1    0    0    0  501  0.00000000000E+00  0.00000000000E+00  0.12077215047E+04  0.12077215047E+04  0.50400001928E-02 0.  1.
        1   -1    0    0  501    0  0.00000000000E+00  0.00000000000E+00 -0.15598273122E+04  0.15598273122E+04  0.50400001928E-02 0. -1.
    10030    2    1    2    0    0  0.00000000000E+00  0.00000000000E+00 -0.35210580750E+03  0.27675488170E+04  0.27450588254E+04 0.  0.
        3    1    3    3  502    0 -0.83378398580E+03 -0.56978923594E+03 -0.11131742890E+04  0.15030011697E+04  0.10100000352E+00 0. -1.
       -3    1    3    3    0  502  0.83378398580E+03  0.56978923594E+03  0.76106848151E+03  0.12645476472E+04  0.10100000352E+00 0.  1.
</event>
<event>
 5   0  0.1732312E-06  0.2673583E+04  0.7818609E-02  0.8343628E-01
       -1   -1    0    0    0  501  0.00000000000E+00  0.00000000000E+00  0.11538120741E+04  0.11538120741E+04  0.50400001928E-02 0.  1.
        1   -1    0    0  501    0  0.00000000000E+00  0.00000000000E+00 -0.15487890872E+04  0.15487890872E+04  0.50400001928E-02 0. -1.
    10030    2    1    2    0    0  0.00000000000E+00  0.00000000000E+00 -0.39497701307E+03  0.27026011613E+04  0.26735830259E+04 0.  0.
        5    1    3    3  502    0  0.83040300857E+03 -0.72048693537E+03 -0.96621521166E+03  0.14636476714E+04  0.46999998093E+01 0. -1.
       -5    1    3    3    0  502 -0.83040300857E+03  0.72048693537E+03  0.57123819859E+03  0.12389534899E+04  0.46999998093E+01 0.  1.
</event>
<event>
 5   0  0.4448804E-06  0.2705022E+04  0.7818609E-02  0.8333377E-01
       -2   -1    0    0    0  501  0.00000000000E+00  0.00000000000E+00  0.14878569216E+04  0.14878569216E+04  0.25500000920E-02 0. -1.
        2   -1    0    0  501    0  0.00000000000E+00  0.00000000000E+00 -0.12294769363E+04  0.12294769363E+04  0.25500000920E-02 0.  1.
    10030    2    1    2    0    0  0.00000000000E+00  0.00000000000E+00  0.25837998536E+03  0.27173338579E+04  0.27050218259E+04 0.  0.
        2    1    3    3  502    0  0.10098464980E+04  0.83195833168E+03  0.47330008069E+03  0.13913869274E+04  0.25500000920E-02 0. -1.
       -2    1    3    3    0  502 -0.10098464980E+04 -0.83195833168E+03 -0.21492009533E+03  0.13259469306E+04  0.25500000920E-02 0.  1.
</event>
<event>
 5   0  0.4487186E-06  0.2695560E+04  0.7818609E-02  0.8336447E-01
        2   -1    0    0  501    0  0.00000000000E+00  0.00000000000E+00  0.13625528391E+04  0.13625528391E+04  0.25500000920E-02 0. -1.
       -2   -1    0    0    0  501  0.00000000000E+00  0.00000000000E+00 -0.13331672244E+04  0.13331672244E+04  0.25500000920E-02 0.  1.
    10030    2    1    2    0    0  0.00000000000E+00  0.00000000000E+00  0.29385614658E+02  0.26957200635E+04  0.26955598948E+04 0.  0.
        3    1    3    3  502    0  0.10874743890E+04  0.14085240239E+03  0.79836608620E+03  0.13564027292E+04  0.10100000352E+00 0. -1.
       -3    1    3    3    0  502 -0.10874743890E+04 -0.14085240239E+03 -0.76898047154E+03  0.13393173343E+04  0.10100000352E+00 0.  1.
</event>
<event>
 5   0  0.4487186E-06  0.2697868E+04  0.7818609E-02  0.8335697E-01
       -2   -1    0    0    0  501  0.00000000000E+00  0.00000000000E+00  0.11159286131E+04  0.11159286131E+04  0.25500000920E-02 0.  1.
        2   -1    0    0  501    0  0.00000000000E+00  0.00000000000E+00 -0.16305909697E+04  0.16305909697E+04  0.25500000920E-02 0. -1.
    10030    2    1    2    0    0  0.00000000000E+00  0.00000000000E+00 -0.51466235658E+03  0.27465195828E+04  0.26978681357E+04 0.  0.
        3    1    3    3  502    0 -0.27008471003E+03 -0.18111447300E+03  0.10754275678E+04  0.11235179868E+04  0.10100000352E+00 0.  1.
       -3    1    3    3    0  502  0.27008471003E+03  0.18111447300E+03 -0.15900899243E+04  0.16230015960E+04  0.10100000352E+00 0. -1.
</event>
<event>
 5   0  0.1771016E-06  0.2701496E+04  0.7818609E-02  0.8334520E-01
        1   -1    0    0  501    0  0.00000000000E+00  0.00000000000E+00  0.20493544250E+04  0.20493544250E+04  0.50400001928E-02 0.  1.
       -1   -1    0    0    0  501  0.00000000000E+00  0.00000000000E+00 -0.89029035864E+03  0.89029035866E+03  0.50400001928E-02 0. -1.
    10030    2    1    2    0    0  0.00000000000E+00  0.00000000000E+00  0.11590640664E+04  0.29396447837E+04  0.27014962417E+04 0.  0.
        2    1    3    3  502    0  0.47963714572E+03 -0.91966961175E+03  0.15210694592E+04  0.18410584690E+04  0.25500000920E-02 0.  1.
       -2    1    3    3    0  502 -0.47963714572E+03  0.91966961175E+03 -0.36200539288E+03  0.10985863147E+04  0.25500000920E-02 0. -1.
</event>
<event>
 5   0  0.4439357E-06  0.2701570E+04  0.7818609E-02  0.8334496E-01
       -2   -1    0    0    0  501  0.00000000000E+00  0.00000000000E+00  0.11197043600E+04  0.11197043600E+04  0.25500000920E-02 0.  1.
        2   -1    0    0  501    0  0.00000000000E+00  0.00000000000E+00 -0.16295549952E+04  0.16295549952E+04  0.25500000920E-02 0. -1.
    10030    2    1    2    0    0  0.00000000000E+00  0.00000000000E+00 -0.50985063514E+03  0.27492593552E+04  0.27015697904E+04 0.  0.
        4    1    3    3  502    0 -0.24552858930E+03 -0.94359701353E+03 -0.12062854598E+04  0.15510595848E+04  0.12699999809E+01 0. -1.
       -4    1    3    3    0  502  0.24552858930E+03  0.94359701353E+03  0.69643482464E+03  0.11981997705E+04  0.12699999809E+01 0.  1.
</event>
<event>
 5   0  0.4487186E-06  0.2705077E+04  0.7818609E-02  0.8333360E-01
        2   -1    0    0  501    0  0.00000000000E+00  0.00000000000E+00  0.11533428988E+04  0.11533428988E+04  0.25500000920E-02 0. -1.
       -2   -1    0    0    0  501  0.00000000000E+00  0.00000000000E+00 -0.15861371907E+04  0.15861371907E+04  0.25500000920E-02 0.  1.
    10030    2    1    2    0    0  0.00000000000E+00  0.00000000000E+00 -0.43279429189E+03  0.27394800896E+04  0.27050767571E+04 0.  0.
        3    1    3    3  502    0 -0.81409720884E+03  0.10224649479E+04 -0.56892082687E+03  0.14254331807E+04  0.10100000352E+00 0.  1.
       -3    1    3    3    0  502  0.81409720884E+03 -0.10224649479E+04  0.13612653498E+03  0.13140469089E+04  0.10100000352E+00 0. -1.
</event>
<event>
 5   0  0.4487186E-06  0.2702344E+04  0.7818609E-02  0.8334245E-01
        2   -1    0    0  501    0  0.00000000000E+00  0.00000000000E+00  0.26063265118E+04  0.26063265118E+04  0.25500000920E-02 0. -1.
       -2   -1    0    0    0  501  0.00000000000E+00  0.00000000000E+00 -0.70047452030E+03  0.70047452031E+03  0.25500000920E-02 0.  1.
    10030    2    1    2    0    0  0.00000000000E+00  0.00000000000E+00  0.19058519915E+04  0.33068010321E+04  0.27023436592E+04 0.  0.
        3    1    3    3  502    0 -0.80309704627E+03  0.10236691387E+04  0.50699292344E+03  0.13963900622E+04  0.10100000352E+00 0.  1.
       -3    1    3    3    0  502  0.80309704627E+03 -0.10236691387E+04  0.13988590680E+04  0.19104109699E+04  0.10100000352E+00 0. -1.
</event>
<event>
 5   0  0.4487186E-06  0.2696379E+04  0.7818609E-02  0.8336181E-01
       -2   -1    0    0    0  501  0.00000000000E+00  0.00000000000E+00  0.55495374027E+03  0.55495374028E+03  0.25500000920E-02 0.  1.
        2   -1    0    0  501    0  0.00000000000E+00  0.00000000000E+00 -0.32752545057E+04  0.32752545057E+04  0.25500000920E-02 0. -1.
    10030    2    1    2    0    0  0.00000000000E+00  0.00000000000E+00 -0.27203007654E+04  0.38302082460E+04  0.26963788594E+04 0.  0.
        3    1    3    3  502    0  0.12479012991E+04 -0.38697254714E+03 -0.18325802454E+04  0.22506345262E+04  0.10100000352E+00 0. -1.
       -3    1    3    3    0  502 -0.12479012991E+04  0.38697254714E+03 -0.88772052007E+03  0.15795737198E+04  0.10100000352E+00 0.  1.
</event>
<event>
 5   0  0.4401659E-06  0.2710371E+04  0.7818609E-02  0.8331648E-01
       -2   -1    0    0    0  501  0.00000000000E+00  0.00000000000E+00  0.96336802263E+03  0.96336802263E+03  0.25500000920E-02 0. -1.
        2   -1    0    0  501    0  0.00000000000E+00  0.00000000000E+00 -0.19063617071E+04  0.19063617071E+04  0.25500000920E-02 0.  1.
    10030    2    1    2    0    0  0.00000000000E+00  0.00000000000E+00 -0.94299368443E+03  0.28697297297E+04  0.27103711245E+04 0.  0.
        5    1    3    3  502    0  0.34313906709E+03 -0.13084524084E+04 -0.38474214509E+03  0.14063572564E+04  0.46999998093E+01 0.  1.
       -5    1    3    3    0  502 -0.34313906709E+03  0.13084524084E+04 -0.55825153933E+03  0.14633724733E+04  0.46999998093E+01 0. -1.
</event>
<event>
 5   0  0.1753474E-06  0.2739759E+04  0.7818609E-02  0.8322219E-01
        1   -1    0    0  501    0  0.00000000000E+00  0.00000000000E+00  0.14431897468E+04  0.14431897468E+04  0.50400001928E-02 0.  1.
       -1   -1    0    0    0  501  0.00000000000E+00  0.00000000000E+00 -0.13002933933E+04  0.13002933933E+04  0.50400001928E-02 0. -1.
    10030    2    1    2    0    0  0.00000000000E+00  0.00000000000E+00  0.14289635350E+03  0.27434831401E+04  0.27397591814E+04 0.  0.
        3    1    3    3  502    0  0.55145917982E+03 -0.84441522265E+03  0.99976045579E+03  0.14200934034E+04  0.10100000352E+00 0.  1.
       -3    1    3    3    0  502 -0.55145917982E+03  0.84441522265E+03 -0.85686410228E+03  0.13233897367E+04  0.10100000352E+00 0. -1.
</event>
<event>
 5   0  0.1771016E-06  0.2702445E+04  0.7818609E-02  0.8334212E-01
        1   -1    0    0  501    0  0.00000000000E+00  0.00000000000E+00  0.13878197988E+04  0.13878197988E+04  0.50400001928E-02 0. -1.
       -1   -1    0    0    0  501  0.00000000000E+00  0.00000000000E+00 -0.13155899772E+04  0.13155899772E+04  0.50400001928E-02 0.  1.
    10030    2    1    2    0    0  0.00000000000E+00  0.00000000000E+00  0.72229821565E+02  0.27034097761E+04  0.27024446840E+04 0.  0.
        2    1    3    3  502    0  0.67428379265E+03  0.20754439180E+03 -0.11167151869E+04  0.13209035227E+04  0.25500000920E-02 0.  1.
       -2    1    3    3    0  502 -0.67428379265E+03 -0.20754439180E+03  0.11889450084E+04  0.13825062534E+04  0.25500000920E-02 0. -1.
</event>
<event>
 5   0  0.1828511E-06  0.2683645E+04  0.7818609E-02  0.8340331E-01
       -1   -1    0    0    0  501  0.00000000000E+00  0.00000000000E+00  0.94054777014E+03  0.94054777016E+03  0.50400001928E-02 0.  1.
        1   -1    0    0  501    0  0.00000000000E+00  0.00000000000E+00 -0.19142968139E+04  0.19142968140E+04  0.50400001928E-02 0. -1.
    10030    2    1    2    0    0  0.00000000000E+00  0.00000000000E+00 -0.97374904380E+03  0.28548445841E+04  0.26836449838E+04 0.  0.
        4    1    3    3  502    0  0.58204923506E+03 -0.11912279279E+04 -0.26710211327E+03  0.13524608830E+04  0.12699999809E+01 0.  1.
       -4    1    3    3    0  502 -0.58204923506E+03  0.11912279279E+04 -0.70664693053E+03  0.15023837011E+04  0.12699999809E+01 0. -1.
</event>
<event>
 5   0  0.4487186E-06  0.2711895E+04  0.7818609E-02  0.8331156E-01
       -2   -1    0    0    0  501  0.00000000000E+00  0.00000000000E+00  0.11104739356E+04  0.11104739356E+04  0.25500000920E-02 0. -1.
        2   -1    0    0  501    0  0.00000000000E+00  0.00000000000E+00 -0.16556835192E+04  0.16556835192E+04  0.25500000920E-02 0.  1.
    10030    2    1    2    0    0  0.00000000000E+00  0.00000000000E+00 -0.54520958362E+03  0.27661574548E+04  0.27118948310E+04 0.  0.
        3    1    3    3  502    0 -0.78689727927E+03  0.65180517364E+03 -0.11818077984E+04  0.15622826233E+04  0.10100000352E+00 0.  1.
       -3    1    3    3    0  502  0.78689727927E+03 -0.65180517364E+03  0.63659821480E+03  0.12038748314E+04  0.10100000352E+00 0. -1.
</event>
<event>
 5   0  0.4487186E-06  0.2694147E+04  0.7818609E-02  0.8336907E-01
       -2   -1    0    0    0  501  0.00000000000E+00  0.00000000000E+00  0.12456050056E+04  0.12456050056E+04  0.25500000920E-02 0.  1.
        2   -1    0    0  501    0  0.00000000000E+00  0.00000000000E+00 -0.14568078832E+04  0.14568078832E+04  0.25500000920E-02 0. -1.
    10030    2    1    2    0    0  0.00000000000E+00  0.00000000000E+00 -0.21120287757E+03  0.27024128888E+04  0.26941471315E+04 0.  0.
        3    1    3    3  502    0  0.71834668602E+02 -0.57375775775E+03 -0.13259890262E+04  0.14465839388E+04  0.10100000352E+00 0. -1.
       -3    1    3    3    0  502 -0.71834668602E+02  0.57375775775E+03  0.11147861487E+04  0.12558289500E+04  0.10100000352E+00 0.  1.
</event>
<event>
 5   0  0.4655882E-06  0.2690772E+04  0.7818609E-02  0.8338005E-01
       -2   -1    0    0    0  501  0.00000000000E+00  0.00000000000E+00  0.87535818449E+03  0.87535818449E+03  0.25500000920E-02 0.  1.
        2   -1    0    0  501    0  0.00000000000E+00  0.00000000000E+00 -0.20677971283E+04  0.20677971283E+04  0.25500000920E-02 0. -1.
    10030    2    1    2    0    0  0.00000000000E+00  0.00000000000E+00 -0.11924389438E+04  0.29431553128E+04  0.26907717407E+04 0.  0.
        1    1    3    3  502    0 -0.54377313073E+03  0.76257708829E+03  0.46021424998E+03  0.10435565098E+04  0.50400001928E-02 0.  1.
       -1    1    3    3    0  502  0.54377313073E+03 -0.76257708829E+03 -0.16526531938E+04  0.18995988030E+04  0.50400001928E-02 0. -1.
</event>
<event>
 5   0  0.1723605E-06  0.2688646E+04  0.7818609E-02  0.8338698E-01
       -1   -1    0    0    0  501  0.00000000000E+00  0.00000000000E+00  0.73483977555E+03  0.73483977556E+03  0.50400001928E-02 0.  1.
        1   -1    0    0  501    0  0.00000000000E+00  0.00000000000E+00 -0.24593179915E+04  0.24593179916E+04  0.50400001928E-02 0. -1.
    10030    2    1    2    0    0  0.00000000000E+00  0.00000000000E+00 -0.17244782160E+04  0.31941577671E+04  0.26886462623E+04 0.  0.
        1    1    3    3  502    0  0.62541857017E+03  0.40395301031E+03  0.46753273415E+03  0.87915486689E+03  0.50400001928E-02 0.  1.
       -1    1    3    3    0  502 -0.62541857017E+03 -0.40395301031E+03 -0.21920109502E+04  0.23150029002E+04  0.50400001928E-02 0. -1.
</event>
<event>
 5   0  0.4448804E-06  0.2721734E+04  0.7818609E-02  0.8327987E-01
       -2   -1    0    0    0  501  0.00000000000E+00  0.00000000000E+00  0.14542215790E+04  0.14542215790E+04  0.25500000920E-02 0.  1.
        2   -1    0    0  501    0  0.00000000000E+00  0.00000000000E+00 -0.12735052610E+04  0.12735052610E+04  0.25500000920E-02 0. -1.
    10030    2    1    2    0    0  0.00000000000E+00  0.00000000000E+00  0.18071631795E+03  0.27277268400E+04  0.27217338823E+04 0.  0.
        2    1    3    3  502    0 -0.35985943118E+03  0.96392072690E+03  0.98300270867E+03  0.14230025661E+04  0.25500000920E-02 0.  1.
       -2    1    3    3    0  502  0.35985943118E+03 -0.96392072690E+03 -0.80228639073E+03  0.13047242738E+04  0.25500000920E-02 0. -1.
</event>
<event>
 5   0  0.4487186E-06  0.2694527E+04  0.7818609E-02  0.8336783E-01
       -2   -1    0    0    0  501  0.00000000000E+00  0.00000000000E+00  0.89132370638E+03  0.89132370639E+03  0.25500000920E-02 0. -1.
        2   -1    0    0  501    0  0.00000000000E+00  0.00000000000E+00 -0.20364312866E+04  0.20364312866E+04  0.25500000920E-02 0.  1.
    10030    2    1    2    0    0  0.00000000000E+00  0.00000000000E+00 -0.11451075802E+04  0.29277549930E+04  0.26945274036E+04 0.  0.
        3    1    3    3  502    0 -0.40150773252E+03 -0.81634117548E+02 -0.19670953861E+04  0.20093125334E+04  0.10100000352E+00 0.  1.
       -3    1    3    3    0  502  0.40150773252E+03  0.81634117548E+02  0.82198780590E+03  0.91844245964E+03  0.10100000352E+00 0. -1.
</event>
<event>
 5   0  0.1723605E-06  0.2697614E+04  0.7818609E-02  0.8335780E-01
       -1   -1    0    0    0  501  0.00000000000E+00  0.00000000000E+00  0.81442873816E+03  0.81442873818E+03  0.50400001928E-02 0. -1.
        1   -1    0    0  501    0  0.00000000000E+00  0.00000000000E+00 -0.22338114936E+04  0.22338114936E+04  0.50400001928E-02 0.  1.
    10030    2    1    2    0    0  0.00000000000E+00  0.00000000000E+00 -0.14193827554E+04  0.30482402318E+04  0.26976139650E+04 0.  0.
        1    1    3    3  502    0  0.34273104403E+03 -0.78116022854E+03  0.47090658455E+03  0.97438641338E+03  0.50400001928E-02 0. -1.
       -1    1    3    3    0  502 -0.34273104403E+03  0.78116022854E+03 -0.18902893400E+04  0.20738538184E+04  0.50400001928E-02 0.  1.
</event>
<event>
 5   0  0.4439357E-06  0.2688365E+04  0.7818609E-02  0.8338790E-01
       -2   -1    0    0    0  501  0.00000000000E+00  0.00000000000E+00  0.12150244098E+04  0.12150244098E+04  0.25500000920E-02 0. -1.
        2   -1    0    0  501    0  0.00000000000E+00  0.00000000000E+00 -0.14870699482E+04  0.14870699482E+04  0.25500000920E-02 0.  1.
    10030    2    1    2    0    0  0.00000000000E+00  0.00000000000E+00 -0.27204553836E+03  0.27020943580E+04  0.26883647715E+04 0.  0.
        4    1    3    3  502    0  0.67460850154E+03 -0.21255502690E+03  0.10128582824E+04  0.12353783967E+04  0.12699999809E+01 0. -1.
       -4    1    3    3    0  502 -0.67460850154E+03  0.21255502690E+03 -0.12849038208E+04  0.14667159614E+04  0.12699999809E+01 0.  1.
</event>
<event>
 5   0  0.1482875E-06  0.2707125E+04  0.7818609E-02  0.8332697E-01
        3   -1    0    0  501    0  0.00000000000E+00  0.00000000000E+00  0.17991683320E+04  0.17991683348E+04  0.10100000352E+00 0.  1.
       -3   -1    0    0    0  501  0.00000000000E+00  0.00000000000E+00 -0.10183216142E+04  0.10183216193E+04  0.10100000352E+00 0. -1.
    10030    2    1    2    0    0  0.00000000000E+00  0.00000000000E+00  0.78084671773E+03  0.28174899541E+04  0.27071254209E+04 0.  0.
        5    1    3    3  502    0 -0.55737607522E+03  0.21888729448E+03 -0.87295524452E+03  0.10586088446E+04  0.46999998093E+01 0. -1.
       -5    1    3    3    0  502  0.55737607522E+03 -0.21888729448E+03  0.16538019623E+04  0.17588811095E+04  0.46999998093E+01 0.  1.
</event>
<event>
 5   0  0.4401659E-06  0.2699903E+04  0.7818609E-02  0.8335037E-01
        2   -1    0    0  501    0  0.00000000000E+00  0.00000000000E+00  0.10897660216E+04  0.10897660216E+04  0.25500000920E-02 0.  1.
       -2   -1    0    0    0  501  0.00000000000E+00  0.00000000000E+00 -0.16722566389E+04  0.16722566389E+04  0.25500000920E-02 0. -1.
    10030    2    1    2    0    0  0.00000000000E+00  0.00000000000E+00 -0.58249061731E+03  0.27620226606E+04  0.26999025646E+04 0.  0.
        5    1    3    3  502    0 -0.52536430465E+02  0.12447406294E+04  0.24052917541E+03  0.12688639349E+04  0.46999998093E+01 0.  1.
       -5    1    3    3    0  502  0.52536430465E+02 -0.12447406294E+04 -0.82301979273E+03  0.14931587257E+04  0.46999998093E+01 0. -1.
</event>
<event>
 5   0  0.4439357E-06  0.2708445E+04  0.7818609E-02  0.8332270E-01
       -2   -1    0    0    0  501  0.00000000000E+00  0.00000000000E+00  0.20225311831E+04  0.20225311831E+04  0.25500000920E-02 0. -1.
        2   -1    0    0  501    0  0.00000000000E+00  0.00000000000E+00 -0.90674405688E+03  0.90674405688E+03  0.25500000920E-02 0.  1.
    10030    2    1    2    0    0  0.00000000000E+00  0.00000000000E+00  0.11157871262E+04  0.29292752400E+04  0.27084446682E+04 0.  0.
        4    1    3    3  502    0 -0.10018736102E+04 -0.56476484894E+03  0.13311764091E+04  0.17591879691E+04  0.12699999809E+01 0. -1.
       -4    1    3    3    0  502  0.10018736102E+04  0.56476484894E+03 -0.21538928288E+03  0.11700872709E+04  0.12699999809E+01 0.  1.
</event>
<event>
 5   0  0.4487186E-06  0.2704801E+04  0.7818609E-02  0.8333449E-01
       -2   -1    0    0    0  501  0.00000000000E+00  0.00000000000E+00  0.18329464584E+04  0.18329464584E+04  0.25500000920E-02 0.  1.
        2   -1    0    0  501    0  0.00000000000E+00  0.00000000000E+00 -0.99783988297E+03  0.99783988297E+03  0.25500000920E-02 0. -1.
    10030    2    1    2    0    0  0.00000000000E+00  0.00000000000E+00  0.83510657543E+03  0.28307863414E+04  0.27048009757E+04 0.  0.
        3    1    3    3  502    0 -0.47203041972E+03 -0.57594698952E+03 -0.76394958642E+03  0.10668395534E+04  0.10100000352E+00 0. -1.
       -3    1    3    3    0  502  0.47203041972E+03  0.57594698952E+03  0.15990561619E+04  0.17639467880E+04  0.10100000352E+00 0.  1.
</event>
<event>
 5   0  0.4401659E-06  0.2703527E+04  0.7818609E-02  0.8333861E-01
        2   -1    0    0  501    0  0.00000000000E+00  0.00000000000E+00  0.11858398149E+04  0.11858398149E+04  0.25500000920E-02 0. -1.
       -2   -1    0    0    0  501  0.00000000000E+00  0.00000000000E+00 -0.15409038264E+04  0.15409038264E+04  0.25500000920E-02 0.  1.
    10030    2    1    2    0    0  0.00000000000E+00  0.00000000000E+00 -0.35506401151E+03  0.27267436412E+04  0.27035274056E+04 0.  0.
        5    1    3    3  502    0  0.12770043664E+04  0.26580834722E+03  0.18026611323E+03  0.13167809957E+04  0.46999998093E+01 0.  1.
       -5    1    3    3    0  502 -0.12770043664E+04 -0.26580834722E+03 -0.53533012474E+03  0.14099626455E+04  0.46999998093E+01 0. -1.
</event>
<event>
 5   0  0.4439357E-06  0.2699166E+04  0.7818609E-02  0.8335276E-01
       -2   -1    0    0    0  501  0.00000000000E+00  0.00000000000E+00  0.10091797280E+04  0.10091797280E+04  0.25500000920E-02 0.  1.
        2   -1    0    0  501    0  0.00000000000E+00  0.00000000000E+00 -0.18048063758E+04  0.18048063758E+04  0.25500000920E-02 0. -1.
    10030    2    1    2    0    0  0.00000000000E+00  0.00000000000E+00 -0.79562664778E+03  0.28139861038E+04  0.26991658026E+04 0.  0.
        4    1    3    3  502    0  0.17327738227E+03  0.10753288941E+04  0.43296358344E+03  0.11720991251E+04  0.12699999809E+01 0.  1.
       -4    1    3    3    0  502 -0.17327738227E+03 -0.10753288941E+04 -0.12285902312E+04  0.16418869787E+04  0.12699999809E+01 0. -1.
</event>
<event>
 5   0  0.4487186E-06  0.2698832E+04  0.7818609E-02  0.8335384E-01
        2   -1    0    0  501    0  0.00000000000E+00  0.00000000000E+00  0.19219790311E+04  0.19219790311E+04  0.25500000920E-02 0.  1.
       -2   -1    0    0    0  501  0.00000000000E+00  0.00000000000E+00 -0.94742134893E+03  0.94742134893E+03  0.25500000920E-02 0. -1.
    10030    2    1    2    0    0  0.00000000000E+00  0.00000000000E+00  0.97455768221E+03  0.28694003801E+04  0.26988323151E+04 0.  0.
        3    1    3    3  502    0 -0.10049508203E+04  0.30650424949E+03 -0.41302864899E+03  0.11289214681E+04  0.10100000352E+00 0. -1.
       -3    1    3    3    0  502  0.10049508203E+04 -0.30650424949E+03  0.13875863312E+04  0.17404789119E+04  0.10100000352E+00 0.  1.
</event>
<event>
 5   0  0.1732312E-06  0.2691310E+04  0.7818609E-02  0.8337830E-01
        1   -1    0    0  501    0  0.00000000000E+00  0.00000000000E+00  0.16799651598E+04  0.16799651598E+04  0.50400001928E-02 0.  1.
       -1   -1    0    0    0  501  0.00000000000E+00  0.00000000000E+00 -0.10778719909E+04  0.10778719909E+04  0.50400001928E-02 0. -1.
    10030    2    1    2    0    0  0.00000000000E+00  0.00000000000E+00  0.60209316894E+03  0.27578371507E+04  0.26913100092E+04 0.  0.
        5    1    3    3  502    0  0.26984119576E+03 -0.74482905880E+03 -0.81358265164E+03  0.11355718466E+04  0.46999998093E+01 0. -1.
       -5    1    3    3    0  502 -0.26984119576E+03  0.74482905880E+03  0.14156758206E+04  0.16222653040E+04  0.46999998093E+01 0.  1.
</event>
<event>
 5   0  0.4655882E-06  0.2704946E+04  0.7818609E-02  0.8333402E-01
       -2   -1    0    0    0  501  0.00000000000E+00  0.00000000000E+00  0.30196576786E+04  0.30196576786E+04  0.25500000920E-02 0. -1.
        2   -1    0    0  501    0  0.00000000000E+00  0.00000000000E+00 -0.60575865645E+03  0.60575865646E+03  0.25500000920E-02 0.  1.
    10030    2    1    2    0    0  0.00000000000E+00  0.00000000000E+00  0.24138990222E+04  0.36254163351E+04  0.27049464160E+04 0.  0.
        1    1    3    3  502    0 -0.99052517941E+03  0.90123194712E+03  0.14606317407E+04  0.19816165713E+04  0.50400001928E-02 0. -1.
       -1    1    3    3    0  502  0.99052517941E+03 -0.90123194712E+03  0.95326728148E+03  0.16437997638E+04  0.50400001928E-02 0.  1.
</event>
<event>
 5   0  0.1753474E-06  0.2697255E+04  0.7818609E-02  0.8335896E-01
        1   -1    0    0  501    0  0.00000000000E+00  0.00000000000E+00  0.24465224778E+04  0.24465224778E+04  0.50400001928E-02 0.  1.
       -1   -1    0    0    0  501  0.00000000000E+00  0.00000000000E+00 -0.74342083974E+03  0.74342083975E+03  0.50400001928E-02 0. -1.
    10030    2    1    2    0    0  0.00000000000E+00  0.00000000000E+00  0.17031016380E+04  0.31899433175E+04  0.26972547487E+04 0.  0.
        3    1    3    3  502    0  0.12059796373E+04 -0.54345562379E+03  0.54074464082E+03  0.14290331268E+04  0.10100000352E+00 0. -1.
       -3    1    3    3    0  502 -0.12059796373E+04  0.54345562379E+03  0.11623569972E+04  0.17609101908E+04  0.10100000352E+00 0.  1.
</event>
<event>
 5   0  0.4439357E-06  0.2685547E+04  0.7818609E-02  0.8339710E-01
       -2   -1    0    0    0  501  0.00000000000E+00  0.00000000000E+00  0.88243755260E+03  0.88243755260E+03  0.25500000920E-02 0.  1.
        2   -1    0    0  501    0  0.00000000000E+00  0.00000000000E+00 -0.20432501543E+04  0.20432501543E+04  0.25500000920E-02 0. -1.
    10030    2    1    2    0    0  0.00000000000E+00  0.00000000000E+00 -0.11608126017E+04  0.29256877069E+04  0.26855469950E+04 0.  0.
        4    1    3    3  502    0 -0.72551546818E+03 -0.78998213282E+03  0.29966314646E+03  0.11136624619E+04  0.12699999809E+01 0.  1.
       -4    1    3    3    0  502  0.72551546818E+03  0.78998213282E+03 -0.14604757482E+04  0.18120252450E+04  0.12699999809E+01 0. -1.
</event>
<event>
 5   0  0.4439357E-06  0.2700646E+04  0.7818609E-02  0.8334795E-01
       -2   -1    0    0    0  501  0.00000000000E+00  0.00000000000E+00  0.13656821049E+04  0.13656821049E+04  0.25500000920E-02 0.  1.
        2   -1    0    0  501    0  0.00000000000E+00  0.00000000000E+00 -0.13351371162E+04  0.13351371162E+04  0.25500000920E-02 0. -1.
    10030    2    1    2    0    0  0.00000000000E+00  0.00000000000E+00  0.30544988703E+02  0.27008192211E+04  0.27006464909E+04 0.  0.
        4    1    3    3  502    0 -0.10439604202E+04 -0.85444785197E+03 -0.43355171029E+02  0.13497465594E+04  0.12699999809E+01 0. -1.
       -4    1    3    3    0  502  0.10439604202E+04  0.85444785197E+03  0.73900159732E+02  0.13510726617E+04  0.12699999809E+01 0.  1.
</event>
<event>
 5   0  0.4439357E-06  0.2697758E+04  0.7818609E-02  0.8335733E-01
        2   -1    0    0  501    0  0.00000000000E+00  0.00000000000E+00  0.15210345346E+04  0.15210345346E+04  0.25500000920E-02 0. -1.
       -2   -1    0    0    0  501  0.00000000000E+00  0.00000000000E+00 -0.11962088960E+04  0.11962088960E+04  0.25500000920E-02 0.  1.
    10030    2    1    2    0    0  0.00000000000E+00  0.00000000000E+00  0.32482563860E+03  0.27172434306E+04  0.26977583594E+04 0.  0.
        4    1    3    3  502    0 -0.30852629100E+03 -0.62086449970E+03  0.13278405184E+04  0.14979396698E+04  0.12699999809E+01 0. -1.
       -4    1    3    3    0  502  0.30852629100E+03  0.62086449970E+03 -0.10030148798E+04  0.12193037608E+04  0.12699999809E+01 0.  1.
</event>
<event>
 5   0  0.4655882E-06  0.2741130E+04  0.7818609E-02  0.8321782E-01
        2   -1    0    0  501    0  0.00000000000E+00  0.00000000000E+00  0.83916655154E+03  0.83916655154E+03  0.25500000920E-02 0.  1.
       -2   -1    0    0    0  501  0.00000000000E+00  0.00000000000E+00 -0.22384693963E+04  0.22384693963E+04  0.25500000920E-02 0. -1.
    10030    2    1    2    0    0  0.00000000000E+00  0.00000000000E+00 -0.13993028448E+04  0.30776359479E+04  0.27411301641E+04 0.  0.
        1    1    3    3  502    0  0.58194967343E+02 -0.84860894409E+03  0.50695171507E+03  0.99021403527E+03  0.50400001928E-02 0.  1.
       -1    1    3    3    0  502 -0.58194967343E+02  0.84860894409E+03 -0.19062545599E+04  0.20874219126E+04  0.50400001928E-02 0. -1.
</event>
<event>
 5   0  0.1723605E-06  0.2679426E+04  0.7818609E-02  0.8341711E-01
       -1   -1    0    0    0  501  0.00000000000E+00  0.00000000000E+00  0.11696478486E+04  0.11696478486E+04  0.50400001928E-02 0. -1.
        1   -1    0    0  501    0  0.00000000000E+00  0.00000000000E+00 -0.15345055328E+04  0.15345055328E+04  0.50400001928E-02 0.  1.
    10030    2    1    2    0    0  0.00000000000E+00  0.00000000000E+00 -0.36485768421E+03  0.27041533814E+04  0.26794261290E+04 0.  0.
        1    1    3    3  502    0  0.11455458971E+04 -0.58653458956E+03 -0.55806375112E+03  0.14027592015E+04  0.50400001928E-02 0.  1.
       -1    1    3    3    0  502 -0.11455458971E+04  0.58653458956E+03  0.19320606690E+03  0.13013941799E+04  0.50400001928E-02 0. -1.
</event>
<event>
 5   0  0.1732312E-06  0.2684656E+04  0.7818609E-02  0.8340001E-01
       -1   -1    0    0    0  501  0.00000000000E+00  0.00000000000E+00  0.12990818635E+04  0.12990818635E+04  0.50400001928E-02 0. -1.
        1   -1    0    0  501    0  0.00000000000E+00  0.00000000000E+00 -0.13870140775E+04  0.13870140775E+04  0.50400001928E-02 0.  1.
    10030    2    1    2    0    0  0.00000000000E+00  0.00000000000E+00 -0.87932213957E+02  0.26860959410E+04  0.26846562778E+04 0.  0.
        5    1    3    3  502    0  0.99074585755E+03 -0.83927398831E+03 -0.38453748013E+03  0.13541969374E+04  0.46999998093E+01 0.  1.
       -5    1    3    3    0  502 -0.99074585755E+03  0.83927398831E+03  0.29660526618E+03  0.13318990035E+04  0.46999998093E+01 0. -1.
</event>
<event>
 5   0  0.4439357E-06  0.2703343E+04  0.7818609E-02  0.8333921E-01
        2   -1    0    0  501    0  0.00000000000E+00  0.00000000000E+00  0.13929158567E+04  0.13929158567E+04  0.25500000920E-02 0. -1.
       -2   -1    0    0    0  501  0.00000000000E+00  0.00000000000E+00 -0.13116484103E+04  0.13116484103E+04  0.25500000920E-02 0.  1.
    10030    2    1    2    0    0  0.00000000000E+00  0.00000000000E+00  0.81267446390E+02  0.27045642670E+04  0.27033430186E+04 0.  0.
        4    1    3    3  502    0  0.40030058724E+03 -0.63285645970E+03  0.11664271056E+04  0.13861102641E+04  0.12699999809E+01 0. -1.
       -4    1    3    3    0  502 -0.40030058724E+03  0.63285645970E+03 -0.10851596592E+04  0.13184540028E+04  0.12699999809E+01 0.  1.
</event>
<event>
 5   0  0.4655882E-06  0.2694146E+04  0.7818609E-02  0.8336907E-01
       -2   -1    0    0    0  501  0.00000000000E+00  0.00000000000E+00  0.12897181234E+04  0.12897181234E+04  0.25500000920E-02 0. -1.
        2   -1    0    0  501    0  0.00000000000E+00  0.00000000000E+00 -0.14069782041E+04  0.14069782041E+04  0.25500000920E-02 0.  1.
    10030    2    1    2    0    0  0.00000000000E+00  0.00000000000E+00 -0.11726008063E+03  0.26966963275E+04  0.26941457192E+04 0.  0.
        1    1    3    3  502    0 -0.92924542349E+03  0.53051648006E+03 -0.87773263573E+03  0.13839650908E+04  0.50400001928E-02 0.  1.
       -1    1    3    3    0  502  0.92924542349E+03 -0.53051648006E+03  0.76047255510E+03  0.13127312367E+04  0.50400001928E-02 0. -1.
</event>
<event>
 5   0  0.4448804E-06  0.2699443E+04  0.7818609E-02  0.8335186E-01
        2   -1    0    0  501    0  0.00000000000E+00  0.00000000000E+00  0.15876667427E+04  0.15876667427E+04  0.25500000920E-02 0.  1.
       -2   -1    0    0    0  501  0.00000000000E+00  0.00000000000E+00 -0.11474370381E+04  0.11474370381E+04  0.25500000920E-02 0. -1.
    10030    2    1    2    0    0  0.00000000000E+00  0.00000000000E+00  0.44022970458E+03  0.27351037808E+04  0.26994426274E+04 0.  0.
        2    1    3    3  502    0 -0.14468743350E+03 -0.11057503503E+04 -0.55027794045E+03  0.12435530155E+04  0.25500000920E-02 0. -1.
       -2    1    3    3    0  502  0.14468743350E+03  0.11057503503E+04  0.99050764503E+03  0.14915507653E+04  0.25500000920E-02 0.  1.
</event>
<event>
 5   0  0.4401659E-06  0.2704527E+04  0.7818609E-02  0.8333538E-01
       -2   -1    0    0    0  501  0.00000000000E+00  0.00000000000E+00  0.12214066520E+04  0.12214066520E+04  0.25500000920E-02 0.  1.
        2   -1    0    0  501    0  0.00000000000E+00  0.00000000000E+00 -0.14971397615E+04  0.14971397615E+04  0.25500000920E-02 0. -1.
    10030    2    1    2    0    0  0.00000000000E+00  0.00000000000E+00 -0.27573310959E+03  0.27185464135E+04  0.27045269188E+04 0.  0.
        5    1    3    3  502    0  0.12202287033E+04  0.18597392420E+02  0.44763930210E+03  0.12998872975E+04  0.46999998093E+01 0.  1.
       -5    1    3    3    0  502 -0.12202287033E+04 -0.18597392420E+02 -0.72337241169E+03  0.14186591160E+04  0.46999998093E+01 0. -1.
</event>
<event>
 5   0  0.4448804E-06  0.2688230E+04  0.7818609E-02  0.8338834E-01
       -2   -1    0    0    0  501  0.00000000000E+00  0.00000000000E+00  0.18318658568E+04  0.18318658568E+04  0.25500000920E-02 0. -1.
        2   -1    0    0  501    0  0.00000000000E+00  0.00000000000E+00 -0.98623256408E+03  0.98623256409E+03  0.25500000920E-02 0.  1.
    10030    2    1    2    0    0  0.00000000000E+00  0.00000000000E+00  0.84563329274E+03  0.28180984209E+04  0.26882304671E+04 0.  0.
        2    1    3    3  502    0  0.64887935439E+03 -0.43447499548E+01  0.16567901869E+04  0.17793304968E+04  0.25500000920E-02 0. -1.
       -2    1    3    3    0  502 -0.64887935439E+03  0.43447499548E+01 -0.81115689411E+03  0.10387679242E+04  0.25500000920E-02 0.  1.
</event>
<event>
 5   0  0.1753474E-06  0.2706099E+04  0.7818609E-02  0.8333029E-01
       -1   -1    0    0    0  501  0.00000000000E+00  0.00000000000E+00  0.13050753532E+04  0.13050753533E+04  0.50400001928E-02 0. -1.
        1   -1    0    0  501    0  0.00000000000E+00  0.00000000000E+00 -0.14027872319E+04  0.14027872320E+04  0.50400001928E-02 0.  1.
    10030    2    1    2    0    0  0.00000000000E+00  0.00000000000E+00 -0.97711878693E+02  0.27078625852E+04  0.27060990686E+04 0.  0.
        3    1    3    3  502    0  0.62130837909E+03  0.76292725466E+03 -0.97825663989E+03  0.13874682560E+04  0.10100000352E+00 0.  1.
       -3    1    3    3    0  502 -0.62130837909E+03 -0.76292725466E+03  0.88054476120E+03  0.13203943292E+04  0.10100000352E+00 0. -1.
</event>
<event>
 5   0  0.4655882E-06  0.2700796E+04  0.7818609E-02  0.8334747E-01
       -2   -1    0    0    0  501  0.00000000000E+00  0.00000000000E+00  0.11143534558E+04  0.11143534558E+04  0.25500000920E-02 0. -1.
        2   -1    0    0  501    0  0.00000000000E+00  0.00000000000E+00 -0.16364421515E+04  0.16364421515E+04  0.25500000920E-02 0.  1.
    10030    2    1    2    0    0  0.00000000000E+00  0.00000000000E+00 -0.52208869568E+03  0.27507956073E+04  0.27007961543E+04 0.  0.
        1    1    3    3  502    0  0.27199205087E+03  0.10116543612E+04  0.60687607759E+03  0.12106703911E+04  0.50400001928E-02 0. -1.
       -1    1    3    3    0  502 -0.27199205087E+03 -0.10116543612E+04 -0.11289647733E+04  0.15401252162E+04  0.50400001928E-02 0.  1.
</event>
<event>
 5   0  0.1828511E-06  0.2687290E+04  0.7818609E-02  0.8339141E-01
       -1   -1    0    0    0  501  0.00000000000E+00  0.00000000000E+00  0.10016074349E+04  0.10016074349E+04  0.50400001928E-02 0.  1.
        1   -1    0    0  501    0  0.00000000000E+00  0.00000000000E+00 -0.18024839404E+04  0.18024839404E+04  0.50400001928E-02 0. -1.
    10030    2    1    2    0    0  0.00000000000E+00  0.00000000000E+00 -0.80087650553E+03  0.28040913754E+04  0.26872895758E+04 0.  0.
        4    1    3    3  502    0  0.10078877780E+04 -0.85334620239E+02 -0.13233352593E+04  0.16656342911E+04  0.12699999809E+01 0. -1.
       -4    1    3    3    0  502 -0.10078877780E+04  0.85334620239E+02  0.52245875376E+03  0.11384570842E+04  0.12699999809E+01 0.  1.
</event>
<event>
 5   0  0.1828511E-06  0.2708267E+04  0.7818609E-02  0.8332328E-01
        1   -1    0    0  501    0  0.00000000000E+00  0.00000000000E+00  0.81327988605E+03  0.81327988607E+03  0.50400001928E-02 0. -1.
       -1   -1    0    0    0  501  0.00000000000E+00  0.00000000000E+00 -0.22546699508E+04  0.22546699508E+04  0.50400001928E-02 0.  1.
    10030    2    1    2    0    0  0.00000000000E+00  0.00000000000E+00 -0.14413900647E+04  0.30679498368E+04  0.27082671365E+04 0.  0.
        4    1    3    3  502    0  0.52521273903E+03  0.46860806870E+03 -0.20311521409E+04  0.21496563855E+04  0.12699999809E+01 0.  1.
       -4    1    3    3    0  502 -0.52521273903E+03 -0.46860806870E+03  0.58976207622E+03  0.91829345132E+03  0.12699999809E+01 0. -1.
</event>
<event>
 5   0  0.4487186E-06  0.2701601E+04  0.7818609E-02  0.8334486E-01
       -2   -1    0    0    0  501  0.00000000000E+00  0.00000000000E+00  0.80989627706E+03  0.80989627706E+03  0.25500000920E-02 0. -1.
        2   -1    0    0  501    0  0.00000000000E+00  0.00000000000E+00 -0.22529570272E+04  0.22529570272E+04  0.25500000920E-02 0.  1.
    10030    2    1    2    0    0  0.00000000000E+00  0.00000000000E+00 -0.14430607501E+04  0.30628533042E+04  0.27016006431E+04 0.  0.
        3    1    3    3  502    0  0.30811114180E+03 -0.60422949752E+03  0.60285207137E+03  0.90744497989E+03  0.10100000352E+00 0. -1.
       -3    1    3    3    0  502 -0.30811114180E+03  0.60422949752E+03 -0.20459128215E+04  0.21554083243E+04  0.10100000352E+00 0.  1.
</event>
<event>
 5   0  0.4401659E-06  0.2705473E+04  0.7818609E-02  0.8333231E-01
       -2   -1    0    0    0  501  0.00000000000E+00  0.00000000000E+00  0.11584824299E+04  0.11584824299E+04  0.25500000920E-02 0. -1.
        2   -1    0    0  501    0  0.00000000000E+00  0.00000000000E+00 -0.15795626405E+04  0.15795626405E+04  0.25500000920E-02 0.  1.
    10030    2    1    2    0    0  0.00000000000E+00  0.00000000000E+00 -0.42108021067E+03  0.27380450704E+04  0.27054726507E+04 0.  0.
        5    1    3    3  502    0  0.41937751094E+03  0.37140924465E+03 -0.14566443404E+04  0.15606592031E+04  0.46999998093E+01 0.  1.
       -5    1    3    3    0  502 -0.41937751094E+03 -0.37140924465E+03  0.10355641298E+04  0.11773858673E+04  0.46999998093E+01 0. -1.
</event>
<event>
 5   0  0.4401659E-06  0.2716979E+04  0.7818609E-02  0.8329517E-01
        2   -1    0    0  501    0  0.00000000000E+00  0.00000000000E+00  0.15516620762E+04  0.15516620762E+04  0.25500000920E-02 0. -1.
       -2   -1    0    0    0  501  0.00000000000E+00  0.00000000000E+00 -0.11893658825E+04  0.11893658825E+04  0.25500000920E-02 0.  1.
    10030    2    1    2    0    0  0.00000000000E+00  0.00000000000E+00  0.36229619372E+03  0.27410279587E+04  0.27169791568E+04 0.  0.
        5    1    3    3  502    0  0.49809747314E+02  0.10837306969E+04 -0.64371886536E+03  0.12614869409E+04  0.46999998093E+01 0. -1.
       -5    1    3    3    0  502 -0.49809747314E+02 -0.10837306969E+04  0.10060150591E+04  0.14795410178E+04  0.46999998093E+01 0.  1.
</event>
<event>
 5   0  0.4655882E-06  0.2700830E+04  0.7818609E-02  0.8334736E-01
       -2   -1    0    0    0  501  0.00000000000E+00  0.00000000000E+00  0.14434529103E+04  0.14434529103E+04  0.25500000920E-02 0. -1.
        2   -1    0    0  501    0  0.00000000000E+00  0.00000000000E+00 -0.12633740796E+04  0.12633740796E+04  0.25500000920E-02 0.  1.
    10030    2    1    2    0    0  0.00000000000E+00  0.00000000000E+00  0.18007883068E+03  0.27068269899E+04  0.27008302368E+04 0.  0.
        1    1    3    3  502    0  0.33418615663E+03 -0.78469777282E+03  0.11393550192E+04  0.14232219931E+04  0.50400001928E-02 0. -1.
       -1    1    3    3    0  502 -0.33418615663E+03  0.78469777282E+03 -0.95927618849E+03  0.12836049968E+04  0.50400001928E-02 0.  1.
</event>
<event>
 5   0  0.1723605E-06  0.2720025E+04  0.7818609E-02  0.8328537E-01
        1   -1    0    0  501    0  0.00000000000E+00  0.00000000000E+00  0.15594839053E+04  0.15594839053E+04  0.50400001928E-02 0. -1.
       -1   -1    0    0    0  501  0.00000000000E+00  0.00000000000E+00 -0.11860551120E+04  0.11860551120E+04  0.50400001928E-02 0.  1.
    10030    2    1    2    0    0  0.00000000000E+00  0.00000000000E+00  0.37342879334E+03  0.27455390174E+04  0.27200248955E+04 0.  0.
        1    1    3    3  502    0  0.26867871148E+03 -0.14689678430E+03 -0.11508063962E+04  0.11908493930E+04  0.50400001928E-02 0.  1.
       -1    1    3    3    0  502 -0.26867871148E+03  0.14689678430E+03  0.15242351895E+04  0.15546896244E+04  0.50400001928E-02 0. -1.
</event>
<event>
 5   0  0.1482875E-06  0.2674529E+04  0.7818609E-02  0.8343317E-01
        3   -1    0    0  501    0  0.00000000000E+00  0.00000000000E+00  0.13737374896E+04  0.13737374933E+04  0.10100000352E+00 0. -1.
       -3   -1    0    0    0  501  0.00000000000E+00  0.00000000000E+00 -0.13017595251E+04  0.13017595290E+04  0.10100000352E+00 0.  1.
    10030    2    1    2    0    0  0.00000000000E+00  0.00000000000E+00  0.71977964527E+02  0.26754970224E+04  0.26745286481E+04 0.  0.
        5    1    3    3  502    0 -0.19092739667E+03 -0.34769323017E+03 -0.12415442500E+04  0.13033794796E+04  0.46999998093E+01 0.  1.
       -5    1    3    3    0  502  0.19092739667E+03  0.34769323017E+03  0.13135222145E+04  0.13721175428E+04  0.46999998093E+01 0. -1.
</event>
<event>
 5   0  0.4401659E-06  0.2692206E+04  0.7818609E-02  0.8337538E-01
       -2   -1    0    0    0  501  0.00000000000E+00  0.00000000000E+00  0.97404353360E+03  0.97404353361E+03  0.25500000920E-02 0. -1.
        2   -1    0    0  501    0  0.00000000000E+00  0.00000000000E+00 -0.18602802253E+04  0.18602802253E+04  0.25500000920E-02 0.  1.
    10030    2    1    2    0    0  0.00000000000E+00  0.00000000000E+00 -0.88623669171E+03  0.28343237589E+04  0.26922064736E+04 0.  0.
        5    1    3    3  502    0  0.84454788649E+03  0.11853300645E+02 -0.15465742946E+04  0.17621906174E+04  0.46999998093E+01 0.  1.
       -5    1    3    3    0  502 -0.84454788649E+03 -0.11853300645E+02  0.66033760291E+03  0.10721331415E+04  0.46999998093E+01 0. -1.
</event>
<event>
 5   0  0.4448804E-06  0.2707166E+04  0.7818609E-02  0.8332683E-01
        2   -1    0    0  501    0  0.00000000000E+00  0.00000000000E+00  0.14219923559E+04  0.14219923559E+04  0.25500000920E-02 0.  1.
       -2   -1    0    0    0  501  0.00000000000E+00  0.00000000000E+00 -0.12884650079E+04  0.12884650079E+04  0.25500000920E-02 0. -1.
    10030    2    1    2    0    0  0.00000000000E+00  0.00000000000E+00  0.13352734798E+03  0.27104573639E+04  0.27071663356E+04 0.  0.
        2    1    3    3  502    0  0.10144007500E+03 -0.16200054722E+03  0.14084125225E+04  0.14213233621E+04  0.25500000920E-02 0.  1.
       -2    1    3    3    0  502 -0.10144007500E+03  0.16200054722E+03 -0.12748851745E+04  0.12891340017E+04  0.25500000920E-02 0. -1.
</event>
<event>
 5   0  0.4487186E-06  0.2749757E+04  0.7818609E-02  0.8319039E-01
        2   -1    0    0  501    0  0.00000000000E+00  0.00000000000E+00  0.14222480203E+04  0.14222480203E+04  0.25500000920E-02 0. -1.
       -2   -1    0    0    0  501  0.00000000000E+00  0.00000000000E+00 -0.13290865262E+04  0.13290865262E+04  0.25500000920E-02 0.  1.
    10030    2    1    2    0    0  0.00000000000E+00  0.00000000000E+00  0.93161494111E+02  0.27513345465E+04  0.27497568479E+04 0.  0.
        3    1    3    3  502    0 -0.56226790354E+02  0.12938393271E+04 -0.41532144040E+03  0.13600270459E+04  0.10100000352E+00 0.  1.
       -3    1    3    3    0  502  0.56226790354E+02 -0.12938393271E+04  0.50848293451E+03  0.13913075006E+04  0.10100000352E+00 0. -1.
</event>
<event>
 5   0  0.1723605E-06  0.2708289E+04  0.7818609E-02  0.8332320E-01
       -1   -1    0    0    0  501  0.00000000000E+00  0.00000000000E+00  0.10848891644E+04  0.10848891644E+04  0.50400001928E-02 0.  1.
        1   -1    0    0  501    0  0.00000000000E+00  0.00000000000E+00 -0.16902258802E+04  0.16902258802E+04  0.50400001928E-02 0. -1.
    10030    2    1    2    0    0  0.00000000000E+00  0.00000000000E+00 -0.60533671573E+03  0.27751150446E+04  0.27082893072E+04 0.  0.
        1    1    3    3  502    0  0.95578707530E+03  0.11961207815E+03  0.67258913880E+03  0.11748242984E+04  0.50400001928E-02 0.  1.
       -1    1    3    3    0  502 -0.95578707530E+03 -0.11961207815E+03 -0.12779258545E+04  0.16002907462E+04  0.50400001928E-02 0. -1.
</event>
<event>
 5   0  0.4487186E-06  0.2712994E+04  0.7818609E-02  0.8330801E-01
        2   -1    0    0  501    0  0.00000000000E+00  0.00000000000E+00  0.25950661301E+04  0.25950661302E+04  0.25500000920E-02 0. -1.
       -2   -1    0    0    0  501  0.00000000000E+00  0.00000000000E+00 -0.70907021209E+03  0.70907021209E+03  0.25500000920E-02 0.  1.
    10030    2    1    2    0    0  0.00000000000E+00  0.00000000000E+00  0.18859959181E+04  0.33041363422E+04  0.27129939855E+04 0.  0.
        3    1    3    3  502    0 -0.81691181976E+03  0.21612057605E+03  0.22353603561E+04  0.23897466302E+04  0.10100000352E+00 0. -1.
       -3    1    3    3    0  502  0.81691181976E+03 -0.21612057605E+03 -0.34936443808E+03  0.91438971202E+03  0.10100000352E+00 0.  1.
</event>
<event>
 5   0  0.4401659E-06  0.2702948E+04  0.7818609E-02  0.8334049E-01
        2   -1    0    0  501    0  0.00000000000E+00  0.00000000000E+00  0.12839953982E+04  0.12839953982E+04  0.25500000920E-02 0.  1.
       -2   -1    0    0    0  501  0.00000000000E+00  0.00000000000E+00 -0.14224987393E+04  0.14224987393E+04  0.25500000920E-02 0. -1.
    10030    2    1    2    0    0  0.00000000000E+00  0.00000000000E+00 -0.13850334107E+03  0.27064941375E+04  0.27029478983E+04 0.  0.
        5    1    3    3  502    0 -0.38073239680E+03  0.57975569697E+03  0.10921778363E+04  0.12938115559E+04  0.46999998093E+01 0.  1.
       -5    1    3    3    0  502  0.38073239680E+03 -0.57975569697E+03 -0.12306811773E+04  0.14126825816E+04  0.46999998093E+01 0. -1.
</event>
<event>
 5   0  0.1723605E-06  0.2733122E+04  0.7818609E-02  0.8324337E-01
       -1   -1    0    0    0  501  0.00000000000E+00  0.00000000000E+00  0.10731405133E+04  0.10731405133E+04  0.50400001928E-02 0.  1.
        1   -1    0    0  501    0  0.00000000000E+00  0.00000000000E+00 -0.17402096071E+04  0.17402096071E+04  0.50400001928E-02 0. -1.
    10030    2    1    2    0    0  0.00000000000E+00  0.00000000000E+00 -0.66706909382E+03  0.28133501204E+04  0.27331223398E+04 0.  0.
        1    1    3    3  502    0 -0.48781874401E+03  0.78809344269E+02  0.97795740385E+03  0.10957092331E+04  0.50400001928E-02 0.  1.
       -1    1    3    3    0  502  0.48781874401E+03 -0.78809344269E+02 -0.16450264977E+04  0.17176408873E+04  0.50400001928E-02 0. -1.
</event>
<event>
 5   0  0.1771016E-06  0.2705377E+04  0.7818609E-02  0.8333263E-01
       -1   -1    0    0    0  501  0.00000000000E+00  0.00000000000E+00  0.10597006785E+04  0.10597006785E+04  0.50400001928E-02 0.  1.
        1   -1    0    0  501    0  0.00000000000E+00  0.00000000000E+00 -0.17266816389E+04  0.17266816390E+04  0.50400001928E-02 0. -1.
    10030    2    1    2    0    0  0.00000000000E+00  0.00000000000E+00 -0.66698096046E+03  0.27863823174E+04  0.27053766498E+04 0.  0.
        2    1    3    3  502    0  0.12363402981E+03 -0.47778907946E+03  0.96366387163E+03  0.10826891684E+04  0.25500000920E-02 0.  1.
       -2    1    3    3    0  502 -0.12363402981E+03  0.47778907946E+03 -0.16306448321E+04  0.17036931491E+04  0.25500000920E-02 0. -1.
</event>
<event>
 5   0  0.4439357E-06  0.2676149E+04  0.7818609E-02  0.8342785E-01
        2   -1    0    0  501    0  0.00000000000E+00  0.00000000000E+00  0.13618529865E+04  0.13618529865E+04  0.25500000920E-02 0. -1.
       -2   -1    0    0    0  501  0.00000000000E+00  0.00000000000E+00 -0.13147113691E+04  0.13147113691E+04  0.25500000920E-02 0.  1.
    10030    2    1    2    0    0  0.00000000000E+00  0.00000000000E+00  0.47141617354E+02  0.26765643556E+04  0.26761491770E+04 0.  0.
        4    1    3    3  502    0  0.88639863801E+03 -0.34696267580E+03 -0.91697731210E+03  0.13217165535E+04  0.12699999809E+01 0.  1.
       -4    1    3    3    0  502 -0.88639863801E+03  0.34696267580E+03  0.96411892946E+03  0.13548478021E+04  0.12699999809E+01 0. -1.
</event>
<event>
 5   0  0.4439357E-06  0.2705345E+04  0.7818609E-02  0.8333273E-01
        2   -1    0    0  501    0  0.00000000000E+00  0.00000000000E+00  0.19348385265E+04  0.19348385265E+04  0.25500000920E-02 0.  1.
       -2   -1    0    0    0  501  0.00000000000E+00  0.00000000000E+00 -0.94567225878E+03  0.94567225879E+03  0.25500000920E-02 0. -1.
    10030    2    1    2    0    0  0.00000000000E+00  0.00000000000E+00  0.98916626774E+03  0.28805107853E+04  0.27053451682E+04 0.  0.
        4    1    3    3  502    0  0.23479274805E+03 -0.88753814631E+03  0.15523178925E+04  0.18034810916E+04  0.12699999809E+01 0.  1.
       -4    1    3    3    0  502 -0.23479274805E+03  0.88753814631E+03 -0.56315162474E+03  0.10770296937E+04  0.12699999809E+01 0. -1.
</event>
<event>
 5   0  0.4448804E-06  0.2690663E+04  0.7818609E-02  0.8338041E-01
       -2   -1    0    0    0  501  0.00000000000E+00  0.00000000000E+00  0.13183168980E+04  0.13183168980E+04  0.25500000920E-02 0.  1.
        2   -1    0    0  501    0  0.00000000000E+00  0.00000000000E+00 -0.13728999136E+04  0.13728999136E+04  0.25500000920E-02 0. -1.
    10030    2    1    2    0    0  0.00000000000E+00  0.00000000000E+00 -0.54583015665E+02  0.26912168116E+04  0.26906632308E+04 0.  0.
        2    1    3    3  502    0 -0.16957939668E+02 -0.26086533708E+03 -0.13472519478E+04  0.13723797239E+04  0.25500000920E-02 0. -1.
       -2    1    3    3    0  502  0.16957939668E+02  0.26086533708E+03  0.12926689321E+04  0.13188370877E+04  0.25500000920E-02 0.  1.
</event>
<event>
 5   0  0.4655882E-06  0.2678234E+04  0.7818609E-02  0.8342102E-01
        2   -1    0    0  501    0  0.00000000000E+00  0.00000000000E+00  0.23332899775E+04  0.23332899775E+04  0.25500000920E-02 0.  1.
       -2   -1    0    0    0  501  0.00000000000E+00  0.00000000000E+00 -0.76854300707E+03  0.76854300708E+03  0.25500000920E-02 0. -1.
    10030    2    1    2    0    0  0.00000000000E+00  0.00000000000E+00  0.15647469704E+04  0.31018329846E+04  0.26782335191E+04 0.  0.
        1    1    3    3  502    0 -0.17628329131E+03  0.78697739253E+03 -0.45573795421E+03  0.92634027122E+03  0.50400001928E-02 0. -1.
       -1    1    3    3    0  502  0.17628329131E+03 -0.78697739253E+03  0.20204849246E+04  0.21754927133E+04  0.50400001928E-02 0.  1.
</event>
<event>
 5   0  0.4439357E-06  0.2673341E+04  0.7818609E-02  0.8343707E-01
       -2   -1    0    0    0  501  0.00000000000E+00  0.00000000000E+00  0.81604889591E+03  0.81604889592E+03  0.25500000920E-02 0. -1.
        2   -1    0    0  501    0  0.00000000000E+00  0.00000000000E+00 -0.21894370537E+04  0.21894370537E+04  0.25500000920E-02 0.  1.
    10030    2    1    2    0    0  0.00000000000E+00  0.00000000000E+00 -0.13733881578E+04  0.30054859496E+04  0.26733407492E+04 0.  0.
        4    1    3    3  502    0 -0.26395501212E+03 -0.13022535721E+04 -0.52319697780E+03  0.14280312689E+04  0.12699999809E+01 0. -1.
       -4    1    3    3    0  502  0.26395501212E+03  0.13022535721E+04 -0.85019117998E+03  0.15774546807E+04  0.12699999809E+01 0.  1.
</event>
<event>
 5   0  0.4401659E-06  0.2701908E+04  0.7818609E-02  0.8334386E-01
        2   -1    0    0  501    0  0.00000000000E+00  0.00000000000E+00  0.15807957737E+04  0.15807957737E+04  0.25500000920E-02 0.  1.
       -2   -1    0    0    0  501  0.00000000000E+00  0.00000000000E+00 -0.11545303658E+04  0.11545303658E+04  0.25500000920E-02 0. -1.
    10030    2    1    2    0    0  0.00000000000E+00  0.00000000000E+00  0.42626540796E+03  0.27353261395E+04  0.27019080094E+04 0.  0.
        5    1    3    3  502    0  0.10815513657E+04  0.28961441750E+03  0.97840869128E+03  0.14869214924E+04  0.46999998093E+01 0.  1.
       -5    1    3    3    0  502 -0.10815513657E+04 -0.28961441750E+03 -0.55214328332E+03  0.12484046470E+04  0.46999998093E+01 0. -1.
</event>
<event>
 5   0  0.1753474E-06  0.2702403E+04  0.7818609E-02  0.8334226E-01
        1   -1    0    0  501    0  0.00000000000E+00  0.00000000000E+00  0.24444460081E+04  0.24444460081E+04  0.50400001928E-02 0.  1.
       -1   -1    0    0    0  501  0.00000000000E+00  0.00000000000E+00 -0.74689542658E+03  0.74689542659E+03  0.50400001928E-02 0. -1.
    10030    2    1    2    0    0  0.00000000000E+00  0.00000000000E+00  0.16975505816E+04  0.31913414347E+04  0.27024030373E+04 0.  0.
        3    1    3    3  502    0 -0.74461916672E+02  0.13225298915E+04  0.53385131834E+03  0.14281551495E+04  0.10100000352E+00 0. -1.
       -3    1    3    3    0  502  0.74461916672E+02 -0.13225298915E+04  0.11636992632E+04  0.17631862852E+04  0.10100000352E+00 0.  1.
</event>
<event>
 5   0  0.1753474E-06  0.2692942E+04  0.7818609E-02  0.8337299E-01
        1   -1    0    0  501    0  0.00000000000E+00  0.00000000000E+00  0.25510656224E+04  0.25510656224E+04  0.50400001928E-02 0. -1.
       -1   -1    0    0    0  501  0.00000000000E+00  0.00000000000E+00 -0.71067742597E+03  0.71067742599E+03  0.50400001928E-02 0.  1.
    10030    2    1    2    0    0  0.00000000000E+00  0.00000000000E+00  0.18403881964E+04  0.32617430483E+04  0.26929424428E+04 0.  0.
        3    1    3    3  502    0  0.60634893568E+03  0.62281858017E+03 -0.32531525691E+03  0.92811208493E+03  0.10100000352E+00 0.  1.
       -3    1    3    3    0  502 -0.60634893568E+03 -0.62281858017E+03  0.21657034533E+04  0.23336309634E+04  0.10100000352E+00 0. -1.
</event>
<event>
 5   0  0.1828511E-06  0.2695805E+04  0.7818609E-02  0.8336368E-01
       -1   -1    0    0    0  501  0.00000000000E+00  0.00000000000E+00  0.21445087134E+04  0.21445087134E+04  0.50400001928E-02 0. -1.
        1   -1    0    0  501    0  0.00000000000E+00  0.00000000000E+00 -0.84720598257E+03  0.84720598258E+03  0.50400001928E-02 0.  1.
    10030    2    1    2    0    0  0.00000000000E+00  0.00000000000E+00  0.12973027309E+04  0.29917146960E+04  0.26958046010E+04 0.  0.
        4    1    3    3  502    0  0.96414062207E+03  0.76421151080E+03  0.37520737008E+02  0.12308516527E+04  0.12699999809E+01 0.  1.
       -4    1    3    3    0  502 -0.96414062207E+03 -0.76421151080E+03  0.12597819939E+04  0.17608630433E+04  0.12699999809E+01 0. -1.
</event>
<event>
 5   0  0.1723605E-06  0.2749630E+04  0.7818609E-02  0.8319079E-01
       -1   -1    0    0    0  501  0.00000000000E+00  0.00000000000E+00  0.10189676550E+04  0.10189676550E+04  0.50400001928E-02 0.  1.
        1   -1    0    0  501    0  0.00000000000E+00  0.00000000000E+00 -0.18549324743E+04  0.18549324743E+04  0.50400001928E-02 0. -1.
    10030    2    1    2    0    0  0.00000000000E+00  0.00000000000E+00 -0.83596481930E+03  0.28739001293E+04  0.27496299340E+04 0.  0.
        1    1    3    3  502    0  0.35117286163E+03 -0.34024521279E+03  0.92501295552E+03  0.10462973533E+04  0.50400001928E-02 0.  1.
       -1    1    3    3    0  502 -0.35117286163E+03  0.34024521279E+03 -0.17609777748E+04  0.18276027760E+04  0.50400001928E-02 0. -1.
</event>
<event>
 5   0  0.4655882E-06  0.2706985E+04  0.7818609E-02  0.8332742E-01
       -2   -1    0    0    0  501  0.00000000000E+00  0.00000000000E+00  0.11203781560E+04  0.11203781560E+04  0.25500000920E-02 0. -1.
        2   -1    0    0  501    0  0.00000000000E+00  0.00000000000E+00 -0.16351099089E+04  0.16351099089E+04  0.25500000920E-02 0.  1.
    10030    2    1    2    0    0  0.00000000000E+00  0.00000000000E+00 -0.51473175289E+03  0.27554880649E+04  0.27069846136E+04 0.  0.
        1    1    3    3  502    0  0.11881300592E+04  0.30132659472E+03 -0.84166375285E+03  0.14868922715E+04  0.50400001928E-02 0.  1.
       -1    1    3    3    0  502 -0.11881300592E+04 -0.30132659472E+03  0.32693199996E+03  0.12685957934E+04  0.50400001928E-02 0. -1.
</event>
<event>
 5   0  0.4439357E-06  0.2686520E+04  0.7818609E-02  0.8339392E-01
        2   -1    0    0  501    0  0.00000000000E+00  0.00000000000E+00  0.13673955982E+04  0.13673955982E+04  0.25500000920E-02 0.  1.
       -2   -1    0    0    0  501  0.00000000000E+00  0.00000000000E+00 -0.13195500893E+04  0.13195500893E+04  0.25500000920E-02 0. -1.
    10030    2    1    2    0    0  0.00000000000E+00  0.00000000000E+00  0.47845508881E+02  0.26869456875E+04  0.26865196695E+04 0.  0.
        4    1    3    3  502    0 -0.16926567688E+03  0.47548713201E+03  0.12689520669E+04  0.13656426484E+04  0.12699999809E+01 0.  1.
       -4    1    3    3    0  502  0.16926567688E+03 -0.47548713201E+03 -0.12211065580E+04  0.13213030391E+04  0.12699999809E+01 0. -1.
</event>
<event>
 5   0  0.4448804E-06  0.2695374E+04  0.7818609E-02  0.8336507E-01
       -2   -1    0    0    0  501  0.00000000000E+00  0.00000000000E+00  0.30575147907E+04  0.30575147907E+04  0.25500000920E-02 0. -1.
        2   -1    0    0  501    0  0.00000000000E+00  0.00000000000E+00 -0.59403165773E+03  0.59403165774E+03  0.25500000920E-02 0.  1.
    10030    2    1    2    0    0  0.00000000000E+00  0.00000000000E+00  0.24634831330E+04  0.36515464485E+04  0.26953742447E+04 0.  0.
        2    1    3    3  502    0 -0.46578421527E+02 -0.10656337733E+04  0.11580963949E+03  0.10729197364E+04  0.25500000920E-02 0.  1.
       -2    1    3    3    0  502  0.46578421527E+02  0.10656337733E+04  0.23476734935E+04  0.25786267121E+04  0.25500000920E-02 0. -1.
</event>
<event>
 5   0  0.1482875E-06  0.2689256E+04  0.7818609E-02  0.8338499E-01
       -3   -1    0    0    0  501  0.00000000000E+00  0.00000000000E+00  0.90117616208E+03  0.90117616774E+03  0.10100000352E+00 0.  1.
        3   -1    0    0  501    0  0.00000000000E+00  0.00000000000E+00 -0.20062946609E+04  0.20062946635E+04  0.10100000352E+00 0. -1.
    10030    2    1    2    0    0  0.00000000000E+00  0.00000000000E+00 -0.11051184989E+04  0.29074708312E+04  0.26892563541E+04 0.  0.
        4    1    3    3  502    0 -0.59608461001E+03  0.88439884261E+03 -0.14378729287E+04  0.17902397457E+04  0.12699999809E+01 0. -1.
       -4    1    3    3    0  502  0.59608461001E+03 -0.88439884261E+03  0.33275442979E+03  0.11172310856E+04  0.12699999809E+01 0.  1.
</event>
<event>
 5   0  0.1753474E-06  0.2706229E+04  0.7818609E-02  0.8332987E-01
       -1   -1    0    0    0  501  0.00000000000E+00  0.00000000000E+00  0.12426857157E+04  0.12426857157E+04  0.50400001928E-02 0. -1.
        1   -1    0    0  501    0  0.00000000000E+00  0.00000000000E+00 -0.14733567228E+04  0.14733567228E+04  0.50400001928E-02 0.  1.
    10030    2    1    2    0    0  0.00000000000E+00  0.00000000000E+00 -0.23067100711E+03  0.27160424385E+04  0.27062293721E+04 0.  0.
        3    1    3    3  502    0  0.54118306604E+03  0.62942666763E+03  0.95711884839E+03  0.12669386493E+04  0.10100000352E+00 0. -1.
       -3    1    3    3    0  502 -0.54118306604E+03 -0.62942666763E+03 -0.11877898555E+04  0.14491037892E+04  0.10100000352E+00 0.  1.
</event>
<event>
 5   0  0.4655882E-06  0.2603529E+04  0.7818609E-02  0.8367004E-01
       -2   -1    0    0    0  501  0.00000000000E+00  0.00000000000E+00  0.92727395264E+03  0.92727395265E+03  0.25500000920E-02 0.  1.
        2   -1    0    0  501    0  0.00000000000E+00  0.00000000000E+00 -0.18274970164E+04  0.18274970164E+04  0.25500000920E-02 0. -1.
    10030    2    1    2    0    0  0.00000000000E+00  0.00000000000E+00 -0.90022306373E+03  0.27547709690E+04  0.26035286684E+04 0.  0.
        1    1    3    3  502    0  0.98082218298E+03 -0.40128731455E+03 -0.12500360366E+04  0.16387903332E+04  0.50400001928E-02 0. -1.
       -1    1    3    3    0  502 -0.98082218298E+03  0.40128731455E+03  0.34981297288E+03  0.11159806358E+04  0.50400001928E-02 0.  1.
</event>
<event>
 5   0  0.1828511E-06  0.2683772E+04  0.7818609E-02  0.8340290E-01
        1   -1    0    0  501    0  0.00000000000E+00  0.00000000000E+00  0.10880233619E+04  0.10880233619E+04  0.50400001928E-02 0.  1.
       -1   -1    0    0    0  501  0.00000000000E+00  0.00000000000E+00 -0.16549811022E+04  0.16549811022E+04  0.50400001928E-02 0. -1.
    10030    2    1    2    0    0  0.00000000000E+00  0.00000000000E+00 -0.56695774031E+03  0.27430044641E+04  0.26837720489E+04 0.  0.
        4    1    3    3  502    0 -0.31369680855E+03  0.12707859929E+04 -0.58555867808E+03  0.14339397846E+04  0.12699999809E+01 0. -1.
       -4    1    3    3    0  502  0.31369680855E+03 -0.12707859929E+04  0.18600937762E+02  0.13090646795E+04  0.12699999809E+01 0.  1.
</event>
<event>
 5   0  0.1753474E-06  0.2721758E+04  0.7818609E-02  0.8327980E-01
       -1   -1    0    0    0  501  0.00000000000E+00  0.00000000000E+00  0.27918175112E+04  0.27918175112E+04  0.50400001928E-02 0.  1.
        1   -1    0    0  501    0  0.00000000000E+00  0.00000000000E+00 -0.66336398125E+03  0.66336398127E+03  0.50400001928E-02 0. -1.
    10030    2    1    2    0    0  0.00000000000E+00  0.00000000000E+00  0.21284535300E+04  0.34551814925E+04  0.27217576521E+04 0.  0.
        3    1    3    3  502    0 -0.11681629024E+04  0.65224387027E+03  0.13802310806E+04  0.19222550505E+04  0.10100000352E+00 0.  1.
       -3    1    3    3    0  502  0.11681629024E+04 -0.65224387027E+03  0.74822244934E+03  0.15329264421E+04  0.10100000352E+00 0. -1.
</event>
<event>
 5   0  0.1723605E-06  0.2698771E+04  0.7818609E-02  0.8335404E-01
        1   -1    0    0  501    0  0.00000000000E+00  0.00000000000E+00  0.16600459657E+04  0.16600459657E+04  0.50400001928E-02 0.  1.
       -1   -1    0    0    0  501  0.00000000000E+00  0.00000000000E+00 -0.10968619615E+04  0.10968619615E+04  0.50400001928E-02 0. -1.
    10030    2    1    2    0    0  0.00000000000E+00  0.00000000000E+00  0.56318400418E+03  0.27569079272E+04  0.26987710345E+04 0.  0.
        1    1    3    3  502    0 -0.12394420139E+03 -0.30214213499E+03 -0.10558827860E+04  0.11052332299E+04  0.50400001928E-02 0. -1.
       -1    1    3    3    0  502  0.12394420139E+03  0.30214213499E+03  0.16190667901E+04  0.16516746973E+04  0.50400001928E-02 0.  1.
</event>
<event>
 5   0  0.1482875E-06  0.2707197E+04  0.7818609E-02  0.8332674E-01
        3   -1    0    0  501    0  0.00000000000E+00  0.00000000000E+00  0.10797000602E+04  0.10797000650E+04  0.10100000352E+00 0.  1.
       -3   -1    0    0    0  501  0.00000000000E+00  0.00000000000E+00 -0.16969792660E+04  0.16969792690E+04  0.10100000352E+00 0. -1.
    10030    2    1    2    0    0  0.00000000000E+00  0.00000000000E+00 -0.61727920575E+03  0.27766793340E+04  0.27071967985E+04 0.  0.
        4    1    3    3  502    0 -0.12266104167E+04  0.35722794294E+03 -0.76737959035E+03  0.14903214305E+04  0.12699999809E+01 0. -1.
       -4    1    3    3    0  502  0.12266104167E+04 -0.35722794294E+03  0.15010038460E+03  0.12863579035E+04  0.12699999809E+01 0.  1.
</event>
<event>
 5   0  0.1753474E-06  0.2700425E+04  0.7818609E-02  0.8334867E-01
       -1   -1    0    0    0  501  0.00000000000E+00  0.00000000000E+00  0.25658413315E+04  0.25658413315E+04  0.50400001928E-02 0. -1.
        1   -1    0    0  501    0  0.00000000000E+00  0.00000000000E+00 -0.71051684958E+03  0.71051684960E+03  0.50400001928E-02 0.  1.
    10030    2    1    2    0    0  0.00000000000E+00  0.00000000000E+00  0.18553244819E+04  0.32763581811E+04  0.27004247810E+04 0.  0.
        3    1    3    3  502    0 -0.12416055464E+04  0.39164068228E+03  0.49340680260E+03  0.13922704622E+04  0.10100000352E+00 0.  1.
       -3    1    3    3    0  502  0.12416055464E+04 -0.39164068228E+03  0.13619176793E+04  0.18840877189E+04  0.10100000352E+00 0. -1.
</event>
<event>
 5   0  0.4439357E-06  0.2675251E+04  0.7818609E-02  0.8343080E-01
       -2   -1    0    0    0  501  0.00000000000E+00  0.00000000000E+00  0.12885466237E+04  0.12885466237E+04  0.25500000920E-02 0.  1.
        2   -1    0    0  501    0  0.00000000000E+00  0.00000000000E+00 -0.13885740760E+04  0.13885740760E+04  0.25500000920E-02 0. -1.
    10030    2    1    2    0    0  0.00000000000E+00  0.00000000000E+00 -0.10002745227E+03  0.26771206997E+04  0.26752513433E+04 0.  0.
        4    1    3    3  502    0  0.99018735331E+03 -0.38659815854E+03  0.76253375914E+03  0.13082004730E+04  0.12699999809E+01 0.  1.
       -4    1    3    3    0  502 -0.99018735331E+03  0.38659815854E+03 -0.86256121142E+03  0.13689202267E+04  0.12699999809E+01 0. -1.
</event>
<event>
 5   0  0.4655882E-06  0.2706270E+04  0.7818609E-02  0.8332974E-01
       -2   -1    0    0    0  501  0.00000000000E+00  0.00000000000E+00  0.10888689595E+04  0.10888689595E+04  0.25500000920E-02 0. -1.
        2   -1    0    0  501    0  0.00000000000E+00  0.00000000000E+00 -0.16815375841E+04  0.16815375841E+04  0.25500000920E-02 0.  1.
    10030    2    1    2    0    0  0.00000000000E+00  0.00000000000E+00 -0.59266862456E+03  0.27704065435E+04  0.27062698162E+04 0.  0.
        1    1    3    3  502    0  0.12480640653E+03  0.85296248854E+03  0.77138575305E+03  0.11567876322E+04  0.50400001928E-02 0. -1.
       -1    1    3    3    0  502 -0.12480640653E+03 -0.85296248854E+03 -0.13640543776E+04  0.16136189114E+04  0.50400001928E-02 0.  1.
</event>
<event>
 5   0  0.1828511E-06  0.2710867E+04  0.7818609E-02  0.8331488E-01
        1   -1    0    0  501    0  0.00000000000E+00  0.00000000000E+00  0.18536718645E+04  0.18536718645E+04  0.50400001928E-02 0.  1.
       -1   -1    0    0    0  501  0.00000000000E+00  0.00000000000E+00 -0.99111399221E+03  0.99111399222E+03  0.50400001928E-02 0. -1.
    10030    2    1    2    0    0  0.00000000000E+00  0.00000000000E+00  0.86255787225E+03  0.28447858567E+04  0.27108671099E+04 0.  0.
        4    1    3    3  502    0  0.83216885625E+02  0.79003990464E+03  0.15837628817E+04  0.17718336771E+04  0.12699999809E+01 0.  1.
       -4    1    3    3    0  502 -0.83216885625E+02 -0.79003990464E+03 -0.72120500948E+03  0.10729521795E+04  0.12699999809E+01 0. -1.
</event>
<event>
 5   0  0.4401659E-06  0.2703128E+04  0.7818609E-02  0.8333991E-01
       -2   -1    0    0    0  501  0.00000000000E+00  0.00000000000E+00  0.13836387380E+04  0.13836387380E+04  0.25500000920E-02 0. -1.
        2   -1    0    0  501    0  0.00000000000E+00  0.00000000000E+00 -0.13202323678E+04  0.13202323678E+04  0.25500000920E-02 0.  1.
    10030    2    1    2    0    0  0.00000000000E+00  0.00000000000E+00  0.63406370239E+02  0.27038711057E+04  0.27031275569E+04 0.  0.
        5    1    3    3  502    0 -0.58999995738E+03  0.47615108770E+03 -0.10874802468E+04  0.13256904560E+04  0.46999998093E+01 0.  1.
       -5    1    3    3    0  502  0.58999995738E+03 -0.47615108770E+03  0.11508866170E+04  0.13781806497E+04  0.46999998093E+01 0. -1.
</event>
<event>
 5   0  0.1828511E-06  0.2700440E+04  0.7818609E-02  0.8334862E-01
       -1   -1    0    0    0  501  0.00000000000E+00  0.00000000000E+00  0.10108358366E+04  0.10108358366E+04  0.50400001928E-02 0. -1.
        1   -1    0    0  501    0  0.00000000000E+00  0.00000000000E+00 -0.18035516319E+04  0.18035516319E+04  0.50400001928E-02 0.  1.
    10030    2    1    2    0    0  0.00000000000E+00  0.00000000000E+00 -0.79271579536E+03  0.28143874685E+04  0.27004404253E+04 0.  0.
        4    1    3    3  502    0 -0.88626497663E+03 -0.41505575711E+03 -0.13658554618E+04  0.16802677304E+04  0.12699999809E+01 0.  1.
       -4    1    3    3    0  502  0.88626497663E+03  0.41505575711E+03  0.57313966645E+03  0.11341197382E+04  0.12699999809E+01 0. -1.
</event>
<event>
 5   0  0.1723605E-06  0.2711470E+04  0.7818609E-02  0.8331293E-01
       -1   -1    0    0    0  501  0.00000000000E+00  0.00000000000E+00  0.10211460299E+04  0.10211460299E+04  0.50400001928E-02 0. -1.
        1   -1    0    0  501    0  0.00000000000E+00  0.00000000000E+00 -0.17999548193E+04  0.17999548193E+04  0.50400001928E-02 0.  1.
    10030    2    1    2    0    0  0.00000000000E+00  0.00000000000E+00 -0.77880878947E+03  0.28211008492E+04  0.27114695040E+04 0.  0.
        1    1    3    3  502    0 -0.35238340002E+03 -0.86983901982E+02  0.96965546849E+03  0.10353608006E+04  0.50400001928E-02 0. -1.
       -1    1    3    3    0  502  0.35238340002E+03  0.86983901982E+02 -0.17484642580E+04  0.17857400486E+04  0.50400001928E-02 0.  1.
</event>
<event>
 5   0  0.1753474E-06  0.2639750E+04  0.7818609E-02  0.8354823E-01
        1   -1    0    0  501    0  0.00000000000E+00  0.00000000000E+00  0.11665659423E+04  0.11665659423E+04  0.50400001928E-02 0. -1.
       -1   -1    0    0    0  501  0.00000000000E+00  0.00000000000E+00 -0.14933313652E+04  0.14933313652E+04  0.50400001928E-02 0.  1.
    10030    2    1    2    0    0  0.00000000000E+00  0.00000000000E+00 -0.32676542289E+03  0.26598973075E+04  0.26397496178E+04 0.  0.
        3    1    3    3  502    0 -0.65991359968E+03 -0.86572489083E+03 -0.91547347500E+03  0.14223421667E+04  0.10100000352E+00 0.  1.
       -3    1    3    3    0  502  0.65991359968E+03  0.86572489083E+03  0.58870805211E+03  0.12375551408E+04  0.10100000352E+00 0. -1.
</event>
<event>
 5   0  0.1753474E-06  0.2708749E+04  0.7818609E-02  0.8332172E-01
       -1   -1    0    0    0  501  0.00000000000E+00  0.00000000000E+00  0.10350435091E+04  0.10350435091E+04  0.50400001928E-02 0.  1.
        1   -1    0    0  501    0  0.00000000000E+00  0.00000000000E+00 -0.17722255714E+04  0.17722255714E+04  0.50400001928E-02 0. -1.
    10030    2    1    2    0    0  0.00000000000E+00  0.00000000000E+00 -0.73718206228E+03  0.28072690805E+04  0.27087492127E+04 0.  0.
        3    1    3    3  502    0  0.52009614151E+03 -0.12455028302E+04 -0.48470745161E+03  0.14341264310E+04  0.10100000352E+00 0. -1.
       -3    1    3    3    0  502 -0.52009614151E+03  0.12455028302E+04 -0.25247461067E+03  0.13731426494E+04  0.10100000352E+00 0.  1.
</event>
<event>
 5   0  0.4401659E-06  0.2823936E+04  0.7818609E-02  0.8295875E-01
       -2   -1    0    0    0  501  0.00000000000E+00  0.00000000000E+00  0.92302664297E+03  0.92302664298E+03  0.25500000920E-02 0. -1.
        2   -1    0    0  501    0  0.00000000000E+00  0.00000000000E+00 -0.21599091201E+04  0.21599091201E+04  0.25500000920E-02 0.  1.
    10030    2    1    2    0    0  0.00000000000E+00  0.00000000000E+00 -0.12368824772E+04  0.30829357631E+04  0.28239360221E+04 0.  0.
        5    1    3    3  502    0  0.18635065742E+03 -0.22084477395E+03 -0.21272749539E+04  0.21468162011E+04  0.46999998093E+01 0.  1.
       -5    1    3    3    0  502 -0.18635065742E+03  0.22084477395E+03  0.89039247676E+03  0.93611956201E+03  0.46999998093E+01 0. -1.
</event>
<event>
 5   0  0.4655882E-06  0.2729502E+04  0.7818609E-02  0.8325496E-01
        2   -1    0    0  501    0  0.00000000000E+00  0.00000000000E+00  0.20583156010E+04  0.20583156010E+04  0.25500000920E-02 0.  1.
       -2   -1    0    0    0  501  0.00000000000E+00  0.00000000000E+00 -0.90488812032E+03  0.90488812032E+03  0.25500000920E-02 0. -1.
    10030    2    1    2    0    0  0.00000000000E+00  0.00000000000E+00  0.11534274806E+04  0.29632037213E+04  0.27295020316E+04 0.  0.
        1    1    3    3  502    0 -0.21280534163E+03  0.39222106011E+02  0.20395732813E+04  0.20510201503E+04  0.50400001928E-02 0.  1.
       -1    1    3    3    0  502  0.21280534163E+03 -0.39222106011E+02 -0.88614580070E+03  0.91218357097E+03  0.50400001928E-02 0. -1.
</event>
<event>
 5   0  0.1828511E-06  0.2704873E+04  0.7818609E-02  0.8333425E-01
       -1   -1    0    0    0  501  0.00000000000E+00  0.00000000000E+00  0.27883192230E+04  0.27883192230E+04  0.50400001928E-02 0.  1.
        1   -1    0    0  501    0  0.00000000000E+00  0.00000000000E+00 -0.65598119000E+03  0.65598119002E+03  0.50400001928E-02 0. -1.
    10030    2    1    2    0    0  0.00000000000E+00  0.00000000000E+00  0.21323380330E+04  0.34443004130E+04  0.27048733516E+04 0.  0.
        4    1    3    3  502    0  0.43142107479E+03  0.11959807847E+04  0.47905201767E+03  0.13586709055E+04  0.12699999809E+01 0.  1.
       -4    1    3    3    0  502 -0.43142107479E+03 -0.11959807847E+04  0.16532860153E+04  0.20856295074E+04  0.12699999809E+01 0. -1.
</event>
<event>
 5   0  0.1753474E-06  0.2699795E+04  0.7818609E-02  0.8335072E-01
       -1   -1    0    0    0  501  0.00000000000E+00  0.00000000000E+00  0.82799637938E+03  0.82799637940E+03  0.50400001928E-02 0.  1.
        1   -1    0    0  501    0  0.00000000000E+00  0.00000000000E+00 -0.22007619764E+04  0.22007619764E+04  0.50400001928E-02 0. -1.
    10030    2    1    2    0    0  0.00000000000E+00  0.00000000000E+00 -0.13727655971E+04  0.30287583558E+04  0.26997947688E+04 0.  0.
        3    1    3    3  502    0  0.86527539808E+03  0.42702352109E+03  0.37266295241E+03  0.10343733796E+04  0.10100000352E+00 0.  1.
       -3    1    3    3    0  502 -0.86527539808E+03 -0.42702352109E+03 -0.17454285495E+04  0.19943849763E+04  0.10100000352E+00 0. -1.
</event>
<event>
 5   0  0.4401659E-06  0.2695142E+04  0.7818609E-02  0.8336583E-01
       -2   -1    0    0    0  501  0.00000000000E+00  0.00000000000E+00  0.11550396000E+04  0.11550396000E+04  0.25500000920E-02 0.  1.
        2   -1    0    0  501    0  0.00000000000E+00  0.00000000000E+00 -0.15721948037E+04  0.15721948037E+04  0.25500000920E-02 0. -1.
    10030    2    1    2    0    0  0.00000000000E+00  0.00000000000E+00 -0.41715520364E+03  0.27272344037E+04  0.26951417456E+04 0.  0.
        5    1    3    3  502    0  0.35865240472E+03  0.12739631253E+04  0.48039401707E+02  0.13243653069E+04  0.46999998093E+01 0.  1.
       -5    1    3    3    0  502 -0.35865240472E+03 -0.12739631253E+04 -0.46519460535E+03  0.14028690968E+04  0.46999998093E+01 0. -1.
</event>
<event>
 5   0  0.1732312E-06  0.2682759E+04  0.7818609E-02  0.8340621E-01
        1   -1    0    0  501    0  0.00000000000E+00  0.00000000000E+00  0.21027700724E+04  0.21027700724E+04  0.50400001928E-02 0. -1.
       -1   -1    0    0    0  501  0.00000000000E+00  0.00000000000E+00 -0.85568021062E+03  0.85568021064E+03  0.50400001928E-02 0.  1.
    10030    2    1    2    0    0  0.00000000000E+00  0.00000000000E+00  0.12470898618E+04  0.29584502830E+04  0.26827588326E+04 0.  0.
        5    1    3    3  502    0  0.10964912632E+04 -0.37512722283E+03  0.13684318148E+04  0.17932209137E+04  0.46999998093E+01 0. -1.
       -5    1    3    3    0  502 -0.10964912632E+04  0.37512722283E+03 -0.12134195300E+03  0.11652293693E+04  0.46999998093E+01 0.  1.
</event>
<event>
 5   0  0.1753474E-06  0.2675512E+04  0.7818609E-02  0.8342995E-01
       -1   -1    0    0    0  501  0.00000000000E+00  0.00000000000E+00  0.63477299029E+03  0.63477299031E+03  0.50400001928E-02 0. -1.
        1   -1    0    0  501    0  0.00000000000E+00  0.00000000000E+00 -0.28192610216E+04  0.28192610216E+04  0.50400001928E-02 0.  1.
    10030    2    1    2    0    0  0.00000000000E+00  0.00000000000E+00 -0.21844880313E+04  0.34540340120E+04  0.26755117261E+04 0.  0.
        3    1    3    3  502    0  0.52156857415E+03  0.19797925284E+03  0.47743201145E+03  0.73428257357E+03  0.10100000352E+00 0. -1.
       -3    1    3    3    0  502 -0.52156857415E+03 -0.19797925284E+03 -0.26619200428E+04  0.27197514384E+04  0.10100000352E+00 0.  1.
</event>
<event>
 5   0  0.4439357E-06  0.2722842E+04  0.7818609E-02  0.8327631E-01
        2   -1    0    0  501    0  0.00000000000E+00  0.00000000000E+00  0.83051098146E+03  0.83051098146E+03  0.25500000920E-02 0. -1.
       -2   -1    0    0    0  501  0.00000000000E+00  0.00000000000E+00 -0.22317192832E+04  0.22317192832E+04  0.25500000920E-02 0.  1.
    10030    2    1    2    0    0  0.00000000000E+00  0.00000000000E+00 -0.14012083017E+04  0.30622302646E+04  0.27228421711E+04 0.  0.
        4    1    3    3  502    0 -0.51137100278E+03  0.96718697756E+03 -0.16118543557E+04  0.19480829112E+04  0.12699999809E+01 0.  1.
       -4    1    3    3    0  502  0.51137100278E+03 -0.96718697756E+03  0.21064605404E+03  0.11141473534E+04  0.12699999809E+01 0. -1.
</event>
<event>
 5   0  0.4448804E-06  0.2705440E+04  0.7818609E-02  0.8333242E-01
       -2   -1    0    0    0  501  0.00000000000E+00  0.00000000000E+00  0.11619102482E+04  0.11619102482E+04  0.25500000920E-02 0.  1.
        2   -1    0    0  501    0  0.00000000000E+00  0.00000000000E+00 -0.15748643853E+04  0.15748643853E+04  0.25500000920E-02 0. -1.
    10030    2    1    2    0    0  0.00000000000E+00  0.00000000000E+00 -0.41295413709E+03  0.27367746335E+04  0.27054397563E+04 0.  0.
        2    1    3    3  502    0  0.79871179831E+03 -0.82853496928E+03 -0.92565461054E+03  0.14769045975E+04  0.25500000920E-02 0. -1.
       -2    1    3    3    0  502 -0.79871179831E+03  0.82853496928E+03  0.51270047345E+03  0.12598700360E+04  0.25500000920E-02 0.  1.
</event>
<event>
 5   0  0.1771016E-06  0.2606570E+04  0.7818609E-02  0.8365973E-01
       -1   -1    0    0    0  501  0.00000000000E+00  0.00000000000E+00  0.98094399102E+03  0.98094399103E+03  0.50400001928E-02 0.  1.
        1   -1    0    0  501    0  0.00000000000E+00  0.00000000000E+00 -0.17315488021E+04  0.17315488021E+04  0.50400001928E-02 0. -1.
    10030    2    1    2    0    0  0.00000000000E+00  0.00000000000E+00 -0.75060481106E+03  0.27124927931E+04  0.26065704614E+04 0.  0.
        2    1    3    3  502    0  0.11025811804E+03 -0.92731779880E+03  0.57074864590E+03  0.10944538224E+04  0.25500000920E-02 0.  1.
       -2    1    3    3    0  502 -0.11025811804E+03  0.92731779880E+03 -0.13213534570E+04  0.16180389707E+04  0.25500000920E-02 0. -1.
</event>
<event>
 5   0  0.4448804E-06  0.2700578E+04  0.7818609E-02  0.8334817E-01
        2   -1    0    0  501    0  0.00000000000E+00  0.00000000000E+00  0.14727556784E+04  0.14727556784E+04  0.25500000920E-02 0.  1.
       -2   -1    0    0    0  501  0.00000000000E+00  0.00000000000E+00 -0.12380061681E+04  0.12380061681E+04  0.25500000920E-02 0. -1.
    10030    2    1    2    0    0  0.00000000000E+00  0.00000000000E+00  0.23474951029E+03  0.27107618464E+04  0.27005781706E+04 0.  0.
        2    1    3    3  502    0  0.29959507942E+03  0.90930571591E+02 -0.12010679545E+04  0.12412049838E+04  0.25500000920E-02 0. -1.
       -2    1    3    3    0  502 -0.29959507942E+03 -0.90930571591E+02  0.14358174648E+04  0.14695568627E+04  0.25500000920E-02 0.  1.
</event>
<event>
 5   0  0.1771016E-06  0.2703135E+04  0.7818609E-02  0.8333989E-01
        1   -1    0    0  501    0  0.00000000000E+00  0.00000000000E+00  0.11835342543E+04  0.11835342543E+04  0.50400001928E-02 0. -1.
       -1   -1    0    0    0  501  0.00000000000E+00  0.00000000000E+00 -0.15434570389E+04  0.15434570389E+04  0.50400001928E-02 0.  1.
    10030    2    1    2    0    0  0.00000000000E+00  0.00000000000E+00 -0.35992278464E+03  0.27269912932E+04  0.27031346808E+04 0.  0.
        2    1    3    3  502    0 -0.10051509836E+04 -0.89855634163E+03 -0.27567909052E+03  0.13761289765E+04  0.25500000920E-02 0. -1.
       -2    1    3    3    0  502  0.10051509836E+04  0.89855634163E+03 -0.84243694124E+02  0.13508623168E+04  0.25500000920E-02 0.  1.
</event>
<event>
 5   0  0.1723605E-06  0.2693864E+04  0.7818609E-02  0.8336999E-01
        1   -1    0    0  501    0  0.00000000000E+00  0.00000000000E+00  0.17184777799E+04  0.17184777799E+04  0.50400001928E-02 0.  1.
       -1   -1    0    0    0  501  0.00000000000E+00  0.00000000000E+00 -0.10557165686E+04  0.10557165686E+04  0.50400001928E-02 0. -1.
    10030    2    1    2    0    0  0.00000000000E+00  0.00000000000E+00  0.66276121128E+03  0.27741943485E+04  0.26938637419E+04 0.  0.
        1    1    3    3  502    0  0.49015980178E+02  0.13433510907E+04  0.24381111951E+03  0.13661766289E+04  0.50400001928E-02 0. -1.
       -1    1    3    3    0  502 -0.49015980178E+02 -0.13433510907E+04  0.41895009177E+03  0.14080177196E+04  0.50400001928E-02 0.  1.
</event>
<event>
 5   0  0.4448804E-06  0.2704962E+04  0.7818609E-02  0.8333397E-01
       -2   -1    0    0    0  501  0.00000000000E+00  0.00000000000E+00  0.10327149441E+04  0.10327149441E+04  0.25500000920E-02 0.  1.
        2   -1    0    0  501    0  0.00000000000E+00  0.00000000000E+00 -0.17712582607E+04  0.17712582607E+04  0.25500000920E-02 0. -1.
    10030    2    1    2    0    0  0.00000000000E+00  0.00000000000E+00 -0.73854331661E+03  0.28039732048E+04  0.27049620151E+04 0.  0.
        2    1    3    3  502    0  0.12602919059E+04  0.60553477777E+02  0.13558988020E+03  0.12690102550E+04  0.25500000920E-02 0.  1.
       -2    1    3    3    0  502 -0.12602919059E+04 -0.60553477777E+02 -0.87413319681E+03  0.15349629499E+04  0.25500000920E-02 0. -1.
</event>
<event>
 5   0  0.4439357E-06  0.2656629E+04  0.7818609E-02  0.8349216E-01
       -2   -1    0    0    0  501  0.00000000000E+00  0.00000000000E+00  0.16036035871E+04  0.16036035871E+04  0.25500000920E-02 0. -1.
        2   -1    0    0  501    0  0.00000000000E+00  0.00000000000E+00 -0.11002837762E+04  0.11002837762E+04  0.25500000920E-02 0.  1.
    10030    2    1    2    0    0  0.00000000000E+00  0.00000000000E+00  0.50331981084E+03  0.27038873633E+04  0.26566286985E+04 0.  0.
        4    1    3    3  502    0  0.12450807808E+04 -0.45298789220E+03  0.34817944822E+03  0.13699104796E+04  0.12699999809E+01 0.  1.
       -4    1    3    3    0  502 -0.12450807808E+04  0.45298789220E+03  0.15514036263E+03  0.13339768837E+04  0.12699999809E+01 0. -1.
</event>
<event>
 5   0  0.4655882E-06  0.2685272E+04  0.7818609E-02  0.8339800E-01
        2   -1    0    0  501    0  0.00000000000E+00  0.00000000000E+00  0.17524237103E+04  0.17524237103E+04  0.25500000920E-02 0.  1.
       -2   -1    0    0    0  501  0.00000000000E+00  0.00000000000E+00 -0.10286729508E+04  0.10286729508E+04  0.25500000920E-02 0. -1.
    10030    2    1    2    0    0  0.00000000000E+00  0.00000000000E+00  0.72375075952E+03  0.27810966611E+04  0.26852715833E+04 0.  0.
        1    1    3    3  502    0 -0.99888260952E+03  0.62321545206E+03 -0.30652851038E+03  0.12166033433E+04  0.50400001928E-02 0. -1.
       -1    1    3    3    0  502  0.99888260952E+03 -0.62321545206E+03  0.10302792699E+04  0.15644933178E+04  0.50400001928E-02 0.  1.
</event>
<event>
 5   0  0.4655882E-06  0.2715205E+04  0.7818609E-02  0.8330088E-01
       -2   -1    0    0    0  501  0.00000000000E+00  0.00000000000E+00  0.87691234798E+03  0.87691234799E+03  0.25500000920E-02 0. -1.
        2   -1    0    0  501    0  0.00000000000E+00  0.00000000000E+00 -0.21017880922E+04  0.21017880922E+04  0.25500000920E-02 0.  1.
    10030    2    1    2    0    0  0.00000000000E+00  0.00000000000E+00 -0.12248757442E+04  0.29787004402E+04  0.27152045454E+04 0.  0.
        1    1    3    3  502    0  0.12596320051E+04 -0.83640010817E-01 -0.56926801044E+02  0.12609177039E+04  0.50400001928E-02 0.  1.
       -1    1    3    3    0  502 -0.12596320051E+04  0.83640010817E-01 -0.11679489432E+04  0.17177827363E+04  0.50400001928E-02 0. -1.
</event>
<event>
 5   0  0.1771016E-06  0.2699705E+04  0.7818609E-02  0.8335101E-01
       -1   -1    0    0    0  501  0.00000000000E+00  0.00000000000E+00  0.67213362834E+03  0.67213362836E+03  0.50400001928E-02 0.  1.
        1   -1    0    0  501    0  0.00000000000E+00  0.00000000000E+00 -0.27109228865E+04  0.27109228865E+04  0.50400001928E-02 0. -1.
    10030    2    1    2    0    0  0.00000000000E+00  0.00000000000E+00 -0.20387892581E+04  0.33830565149E+04  0.26997054920E+04 0.  0.
        2    1    3    3  502    0 -0.44230298650E+03  0.52227673582E+03  0.43859246175E+03  0.81287653930E+03  0.25500000920E-02 0.  1.
       -2    1    3    3    0  502  0.44230298650E+03 -0.52227673582E+03 -0.24773817199E+04  0.25701799756E+04  0.25500000920E-02 0. -1.
</event>
<event>
 5   0  0.1771016E-06  0.2706285E+04  0.7818609E-02  0.8332968E-01
       -1   -1    0    0    0  501  0.00000000000E+00  0.00000000000E+00  0.15159595274E+04  0.15159595275E+04  0.50400001928E-02 0.  1.
        1   -1    0    0  501    0  0.00000000000E+00  0.00000000000E+00 -0.12078127500E+04  0.12078127500E+04  0.50400001928E-02 0. -1.
    10030    2    1    2    0    0  0.00000000000E+00  0.00000000000E+00  0.30814677749E+03  0.27237722774E+04  0.27062854585E+04 0.  0.
        2    1    3    3  502    0  0.12229227245E+04  0.17960996181E+03  0.70826325387E+03  0.14245829443E+04  0.25500000920E-02 0.  1.
       -2    1    3    3    0  502 -0.12229227245E+04 -0.17960996181E+03 -0.40011647638E+03  0.12991893331E+04  0.25500000920E-02 0. -1.
</event>
<event>
 5   0  0.4655882E-06  0.2694241E+04  0.7818609E-02  0.8336876E-01
        2   -1    0    0  501    0  0.00000000000E+00  0.00000000000E+00  0.23185798160E+04  0.23185798161E+04  0.25500000920E-02 0. -1.
       -2   -1    0    0    0  501  0.00000000000E+00  0.00000000000E+00 -0.78269162326E+03  0.78269162327E+03  0.25500000920E-02 0.  1.
    10030    2    1    2    0    0  0.00000000000E+00  0.00000000000E+00  0.15358881928E+04  0.31012714393E+04  0.26942405237E+04 0.  0.
        1    1    3    3  502    0 -0.82804860384E+03 -0.55095685609E+03 -0.27789750664E+03  0.10326882258E+04  0.50400001928E-02 0.  1.
       -1    1    3    3    0  502  0.82804860384E+03  0.55095685609E+03  0.18137856994E+04  0.20685832135E+04  0.50400001928E-02 0. -1.
</event>
<event>
 5   0  0.4401659E-06  0.2695620E+04  0.7818609E-02  0.8336428E-01
        2   -1    0    0  501    0  0.00000000000E+00  0.00000000000E+00  0.13931414544E+04  0.13931414544E+04  0.25500000920E-02 0. -1.
       -2   -1    0    0    0  501  0.00000000000E+00  0.00000000000E+00 -0.13039532704E+04  0.13039532704E+04  0.25500000920E-02 0.  1.
    10030    2    1    2    0    0  0.00000000000E+00  0.00000000000E+00  0.89188183952E+02  0.26970947248E+04  0.26956196732E+04 0.  0.
        5    1    3    3  502    0 -0.49071312215E+03  0.86296606056E+03 -0.86752938723E+03  0.13183850415E+04  0.46999998093E+01 0.  1.
       -5    1    3    3    0  502  0.49071312215E+03 -0.86296606056E+03  0.95671757118E+03  0.13787096833E+04  0.46999998093E+01 0. -1.
</event>
<event>
 5   0  0.4439357E-06  0.2694696E+04  0.7818609E-02  0.8336728E-01
        2   -1    0    0  501    0  0.00000000000E+00  0.00000000000E+00  0.20623346722E+04  0.20623346722E+04  0.25500000920E-02 0. -1.
       -2   -1    0    0    0  501  0.00000000000E+00  0.00000000000E+00 -0.88023829702E+03  0.88023829702E+03  0.25500000920E-02 0.  1.
    10030    2    1    2    0    0  0.00000000000E+00  0.00000000000E+00  0.11820963751E+04  0.29425729692E+04  0.26946955002E+04 0.  0.
        4    1    3    3  502    0 -0.90476569002E+02 -0.45911137855E+03 -0.78865292269E+03  0.91703015916E+03  0.12699999809E+01 0.  1.
       -4    1    3    3    0  502  0.90476569002E+02  0.45911137855E+03  0.19707492978E+04  0.20255428100E+04  0.12699999809E+01 0. -1.
</event>
<event>
 5   0  0.1723605E-06  0.2700288E+04  0.7818609E-02  0.8334911E-01
        1   -1    0    0  501    0  0.00000000000E+00  0.00000000000E+00  0.24196066109E+04  0.24196066109E+04  0.50400001928E-02 0.  1.
       -1   -1    0    0    0  501  0.00000000000E+00  0.00000000000E+00 -0.75338244319E+03  0.75338244321E+03  0.50400001928E-02 0. -1.
    10030    2    1    2    0    0  0.00000000000E+00  0.00000000000E+00  0.16662241677E+04  0.31729890541E+04  0.27002882366E+04 0.  0.
        1    1    3    3  502    0  0.11842731545E+04 -0.10765437356E+03  0.81814178337E+02  0.11919672514E+04  0.50400001928E-02 0. -1.
       -1    1    3    3    0  502 -0.11842731545E+04  0.10765437356E+03  0.15844099894E+04  0.19810218028E+04  0.50400001928E-02 0.  1.
</event>
<event>
 5   0  0.4487186E-06  0.2835599E+04  0.7818609E-02  0.8292301E-01
        2   -1    0    0  501    0  0.00000000000E+00  0.00000000000E+00  0.21751702839E+04  0.21751702839E+04  0.25500000920E-02 0.  1.
       -2   -1    0    0    0  501  0.00000000000E+00  0.00000000000E+00 -0.92413684516E+03  0.92413684516E+03  0.25500000920E-02 0. -1.
    10030    2    1    2    0    0  0.00000000000E+00  0.00000000000E+00  0.12510334387E+04  0.30993071290E+04  0.28355987049E+04 0.  0.
        3    1    3    3  502    0 -0.12618509981E+04 -0.10578634558E+03  0.13225523156E+04  0.18310115592E+04  0.10100000352E+00 0.  1.
       -3    1    3    3    0  502  0.12618509981E+04  0.10578634558E+03 -0.71518876856E+02  0.12682955698E+04  0.10100000352E+00 0. -1.
</event>
<event>
 5   0  0.4655882E-06  0.2692667E+04  0.7818609E-02  0.8337388E-01
       -2   -1    0    0    0  501  0.00000000000E+00  0.00000000000E+00  0.17346709266E+04  0.17346709266E+04  0.25500000920E-02 0.  1.
        2   -1    0    0  501    0  0.00000000000E+00  0.00000000000E+00 -0.10449320811E+04  0.10449320811E+04  0.25500000920E-02 0. -1.
    10030    2    1    2    0    0  0.00000000000E+00  0.00000000000E+00  0.68973884547E+03  0.27796030078E+04  0.26926665605E+04 0.  0.
        1    1    3    3  502    0 -0.22715202154E+03  0.39398585328E+03  0.16529805070E+04  0.17144000262E+04  0.50400001928E-02 0.  1.
       -1    1    3    3    0  502  0.22715202154E+03 -0.39398585328E+03 -0.96324166148E+03  0.10652029816E+04  0.50400001928E-02 0. -1.
</event>
<event>
 5   0  0.1828511E-06  0.2697854E+04  0.7818609E-02  0.8335701E-01
        1   -1    0    0  501    0  0.00000000000E+00  0.00000000000E+00  0.81749047467E+03  0.81749047469E+03  0.50400001928E-02 0. -1.
       -1   -1    0    0    0  501  0.00000000000E+00  0.00000000000E+00 -0.22258419542E+04  0.22258419542E+04  0.50400001928E-02 0.  1.
    10030    2    1    2    0    0  0.00000000000E+00  0.00000000000E+00 -0.14083514795E+04  0.30433324289E+04  0.26978544036E+04 0.  0.
        4    1    3    3  502    0  0.84412923633E+03  0.15686384418E+03  0.46945996510E+03  0.97854724208E+03  0.12699999809E+01 0. -1.
       -4    1    3    3    0  502 -0.84412923633E+03 -0.15686384418E+03 -0.18778114446E+04  0.20647851868E+04  0.12699999809E+01 0.  1.
</event>
<event>
 5   0  0.4487186E-06  0.2686532E+04  0.7818609E-02  0.8339388E-01
       -2   -1    0    0    0  501  0.00000000000E+00  0.00000000000E+00  0.82866542991E+03  0.82866542991E+03  0.25500000920E-02 0. -1.
        2   -1    0    0  501    0  0.00000000000E+00  0.00000000000E+00 -0.21774336760E+04  0.21774336760E+04  0.25500000920E-02 0.  1.
    10030    2    1    2    0    0  0.00000000000E+00  0.00000000000E+00 -0.13487682461E+04  0.30060991059E+04  0.26865323473E+04 0.  0.
        3    1    3    3  502    0 -0.89574052140E+03 -0.38822265379E+03  0.35802430281E+03  0.10398313912E+04  0.10100000352E+00 0.  1.
       -3    1    3    3    0  502  0.89574052140E+03  0.38822265379E+03 -0.17067925489E+04  0.19662677147E+04  0.10100000352E+00 0. -1.
</event>
<event>
 5   0  0.4655882E-06  0.2710608E+04  0.7818609E-02  0.8331571E-01
       -2   -1    0    0    0  501  0.00000000000E+00  0.00000000000E+00  0.11411773868E+04  0.11411773868E+04  0.25500000920E-02 0.  1.
        2   -1    0    0  501    0  0.00000000000E+00  0.00000000000E+00 -0.16096084485E+04  0.16096084485E+04  0.25500000920E-02 0. -1.
    10030    2    1    2    0    0  0.00000000000E+00  0.00000000000E+00 -0.46843106169E+03  0.27507858353E+04  0.27106078750E+04 0.  0.
        1    1    3    3  502    0  0.88127417771E+03 -0.83136655623E+03 -0.85070180650E+03  0.14803743076E+04  0.50400001928E-02 0. -1.
       -1    1    3    3    0  502 -0.88127417771E+03  0.83136655623E+03  0.38227074482E+03  0.12704115276E+04  0.50400001928E-02 0.  1.
</event>
<event>
 5   0  0.1771016E-06  0.2686289E+04  0.7818609E-02  0.8339467E-01
       -1   -1    0    0    0  501  0.00000000000E+00  0.00000000000E+00  0.85764056525E+03  0.85764056527E+03  0.50400001928E-02 0.  1.
        1   -1    0    0  501    0  0.00000000000E+00  0.00000000000E+00 -0.21034883881E+04  0.21034883881E+04  0.50400001928E-02 0. -1.
    10030    2    1    2    0    0  0.00000000000E+00  0.00000000000E+00 -0.12458478229E+04  0.29611289534E+04  0.26862888677E+04 0.  0.
        2    1    3    3  502    0 -0.44255357248E+03 -0.75612279776E+03  0.49930440037E+03  0.10084047967E+04  0.25500000920E-02 0.  1.
       -2    1    3    3    0  502  0.44255357248E+03  0.75612279776E+03 -0.17451522233E+04  0.19527241567E+04  0.25500000920E-02 0. -1.
</event>
<event>
 5   0  0.4401659E-06  0.2696519E+04  0.7818609E-02  0.8336135E-01
        2   -1    0    0  501    0  0.00000000000E+00  0.00000000000E+00  0.13789394350E+04  0.13789394350E+04  0.25500000920E-02 0. -1.
       -2   -1    0    0    0  501  0.00000000000E+00  0.00000000000E+00 -0.13182624524E+04  0.13182624524E+04  0.25500000920E-02 0.  1.
    10030    2    1    2    0    0  0.00000000000E+00  0.00000000000E+00  0.60676982618E+02  0.26972018874E+04  0.26965192982E+04 0.  0.
        5    1    3    3  502    0 -0.95823517298E+03 -0.26933027498E+03 -0.87930281378E+03  0.13281374071E+04  0.46999998093E+01 0.  1.
       -5    1    3    3    0  502  0.95823517298E+03  0.26933027498E+03  0.93997979639E+03  0.13690644804E+04  0.46999998093E+01 0. -1.
</event>
<event>
 5   0  0.1723605E-06  0.2700604E+04  0.7818609E-02  0.8334809E-01
       -1   -1    0    0    0  501  0.00000000000E+00  0.00000000000E+00  0.11381245411E+04  0.11381245412E+04  0.50400001928E-02 0. -1.
        1   -1    0    0  501    0  0.00000000000E+00  0.00000000000E+00 -0.16020347648E+04  0.16020347648E+04  0.50400001928E-02 0.  1.
    10030    2    1    2    0    0  0.00000000000E+00  0.00000000000E+00 -0.46391022369E+03  0.27401593060E+04  0.27006036967E+04 0.  0.
        1    1    3    3  502    0  0.25242385361E+03 -0.27658443359E+03  0.10843898004E+04  0.11472218573E+04  0.50400001928E-02 0. -1.
       -1    1    3    3    0  502 -0.25242385361E+03  0.27658443359E+03 -0.15483000241E+04  0.15929374487E+04  0.50400001928E-02 0.  1.
</event>
<event>
 5   0  0.4655882E-06  0.2702008E+04  0.7818609E-02  0.8334354E-01
        2   -1    0    0  501    0  0.00000000000E+00  0.00000000000E+00  0.18019717885E+04  0.18019717885E+04  0.25500000920E-02 0. -1.
       -2   -1    0    0    0  501  0.00000000000E+00  0.00000000000E+00 -0.10128972305E+04  0.10128972305E+04  0.25500000920E-02 0.  1.
    10030    2    1    2    0    0  0.00000000000E+00  0.00000000000E+00  0.78907455796E+03  0.28148690190E+04  0.27020083153E+04 0.  0.
        1    1    3    3  502    0 -0.10122907017E+04 -0.80275696125E+03  0.80608362001E+03  0.15228007112E+04  0.50400001928E-02 0.  1.
       -1    1    3    3    0  502  0.10122907017E+04  0.80275696125E+03 -0.17009062041E+02  0.12920683077E+04  0.50400001928E-02 0. -1.
</event>
<event>
 5   0  0.4448804E-06  0.2683429E+04  0.7818609E-02  0.8340402E-01
       -2   -1    0    0    0  501  0.00000000000E+00  0.00000000000E+00  0.12744693311E+04  0.12744693311E+04  0.25500000920E-02 0.  1.
        2   -1    0    0  501    0  0.00000000000E+00  0.00000000000E+00 -0.14125073958E+04  0.14125073958E+04  0.25500000920E-02 0. -1.
    10030    2    1    2    0    0  0.00000000000E+00  0.00000000000E+00 -0.13803806461E+03  0.26869767269E+04  0.26834286694E+04 0.  0.
        2    1    3    3  502    0  0.70536542502E+03 -0.11385209647E+04 -0.14929351738E+03  0.13476123049E+04  0.25500000920E-02 0.  1.
       -2    1    3    3    0  502 -0.70536542502E+03  0.11385209647E+04  0.11255452764E+02  0.13393644221E+04  0.25500000920E-02 0. -1.
</event>
<event>
 5   0  0.1482875E-06  0.2724055E+04  0.7818609E-02  0.8327242E-01
        3   -1    0    0  501    0  0.00000000000E+00  0.00000000000E+00  0.10847027295E+04  0.10847027342E+04  0.10100000352E+00 0.  1.
       -3   -1    0    0    0  501  0.00000000000E+00  0.00000000000E+00 -0.17102554882E+04  0.17102554912E+04  0.10100000352E+00 0. -1.
    10030    2    1    2    0    0  0.00000000000E+00  0.00000000000E+00 -0.62555275864E+03  0.27949582254E+04  0.27240549238E+04 0.  0.
        4    1    3    3  502    0  0.81014354500E+03  0.43778918023E+03  0.71690108220E+03  0.11670221525E+04  0.12699999809E+01 0.  1.
       -4    1    3    3    0  502 -0.81014354500E+03 -0.43778918023E+03 -0.13424538408E+04  0.16279360729E+04  0.12699999809E+01 0. -1.
</event>
<event>
 5   0  0.1753474E-06  0.2700298E+04  0.7818609E-02  0.8334908E-01
        1   -1    0    0  501    0  0.00000000000E+00  0.00000000000E+00  0.14512310318E+04  0.14512310318E+04  0.50400001928E-02 0.  1.
       -1   -1    0    0    0  501  0.00000000000E+00  0.00000000000E+00 -0.12561075002E+04  0.12561075002E+04  0.50400001928E-02 0. -1.
    10030    2    1    2    0    0  0.00000000000E+00  0.00000000000E+00  0.19512353163E+03  0.27073385320E+04  0.27002978974E+04 0.  0.
        3    1    3    3  502    0  0.12557388035E+04 -0.39213532240E+03 -0.20696050747E+03  0.13317217110E+04  0.10100000352E+00 0. -1.
       -3    1    3    3    0  502 -0.12557388035E+04  0.39213532240E+03  0.40208403910E+03  0.13756168211E+04  0.10100000352E+00 0.  1.
</event>
<event>
 5   0  0.4487186E-06  0.2705517E+04  0.7818609E-02  0.8333217E-01
       -2   -1    0    0    0  501  0.00000000000E+00  0.00000000000E+00  0.12318992017E+04  0.12318992017E+04  0.25500000920E-02 0.  1.
        2   -1    0    0  501    0  0.00000000000E+00  0.00000000000E+00 -0.14854750209E+04  0.14854750209E+04  0.25500000920E-02 0. -1.
    10030    2    1    2    0    0  0.00000000000E+00  0.00000000000E+00 -0.25357581912E+03  0.27173742226E+04  0.27055169505E+04 0.  0.
        3    1    3    3  502    0 -0.11673890260E+04 -0.56399768961E+03 -0.51456929858E+03  0.13948735087E+04  0.10100000352E+00 0. -1.
       -3    1    3    3    0  502  0.11673890260E+04  0.56399768961E+03  0.26099347945E+03  0.13225007140E+04  0.10100000352E+00 0.  1.
</event>
<event>
 5   0  0.4401659E-06  0.2699483E+04  0.7818609E-02  0.8335173E-01
       -2   -1    0    0    0  501  0.00000000000E+00  0.00000000000E+00  0.84244731600E+03  0.84244731600E+03  0.25500000920E-02 0.  1.
        2   -1    0    0  501    0  0.00000000000E+00  0.00000000000E+00 -0.21625109022E+04  0.21625109022E+04  0.25500000920E-02 0. -1.
    10030    2    1    2    0    0  0.00000000000E+00  0.00000000000E+00 -0.13200635862E+04  0.30049582182E+04  0.26994825470E+04 0.  0.
        5    1    3    3  502    0 -0.79909658866E+03 -0.79004818147E+03  0.17227307554E+03  0.11368516128E+04  0.46999998093E+01 0.  1.
       -5    1    3    3    0  502  0.79909658866E+03  0.79004818147E+03 -0.14923366618E+04  0.18681066054E+04  0.46999998093E+01 0. -1.
</event>
<event>
 5   0  0.1482875E-06  0.2707254E+04  0.7818609E-02  0.8332655E-01
       -3   -1    0    0    0  501  0.00000000000E+00  0.00000000000E+00  0.25627844695E+04  0.25627844715E+04  0.10100000352E+00 0. -1.
        3   -1    0    0  501    0  0.00000000000E+00  0.00000000000E+00 -0.71496707087E+03  0.71496707800E+03  0.10100000352E+00 0.  1.
    10030    2    1    2    0    0  0.00000000000E+00  0.00000000000E+00  0.18478173986E+04  0.32777515495E+04  0.27072543437E+04 0.  0.
        4    1    3    3  502    0 -0.53987651508E+03  0.96293051238E+03 -0.24489540167E+02  0.11042206182E+04  0.12699999809E+01 0.  1.
       -4    1    3    3    0  502  0.53987651508E+03 -0.96293051238E+03  0.18723069388E+04  0.21735309313E+04  0.12699999809E+01 0. -1.
</event>
<event>
 5   0  0.4655882E-06  0.2703541E+04  0.7818609E-02  0.8333857E-01
        2   -1    0    0  501    0  0.00000000000E+00  0.00000000000E+00  0.75624486549E+03  0.75624486549E+03  0.25500000920E-02 0.  1.
       -2   -1    0    0    0  501  0.00000000000E+00  0.00000000000E+00 -0.24162595284E+04  0.24162595284E+04  0.25500000920E-02 0. -1.
    10030    2    1    2    0    0  0.00000000000E+00  0.00000000000E+00 -0.16600146629E+04  0.31725043939E+04  0.27035412792E+04 0.  0.
        1    1    3    3  502    0 -0.35063414376E+03 -0.67272486776E+03  0.48289788008E+03  0.89927382542E+03  0.50400001928E-02 0.  1.
       -1    1    3    3    0  502  0.35063414376E+03  0.67272486776E+03 -0.21429125430E+04  0.22732305685E+04  0.50400001928E-02 0. -1.
</event>
<event>
 5   0  0.1723605E-06  0.2702461E+04  0.7818609E-02  0.8334207E-01
        1   -1    0    0  501    0  0.00000000000E+00  0.00000000000E+00  0.18479901704E+04  0.18479901704E+04  0.50400001928E-02 0.  1.
       -1   -1    0    0    0  501  0.00000000000E+00  0.00000000000E+00 -0.98800487092E+03  0.98800487093E+03  0.50400001928E-02 0. -1.
    10030    2    1    2    0    0  0.00000000000E+00  0.00000000000E+00  0.85998529943E+03  0.28359950413E+04  0.27024605749E+04 0.  0.
        1    1    3    3  502    0  0.73598612540E+03 -0.11173487318E+04  0.23176892652E+03  0.13578882872E+04  0.50400001928E-02 0. -1.
       -1    1    3    3    0  502 -0.73598612540E+03  0.11173487318E+04  0.62821637291E+03  0.14781067541E+04  0.50400001928E-02 0.  1.
</event>
<event>
 5   0  0.4487186E-06  0.2708924E+04  0.7818609E-02  0.8332115E-01
        2   -1    0    0  501    0  0.00000000000E+00  0.00000000000E+00  0.13918094208E+04  0.13918094208E+04  0.25500000920E-02 0.  1.
       -2   -1    0    0    0  501  0.00000000000E+00  0.00000000000E+00 -0.13181168583E+04  0.13181168583E+04  0.25500000920E-02 0. -1.
    10030    2    1    2    0    0  0.00000000000E+00  0.00000000000E+00  0.73692562520E+02  0.27099262790E+04  0.27089241119E+04 0.  0.
        3    1    3    3  502    0  0.59940175011E+02 -0.49818185801E+03 -0.12217087576E+04  0.13207385384E+04  0.10100000352E+00 0. -1.
       -3    1    3    3    0  502 -0.59940175011E+02  0.49818185801E+03  0.12954013201E+04  0.13891877406E+04  0.10100000352E+00 0.  1.
</event>
<event>
 5   0  0.4439357E-06  0.2704395E+04  0.7818609E-02  0.8333580E-01
       -2   -1    0    0    0  501  0.00000000000E+00  0.00000000000E+00  0.85764648077E+03  0.85764648077E+03  0.25500000920E-02 0.  1.
        2   -1    0    0  501    0  0.00000000000E+00  0.00000000000E+00 -0.21319244666E+04  0.21319244666E+04  0.25500000920E-02 0. -1.
    10030    2    1    2    0    0  0.00000000000E+00  0.00000000000E+00 -0.12742779858E+04  0.29895709473E+04  0.27043945836E+04 0.  0.
        4    1    3    3  502    0 -0.62932886396E+03  0.90156471902E+03 -0.15072631840E+04  0.18656681592E+04  0.12699999809E+01 0. -1.
       -4    1    3    3    0  502  0.62932886396E+03 -0.90156471902E+03  0.23298519823E+03  0.11239027881E+04  0.12699999809E+01 0.  1.
</event>
<event>
 5   0  0.4448804E-06  0.2706552E+04  0.7818609E-02  0.8332882E-01
        2   -1    0    0  501    0  0.00000000000E+00  0.00000000000E+00  0.18898666283E+04  0.18898666283E+04  0.25500000920E-02 0. -1.
       -2   -1    0    0    0  501  0.00000000000E+00  0.00000000000E+00 -0.96903984362E+03  0.96903984363E+03  0.25500000920E-02 0.  1.
    10030    2    1    2    0    0  0.00000000000E+00  0.00000000000E+00  0.92082678464E+03  0.28589064719E+04  0.27065520959E+04 0.  0.
        2    1    3    3  502    0 -0.22180024866E+03 -0.96937883049E+02 -0.94598703369E+03  0.97646493607E+03  0.25500000920E-02 0.  1.
       -2    1    3    3    0  502  0.22180024866E+03  0.96937883049E+02  0.18668138183E+04  0.18824415358E+04  0.25500000920E-02 0. -1.
</event>
<event>
 5   0  0.4448804E-06  0.2689342E+04  0.7818609E-02  0.8338471E-01
       -2   -1    0    0    0  501  0.00000000000E+00  0.00000000000E+00  0.95589312756E+03  0.95589312756E+03  0.25500000920E-02 0.  1.
        2   -1    0    0  501    0  0.00000000000E+00  0.00000000000E+00 -0.18915716830E+04  0.18915716830E+04  0.25500000920E-02 0. -1.
    10030    2    1    2    0    0  0.00000000000E+00  0.00000000000E+00 -0.93567855545E+03  0.28474648106E+04  0.26893422036E+04 0.  0.
        2    1    3    3  502    0 -0.48216769543E+03 -0.23507309303E+03  0.83770186115E+03  0.99473084489E+03  0.25500000920E-02 0.  1.
       -2    1    3    3    0  502  0.48216769543E+03  0.23507309303E+03 -0.17733804166E+04  0.18527339657E+04  0.25500000920E-02 0. -1.
</event>
<event>
 5   0  0.4655882E-06  0.2702070E+04  0.7818609E-02  0.8334334E-01
        2   -1    0    0  501    0  0.00000000000E+00  0.00000000000E+00  0.15942617110E+04  0.15942617110E+04  0.25500000920E-02 0.  1.
       -2   -1    0    0    0  501  0.00000000000E+00  0.00000000000E+00 -0.11449160861E+04  0.11449160861E+04  0.25500000920E-02 0. -1.
    10030    2    1    2    0    0  0.00000000000E+00  0.00000000000E+00  0.44934562489E+03  0.27391777971E+04  0.27020702273E+04 0.  0.
        1    1    3    3  502    0 -0.34613515790E+03 -0.73511387145E+03 -0.86954570420E+03  0.11900889392E+04  0.50400001928E-02 0. -1.
       -1    1    3    3    0  502  0.34613515790E+03  0.73511387145E+03  0.13188913291E+04  0.15490888578E+04  0.50400001928E-02 0.  1.
</event>
<event>
 5   0  0.1482875E-06  0.2693860E+04  0.7818609E-02  0.8337000E-01
       -3   -1    0    0    0  501  0.00000000000E+00  0.00000000000E+00  0.14069644831E+04  0.14069644867E+04  0.10100000352E+00 0. -1.
        3   -1    0    0  501    0  0.00000000000E+00  0.00000000000E+00 -0.12894567048E+04  0.12894567088E+04  0.10100000352E+00 0.  1.
    10030    2    1    2    0    0  0.00000000000E+00  0.00000000000E+00  0.11750777827E+03  0.26964211954E+04  0.26938595333E+04 0.  0.
        4    1    3    3  502    0 -0.13056554343E+04 -0.49238780932E+02 -0.26875384714E+03  0.13339380848E+04  0.12699999809E+01 0.  1.
       -4    1    3    3    0  502  0.13056554343E+04  0.49238780932E+02  0.38626162540E+03  0.13624831107E+04  0.12699999809E+01 0. -1.
</event>
<event>
 5   0  0.1723605E-06  0.2703757E+04  0.7818609E-02  0.8333787E-01
        1   -1    0    0  501    0  0.00000000000E+00  0.00000000000E+00  0.24372458188E+04  0.24372458188E+04  0.50400001928E-02 0.  1.
       -1   -1    0    0    0  501  0.00000000000E+00  0.00000000000E+00 -0.74985278128E+03  0.74985278130E+03  0.50400001928E-02 0. -1.
    10030    2    1    2    0    0  0.00000000000E+00  0.00000000000E+00  0.16873930375E+04  0.31870986001E+04  0.27037570571E+04 0.  0.
        1    1    3    3  502    0  0.10500377105E+04  0.34138105682E+03  0.17631763040E+04  0.20803631651E+04  0.50400001928E-02 0.  1.
       -1    1    3    3    0  502 -0.10500377105E+04 -0.34138105682E+03 -0.75783266546E+02  0.11067354350E+04  0.50400001928E-02 0. -1.
</event>
<event>
 5   0  0.4655882E-06  0.2679172E+04  0.7818609E-02  0.8341795E-01
        2   -1    0    0  501    0  0.00000000000E+00  0.00000000000E+00  0.26525314752E+04  0.26525314752E+04  0.25500000920E-02 0.  1.
       -2   -1    0    0    0  501  0.00000000000E+00  0.00000000000E+00 -0.67652019021E+03  0.67652019021E+03  0.25500000920E-02 0. -1.
    10030    2    1    2    0    0  0.00000000000E+00  0.00000000000E+00  0.19760112850E+04  0.33290516654E+04  0.26791723335E+04 0.  0.
        1    1    3    3  502    0  0.80400086085E+03  0.58948122726E+03  0.20997982235E+04  0.23244479089E+04  0.50400001928E-02 0.  1.
       -1    1    3    3    0  502 -0.80400086085E+03 -0.58948122726E+03 -0.12378693850E+03  0.10046037566E+04  0.50400001928E-02 0. -1.
</event>
<event>
 5   0  0.1771016E-06  0.2524389E+04  0.7818609E-02  0.8394348E-01
       -1   -1    0    0    0  501  0.00000000000E+00  0.00000000000E+00  0.15232621194E+04  0.15232621194E+04  0.50400001928E-02 0. -1.
        1   -1    0    0  501    0  0.00000000000E+00  0.00000000000E+00 -0.10458703912E+04  0.10458703912E+04  0.50400001928E-02 0.  1.
    10030    2    1    2    0    0  0.00000000000E+00  0.00000000000E+00  0.47739172823E+03  0.25691325106E+04  0.25243888359E+04 0.  0.
        2    1    3    3  502    0 -0.97347760432E+03  0.71726013189E+03 -0.12967826046E+03  0.12161156171E+04  0.25500000920E-02 0.  1.
       -2    1    3    3    0  502  0.97347760432E+03 -0.71726013189E+03  0.60706998870E+03  0.13530168935E+04  0.25500000920E-02 0. -1.
</event>
<event>
 5   0  0.1732312E-06  0.2698564E+04  0.7818609E-02  0.8335471E-01
        1   -1    0    0  501    0  0.00000000000E+00  0.00000000000E+00  0.21027498186E+04  0.21027498186E+04  0.50400001928E-02 0.  1.
       -1   -1    0    0    0  501  0.00000000000E+00  0.00000000000E+00 -0.86580046427E+03  0.86580046429E+03  0.50400001928E-02 0. -1.
    10030    2    1    2    0    0  0.00000000000E+00  0.00000000000E+00  0.12369493543E+04  0.29685502829E+04  0.26985638916E+04 0.  0.
        5    1    3    3  502    0 -0.90229948116E+02  0.13016924794E+04  0.24060384632E+03  0.13268221642E+04  0.46999998093E+01 0.  1.
       -5    1    3    3    0  502  0.90229948116E+02 -0.13016924794E+04  0.99634550799E+03  0.16417281187E+04  0.46999998093E+01 0. -1.
</event>
<event>
 5   0  0.1828511E-06  0.2695346E+04  0.7818609E-02  0.8336517E-01
        1   -1    0    0  501    0  0.00000000000E+00  0.00000000000E+00  0.22475138818E+04  0.22475138818E+04  0.50400001928E-02 0. -1.
       -1   -1    0    0    0  501  0.00000000000E+00  0.00000000000E+00 -0.80810307780E+03  0.80810307781E+03  0.50400001928E-02 0.  1.
    10030    2    1    2    0    0  0.00000000000E+00  0.00000000000E+00  0.14394108040E+04  0.30556169596E+04  0.26953462748E+04 0.  0.
        4    1    3    3  502    0 -0.21086933809E+03  0.13306512752E+04  0.68172210332E+03  0.15099156709E+04  0.12699999809E+01 0. -1.
       -4    1    3    3    0  502  0.21086933809E+03 -0.13306512752E+04  0.75768870069E+03  0.15457012888E+04  0.12699999809E+01 0.  1.
</event>
<event>
 5   0  0.4655882E-06  0.2696336E+04  0.7818609E-02  0.8336195E-01
        2   -1    0    0  501    0  0.00000000000E+00  0.00000000000E+00  0.11774730118E+04  0.11774730119E+04  0.25500000920E-02 0.  1.
       -2   -1    0    0    0  501  0.00000000000E+00  0.00000000000E+00 -0.15436086543E+04  0.15436086543E+04  0.25500000920E-02 0. -1.
    10030    2    1    2    0    0  0.00000000000E+00  0.00000000000E+00 -0.36613564240E+03  0.27210816661E+04  0.26963364265E+04 0.  0.
        1    1    3    3  502    0  0.11573517967E+04 -0.33808684708E+03  0.42561893268E+03  0.12786388753E+04  0.50400001928E-02 0.  1.
       -1    1    3    3    0  502 -0.11573517967E+04  0.33808684708E+03 -0.79175457508E+03  0.14424427908E+04  0.50400001928E-02 0. -1.
</event>
<event>
 5   0  0.1771016E-06  0.2699081E+04  0.7818609E-02  0.8335303E-01
       -1   -1    0    0    0  501  0.00000000000E+00  0.00000000000E+00  0.94048929193E+03  0.94048929195E+03  0.50400001928E-02 0. -1.
        1   -1    0    0  501    0  0.00000000000E+00  0.00000000000E+00 -0.19365020316E+04  0.19365020316E+04  0.50400001928E-02 0.  1.
    10030    2    1    2    0    0  0.00000000000E+00  0.00000000000E+00 -0.99601273966E+03  0.28769913235E+04  0.26990808988E+04 0.  0.
        2    1    3    3  502    0 -0.37132839552E+03  0.46290142194E+03  0.79395008069E+03  0.99122108250E+03  0.25500000920E-02 0. -1.
       -2    1    3    3    0  502  0.37132839552E+03 -0.46290142194E+03 -0.17899628203E+04  0.18857702410E+04  0.25500000920E-02 0.  1.
</event>
<event>
 5   0  0.1732312E-06  0.2708726E+04  0.7818609E-02  0.8332179E-01
       -1   -1    0    0    0  501  0.00000000000E+00  0.00000000000E+00  0.90344507072E+03  0.90344507074E+03  0.50400001928E-02 0.  1.
        1   -1    0    0  501    0  0.00000000000E+00  0.00000000000E+00 -0.20303381410E+04  0.20303381410E+04  0.50400001928E-02 0. -1.
    10030    2    1    2    0    0  0.00000000000E+00  0.00000000000E+00 -0.11268930703E+04  0.29337832118E+04  0.27087258890E+04 0.  0.
        5    1    3    3  502    0 -0.52678365767E+02 -0.13330690891E+04 -0.81613004300E+03  0.15639496614E+04  0.46999998093E+01 0.  1.
       -5    1    3    3    0  502  0.52678365767E+02  0.13330690891E+04 -0.31076302730E+03  0.13698335503E+04  0.46999998093E+01 0. -1.
</event>
<event>
 5   0  0.1732312E-06  0.2690208E+04  0.7818609E-02  0.8338189E-01
        1   -1    0    0  501    0  0.00000000000E+00  0.00000000000E+00  0.20742355925E+04  0.20742355925E+04  0.50400001928E-02 0.  1.
       -1   -1    0    0    0  501  0.00000000000E+00  0.00000000000E+00 -0.87227572099E+03  0.87227572100E+03  0.50400001928E-02 0. -1.
    10030    2    1    2    0    0  0.00000000000E+00  0.00000000000E+00  0.12019598715E+04  0.29465113135E+04  0.26902084283E+04 0.  0.
        5    1    3    3  502    0  0.10241757807E+04  0.37658613379E+03 -0.26041558144E+03  0.11218696497E+04  0.46999998093E+01 0. -1.
       -5    1    3    3    0  502 -0.10241757807E+04 -0.37658613379E+03  0.14623754529E+04  0.18246416638E+04  0.46999998093E+01 0.  1.
</event>
<event>
 5   0  0.4655882E-06  0.2741252E+04  0.7818609E-02  0.8321743E-01
       -2   -1    0    0    0  501  0.00000000000E+00  0.00000000000E+00  0.15401203442E+04  0.15401203442E+04  0.25500000920E-02 0. -1.
        2   -1    0    0  501    0  0.00000000000E+00  0.00000000000E+00 -0.12197850782E+04  0.12197850782E+04  0.25500000920E-02 0.  1.
    10030    2    1    2    0    0  0.00000000000E+00  0.00000000000E+00  0.32033526601E+03  0.27599054224E+04  0.27412521332E+04 0.  0.
        1    1    3    3  502    0  0.52202504900E+03  0.30982729721E+03 -0.10770608178E+04  0.12363507233E+04  0.50400001928E-02 0.  1.
       -1    1    3    3    0  502 -0.52202504900E+03 -0.30982729721E+03  0.13973960838E+04  0.15235546990E+04  0.50400001928E-02 0. -1.
</event>
<event>
 5   0  0.1732312E-06  0.2697566E+04  0.7818609E-02  0.8335795E-01
       -1   -1    0    0    0  501  0.00000000000E+00  0.00000000000E+00  0.97450874886E+03  0.97450874887E+03  0.50400001928E-02 0.  1.
        1   -1    0    0  501    0  0.00000000000E+00  0.00000000000E+00 -0.18668031351E+04  0.18668031351E+04  0.50400001928E-02 0. -1.
    10030    2    1    2    0    0  0.00000000000E+00  0.00000000000E+00 -0.89229438626E+03  0.28413118840E+04  0.26975663014E+04 0.  0.
        5    1    3    3  502    0 -0.66084210131E+03 -0.18397464760E+03 -0.16693373687E+04  0.18047903741E+04  0.46999998093E+01 0. -1.
       -5    1    3    3    0  502  0.66084210131E+03  0.18397464760E+03  0.77704298248E+03  0.10365215099E+04  0.46999998093E+01 0.  1.
</event>
<event>
 5   0  0.4448804E-06  0.2702471E+04  0.7818609E-02  0.8334204E-01
        2   -1    0    0  501    0  0.00000000000E+00  0.00000000000E+00  0.15944790570E+04  0.15944790570E+04  0.25500000920E-02 0. -1.
       -2   -1    0    0    0  501  0.00000000000E+00  0.00000000000E+00 -0.11450999655E+04  0.11450999655E+04  0.25500000920E-02 0.  1.
    10030    2    1    2    0    0  0.00000000000E+00  0.00000000000E+00  0.44937909143E+03  0.27395790225E+04  0.27024713972E+04 0.  0.
        2    1    3    3  502    0  0.79220949182E+03 -0.51407075698E+02  0.13331381491E+04  0.15516107408E+04  0.25500000920E-02 0. -1.
       -2    1    3    3    0  502 -0.79220949182E+03  0.51407075698E+02 -0.88375905766E+03  0.11879682817E+04  0.25500000920E-02 0.  1.
</event>
<event>
 5   0  0.1771016E-06  0.2686582E+04  0.7818609E-02  0.8339372E-01
        1   -1    0    0  501    0  0.00000000000E+00  0.00000000000E+00  0.12646670875E+04  0.12646670875E+04  0.50400001928E-02 0.  1.
       -1   -1    0    0    0  501  0.00000000000E+00  0.00000000000E+00 -0.14268024846E+04  0.14268024846E+04  0.50400001928E-02 0. -1.
    10030    2    1    2    0    0  0.00000000000E+00  0.00000000000E+00 -0.16213539709E+03  0.26914695722E+04  0.26865815772E+04 0.  0.
        2    1    3    3  502    0 -0.54111544333E+03  0.65816253472E+03 -0.11214398150E+04  0.14084072933E+04  0.25500000920E-02 0. -1.
       -2    1    3    3    0  502  0.54111544333E+03 -0.65816253472E+03  0.95930441795E+03  0.12830622789E+04  0.25500000920E-02 0.  1.
</event>
<event>
 5   0  0.4401659E-06  0.2623984E+04  0.7818609E-02  0.8360100E-01
        2   -1    0    0  501    0  0.00000000000E+00  0.00000000000E+00  0.33790739253E+04  0.33790739253E+04  0.25500000920E-02 0. -1.
       -2   -1    0    0    0  501  0.00000000000E+00  0.00000000000E+00 -0.50940680634E+03  0.50940680635E+03  0.25500000920E-02 0.  1.
    10030    2    1    2    0    0  0.00000000000E+00  0.00000000000E+00  0.28696671190E+04  0.38884807317E+04  0.26239841895E+04 0.  0.
        5    1    3    3  502    0 -0.28701215646E+03 -0.78531183704E+03  0.29330995026E+04  0.30499484326E+04  0.46999998093E+01 0. -1.
       -5    1    3    3    0  502  0.28701215646E+03  0.78531183704E+03 -0.63432383596E+02  0.83853229910E+03  0.46999998093E+01 0.  1.
</event>
<event>
 5   0  0.4439357E-06  0.2712892E+04  0.7818609E-02  0.8330834E-01
        2   -1    0    0  501    0  0.00000000000E+00  0.00000000000E+00  0.21115744835E+04  0.21115744835E+04  0.25500000920E-02 0.  1.
       -2   -1    0    0    0  501  0.00000000000E+00  0.00000000000E+00 -0.87136199885E+03  0.87136199885E+03  0.25500000920E-02 0. -1.
    10030    2    1    2    0    0  0.00000000000E+00  0.00000000000E+00  0.12402124846E+04  0.29829364823E+04  0.27128920086E+04 0.  0.
        4    1    3    3  502    0 -0.15212269480E+03 -0.94461738684E+03  0.16773257101E+04  0.19310273101E+04  0.12699999809E+01 0.  1.
       -4    1    3    3    0  502  0.15212269480E+03  0.94461738684E+03 -0.43711322546E+03  0.10519091722E+04  0.12699999809E+01 0. -1.
</event>
<event>
 5   0  0.4439357E-06  0.2714314E+04  0.7818609E-02  0.8330375E-01
       -2   -1    0    0    0  501  0.00000000000E+00  0.00000000000E+00  0.66217266366E+03  0.66217266366E+03  0.25500000920E-02 0.  1.
        2   -1    0    0  501    0  0.00000000000E+00  0.00000000000E+00 -0.27815639958E+04  0.27815639958E+04  0.25500000920E-02 0. -1.
    10030    2    1    2    0    0  0.00000000000E+00  0.00000000000E+00 -0.21193913321E+04  0.34437366594E+04  0.27143143814E+04 0.  0.
        4    1    3    3  502    0  0.62461804959E+03 -0.66754416167E+03 -0.23322981271E+04  0.25050706741E+04  0.12699999809E+01 0. -1.
       -4    1    3    3    0  502 -0.62461804959E+03  0.66754416167E+03  0.21290679505E+03  0.93866598528E+03  0.12699999809E+01 0.  1.
</event>
<event>
 5   0  0.1482875E-06  0.2694880E+04  0.7818609E-02  0.8336668E-01
        3   -1    0    0  501    0  0.00000000000E+00  0.00000000000E+00  0.15540619095E+04  0.15540619128E+04  0.10100000352E+00 0.  1.
       -3   -1    0    0    0  501  0.00000000000E+00  0.00000000000E+00 -0.11682893568E+04  0.11682893612E+04  0.10100000352E+00 0. -1.
    10030    2    1    2    0    0  0.00000000000E+00  0.00000000000E+00  0.38577255273E+03  0.27223512740E+04  0.26948795885E+04 0.  0.
        1    1    3    3  502    0 -0.50698670081E+03 -0.74318688765E+03 -0.82045049625E+03  0.12175800925E+04  0.50400001928E-02 0. -1.
       -1    1    3    3    0  502  0.50698670081E+03  0.74318688765E+03  0.12062230490E+04  0.15047711815E+04  0.50400001928E-02 0.  1.
</event>
<event>
 5   0  0.1482875E-06  0.2700928E+04  0.7818609E-02  0.8334704E-01
        3   -1    0    0  501    0  0.00000000000E+00  0.00000000000E+00  0.78543403037E+03  0.78543403687E+03  0.10100000352E+00 0. -1.
       -3   -1    0    0    0  501  0.00000000000E+00  0.00000000000E+00 -0.23219692388E+04  0.23219692409E+04  0.10100000352E+00 0.  1.
    10030    2    1    2    0    0  0.00000000000E+00  0.00000000000E+00 -0.15365352084E+04  0.31074032778E+04  0.27009284856E+04 0.  0.
        2    1    3    3  502    0 -0.11097092609E+04  0.33295815654E+03 -0.15665465394E+04  0.19484311221E+04  0.25500000920E-02 0.  1.
       -2    1    3    3    0  502  0.11097092609E+04 -0.33295815654E+03  0.30011330985E+02  0.11589721557E+04  0.25500000920E-02 0. -1.
</event>
<event>
 5   0  0.4655882E-06  0.2703991E+04  0.7818609E-02  0.8333711E-01
       -2   -1    0    0    0  501  0.00000000000E+00  0.00000000000E+00  0.10528713030E+04  0.10528713030E+04  0.25500000920E-02 0. -1.
        2   -1    0    0  501    0  0.00000000000E+00  0.00000000000E+00 -0.17361012763E+04  0.17361012763E+04  0.25500000920E-02 0.  1.
    10030    2    1    2    0    0  0.00000000000E+00  0.00000000000E+00 -0.68322997331E+03  0.27889725793E+04  0.27039905420E+04 0.  0.
        1    1    3    3  502    0 -0.27099102664E+03  0.18840939654E+03 -0.16939104140E+04  0.17257655484E+04  0.50400001928E-02 0.  1.
       -1    1    3    3    0  502  0.27099102664E+03 -0.18840939654E+03  0.10106804407E+04  0.10632070309E+04  0.50400001928E-02 0. -1.
</event>
<event>
 5   0  0.4401659E-06  0.2707106E+04  0.7818609E-02  0.8332703E-01
        2   -1    0    0  501    0  0.00000000000E+00  0.00000000000E+00  0.26737087798E+04  0.26737087798E+04  0.25500000920E-02 0. -1.
       -2   -1    0    0    0  501  0.00000000000E+00  0.00000000000E+00 -0.68523031148E+03  0.68523031149E+03  0.25500000920E-02 0.  1.
    10030    2    1    2    0    0  0.00000000000E+00  0.00000000000E+00  0.19884784683E+04  0.33589390913E+04  0.27071064257E+04 0.  0.
        5    1    3    3  502    0 -0.10207266273E+04 -0.55730169558E+03  0.13494140825E+03  0.11707686796E+04  0.46999998093E+01 0.  1.
       -5    1    3    3    0  502  0.10207266273E+04  0.55730169558E+03  0.18535370601E+04  0.21881704117E+04  0.46999998093E+01 0. -1.
</event>
<event>
 5   0  0.1732312E-06  0.2695798E+04  0.7818609E-02  0.8336370E-01
       -1   -1    0    0    0  501  0.00000000000E+00  0.00000000000E+00  0.21506845283E+04  0.21506845283E+04  0.50400001928E-02 0.  1.
        1   -1    0    0  501    0  0.00000000000E+00  0.00000000000E+00 -0.84476932064E+03  0.84476932066E+03  0.50400001928E-02 0. -1.
    10030    2    1    2    0    0  0.00000000000E+00  0.00000000000E+00  0.13059152076E+04  0.29954538489E+04  0.26957984404E+04 0.  0.
        5    1    3    3  502    0  0.11392932855E+04  0.51533027212E+03  0.12121417657E+04  0.17415120527E+04  0.46999998093E+01 0.  1.
       -5    1    3    3    0  502 -0.11392932855E+04 -0.51533027212E+03  0.93773441957E+02  0.12539417962E+04  0.46999998093E+01 0. -1.
</event>
<event>
 5   0  0.4439357E-06  0.2700887E+04  0.7818609E-02  0.8334717E-01
       -2   -1    0    0    0  501  0.00000000000E+00  0.00000000000E+00  0.10982391667E+04  0.10982391667E+04  0.25500000920E-02 0. -1.
        2   -1    0    0  501    0  0.00000000000E+00  0.00000000000E+00 -0.16605645442E+04  0.16605645442E+04  0.25500000920E-02 0.  1.
    10030    2    1    2    0    0  0.00000000000E+00  0.00000000000E+00 -0.56232537746E+03  0.27588037109E+04  0.27008865369E+04 0.  0.
        4    1    3    3  502    0 -0.99653819891E+03  0.78962304296E+03 -0.74600655808E+03  0.14741507146E+04  0.12699999809E+01 0.  1.
       -4    1    3    3    0  502  0.99653819891E+03 -0.78962304296E+03  0.18368118062E+03  0.12846529963E+04  0.12699999809E+01 0. -1.
</event>
<event>
 5   0  0.4655882E-06  0.2704250E+04  0.7818609E-02  0.8333627E-01
        2   -1    0    0  501    0  0.00000000000E+00  0.00000000000E+00  0.15936485261E+04  0.15936485261E+04  0.25500000920E-02 0.  1.
       -2   -1    0    0    0  501  0.00000000000E+00  0.00000000000E+00 -0.11472050059E+04  0.11472050059E+04  0.25500000920E-02 0. -1.
    10030    2    1    2    0    0  0.00000000000E+00  0.00000000000E+00  0.44644352022E+03  0.27408535320E+04  0.27042496680E+04 0.  0.
        1    1    3    3  502    0  0.12282979757E+04  0.53681115047E+03  0.40270470244E+03  0.13996618184E+04  0.50400001928E-02 0.  1.
       -1    1    3    3    0  502 -0.12282979757E+04 -0.53681115047E+03  0.43738817781E+02  0.13411917136E+04  0.50400001928E-02 0. -1.
</event>
<event>
 5   0  0.1753474E-06  0.2702865E+04  0.7818609E-02  0.8334076E-01
       -1   -1    0    0    0  501  0.00000000000E+00  0.00000000000E+00  0.18364606731E+04  0.18364606731E+04  0.50400001928E-02 0.  1.
        1   -1    0    0  501    0  0.00000000000E+00  0.00000000000E+00 -0.99450555389E+03  0.99450555390E+03  0.50400001928E-02 0. -1.
    10030    2    1    2    0    0  0.00000000000E+00  0.00000000000E+00  0.84195511916E+03  0.28309662270E+04  0.27028653972E+04 0.  0.
        3    1    3    3  502    0 -0.85131605434E+03 -0.10007050065E+04  0.89396900700E+02  0.13168680080E+04  0.10100000352E+00 0. -1.
       -3    1    3    3    0  502  0.85131605434E+03  0.10007050065E+04  0.75255821846E+03  0.15140982190E+04  0.10100000352E+00 0.  1.
</event>
<event>
 5   0  0.4487186E-06  0.2729711E+04  0.7818609E-02  0.8325429E-01
       -2   -1    0    0    0  501  0.00000000000E+00  0.00000000000E+00  0.10194738583E+04  0.10194738583E+04  0.25500000920E-02 0.  1.
        2   -1    0    0  501    0  0.00000000000E+00  0.00000000000E+00 -0.18272473332E+04  0.18272473332E+04  0.25500000920E-02 0. -1.
    10030    2    1    2    0    0  0.00000000000E+00  0.00000000000E+00 -0.80777347495E+03  0.28467211915E+04  0.27297112586E+04 0.  0.
        3    1    3    3  502    0 -0.70045173679E+03 -0.26996903727E+03  0.78484933889E+03  0.10860499121E+04  0.10100000352E+00 0.  1.
       -3    1    3    3    0  502  0.70045173679E+03  0.26996903727E+03 -0.15926228138E+04  0.17606712794E+04  0.10100000352E+00 0. -1.
</event>
<event>
 5   0  0.1753474E-06  0.2685280E+04  0.7818609E-02  0.8339797E-01
        1   -1    0    0  501    0  0.00000000000E+00  0.00000000000E+00  0.14432316403E+04  0.14432316403E+04  0.50400001928E-02 0. -1.
       -1   -1    0    0    0  501  0.00000000000E+00  0.00000000000E+00 -0.12490597472E+04  0.12490597472E+04  0.50400001928E-02 0.  1.
    10030    2    1    2    0    0  0.00000000000E+00  0.00000000000E+00  0.19417189312E+03  0.26922913874E+04  0.26852802816E+04 0.  0.
        3    1    3    3  502    0  0.50885648530E+03  0.40277138784E+03  0.12755367892E+04  0.14311372485E+04  0.10100000352E+00 0. -1.
       -3    1    3    3    0  502 -0.50885648530E+03 -0.40277138784E+03 -0.10813648960E+04  0.12611541389E+04  0.10100000352E+00 0.  1.
</event>
<event>
 5   0  0.1732312E-06  0.2700003E+04  0.7818609E-02  0.8335004E-01
        1   -1    0    0  501    0  0.00000000000E+00  0.00000000000E+00  0.20121516775E+04  0.20121516775E+04  0.50400001928E-02 0.  1.
       -1   -1    0    0    0  501  0.00000000000E+00  0.00000000000E+00 -0.90574888351E+03  0.90574888353E+03  0.50400001928E-02 0. -1.
    10030    2    1    2    0    0  0.00000000000E+00  0.00000000000E+00  0.11064027940E+04  0.29179005610E+04  0.27000030632E+04 0.  0.
        5    1    3    3  502    0  0.11990880769E+04 -0.16457828450E+03 -0.93040571845E+02  0.12139097437E+04  0.46999998093E+01 0. -1.
       -5    1    3    3    0  502 -0.11990880769E+04  0.16457828450E+03  0.11994433658E+04  0.17039908173E+04  0.46999998093E+01 0.  1.
</event>
<event>
 5   0  0.1723605E-06  0.2705369E+04  0.7818609E-02  0.8333265E-01
       -1   -1    0    0    0  501  0.00000000000E+00  0.00000000000E+00  0.88970840614E+03  0.88970840616E+03  0.50400001928E-02 0.  1.
        1   -1    0    0  501    0  0.00000000000E+00  0.00000000000E+00 -0.20565791457E+04  0.20565791457E+04  0.50400001928E-02 0. -1.
    10030    2    1    2    0    0  0.00000000000E+00  0.00000000000E+00 -0.11668707395E+04  0.29462875519E+04  0.27053692937E+04 0.  0.
        1    1    3    3  502    0  0.12449807069E+04  0.36931556631E+03 -0.17105295193E+03  0.13098206215E+04  0.50400001928E-02 0.  1.
       -1    1    3    3    0  502 -0.12449807069E+04 -0.36931556631E+03 -0.99581778761E+03  0.16364669304E+04  0.50400001928E-02 0. -1.
</event>
<event>
 5   0  0.1723605E-06  0.2725810E+04  0.7818609E-02  0.8326679E-01
        1   -1    0    0  501    0  0.00000000000E+00  0.00000000000E+00  0.22718284973E+04  0.22718284973E+04  0.50400001928E-02 0.  1.
       -1   -1    0    0    0  501  0.00000000000E+00  0.00000000000E+00 -0.81762774263E+03  0.81762774264E+03  0.50400001928E-02 0. -1.
    10030    2    1    2    0    0  0.00000000000E+00  0.00000000000E+00  0.14542007546E+04  0.30894562399E+04  0.27258099757E+04 0.  0.
        1    1    3    3  502    0 -0.82712344441E+03  0.73104144181E+03 -0.17888603451E+03  0.11182821627E+04  0.50400001928E-02 0.  1.
       -1    1    3    3    0  502  0.82712344441E+03 -0.73104144181E+03  0.16330867891E+04  0.19711740772E+04  0.50400001928E-02 0. -1.
</event>
<event>
 5   0  0.4487186E-06  0.2708394E+04  0.7818609E-02  0.8332287E-01
        2   -1    0    0  501    0  0.00000000000E+00  0.00000000000E+00  0.21766939318E+04  0.21766939318E+04  0.25500000920E-02 0. -1.
       -2   -1    0    0    0  501  0.00000000000E+00  0.00000000000E+00 -0.84249282071E+03  0.84249282072E+03  0.25500000920E-02 0.  1.
    10030    2    1    2    0    0  0.00000000000E+00  0.00000000000E+00  0.13342011111E+04  0.30191867526E+04  0.27083936276E+04 0.  0.
        3    1    3    3  502    0  0.25418551889E+03  0.65490892222E+03  0.19576794344E+04  0.20799097943E+04  0.10100000352E+00 0. -1.
       -3    1    3    3    0  502 -0.25418551889E+03 -0.65490892222E+03 -0.62347832330E+03  0.93927695822E+03  0.10100000352E+00 0.  1.
</event>
<event>
 5   0  0.1723605E-06  0.2700295E+04  0.7818609E-02  0.8334909E-01
       -1   -1    0    0    0  501  0.00000000000E+00  0.00000000000E+00  0.17464509583E+04  0.17464509584E+04  0.50400001928E-02 0. -1.
        1   -1    0    0  501    0  0.00000000000E+00  0.00000000000E+00 -0.10437728037E+04  0.10437728038E+04  0.50400001928E-02 0.  1.
    10030    2    1    2    0    0  0.00000000000E+00  0.00000000000E+00  0.70267815461E+03  0.27902237621E+04  0.27002948087E+04 0.  0.
        1    1    3    3  502    0 -0.35848171705E+03 -0.11208838550E+04 -0.33252375319E+03  0.12228907573E+04  0.50400001928E-02 0.  1.
       -1    1    3    3    0  502  0.35848171705E+03  0.11208838550E+04  0.10352019078E+04  0.15673330048E+04  0.50400001928E-02 0. -1.
</event>
<event>
 5   0  0.1771016E-06  0.2706440E+04  0.7818609E-02  0.8332918E-01
        1   -1    0    0  501    0  0.00000000000E+00  0.00000000000E+00  0.18359335692E+04  0.18359335692E+04  0.50400001928E-02 0.  1.
       -1   -1    0    0    0  501  0.00000000000E+00  0.00000000000E+00 -0.99742444510E+03  0.99742444511E+03  0.50400001928E-02 0. -1.
    10030    2    1    2    0    0  0.00000000000E+00  0.00000000000E+00  0.83850912413E+03  0.28333580143E+04  0.27064404827E+04 0.  0.
        2    1    3    3  502    0  0.35652520058E+03  0.10049263890E+04 -0.45301522847E+03  0.11585378989E+04  0.25500000920E-02 0. -1.
       -2    1    3    3    0  502 -0.35652520058E+03 -0.10049263890E+04  0.12915243526E+04  0.16748201155E+04  0.25500000920E-02 0.  1.
</event>
<event>
 5   0  0.1732312E-06  0.2701607E+04  0.7818609E-02  0.8334484E-01
        1   -1    0    0  501    0  0.00000000000E+00  0.00000000000E+00  0.19543794364E+04  0.19543794364E+04  0.50400001928E-02 0. -1.
       -1   -1    0    0    0  501  0.00000000000E+00  0.00000000000E+00 -0.93363113843E+03  0.93363113845E+03  0.50400001928E-02 0.  1.
    10030    2    1    2    0    0  0.00000000000E+00  0.00000000000E+00  0.10207482979E+04  0.28880105748E+04  0.27016065577E+04 0.  0.
        5    1    3    3  502    0  0.63853637814E+03  0.23906195260E+03 -0.73617411758E+03  0.10034210207E+04  0.46999998093E+01 0.  1.
       -5    1    3    3    0  502 -0.63853637814E+03 -0.23906195260E+03  0.17569224155E+04  0.18845895541E+04  0.46999998093E+01 0. -1.
</event>
<event>
 5   0  0.4655882E-06  0.2669886E+04  0.7818609E-02  0.8344842E-01
       -2   -1    0    0    0  501  0.00000000000E+00  0.00000000000E+00  0.93375506543E+03  0.93375506543E+03  0.25500000920E-02 0.  1.
        2   -1    0    0  501    0  0.00000000000E+00  0.00000000000E+00 -0.19085017505E+04  0.19085017505E+04  0.25500000920E-02 0. -1.
    10030    2    1    2    0    0  0.00000000000E+00  0.00000000000E+00 -0.97474668510E+03  0.28422568160E+04  0.26698862724E+04 0.  0.
        1    1    3    3  502    0  0.18690573349E+03 -0.11909916311E+04 -0.10976912443E+04  0.16304357965E+04  0.50400001928E-02 0.  1.
       -1    1    3    3    0  502 -0.18690573349E+03  0.11909916311E+04  0.12294455919E+03  0.12118210195E+04  0.50400001928E-02 0. -1.
</event>
<event>
 5   0  0.4487186E-06  0.2702575E+04  0.7818609E-02  0.8334170E-01
        2   -1    0    0  501    0  0.00000000000E+00  0.00000000000E+00  0.16550616706E+04  0.16550616706E+04  0.25500000920E-02 0. -1.
       -2   -1    0    0    0  501  0.00000000000E+00  0.00000000000E+00 -0.11032684093E+04  0.11032684093E+04  0.25500000920E-02 0.  1.
    10030    2    1    2    0    0  0.00000000000E+00  0.00000000000E+00  0.55179326131E+03  0.27583300798E+04  0.27025745181E+04 0.  0.
        3    1    3    3  502    0 -0.62612615193E+03  0.11966874845E+04  0.23161546563E+03  0.13703067642E+04  0.10100000352E+00 0. -1.
       -3    1    3    3    0  502  0.62612615193E+03 -0.11966874845E+04  0.32017779568E+03  0.13880233157E+04  0.10100000352E+00 0.  1.
</event>
<event>
 5   0  0.1723605E-06  0.2691452E+04  0.7818609E-02  0.8337784E-01
        1   -1    0    0  501    0  0.00000000000E+00  0.00000000000E+00  0.16790369674E+04  0.16790369674E+04  0.50400001928E-02 0.  1.
       -1   -1    0    0    0  501  0.00000000000E+00  0.00000000000E+00 -0.10785817525E+04  0.10785817525E+04  0.50400001928E-02 0. -1.
    10030    2    1    2    0    0  0.00000000000E+00  0.00000000000E+00  0.60045521497E+03  0.27576187199E+04  0.26914521246E+04 0.  0.
        1    1    3    3  502    0 -0.14013861626E+03  0.87415513761E+03  0.13386486982E+04  0.16049194290E+04  0.50400001928E-02 0.  1.
       -1    1    3    3    0  502  0.14013861626E+03 -0.87415513761E+03 -0.73819348327E+03  0.11526992909E+04  0.50400001928E-02 0. -1.
</event>
<event>
 5   0  0.1771016E-06  0.2686965E+04  0.7818609E-02  0.8339247E-01
        1   -1    0    0  501    0  0.00000000000E+00  0.00000000000E+00  0.19555025499E+04  0.19555025499E+04  0.50400001928E-02 0. -1.
       -1   -1    0    0    0  501  0.00000000000E+00  0.00000000000E+00 -0.92300846694E+03  0.92300846695E+03  0.50400001928E-02 0.  1.
    10030    2    1    2    0    0  0.00000000000E+00  0.00000000000E+00  0.10324940830E+04  0.28785110169E+04  0.26869651362E+04 0.  0.
        2    1    3    3  502    0 -0.65419534148E+02 -0.42941940662E+03  0.18781999900E+04  0.19277748688E+04  0.25500000920E-02 0. -1.
       -2    1    3    3    0  502  0.65419534148E+02  0.42941940662E+03 -0.84570590699E+03  0.95073614813E+03  0.25500000920E-02 0.  1.
</event>
<event>
 5   0  0.1828511E-06  0.2699597E+04  0.7818609E-02  0.8335136E-01
        1   -1    0    0  501    0  0.00000000000E+00  0.00000000000E+00  0.18833522721E+04  0.18833522721E+04  0.50400001928E-02 0.  1.
       -1   -1    0    0    0  501  0.00000000000E+00  0.00000000000E+00 -0.96740024468E+03  0.96740024470E+03  0.50400001928E-02 0. -1.
    10030    2    1    2    0    0  0.00000000000E+00  0.00000000000E+00  0.91595202742E+03  0.28507525168E+04  0.26995965987E+04 0.  0.
        4    1    3    3  502    0 -0.11382519601E+03 -0.28290256837E+03 -0.93054863621E+03  0.97924073429E+03  0.12699999809E+01 0. -1.
       -4    1    3    3    0  502  0.11382519601E+03  0.28290256837E+03  0.18465006636E+04  0.18715117825E+04  0.12699999809E+01 0.  1.
</event>
<event>
 5   0  0.1753474E-06  0.2699050E+04  0.7818609E-02  0.8335313E-01
        1   -1    0    0  501    0  0.00000000000E+00  0.00000000000E+00  0.14965924573E+04  0.14965924573E+04  0.50400001928E-02 0. -1.
       -1   -1    0    0    0  501  0.00000000000E+00  0.00000000000E+00 -0.12169099028E+04  0.12169099028E+04  0.50400001928E-02 0.  1.
    10030    2    1    2    0    0  0.00000000000E+00  0.00000000000E+00  0.27968255449E+03  0.27135023600E+04  0.26990503379E+04 0.  0.
        3    1    3    3  502    0 -0.53036499157E+03 -0.15435275735E+03 -0.10980544275E+04  0.12291604183E+04  0.10100000352E+00 0.  1.
       -3    1    3    3    0  502  0.53036499157E+03  0.15435275735E+03  0.13777369820E+04  0.14843419417E+04  0.10100000352E+00 0. -1.
</event>
<event>
 5   0  0.1723605E-06  0.2673078E+04  0.7818609E-02  0.8343793E-01
       -1   -1    0    0    0  501  0.00000000000E+00  0.00000000000E+00  0.12428493323E+04  0.12428493323E+04  0.50400001928E-02 0. -1.
        1   -1    0    0  501    0  0.00000000000E+00  0.00000000000E+00 -0.14372915516E+04  0.14372915516E+04  0.50400001928E-02 0.  1.
    10030    2    1    2    0    0  0.00000000000E+00  0.00000000000E+00 -0.19444221924E+03  0.26801408839E+04  0.26730782594E+04 0.  0.
        1    1    3    3  502    0  0.48116704817E+03  0.28789283422E+03 -0.13136590196E+04  0.14283221037E+04  0.50400001928E-02 0.  1.
       -1    1    3    3    0  502 -0.48116704817E+03 -0.28789283422E+03  0.11192168003E+04  0.12518187802E+04  0.50400001928E-02 0. -1.
</event>
<event>
 5   0  0.4439357E-06  0.2688665E+04  0.7818609E-02  0.8338692E-01
       -2   -1    0    0    0  501  0.00000000000E+00  0.00000000000E+00  0.66151318117E+03  0.66151318118E+03  0.25500000920E-02 0. -1.
        2   -1    0    0  501    0  0.00000000000E+00  0.00000000000E+00 -0.27319630617E+04  0.27319630617E+04  0.25500000920E-02 0.  1.
    10030    2    1    2    0    0  0.00000000000E+00  0.00000000000E+00 -0.20704498805E+04  0.33934762428E+04  0.26886647807E+04 0.  0.
        4    1    3    3  502    0  0.89357551813E+03  0.28312830661E+03 -0.22514668091E+04  0.24387995510E+04  0.12699999809E+01 0.  1.
       -4    1    3    3    0  502 -0.89357551813E+03 -0.28312830661E+03  0.18101692860E+03  0.95467669184E+03  0.12699999809E+01 0. -1.
</event>
<event>
 5   0  0.4439357E-06  0.2713888E+04  0.7818609E-02  0.8330513E-01
        2   -1    0    0  501    0  0.00000000000E+00  0.00000000000E+00  0.11685953473E+04  0.11685953473E+04  0.25500000920E-02 0.  1.
       -2   -1    0    0    0  501  0.00000000000E+00  0.00000000000E+00 -0.15756502307E+04  0.15756502307E+04  0.25500000920E-02 0. -1.
    10030    2    1    2    0    0  0.00000000000E+00  0.00000000000E+00 -0.40705488336E+03  0.27442455780E+04  0.27138883755E+04 0.  0.
        4    1    3    3  502    0 -0.83638227791E+03 -0.43712590744E+03 -0.11894629847E+04  0.15183669447E+04  0.12699999809E+01 0. -1.
       -4    1    3    3    0  502  0.83638227791E+03  0.43712590744E+03  0.78240810135E+03  0.12258786334E+04  0.12699999809E+01 0.  1.
</event>
<event>
 5   0  0.1753474E-06  0.2706185E+04  0.7818609E-02  0.8333001E-01
       -1   -1    0    0    0  501  0.00000000000E+00  0.00000000000E+00  0.15531865746E+04  0.15531865746E+04  0.50400001928E-02 0.  1.
        1   -1    0    0  501    0  0.00000000000E+00  0.00000000000E+00 -0.11787765445E+04  0.11787765445E+04  0.50400001928E-02 0. -1.
    10030    2    1    2    0    0  0.00000000000E+00  0.00000000000E+00  0.37441003012E+03  0.27319631190E+04  0.27061854358E+04 0.  0.
        3    1    3    3  502    0  0.87534131555E+03  0.10317759857E+04  0.17841635822E+03  0.13647770918E+04  0.10100000352E+00 0.  1.
       -3    1    3    3    0  502 -0.87534131555E+03 -0.10317759857E+04  0.19599367190E+03  0.13671860272E+04  0.10100000352E+00 0. -1.
</event>
<event>
 5   0  0.1828511E-06  0.2694255E+04  0.7818609E-02  0.8336871E-01
        1   -1    0    0  501    0  0.00000000000E+00  0.00000000000E+00  0.96123403106E+03  0.96123403107E+03  0.50400001928E-02 0.  1.
       -1   -1    0    0    0  501  0.00000000000E+00  0.00000000000E+00 -0.18879407793E+04  0.18879407793E+04  0.50400001928E-02 0. -1.
    10030    2    1    2    0    0  0.00000000000E+00  0.00000000000E+00 -0.92670674823E+03  0.28491748104E+04  0.26942553151E+04 0.  0.
        4    1    3    3  502    0  0.11432207986E+04 -0.27063303379E+03  0.23375911459E+03  0.11978484753E+04  0.12699999809E+01 0.  1.
       -4    1    3    3    0  502 -0.11432207986E+04  0.27063303379E+03 -0.11604658628E+04  0.16513263351E+04  0.12699999809E+01 0. -1.
</event>
<event>
 5   0  0.4439357E-06  0.2704183E+04  0.7818609E-02  0.8333649E-01
        2   -1    0    0  501    0  0.00000000000E+00  0.00000000000E+00  0.22978289867E+04  0.22978289867E+04  0.25500000920E-02 0.  1.
       -2   -1    0    0    0  501  0.00000000000E+00  0.00000000000E+00 -0.79559926561E+03  0.79559926561E+03  0.25500000920E-02 0. -1.
    10030    2    1    2    0    0  0.00000000000E+00  0.00000000000E+00  0.15022297211E+04  0.30934282523E+04  0.27041827263E+04 0.  0.
        4    1    3    3  502    0  0.12334438974E+04  0.31931484457E+03  0.12688085028E+04  0.17981163609E+04  0.12699999809E+01 0.  1.
       -4    1    3    3    0  502 -0.12334438974E+04 -0.31931484457E+03  0.23342121833E+03  0.12953118914E+04  0.12699999809E+01 0. -1.
</event>
<event>
 5   0  0.4439357E-06  0.2726310E+04  0.7818609E-02  0.8326518E-01
       -2   -1    0    0    0  501  0.00000000000E+00  0.00000000000E+00  0.11728053700E+04  0.11728053700E+04  0.25500000920E-02 0. -1.
        2   -1    0    0  501    0  0.00000000000E+00  0.00000000000E+00 -0.15843989491E+04  0.15843989491E+04  0.25500000920E-02 0.  1.
    10030    2    1    2    0    0  0.00000000000E+00  0.00000000000E+00 -0.41159357911E+03  0.27572043191E+04  0.27263100306E+04 0.  0.
        4    1    3    3  502    0 -0.28186355048E+03 -0.44004887968E+03 -0.14790712521E+04  0.15686757024E+04  0.12699999809E+01 0.  1.
       -4    1    3    3    0  502  0.28186355048E+03  0.44004887968E+03  0.10674776729E+04  0.11885286167E+04  0.12699999809E+01 0. -1.
</event>
<event>
 5   0  0.4401659E-06  0.2697334E+04  0.7818609E-02  0.8335871E-01
        2   -1    0    0  501    0  0.00000000000E+00  0.00000000000E+00  0.11381848764E+04  0.11381848764E+04  0.25500000920E-02 0.  1.
       -2   -1    0    0    0  501  0.00000000000E+00  0.00000000000E+00 -0.15980730543E+04  0.15980730543E+04  0.25500000920E-02 0. -1.
    10030    2    1    2    0    0  0.00000000000E+00  0.00000000000E+00 -0.45988817789E+03  0.27362579307E+04  0.26973339295E+04 0.  0.
        5    1    3    3  502    0  0.69353480799E+03 -0.84270705594E+03  0.57378634528E+03  0.12330444323E+04  0.46999998093E+01 0.  1.
       -5    1    3    3    0  502 -0.69353480799E+03  0.84270705594E+03 -0.10336745232E+04  0.15032134984E+04  0.46999998093E+01 0. -1.
</event>
<event>
 5   0  0.4655882E-06  0.2703794E+04  0.7818609E-02  0.8333775E-01
       -2   -1    0    0    0  501  0.00000000000E+00  0.00000000000E+00  0.16172728179E+04  0.16172728179E+04  0.25500000920E-02 0.  1.
        2   -1    0    0  501    0  0.00000000000E+00  0.00000000000E+00 -0.11300661580E+04  0.11300661580E+04  0.25500000920E-02 0. -1.
    10030    2    1    2    0    0  0.00000000000E+00  0.00000000000E+00  0.48720665994E+03  0.27473389759E+04  0.27037938381E+04 0.  0.
        1    1    3    3  502    0 -0.69833497318E+03  0.74272014654E+03  0.11457767683E+04  0.15336588127E+04  0.50400001928E-02 0.  1.
       -1    1    3    3    0  502  0.69833497318E+03 -0.74272014654E+03 -0.65857010840E+03  0.12136801632E+04  0.50400001928E-02 0. -1.
</event>
<event>
 5   0  0.1482875E-06  0.2680598E+04  0.7818609E-02  0.8341328E-01
        3   -1    0    0  501    0  0.00000000000E+00  0.00000000000E+00  0.23216465639E+04  0.23216465661E+04  0.10100000352E+00 0. -1.
       -3   -1    0    0    0  501  0.00000000000E+00  0.00000000000E+00 -0.77376202917E+03  0.77376203577E+03  0.10100000352E+00 0.  1.
    10030    2    1    2    0    0  0.00000000000E+00  0.00000000000E+00  0.15478845347E+04  0.30954086018E+04  0.26805984182E+04 0.  0.
        1    1    3    3  502    0 -0.50157239460E+03  0.99507409985E+03  0.16339404883E+04  0.19777534858E+04  0.50400001928E-02 0. -1.
       -1    1    3    3    0  502  0.50157239460E+03 -0.99507409985E+03 -0.86055953616E+02  0.11176551160E+04  0.50400001928E-02 0.  1.
</event>
<event>
 5   0  0.4401659E-06  0.2702896E+04  0.7818609E-02  0.8334066E-01
        2   -1    0    0  501    0  0.00000000000E+00  0.00000000000E+00  0.10326277461E+04  0.10326277461E+04  0.25500000920E-02 0. -1.
       -2   -1    0    0    0  501  0.00000000000E+00  0.00000000000E+00 -0.17687025361E+04  0.17687025361E+04  0.25500000920E-02 0.  1.
    10030    2    1    2    0    0  0.00000000000E+00  0.00000000000E+00 -0.73607479000E+03  0.28013302823E+04  0.27028957164E+04 0.  0.
        5    1    3    3  502    0 -0.11360340636E+04  0.71324116273E+03 -0.53866240708E+03  0.14454984015E+04  0.46999998093E+01 0.  1.
       -5    1    3    3    0  502  0.11360340636E+04 -0.71324116273E+03 -0.19741238291E+03  0.13558318808E+04  0.46999998093E+01 0. -1.
</event>
<event>
 5   0  0.1771016E-06  0.2686145E+04  0.7818609E-02  0.8339514E-01
        1   -1    0    0  501    0  0.00000000000E+00  0.00000000000E+00  0.18481013905E+04  0.18481013905E+04  0.50400001928E-02 0. -1.
       -1   -1    0    0    0  501  0.00000000000E+00  0.00000000000E+00 -0.97605247022E+03  0.97605247023E+03  0.50400001928E-02 0.  1.
    10030    2    1    2    0    0  0.00000000000E+00  0.00000000000E+00  0.87204892024E+03  0.28241538607E+04  0.26861451393E+04 0.  0.
        2    1    3    3  502    0  0.57782264476E+03  0.61964489390E+03 -0.65963303929E+03  0.10737572118E+04  0.25500000920E-02 0.  1.
       -2    1    3    3    0  502 -0.57782264476E+03 -0.61964489390E+03  0.15316819595E+04  0.17503966489E+04  0.25500000920E-02 0. -1.
</event>
<event>
 5   0  0.4401659E-06  0.2693866E+04  0.7818609E-02  0.8336998E-01
       -2   -1    0    0    0  501  0.00000000000E+00  0.00000000000E+00  0.78739846201E+03  0.78739846202E+03  0.25500000920E-02 0. -1.
        2   -1    0    0  501    0  0.00000000000E+00  0.00000000000E+00 -0.23040795931E+04  0.23040795931E+04  0.25500000920E-02 0.  1.
    10030    2    1    2    0    0  0.00000000000E+00  0.00000000000E+00 -0.15166811311E+04  0.30914780552E+04  0.26938661645E+04 0.  0.
        5    1    3    3  502    0 -0.45646056543E+02 -0.68496109508E+03 -0.20882445783E+04  0.21981907954E+04  0.46999998093E+01 0.  1.
       -5    1    3    3    0  502  0.45646056543E+02  0.68496109508E+03  0.57156344719E+03  0.89328725974E+03  0.46999998093E+01 0. -1.
</event>
<event>
 5   0  0.1753474E-06  0.2701620E+04  0.7818609E-02  0.8334479E-01
        1   -1    0    0  501    0  0.00000000000E+00  0.00000000000E+00  0.26467430672E+04  0.26467430672E+04  0.50400001928E-02 0.  1.
       -1   -1    0    0    0  501  0.00000000000E+00  0.00000000000E+00 -0.68940878217E+03  0.68940878219E+03  0.50400001928E-02 0. -1.
    10030    2    1    2    0    0  0.00000000000E+00  0.00000000000E+00  0.19573342851E+04  0.33361518494E+04  0.27016201915E+04 0.  0.
        3    1    3    3  502    0  0.12146433413E+03  0.15227722265E+03  0.26293092579E+04  0.26365145782E+04  0.10100000352E+00 0.  1.
       -3    1    3    3    0  502 -0.12146433413E+03 -0.15227722265E+03 -0.67197497284E+03  0.69963727126E+03  0.10100000352E+00 0. -1.
</event>
<event>
 5   0  0.1828511E-06  0.2700250E+04  0.7818609E-02  0.8334924E-01
        1   -1    0    0  501    0  0.00000000000E+00  0.00000000000E+00  0.18121944881E+04  0.18121944881E+04  0.50400001928E-02 0.  1.
       -1   -1    0    0    0  501  0.00000000000E+00  0.00000000000E+00 -0.10058726391E+04  0.10058726391E+04  0.50400001928E-02 0. -1.
    10030    2    1    2    0    0  0.00000000000E+00  0.00000000000E+00  0.80632184894E+03  0.28180671272E+04  0.27002495087E+04 0.  0.
        4    1    3    3  502    0 -0.11753436844E+04  0.52379431932E+03 -0.23379547333E+02  0.12869893090E+04  0.12699999809E+01 0. -1.
       -4    1    3    3    0  502  0.11753436844E+04 -0.52379431932E+03  0.82970139627E+03  0.15310778182E+04  0.12699999809E+01 0.  1.
</event>
<event>
 5   0  0.1732312E-06  0.2734898E+04  0.7818609E-02  0.8323770E-01
        1   -1    0    0  501    0  0.00000000000E+00  0.00000000000E+00  0.16985856286E+04  0.16985856286E+04  0.50400001928E-02 0. -1.
       -1   -1    0    0    0  501  0.00000000000E+00  0.00000000000E+00 -0.11008670539E+04  0.11008670539E+04  0.50400001928E-02 0.  1.
    10030    2    1    2    0    0  0.00000000000E+00  0.00000000000E+00  0.59771857476E+03  0.27994526825E+04  0.27348981384E+04 0.  0.
        5    1    3    3  502    0 -0.61600405233E+03 -0.11660659134E+04  0.66895146469E+03  0.14787457046E+04  0.46999998093E+01 0. -1.
       -5    1    3    3    0  502  0.61600405233E+03  0.11660659134E+04 -0.71232889929E+02  0.13207069779E+04  0.46999998093E+01 0.  1.
</event>
<event>
 5   0  0.1753474E-06  0.2653246E+04  0.7818609E-02  0.8350336E-01
        1   -1    0    0  501    0  0.00000000000E+00  0.00000000000E+00  0.10553640165E+04  0.10553640166E+04  0.50400001928E-02 0.  1.
       -1   -1    0    0    0  501  0.00000000000E+00  0.00000000000E+00 -0.16676038249E+04  0.16676038249E+04  0.50400001928E-02 0. -1.
    10030    2    1    2    0    0  0.00000000000E+00  0.00000000000E+00 -0.61223980832E+03  0.27229678414E+04  0.26532463667E+04 0.  0.
        3    1    3    3  502    0 -0.30560010701E+03  0.12156554333E+04  0.13971423968E+03  0.12612413080E+04  0.10100000352E+00 0.  1.
       -3    1    3    3    0  502  0.30560010701E+03 -0.12156554333E+04 -0.75195404800E+03  0.14617265334E+04  0.10100000352E+00 0. -1.
</event>
<event>
 5   0  0.4448804E-06  0.2705645E+04  0.7818609E-02  0.8333176E-01
        2   -1    0    0  501    0  0.00000000000E+00  0.00000000000E+00  0.15830386411E+04  0.15830386411E+04  0.25500000920E-02 0. -1.
       -2   -1    0    0    0  501  0.00000000000E+00  0.00000000000E+00 -0.11560857528E+04  0.11560857528E+04  0.25500000920E-02 0.  1.
    10030    2    1    2    0    0  0.00000000000E+00  0.00000000000E+00  0.42695288833E+03  0.27391243938E+04  0.27056447801E+04 0.  0.
        2    1    3    3  502    0 -0.20519102904E+03  0.10026783988E+04 -0.68215194039E+03  0.12299587797E+04  0.25500000920E-02 0.  1.
       -2    1    3    3    0  502  0.20519102904E+03 -0.10026783988E+04  0.11091048287E+04  0.15091656142E+04  0.25500000920E-02 0. -1.
</event>
<event>
 5   0  0.1732312E-06  0.2707507E+04  0.7818609E-02  0.8332573E-01
        1   -1    0    0  501    0  0.00000000000E+00  0.00000000000E+00  0.17984952270E+04  0.17984952270E+04  0.50400001928E-02 0.  1.
       -1   -1    0    0    0  501  0.00000000000E+00  0.00000000000E+00 -0.10189901853E+04  0.10189901853E+04  0.50400001928E-02 0. -1.
    10030    2    1    2    0    0  0.00000000000E+00  0.00000000000E+00  0.77950504171E+03  0.28174854123E+04  0.27075073294E+04 0.  0.
        5    1    3    3  502    0  0.58669320999E+03 -0.12103381774E+04  0.23023034957E+03  0.13646081966E+04  0.46999998093E+01 0. -1.
       -5    1    3    3    0  502 -0.58669320999E+03  0.12103381774E+04  0.54927469215E+03  0.14528772157E+04  0.46999998093E+01 0.  1.
</event>
<event>
 5   0  0.1771016E-06  0.2697954E+04  0.7818609E-02  0.8335669E-01
        1   -1    0    0  501    0  0.00000000000E+00  0.00000000000E+00  0.18377023253E+04  0.18377023253E+04  0.50400001928E-02 0. -1.
       -1   -1    0    0    0  501  0.00000000000E+00  0.00000000000E+00 -0.99022496379E+03  0.99022496380E+03  0.50400001928E-02 0.  1.
    10030    2    1    2    0    0  0.00000000000E+00  0.00000000000E+00  0.84747736148E+03  0.28279272891E+04  0.26979538310E+04 0.  0.
        2    1    3    3  502    0  0.10136043471E+04 -0.75787910292E+03  0.91309626177E+03  0.15606150359E+04  0.25500000920E-02 0.  1.
       -2    1    3    3    0  502 -0.10136043471E+04  0.75787910292E+03 -0.65618900286E+02  0.12673122532E+04  0.25500000920E-02 0. -1.
</event>
<event>
 5   0  0.1753474E-06  0.2698014E+04  0.7818609E-02  0.8335650E-01
        1   -1    0    0  501    0  0.00000000000E+00  0.00000000000E+00  0.22488817159E+04  0.22488817159E+04  0.50400001928E-02 0.  1.
       -1   -1    0    0    0  501  0.00000000000E+00  0.00000000000E+00 -0.80921085293E+03  0.80921085295E+03  0.50400001928E-02 0. -1.
    10030    2    1    2    0    0  0.00000000000E+00  0.00000000000E+00  0.14396708629E+04  0.30580925688E+04  0.26980137075E+04 0.  0.
        3    1    3    3  502    0  0.59850612091E+03  0.11438960446E+04  0.27631796598E+03  0.13202497363E+04  0.10100000352E+00 0. -1.
       -3    1    3    3    0  502 -0.59850612091E+03 -0.11438960446E+04  0.11633528969E+04  0.17378428325E+04  0.10100000352E+00 0.  1.
</event>
<event>
 5   0  0.4655882E-06  0.2705457E+04  0.7818609E-02  0.8333237E-01
       -2   -1    0    0    0  501  0.00000000000E+00  0.00000000000E+00  0.16988878121E+04  0.16988878121E+04  0.25500000920E-02 0.  1.
        2   -1    0    0  501    0  0.00000000000E+00  0.00000000000E+00 -0.10771010687E+04  0.10771010687E+04  0.25500000920E-02 0. -1.
    10030    2    1    2    0    0  0.00000000000E+00  0.00000000000E+00  0.62178674341E+03  0.27759888809E+04  0.27054566181E+04 0.  0.
        1    1    3    3  502    0 -0.20565607134E+03 -0.18628813017E+03  0.16693718699E+04  0.16922766107E+04  0.50400001928E-02 0.  1.
       -1    1    3    3    0  502  0.20565607134E+03  0.18628813017E+03 -0.10475851265E+04  0.10837122701E+04  0.50400001928E-02 0. -1.
</event>
<event>
 5   0  0.4448804E-06  0.2704317E+04  0.7818609E-02  0.8333606E-01
       -2   -1    0    0    0  501  0.00000000000E+00  0.00000000000E+00  0.10166859888E+04  0.10166859888E+04  0.25500000920E-02 0. -1.
        2   -1    0    0  501    0  0.00000000000E+00  0.00000000000E+00 -0.17983260759E+04  0.17983260759E+04  0.25500000920E-02 0.  1.
    10030    2    1    2    0    0  0.00000000000E+00  0.00000000000E+00 -0.78164008713E+03  0.28150120647E+04  0.27043172333E+04 0.  0.
        2    1    3    3  502    0 -0.44204715525E+03  0.42049580057E+03  0.86526716908E+03  0.10587302204E+04  0.25500000920E-02 0. -1.
       -2    1    3    3    0  502  0.44204715525E+03 -0.42049580057E+03 -0.16469072562E+04  0.17562818442E+04  0.25500000920E-02 0.  1.
</event>
<event>
 5   0  0.1753474E-06  0.2696375E+04  0.7818609E-02  0.8336182E-01
       -1   -1    0    0    0  501  0.00000000000E+00  0.00000000000E+00  0.18626637042E+04  0.18626637042E+04  0.50400001928E-02 0. -1.
        1   -1    0    0  501    0  0.00000000000E+00  0.00000000000E+00 -0.97581207501E+03  0.97581207502E+03  0.50400001928E-02 0.  1.
    10030    2    1    2    0    0  0.00000000000E+00  0.00000000000E+00  0.88685162923E+03  0.28384757793E+04  0.26963751477E+04 0.  0.
        3    1    3    3  502    0 -0.12246214965E+04  0.16347951038E+03  0.10114808239E+04  0.15967206479E+04  0.10100000352E+00 0. -1.
       -3    1    3    3    0  502  0.12246214965E+04 -0.16347951038E+03 -0.12462919468E+03  0.12417551314E+04  0.10100000352E+00 0.  1.
</event>
<event>
 5   0  0.4655882E-06  0.2705745E+04  0.7818609E-02  0.8333143E-01
        2   -1    0    0  501    0  0.00000000000E+00  0.00000000000E+00  0.18391515257E+04  0.18391515257E+04  0.25500000920E-02 0. -1.
       -2   -1    0    0    0  501  0.00000000000E+00  0.00000000000E+00 -0.99516738076E+03  0.99516738076E+03  0.25500000920E-02 0.  1.
    10030    2    1    2    0    0  0.00000000000E+00  0.00000000000E+00  0.84398414497E+03  0.28343189065E+04  0.27057447083E+04 0.  0.
        1    1    3    3  502    0 -0.75513021337E+03 -0.10666440632E+04  0.78834288369E+03  0.15262488981E+04  0.50400001928E-02 0. -1.
       -1    1    3    3    0  502  0.75513021337E+03  0.10666440632E+04  0.55641261285E+02  0.13080700084E+04  0.50400001928E-02 0.  1.
</event>
<event>
 5   0  0.1723605E-06  0.2710992E+04  0.7818609E-02  0.8331447E-01
        1   -1    0    0  501    0  0.00000000000E+00  0.00000000000E+00  0.15187000065E+04  0.15187000065E+04  0.50400001928E-02 0. -1.
       -1   -1    0    0    0  501  0.00000000000E+00  0.00000000000E+00 -0.12098305468E+04  0.12098305468E+04  0.50400001928E-02 0.  1.
    10030    2    1    2    0    0  0.00000000000E+00  0.00000000000E+00  0.30886945973E+03  0.27285305533E+04  0.27109921869E+04 0.  0.
        1    1    3    3  502    0  0.96967406262E+03 -0.63860928307E+03 -0.54957605408E+03  0.12845713072E+04  0.50400001928E-02 0.  1.
       -1    1    3    3    0  502 -0.96967406262E+03  0.63860928307E+03  0.85844551380E+03  0.14439592461E+04  0.50400001928E-02 0. -1.
</event>
<event>
 5   0  0.1753474E-06  0.2716136E+04  0.7818609E-02  0.8329788E-01
        1   -1    0    0  501    0  0.00000000000E+00  0.00000000000E+00  0.18154155871E+04  0.18154155871E+04  0.50400001928E-02 0.  1.
       -1   -1    0    0    0  501  0.00000000000E+00  0.00000000000E+00 -0.10159375561E+04  0.10159375562E+04  0.50400001928E-02 0. -1.
    10030    2    1    2    0    0  0.00000000000E+00  0.00000000000E+00  0.79947803096E+03  0.28313531433E+04  0.27161361343E+04 0.  0.
        3    1    3    3  502    0  0.80437361481E+03 -0.67818243783E+03 -0.49540771773E+03  0.11629175156E+04  0.10100000352E+00 0. -1.
       -3    1    3    3    0  502 -0.80437361481E+03  0.67818243783E+03  0.12948857487E+04  0.16684356276E+04  0.10100000352E+00 0.  1.
</event>
<event>
 5   0  0.4439357E-06  0.2708416E+04  0.7818609E-02  0.8332279E-01
       -2   -1    0    0    0  501  0.00000000000E+00  0.00000000000E+00  0.15197043405E+04  0.15197043405E+04  0.25500000920E-02 0. -1.
        2   -1    0    0  501    0  0.00000000000E+00  0.00000000000E+00 -0.12067344636E+04  0.12067344636E+04  0.25500000920E-02 0.  1.
    10030    2    1    2    0    0  0.00000000000E+00  0.00000000000E+00  0.31296987693E+03  0.27264388041E+04  0.27084162178E+04 0.  0.
        4    1    3    3  502    0 -0.70060577742E+03 -0.91924291890E+02  0.13194122406E+04  0.14967126659E+04  0.12699999809E+01 0. -1.
       -4    1    3    3    0  502  0.70060577742E+03  0.91924291890E+02 -0.10064423636E+04  0.12297261382E+04  0.12699999809E+01 0.  1.
</event>
<event>
 5   0  0.1771016E-06  0.2649627E+04  0.7818609E-02  0.8351537E-01
       -1   -1    0    0    0  501  0.00000000000E+00  0.00000000000E+00  0.15468025825E+04  0.15468025825E+04  0.50400001928E-02 0. -1.
        1   -1    0    0  501    0  0.00000000000E+00  0.00000000000E+00 -0.11346831672E+04  0.11346831672E+04  0.50400001928E-02 0.  1.
    10030    2    1    2    0    0  0.00000000000E+00  0.00000000000E+00  0.41211941536E+03  0.26814857497E+04  0.26496270329E+04 0.  0.
        2    1    3    3  502    0 -0.71545521016E+03  0.66054421731E+03 -0.70303745360E+03  0.12010230980E+04  0.25500000920E-02 0.  1.
       -2    1    3    3    0  502  0.71545521016E+03 -0.66054421731E+03  0.11151568690E+04  0.14804626517E+04  0.25500000920E-02 0. -1.
</event>
<event>
 5   0  0.4655882E-06  0.2681252E+04  0.7818609E-02  0.8341114E-01
       -2   -1    0    0    0  501  0.00000000000E+00  0.00000000000E+00  0.20361009274E+04  0.20361009274E+04  0.25500000920E-02 0.  1.
        2   -1    0    0  501    0  0.00000000000E+00  0.00000000000E+00 -0.88270550289E+03  0.88270550290E+03  0.25500000920E-02 0. -1.
    10030    2    1    2    0    0  0.00000000000E+00  0.00000000000E+00  0.11533954246E+04  0.29188064303E+04  0.26812515683E+04 0.  0.
        1    1    3    3  502    0 -0.10517320898E+04  0.21677377965E+03 -0.29699752132E+03  0.11141538439E+04  0.50400001928E-02 0. -1.
       -1    1    3    3    0  502  0.10517320898E+04 -0.21677377965E+03  0.14503929459E+04  0.18046525864E+04  0.50400001928E-02 0.  1.
</event>
<event>
 5   0  0.4401659E-06  0.2704221E+04  0.7818609E-02  0.8333637E-01
        2   -1    0    0  501    0  0.00000000000E+00  0.00000000000E+00  0.19566857597E+04  0.19566857597E+04  0.25500000920E-02 0. -1.
       -2   -1    0    0    0  501  0.00000000000E+00  0.00000000000E+00 -0.93433672761E+03  0.93433672761E+03  0.25500000920E-02 0.  1.
    10030    2    1    2    0    0  0.00000000000E+00  0.00000000000E+00  0.10223490321E+04  0.28910224873E+04  0.27042214182E+04 0.  0.
        5    1    3    3  502    0 -0.88143077671E+03  0.28487425170E+03 -0.54180325551E+03  0.10731478981E+04  0.46999998093E+01 0.  1.
       -5    1    3    3    0  502  0.88143077671E+03 -0.28487425170E+03  0.15641522876E+04  0.18178745892E+04  0.46999998093E+01 0. -1.
</event>
<event>
 5   0  0.4439357E-06  0.2704365E+04  0.7818609E-02  0.8333590E-01
        2   -1    0    0  501    0  0.00000000000E+00  0.00000000000E+00  0.22301947475E+04  0.22301947475E+04  0.25500000920E-02 0.  1.
       -2   -1    0    0    0  501  0.00000000000E+00  0.00000000000E+00 -0.81983757514E+03  0.81983757514E+03  0.25500000920E-02 0. -1.
    10030    2    1    2    0    0  0.00000000000E+00  0.00000000000E+00  0.14103571724E+04  0.30500323227E+04  0.27043649561E+04 0.  0.
        4    1    3    3  502    0 -0.11350152163E+04 -0.12316851855E+03 -0.11197681263E+03  0.11471575501E+04  0.12699999809E+01 0.  1.
       -4    1    3    3    0  502  0.11350152163E+04  0.12316851855E+03  0.15223339850E+04  0.19028747726E+04  0.12699999809E+01 0. -1.
</event>
<event>
 5   0  0.1753474E-06  0.2703064E+04  0.7818609E-02  0.8334011E-01
       -1   -1    0    0    0  501  0.00000000000E+00  0.00000000000E+00  0.10693494974E+04  0.10693494974E+04  0.50400001928E-02 0. -1.
        1   -1    0    0  501    0  0.00000000000E+00  0.00000000000E+00 -0.17081778561E+04  0.17081778561E+04  0.50400001928E-02 0.  1.
    10030    2    1    2    0    0  0.00000000000E+00  0.00000000000E+00 -0.63882835875E+03  0.27775273535E+04  0.27030642848E+04 0.  0.
        3    1    3    3  502    0 -0.67538857635E+03  0.90821017353E+03 -0.10784399691E+04  0.15633388070E+04  0.10100000352E+00 0.  1.
       -3    1    3    3    0  502  0.67538857635E+03 -0.90821017353E+03  0.43961161033E+03  0.12141885465E+04  0.10100000352E+00 0. -1.
</event>
<event>
 5   0  0.1753474E-06  0.2707185E+04  0.7818609E-02  0.8332678E-01
       -1   -1    0    0    0  501  0.00000000000E+00  0.00000000000E+00  0.10219847197E+04  0.10219847198E+04  0.50400001928E-02 0. -1.
        1   -1    0    0  501    0  0.00000000000E+00  0.00000000000E+00 -0.17927981921E+04  0.17927981921E+04  0.50400001928E-02 0.  1.
    10030    2    1    2    0    0  0.00000000000E+00  0.00000000000E+00 -0.77081347236E+03  0.28147829119E+04  0.27071847798E+04 0.  0.
        3    1    3    3  502    0  0.10971703196E+04  0.11969229200E+03  0.42938713667E+03  0.11842644461E+04  0.10100000352E+00 0. -1.
       -3    1    3    3    0  502 -0.10971703196E+04 -0.11969229200E+03 -0.12002006090E+04  0.16305184657E+04  0.10100000352E+00 0.  1.
</event>
<event>
 5   0  0.4487186E-06  0.2712166E+04  0.7818609E-02  0.8331068E-01
        2   -1    0    0  501    0  0.00000000000E+00  0.00000000000E+00  0.13496597258E+04  0.13496597258E+04  0.25500000920E-02 0.  1.
       -2   -1    0    0    0  501  0.00000000000E+00  0.00000000000E+00 -0.13625364653E+04  0.13625364653E+04  0.25500000920E-02 0. -1.
    10030    2    1    2    0    0  0.00000000000E+00  0.00000000000E+00 -0.12876739485E+02  0.27121961910E+04  0.27121656233E+04 0.  0.
        3    1    3    3  502    0 -0.77017580738E+03  0.91403857705E+02 -0.11188515285E+04  0.13613795182E+04  0.10100000352E+00 0. -1.
       -3    1    3    3    0  502  0.77017580738E+03 -0.91403857705E+02  0.11059747890E+04  0.13508166728E+04  0.10100000352E+00 0.  1.
</event>
<event>
 5   0  0.4439357E-06  0.2700417E+04  0.7818609E-02  0.8334870E-01
       -2   -1    0    0    0  501  0.00000000000E+00  0.00000000000E+00  0.89929181556E+03  0.89929181556E+03  0.25500000920E-02 0. -1.
        2   -1    0    0  501    0  0.00000000000E+00  0.00000000000E+00 -0.20272209667E+04  0.20272209667E+04  0.25500000920E-02 0.  1.
    10030    2    1    2    0    0  0.00000000000E+00  0.00000000000E+00 -0.11279291512E+04  0.29265127823E+04  0.27004171705E+04 0.  0.
        4    1    3    3  502    0 -0.83423288497E+03 -0.65518840923E+03 -0.14692783512E+04  0.18121801357E+04  0.12699999809E+01 0.  1.
       -4    1    3    3    0  502  0.83423288497E+03  0.65518840923E+03  0.34134920007E+03  0.11143326466E+04  0.12699999809E+01 0. -1.
</event>
<event>
 5   0  0.1828511E-06  0.2694063E+04  0.7818609E-02  0.8336934E-01
       -1   -1    0    0    0  501  0.00000000000E+00  0.00000000000E+00  0.93038709096E+03  0.93038709097E+03  0.50400001928E-02 0. -1.
        1   -1    0    0  501    0  0.00000000000E+00  0.00000000000E+00 -0.19502574560E+04  0.19502574560E+04  0.50400001928E-02 0.  1.
    10030    2    1    2    0    0  0.00000000000E+00  0.00000000000E+00 -0.10198703650E+04  0.28806445470E+04  0.26940633705E+04 0.  0.
        4    1    3    3  502    0 -0.87381406982E+03  0.37356289334E+03 -0.15307209044E+04  0.18017237202E+04  0.12699999809E+01 0.  1.
       -4    1    3    3    0  502  0.87381406982E+03 -0.37356289334E+03  0.51085053939E+03  0.10789208267E+04  0.12699999809E+01 0. -1.
</event>
<event>
 5   0  0.1723605E-06  0.2707438E+04  0.7818609E-02  0.8332596E-01
       -1   -1    0    0    0  501  0.00000000000E+00  0.00000000000E+00  0.12068927104E+04  0.12068927104E+04  0.50400001928E-02 0.  1.
        1   -1    0    0  501    0  0.00000000000E+00  0.00000000000E+00 -0.15184072226E+04  0.15184072226E+04  0.50400001928E-02 0. -1.
    10030    2    1    2    0    0  0.00000000000E+00  0.00000000000E+00 -0.31151451221E+03  0.27252999330E+04  0.27074376139E+04 0.  0.
        1    1    3    3  502    0 -0.57933161326E+03 -0.10176526854E+04 -0.83943817577E+03  0.14407978891E+04  0.50400001928E-02 0. -1.
       -1    1    3    3    0  502  0.57933161326E+03  0.10176526854E+04  0.52792366355E+03  0.12845020439E+04  0.50400001928E-02 0.  1.
</event>
<event>
 5   0  0.1771016E-06  0.2701060E+04  0.7818609E-02  0.8334661E-01
       -1   -1    0    0    0  501  0.00000000000E+00  0.00000000000E+00  0.11691708526E+04  0.11691708526E+04  0.50400001928E-02 0. -1.
        1   -1    0    0  501    0  0.00000000000E+00  0.00000000000E+00 -0.15600211107E+04  0.15600211107E+04  0.50400001928E-02 0.  1.
    10030    2    1    2    0    0  0.00000000000E+00  0.00000000000E+00 -0.39085025809E+03  0.27291919634E+04  0.27010599491E+04 0.  0.
        2    1    3    3  502    0  0.52607652087E+03 -0.46060676627E+03  0.97203784053E+03  0.11974024647E+04  0.25500000920E-02 0. -1.
       -2    1    3    3    0  502 -0.52607652087E+03  0.46060676627E+03 -0.13628880986E+04  0.15317894987E+04  0.25500000920E-02 0.  1.
</event>
<event>
 5   0  0.4439357E-06  0.2703803E+04  0.7818609E-02  0.8333772E-01
       -2   -1    0    0    0  501  0.00000000000E+00  0.00000000000E+00  0.74602024623E+03  0.74602024623E+03  0.25500000920E-02 0. -1.
        2   -1    0    0  501    0  0.00000000000E+00  0.00000000000E+00 -0.24498494440E+04  0.24498494440E+04  0.25500000920E-02 0.  1.
    10030    2    1    2    0    0  0.00000000000E+00  0.00000000000E+00 -0.17038291978E+04  0.31958696902E+04  0.27038027187E+04 0.  0.
        4    1    3    3  502    0 -0.10486904004E+03  0.11682823111E+04 -0.57466822950E+02  0.11743871264E+04  0.12699999809E+01 0. -1.
       -4    1    3    3    0  502  0.10486904004E+03 -0.11682823111E+04 -0.16463623748E+04  0.20214825639E+04  0.12699999809E+01 0.  1.
</event>
<event>
 5   0  0.4439357E-06  0.2709389E+04  0.7818609E-02  0.8331965E-01
       -2   -1    0    0    0  501  0.00000000000E+00  0.00000000000E+00  0.70680471523E+03  0.70680471524E+03  0.25500000920E-02 0. -1.
        2   -1    0    0  501    0  0.00000000000E+00  0.00000000000E+00 -0.25964691350E+04  0.25964691350E+04  0.25500000920E-02 0.  1.
    10030    2    1    2    0    0  0.00000000000E+00  0.00000000000E+00 -0.18896644198E+04  0.33032738503E+04  0.27093885861E+04 0.  0.
        4    1    3    3  502    0 -0.12921135446E+04 -0.39619579155E+03 -0.10583320079E+04  0.17165653990E+04  0.12699999809E+01 0. -1.
       -4    1    3    3    0  502  0.12921135446E+04  0.39619579155E+03 -0.83133241188E+03  0.15867084512E+04  0.12699999809E+01 0.  1.
</event>
<event>
 5   0  0.4401659E-06  0.2696817E+04  0.7818609E-02  0.8336038E-01
        2   -1    0    0  501    0  0.00000000000E+00  0.00000000000E+00  0.13387763621E+04  0.13387763621E+04  0.25500000920E-02 0.  1.
       -2   -1    0    0    0  501  0.00000000000E+00  0.00000000000E+00 -0.13581104237E+04  0.13581104237E+04  0.25500000920E-02 0. -1.
    10030    2    1    2    0    0  0.00000000000E+00  0.00000000000E+00 -0.19334061526E+02  0.26968867858E+04  0.26968174817E+04 0.  0.
        5    1    3    3  502    0 -0.38828083704E+03 -0.11980835273E+03 -0.12954169895E+04  0.13576609726E+04  0.46999998093E+01 0. -1.
       -5    1    3    3    0  502  0.38828083704E+03  0.11980835273E+03  0.12760829280E+04  0.13392258132E+04  0.46999998093E+01 0.  1.
</event>
<event>
 5   0  0.1753474E-06  0.2712294E+04  0.7818609E-02  0.8331027E-01
        1   -1    0    0  501    0  0.00000000000E+00  0.00000000000E+00  0.16115781659E+04  0.16115781659E+04  0.50400001928E-02 0. -1.
       -1   -1    0    0    0  501  0.00000000000E+00  0.00000000000E+00 -0.11412008489E+04  0.11412008489E+04  0.50400001928E-02 0.  1.
    10030    2    1    2    0    0  0.00000000000E+00  0.00000000000E+00  0.47037731705E+03  0.27527790148E+04  0.27122937680E+04 0.  0.
        3    1    3    3  502    0  0.61379167559E+03 -0.12092260816E+04  0.24828174156E+03  0.13786267699E+04  0.10100000352E+00 0. -1.
       -3    1    3    3    0  502 -0.61379167559E+03  0.12092260816E+04  0.22209557549E+03  0.13741522449E+04  0.10100000352E+00 0.  1.
</event>
<event>
 5   0  0.1771016E-06  0.2704046E+04  0.7818609E-02  0.8333693E-01
       -1   -1    0    0    0  501  0.00000000000E+00  0.00000000000E+00  0.12607642415E+04  0.12607642415E+04  0.50400001928E-02 0.  1.
        1   -1    0    0  501    0  0.00000000000E+00  0.00000000000E+00 -0.14498873119E+04  0.14498873119E+04  0.50400001928E-02 0. -1.
    10030    2    1    2    0    0  0.00000000000E+00  0.00000000000E+00 -0.18912307037E+03  0.27106515534E+04  0.27040459146E+04 0.  0.
        2    1    3    3  502    0 -0.15484395969E+03 -0.23260148668E+03 -0.14206256031E+04  0.14478457126E+04  0.25500000920E-02 0. -1.
       -2    1    3    3    0  502  0.15484395969E+03  0.23260148668E+03  0.12315025327E+04  0.12628058408E+04  0.25500000920E-02 0.  1.
</event>
<event>
 5   0  0.4655882E-06  0.2616523E+04  0.7818609E-02  0.8362610E-01
        2   -1    0    0  501    0  0.00000000000E+00  0.00000000000E+00  0.13723760617E+04  0.13723760617E+04  0.25500000920E-02 0.  1.
       -2   -1    0    0    0  501  0.00000000000E+00  0.00000000000E+00 -0.12471426622E+04  0.12471426622E+04  0.25500000920E-02 0. -1.
    10030    2    1    2    0    0  0.00000000000E+00  0.00000000000E+00  0.12523339950E+03  0.26195187240E+04  0.26165234455E+04 0.  0.
        1    1    3    3  502    0  0.12046204919E+04 -0.39230066219E+03 -0.26415915081E+03  0.12941369309E+04  0.50400001928E-02 0.  1.
       -1    1    3    3    0  502 -0.12046204919E+04  0.39230066219E+03  0.38939255030E+03  0.13253817930E+04  0.50400001928E-02 0. -1.
</event>
<event>
 5   0  0.1828511E-06  0.2695821E+04  0.7818609E-02  0.8336362E-01
       -1   -1    0    0    0  501  0.00000000000E+00  0.00000000000E+00  0.10571496460E+04  0.10571496460E+04  0.50400001928E-02 0.  1.
        1   -1    0    0  501    0  0.00000000000E+00  0.00000000000E+00 -0.17186433167E+04  0.17186433167E+04  0.50400001928E-02 0. -1.
    10030    2    1    2    0    0  0.00000000000E+00  0.00000000000E+00 -0.66149367070E+03  0.27757929627E+04  0.26958213396E+04 0.  0.
        4    1    3    3  502    0 -0.72380857309E+03 -0.99433731934E+03 -0.89870394899E+03  0.15232452055E+04  0.12699999809E+01 0. -1.
       -4    1    3    3    0  502  0.72380857309E+03  0.99433731934E+03  0.23721027829E+03  0.12525477572E+04  0.12699999809E+01 0.  1.
</event>
<event>
 5   0  0.4655882E-06  0.2685307E+04  0.7818609E-02  0.8339788E-01
       -2   -1    0    0    0  501  0.00000000000E+00  0.00000000000E+00  0.12783455567E+04  0.12783455567E+04  0.25500000920E-02 0. -1.
        2   -1    0    0  501    0  0.00000000000E+00  0.00000000000E+00 -0.14101963911E+04  0.14101963911E+04  0.25500000920E-02 0.  1.
    10030    2    1    2    0    0  0.00000000000E+00  0.00000000000E+00 -0.13185083433E+03  0.26885419478E+04  0.26853069029E+04 0.  0.
        1    1    3    3  502    0  0.10065172215E+04 -0.16272565617E+03  0.80871830197E+03  0.13013769048E+04  0.50400001928E-02 0. -1.
       -1    1    3    3    0  502 -0.10065172215E+04  0.16272565617E+03 -0.94056913630E+03  0.13871650430E+04  0.50400001928E-02 0.  1.
</event>
<event>
 5   0  0.4448804E-06  0.2703155E+04  0.7818609E-02  0.8333982E-01
        2   -1    0    0  501    0  0.00000000000E+00  0.00000000000E+00  0.13187648282E+04  0.13187648282E+04  0.25500000920E-02 0.  1.
       -2   -1    0    0    0  501  0.00000000000E+00  0.00000000000E+00 -0.13852067542E+04  0.13852067542E+04  0.25500000920E-02 0. -1.
    10030    2    1    2    0    0  0.00000000000E+00  0.00000000000E+00 -0.66441925972E+02  0.27039715824E+04  0.27031551544E+04 0.  0.
        2    1    3    3  502    0  0.92391042144E+03  0.18658640400E+03 -0.10021914927E+04  0.13757953122E+04  0.25500000920E-02 0. -1.
       -2    1    3    3    0  502 -0.92391042144E+03 -0.18658640400E+03  0.93574956676E+03  0.13281762702E+04  0.25500000920E-02 0.  1.
</event>
<event>
 5   0  0.1723605E-06  0.2696313E+04  0.7818609E-02  0.8336202E-01
       -1   -1    0    0    0  501  0.00000000000E+00  0.00000000000E+00  0.16879947604E+04  0.16879947604E+04  0.50400001928E-02 0. -1.
        1   -1    0    0  501    0  0.00000000000E+00  0.00000000000E+00 -0.10767366566E+04  0.10767366567E+04  0.50400001928E-02 0.  1.
    10030    2    1    2    0    0  0.00000000000E+00  0.00000000000E+00  0.61125810378E+03  0.27647314171E+04  0.26963129157E+04 0.  0.
        1    1    3    3  502    0  0.17440506373E+03  0.26963636617E+03 -0.10369484342E+04  0.10855334871E+04  0.50400001928E-02 0.  1.
       -1    1    3    3    0  502 -0.17440506373E+03 -0.26963636617E+03  0.16482065380E+04  0.16791979300E+04  0.50400001928E-02 0. -1.
</event>
<event>
 5   0  0.4439357E-06  0.2696768E+04  0.7818609E-02  0.8336054E-01
        2   -1    0    0  501    0  0.00000000000E+00  0.00000000000E+00  0.74896118359E+03  0.74896118359E+03  0.25500000920E-02 0.  1.
       -2   -1    0    0    0  501  0.00000000000E+00  0.00000000000E+00 -0.24275484089E+04  0.24275484089E+04  0.25500000920E-02 0. -1.
    10030    2    1    2    0    0  0.00000000000E+00  0.00000000000E+00 -0.16785872253E+04  0.31765095925E+04  0.26967680876E+04 0.  0.
        4    1    3    3  502    0  0.18172914804E+03  0.30092488638E+03  0.69403279886E+03  0.77798740946E+03  0.12699999809E+01 0.  1.
       -4    1    3    3    0  502 -0.18172914804E+03 -0.30092488638E+03 -0.23726200242E+04  0.23985221830E+04  0.12699999809E+01 0. -1.
</event>
<event>
 5   0  0.1753474E-06  0.2695454E+04  0.7818609E-02  0.8336482E-01
        1   -1    0    0  501    0  0.00000000000E+00  0.00000000000E+00  0.19172887389E+04  0.19172887389E+04  0.50400001928E-02 0.  1.
       -1   -1    0    0    0  501  0.00000000000E+00  0.00000000000E+00 -0.94736247049E+03  0.94736247050E+03  0.50400001928E-02 0. -1.
    10030    2    1    2    0    0  0.00000000000E+00  0.00000000000E+00  0.96992626842E+03  0.28646512094E+04  0.26954535027E+04 0.  0.
        3    1    3    3  502    0 -0.71885736602E+03  0.10267515282E+04  0.10114296940E+04  0.16105789795E+04  0.10100000352E+00 0.  1.
       -3    1    3    3    0  502  0.71885736602E+03 -0.10267515282E+04 -0.41503425545E+02  0.12540722299E+04  0.10100000352E+00 0. -1.
</event>
<event>
 5   0  0.4401659E-06  0.2637011E+04  0.7818609E-02  0.8355737E-01
        2   -1    0    0  501    0  0.00000000000E+00  0.00000000000E+00  0.22456145922E+04  0.22456145922E+04  0.25500000920E-02 0.  1.
       -2   -1    0    0    0  501  0.00000000000E+00  0.00000000000E+00 -0.77415651766E+03  0.77415651766E+03  0.25500000920E-02 0. -1.
    10030    2    1    2    0    0  0.00000000000E+00  0.00000000000E+00  0.14714580745E+04  0.30197711099E+04  0.26370113179E+04 0.  0.
        5    1    3    3  502    0 -0.56022442313E+03  0.37910691103E+03 -0.56029524892E+03  0.87836570415E+03  0.46999998093E+01 0. -1.
       -5    1    3    3    0  502  0.56022442313E+03 -0.37910691103E+03  0.20317533235E+04  0.21414054057E+04  0.46999998093E+01 0.  1.
</event>
<event>
 5   0  0.4401659E-06  0.2626505E+04  0.7818609E-02  0.8359253E-01
        2   -1    0    0  501    0  0.00000000000E+00  0.00000000000E+00  0.16293231247E+04  0.16293231247E+04  0.25500000920E-02 0. -1.
       -2   -1    0    0    0  501  0.00000000000E+00  0.00000000000E+00 -0.10584963455E+04  0.10584963455E+04  0.25500000920E-02 0.  1.
    10030    2    1    2    0    0  0.00000000000E+00  0.00000000000E+00  0.57082677923E+03  0.26878194703E+04  0.26265053384E+04 0.  0.
        5    1    3    3  502    0  0.20104279922E+03  0.50226289636E+03 -0.93915157844E+03  0.10838422401E+04  0.46999998093E+01 0.  1.
       -5    1    3    3    0  502 -0.20104279922E+03 -0.50226289636E+03  0.15099783577E+04  0.16039772301E+04  0.46999998093E+01 0. -1.
</event>
<event>
 5   0  0.4655882E-06  0.2696037E+04  0.7818609E-02  0.8336292E-01
        2   -1    0    0  501    0  0.00000000000E+00  0.00000000000E+00  0.64926683921E+03  0.64926683921E+03  0.25500000920E-02 0.  1.
       -2   -1    0    0    0  501  0.00000000000E+00  0.00000000000E+00 -0.27987780436E+04  0.27987780436E+04  0.25500000920E-02 0. -1.
    10030    2    1    2    0    0  0.00000000000E+00  0.00000000000E+00 -0.21495112044E+04  0.34480448828E+04  0.26960369241E+04 0.  0.
        1    1    3    3  502    0 -0.11714055439E+04 -0.41530298750E+03 -0.40715091988E+03  0.13078376777E+04  0.50400001928E-02 0.  1.
       -1    1    3    3    0  502  0.11714055439E+04  0.41530298750E+03 -0.17423602845E+04  0.21402072051E+04  0.50400001928E-02 0. -1.
</event>
<event>
 5   0  0.1828511E-06  0.2704301E+04  0.7818609E-02  0.8333611E-01
        1   -1    0    0  501    0  0.00000000000E+00  0.00000000000E+00  0.21443100780E+04  0.21443100780E+04  0.50400001928E-02 0. -1.
       -1   -1    0    0    0  501  0.00000000000E+00  0.00000000000E+00 -0.85263384842E+03  0.85263384844E+03  0.50400001928E-02 0.  1.
    10030    2    1    2    0    0  0.00000000000E+00  0.00000000000E+00  0.12916762296E+04  0.29969439265E+04  0.27043012806E+04 0.  0.
        4    1    3    3  502    0  0.14509884372E+03  0.10373313234E+04 -0.30179793366E+03  0.10900429141E+04  0.12699999809E+01 0.  1.
       -4    1    3    3    0  502 -0.14509884372E+03 -0.10373313234E+04  0.15934741632E+04  0.19069010123E+04  0.12699999809E+01 0. -1.
</event>
<event>
 5   0  0.1753474E-06  0.2702629E+04  0.7818609E-02  0.8334152E-01
       -1   -1    0    0    0  501  0.00000000000E+00  0.00000000000E+00  0.10287005078E+04  0.10287005078E+04  0.50400001928E-02 0.  1.
        1   -1    0    0  501    0  0.00000000000E+00  0.00000000000E+00 -0.17751049898E+04  0.17751049898E+04  0.50400001928E-02 0. -1.
    10030    2    1    2    0    0  0.00000000000E+00  0.00000000000E+00 -0.74640448204E+03  0.28038054976E+04  0.27026293896E+04 0.  0.
        3    1    3    3  502    0 -0.12885179492E+04  0.27784826997E+03 -0.68195626294E+03  0.14840965337E+04  0.10100000352E+00 0. -1.
       -3    1    3    3    0  502  0.12885179492E+04 -0.27784826997E+03 -0.64448219104E+02  0.13197089640E+04  0.10100000352E+00 0.  1.
</event>
<event>
 5   0  0.1753474E-06  0.2695207E+04  0.7818609E-02  0.8336562E-01
        1   -1    0    0  501    0  0.00000000000E+00  0.00000000000E+00  0.13846217415E+04  0.13846217415E+04  0.50400001928E-02 0. -1.
       -1   -1    0    0    0  501  0.00000000000E+00  0.00000000000E+00 -0.13115751979E+04  0.13115751979E+04  0.50400001928E-02 0.  1.
    10030    2    1    2    0    0  0.00000000000E+00  0.00000000000E+00  0.73046543627E+02  0.26961969394E+04  0.26952072534E+04 0.  0.
        3    1    3    3  502    0 -0.12654458114E+03  0.91156523910E+03 -0.94825214871E+03  0.13214185044E+04  0.10100000352E+00 0.  1.
       -3    1    3    3    0  502  0.12654458114E+03 -0.91156523910E+03  0.10212986923E+04  0.13747784350E+04  0.10100000352E+00 0. -1.
</event>
<event>
 5   0  0.4439357E-06  0.2764171E+04  0.7818609E-02  0.8314479E-01
       -2   -1    0    0    0  501  0.00000000000E+00  0.00000000000E+00  0.17263586198E+04  0.17263586198E+04  0.25500000920E-02 0. -1.
        2   -1    0    0  501    0  0.00000000000E+00  0.00000000000E+00 -0.11064680015E+04  0.11064680015E+04  0.25500000920E-02 0.  1.
    10030    2    1    2    0    0  0.00000000000E+00  0.00000000000E+00  0.61989061831E+03  0.28328266213E+04  0.27641711755E+04 0.  0.
        4    1    3    3  502    0  0.10476402938E+04 -0.74273551169E+03 -0.21357795615E+03  0.13018538250E+04  0.12699999809E+01 0.  1.
       -4    1    3    3    0  502 -0.10476402938E+04  0.74273551169E+03  0.83346857446E+03  0.15309727963E+04  0.12699999809E+01 0. -1.
</event>
<event>
 5   0  0.1732312E-06  0.2704712E+04  0.7818609E-02  0.8333478E-01
        1   -1    0    0  501    0  0.00000000000E+00  0.00000000000E+00  0.21857684731E+04  0.21857684731E+04  0.50400001928E-02 0.  1.
       -1   -1    0    0    0  501  0.00000000000E+00  0.00000000000E+00 -0.83671547377E+03  0.83671547378E+03  0.50400001928E-02 0. -1.
    10030    2    1    2    0    0  0.00000000000E+00  0.00000000000E+00  0.13490529993E+04  0.30224839468E+04  0.27047116693E+04 0.  0.
        5    1    3    3  502    0 -0.18055531053E+03  0.98241948500E+03 -0.34422582046E+03  0.10565329006E+04  0.46999998093E+01 0. -1.
       -5    1    3    3    0  502  0.18055531053E+03 -0.98241948500E+03  0.16932788197E+04  0.19659510462E+04  0.46999998093E+01 0.  1.
</event>
<event>
 5   0  0.1723605E-06  0.2702594E+04  0.7818609E-02  0.8334164E-01
       -1   -1    0    0    0  501  0.00000000000E+00  0.00000000000E+00  0.14990572427E+04  0.14990572427E+04  0.50400001928E-02 0. -1.
        1   -1    0    0  501    0  0.00000000000E+00  0.00000000000E+00 -0.12181009955E+04  0.12181009955E+04  0.50400001928E-02 0.  1.
    10030    2    1    2    0    0  0.00000000000E+00  0.00000000000E+00  0.28095624717E+03  0.27171582382E+04  0.27025936577E+04 0.  0.
        1    1    3    3  502    0 -0.11261505371E+03  0.50940351464E+03 -0.11127663353E+04  0.12289926802E+04  0.50400001928E-02 0.  1.
       -1    1    3    3    0  502  0.11261505371E+03 -0.50940351464E+03  0.13937225824E+04  0.14881655580E+04  0.50400001928E-02 0. -1.
</event>
<event>
 5   0  0.1771016E-06  0.2701290E+04  0.7818609E-02  0.8334587E-01
       -1   -1    0    0    0  501  0.00000000000E+00  0.00000000000E+00  0.69406375988E+03  0.69406375990E+03  0.50400001928E-02 0.  1.
        1   -1    0    0  501    0  0.00000000000E+00  0.00000000000E+00 -0.26283488272E+04  0.26283488272E+04  0.50400001928E-02 0. -1.
    10030    2    1    2    0    0  0.00000000000E+00  0.00000000000E+00 -0.19342850673E+04  0.33224125871E+04  0.27012898173E+04 0.  0.
        2    1    3    3  502    0 -0.28727687552E+03  0.66248247925E+02 -0.25882913965E+04  0.26050276749E+04  0.25500000920E-02 0. -1.
       -2    1    3    3    0  502  0.28727687552E+03 -0.66248247925E+02  0.65400632924E+03  0.71738491220E+03  0.25500000920E-02 0.  1.
</event>
<event>
 5   0  0.4487186E-06  0.2683768E+04  0.7818609E-02  0.8340291E-01
       -2   -1    0    0    0  501  0.00000000000E+00  0.00000000000E+00  0.61733553678E+03  0.61733553679E+03  0.25500000920E-02 0. -1.
        2   -1    0    0  501    0  0.00000000000E+00  0.00000000000E+00 -0.29168140848E+04  0.29168140848E+04  0.25500000920E-02 0.  1.
    10030    2    1    2    0    0  0.00000000000E+00  0.00000000000E+00 -0.22994785481E+04  0.35341496216E+04  0.26837682380E+04 0.  0.
        3    1    3    3  502    0  0.32964356440E+03  0.10346787391E+04 -0.21878300544E+04  0.24425039058E+04  0.10100000352E+00 0. -1.
       -3    1    3    3    0  502 -0.32964356440E+03 -0.10346787391E+04 -0.11164849367E+03  0.10916457159E+04  0.10100000352E+00 0.  1.
</event>
<event>
 5   0  0.4439357E-06  0.2704158E+04  0.7818609E-02  0.8333657E-01
       -2   -1    0    0    0  501  0.00000000000E+00  0.00000000000E+00  0.10446823506E+04  0.10446823506E+04  0.25500000920E-02 0.  1.
        2   -1    0    0  501    0  0.00000000000E+00  0.00000000000E+00 -0.17499274029E+04  0.17499274029E+04  0.25500000920E-02 0. -1.
    10030    2    1    2    0    0  0.00000000000E+00  0.00000000000E+00 -0.70524505224E+03  0.27946097535E+04  0.27041584811E+04 0.  0.
        4    1    3    3  502    0  0.38608098897E+03  0.30784490782E+03 -0.16534099260E+04  0.17255703445E+04  0.12699999809E+01 0. -1.
       -4    1    3    3    0  502 -0.38608098897E+03 -0.30784490782E+03  0.94816487380E+03  0.10690394091E+04  0.12699999809E+01 0.  1.
</event>
<event>
 5   0  0.4487186E-06  0.2699619E+04  0.7818609E-02  0.8335129E-01
       -2   -1    0    0    0  501  0.00000000000E+00  0.00000000000E+00  0.17795137601E+04  0.17795137601E+04  0.25500000920E-02 0. -1.
        2   -1    0    0  501    0  0.00000000000E+00  0.00000000000E+00 -0.10238673255E+04  0.10238673255E+04  0.25500000920E-02 0.  1.
    10030    2    1    2    0    0  0.00000000000E+00  0.00000000000E+00  0.75564643451E+03  0.28033810856E+04  0.26996192282E+04 0.  0.
        3    1    3    3  502    0 -0.13076736187E+04 -0.62415652194E+02  0.36432075133E+02  0.13096691617E+04  0.10100000352E+00 0. -1.
       -3    1    3    3    0  502  0.13076736187E+04  0.62415652194E+02  0.71921435938E+03  0.14937119239E+04  0.10100000352E+00 0.  1.
</event>
<event>
 5   0  0.4487186E-06  0.2699996E+04  0.7818609E-02  0.8335006E-01
        2   -1    0    0  501    0  0.00000000000E+00  0.00000000000E+00  0.19454082176E+04  0.19454082176E+04  0.25500000920E-02 0.  1.
       -2   -1    0    0    0  501  0.00000000000E+00  0.00000000000E+00 -0.93681883682E+03  0.93681883682E+03  0.25500000920E-02 0. -1.
    10030    2    1    2    0    0  0.00000000000E+00  0.00000000000E+00  0.10085893808E+04  0.28822270544E+04  0.26999963433E+04 0.  0.
        3    1    3    3  502    0  0.77679181616E+03 -0.17366244438E+03 -0.65967941435E+03  0.10337993568E+04  0.10100000352E+00 0. -1.
       -3    1    3    3    0  502 -0.77679181616E+03  0.17366244438E+03  0.16682687951E+04  0.18484276976E+04  0.10100000352E+00 0.  1.
</event>
<event>
 5   0  0.1732312E-06  0.2700432E+04  0.7818609E-02  0.8334865E-01
       -1   -1    0    0    0  501  0.00000000000E+00  0.00000000000E+00  0.17413560819E+04  0.17413560819E+04  0.50400001928E-02 0.  1.
        1   -1    0    0  501    0  0.00000000000E+00  0.00000000000E+00 -0.10469327243E+04  0.10469327243E+04  0.50400001928E-02 0. -1.
    10030    2    1    2    0    0  0.00000000000E+00  0.00000000000E+00  0.69442335758E+03  0.27882888061E+04  0.27004315705E+04 0.  0.
        5    1    3    3  502    0 -0.65577672322E+03 -0.49181431171E+03  0.14550284220E+04  0.16700461751E+04  0.46999998093E+01 0.  1.
       -5    1    3    3    0  502  0.65577672322E+03  0.49181431171E+03 -0.76060506445E+03  0.11182426311E+04  0.46999998093E+01 0. -1.
</event>
<event>
 5   0  0.1828511E-06  0.2689448E+04  0.7818609E-02  0.8338437E-01
       -1   -1    0    0    0  501  0.00000000000E+00  0.00000000000E+00  0.13624950635E+04  0.13624950635E+04  0.50400001928E-02 0. -1.
        1   -1    0    0  501    0  0.00000000000E+00  0.00000000000E+00 -0.13271842325E+04  0.13271842325E+04  0.50400001928E-02 0.  1.
    10030    2    1    2    0    0  0.00000000000E+00  0.00000000000E+00  0.35310830951E+02  0.26896792960E+04  0.26894475010E+04 0.  0.
        4    1    3    3  502    0 -0.76105226588E+03 -0.53662636377E+02  0.11250900619E+04  0.13593783470E+04  0.12699999809E+01 0. -1.
       -4    1    3    3    0  502  0.76105226588E+03  0.53662636377E+02 -0.10897792309E+04  0.13303009490E+04  0.12699999809E+01 0.  1.
</event>
<event>
 5   0  0.1732312E-06  0.2705814E+04  0.7818609E-02  0.8333121E-01
        1   -1    0    0  501    0  0.00000000000E+00  0.00000000000E+00  0.20380192363E+04  0.20380192363E+04  0.50400001928E-02 0.  1.
       -1   -1    0    0    0  501  0.00000000000E+00  0.00000000000E+00 -0.89810621158E+03  0.89810621160E+03  0.50400001928E-02 0. -1.
    10030    2    1    2    0    0  0.00000000000E+00  0.00000000000E+00  0.11399130247E+04  0.29361254479E+04  0.27058142844E+04 0.  0.
        5    1    3    3  502    0  0.88937223894E+03 -0.98881704014E+03  0.30065167185E+03  0.13635085757E+04  0.46999998093E+01 0. -1.
       -5    1    3    3    0  502 -0.88937223894E+03  0.98881704014E+03  0.83926135285E+03  0.15726168722E+04  0.46999998093E+01 0.  1.
</event>
<event>
 5   0  0.1753474E-06  0.2699944E+04  0.7818609E-02  0.8335023E-01
       -1   -1    0    0    0  501  0.00000000000E+00  0.00000000000E+00  0.13274080123E+04  0.13274080123E+04  0.50400001928E-02 0. -1.
        1   -1    0    0  501    0  0.00000000000E+00  0.00000000000E+00 -0.13729192070E+04  0.13729192070E+04  0.50400001928E-02 0.  1.
    10030    2    1    2    0    0  0.00000000000E+00  0.00000000000E+00 -0.45511194665E+02  0.27003272193E+04  0.26999436702E+04 0.  0.
        3    1    3    3  502    0  0.63111127807E+02  0.12979185413E+04 -0.38866053348E+03  0.13563305551E+04  0.10100000352E+00 0.  1.
       -3    1    3    3    0  502 -0.63111127807E+02 -0.12979185413E+04  0.34314933881E+03  0.13439966641E+04  0.10100000352E+00 0. -1.
</event>
<event>
 5   0  0.4439357E-06  0.2708583E+04  0.7818609E-02  0.8332225E-01
       -2   -1    0    0    0  501  0.00000000000E+00  0.00000000000E+00  0.80868086202E+03  0.80868086202E+03  0.25500000920E-02 0. -1.
        2   -1    0    0  501    0  0.00000000000E+00  0.00000000000E+00 -0.22680213249E+04  0.22680213249E+04  0.25500000920E-02 0.  1.
    10030    2    1    2    0    0  0.00000000000E+00  0.00000000000E+00 -0.14593404629E+04  0.30767021869E+04  0.27085829802E+04 0.  0.
        4    1    3    3  502    0 -0.10814375988E+03  0.98379910056E+03  0.32038360858E+03  0.10402898695E+04  0.12699999809E+01 0. -1.
       -4    1    3    3    0  502  0.10814375988E+03 -0.98379910056E+03 -0.17797240715E+04  0.20364123174E+04  0.12699999809E+01 0.  1.
</event>
<event>
 5   0  0.4655882E-06  0.2680417E+04  0.7818609E-02  0.8341387E-01
        2   -1    0    0  501    0  0.00000000000E+00  0.00000000000E+00  0.21482730563E+04  0.21482730563E+04  0.25500000920E-02 0.  1.
       -2   -1    0    0    0  501  0.00000000000E+00  0.00000000000E+00 -0.83609442159E+03  0.83609442159E+03  0.25500000920E-02 0. -1.
    10030    2    1    2    0    0  0.00000000000E+00  0.00000000000E+00  0.13121786347E+04  0.29843674779E+04  0.26804172201E+04 0.  0.
        1    1    3    3  502    0 -0.31981296329E+02  0.84541839436E+03  0.18133814526E+04  0.20010265759E+04  0.50400001928E-02 0.  1.
       -1    1    3    3    0  502  0.31981296329E+02 -0.84541839436E+03 -0.50120281789E+03  0.98334090199E+03  0.50400001928E-02 0. -1.
</event>
<event>
 5   0  0.4448804E-06  0.2729899E+04  0.7818609E-02  0.8325369E-01
       -2   -1    0    0    0  501  0.00000000000E+00  0.00000000000E+00  0.15199638334E+04  0.15199638334E+04  0.25500000920E-02 0. -1.
        2   -1    0    0  501    0  0.00000000000E+00  0.00000000000E+00 -0.12257440449E+04  0.12257440449E+04  0.25500000920E-02 0.  1.
    10030    2    1    2    0    0  0.00000000000E+00  0.00000000000E+00  0.29421978845E+03  0.27457078783E+04  0.27298986188E+04 0.  0.
        2    1    3    3  502    0 -0.83484966924E+03 -0.10767796088E+04  0.22918097960E+03  0.13816483698E+04  0.25500000920E-02 0. -1.
       -2    1    3    3    0  502  0.83484966924E+03  0.10767796088E+04  0.65038808846E+02  0.13640595086E+04  0.25500000920E-02 0.  1.
</event>
<event>
 5   0  0.1753474E-06  0.2703717E+04  0.7818609E-02  0.8333800E-01
       -1   -1    0    0    0  501  0.00000000000E+00  0.00000000000E+00  0.11172574483E+04  0.11172574483E+04  0.50400001928E-02 0. -1.
        1   -1    0    0  501    0  0.00000000000E+00  0.00000000000E+00 -0.16357207053E+04  0.16357207053E+04  0.50400001928E-02 0.  1.
    10030    2    1    2    0    0  0.00000000000E+00  0.00000000000E+00 -0.51846325698E+03  0.27529781536E+04  0.27037168056E+04 0.  0.
        3    1    3    3  502    0 -0.28524172833E+03 -0.10372328791E+04  0.57440770238E+03  0.12194913316E+04  0.10100000352E+00 0. -1.
       -3    1    3    3    0  502  0.28524172833E+03  0.10372328791E+04 -0.10928709594E+04  0.15334868220E+04  0.10100000352E+00 0.  1.
</event>
<event>
 5   0  0.4487186E-06  0.2684232E+04  0.7818609E-02  0.8340139E-01
        2   -1    0    0  501    0  0.00000000000E+00  0.00000000000E+00  0.19296941711E+04  0.19296941711E+04  0.25500000920E-02 0.  1.
       -2   -1    0    0    0  501  0.00000000000E+00  0.00000000000E+00 -0.93345155413E+03  0.93345155413E+03  0.25500000920E-02 0. -1.
    10030    2    1    2    0    0  0.00000000000E+00  0.00000000000E+00  0.99624261692E+03  0.28631457252E+04  0.26842324959E+04 0.  0.
        3    1    3    3  502    0 -0.94530314033E+03  0.43205216663E+03 -0.40759802693E+03  0.11164243206E+04  0.10100000352E+00 0. -1.
       -3    1    3    3    0  502  0.94530314033E+03 -0.43205216663E+03  0.14038406439E+04  0.17467214046E+04  0.10100000352E+00 0.  1.
</event>
<event>
 5   0  0.4401659E-06  0.2702864E+04  0.7818609E-02  0.8334076E-01
       -2   -1    0    0    0  501  0.00000000000E+00  0.00000000000E+00  0.97129145937E+03  0.97129145938E+03  0.25500000920E-02 0.  1.
        2   -1    0    0  501    0  0.00000000000E+00  0.00000000000E+00 -0.18803504203E+04  0.18803504203E+04  0.25500000920E-02 0. -1.
    10030    2    1    2    0    0  0.00000000000E+00  0.00000000000E+00 -0.90905896096E+03  0.28516418797E+04  0.27028638914E+04 0.  0.
        5    1    3    3  502    0 -0.21824210630E+03  0.15076453019E+03  0.94354855615E+03  0.98013546428E+03  0.46999998093E+01 0.  1.
       -5    1    3    3    0  502  0.21824210630E+03 -0.15076453019E+03 -0.18526075171E+04  0.18715064154E+04  0.46999998093E+01 0. -1.
</event>
<event>
 5   0  0.4655882E-06  0.2702086E+04  0.7818609E-02  0.8334329E-01
       -2   -1    0    0    0  501  0.00000000000E+00  0.00000000000E+00  0.68206555882E+03  0.68206555883E+03  0.25500000920E-02 0.  1.
        2   -1    0    0  501    0  0.00000000000E+00  0.00000000000E+00 -0.26761603676E+04  0.26761603676E+04  0.25500000920E-02 0. -1.
    10030    2    1    2    0    0  0.00000000000E+00  0.00000000000E+00 -0.19940948087E+04  0.33582259264E+04  0.27020857252E+04 0.  0.
        1    1    3    3  502    0  0.46839318371E+03  0.12405226518E+04 -0.13188129517E+04  0.18701754532E+04  0.50400001928E-02 0.  1.
       -1    1    3    3    0  502 -0.46839318371E+03 -0.12405226518E+04 -0.67528185702E+03  0.14880504732E+04  0.50400001928E-02 0. -1.
</event>
<event>
 5   0  0.1753474E-06  0.2695683E+04  0.7818609E-02  0.8336407E-01
       -1   -1    0    0    0  501  0.00000000000E+00  0.00000000000E+00  0.10591282242E+04  0.10591282242E+04  0.50400001928E-02 0. -1.
        1   -1    0    0  501    0  0.00000000000E+00  0.00000000000E+00 -0.17152570732E+04  0.17152570732E+04  0.50400001928E-02 0.  1.
    10030    2    1    2    0    0  0.00000000000E+00  0.00000000000E+00 -0.65612884895E+03  0.27743852974E+04  0.26956833479E+04 0.  0.
        3    1    3    3  502    0  0.84725548920E+03  0.46281462540E+02 -0.14058701827E+04  0.16420885538E+04  0.10100000352E+00 0.  1.
       -3    1    3    3    0  502 -0.84725548920E+03 -0.46281462540E+02  0.74974133376E+03  0.11322967436E+04  0.10100000352E+00 0. -1.
</event>
<event>
 5   0  0.1828511E-06  0.2680196E+04  0.7818609E-02  0.8341459E-01
       -1   -1    0    0    0  501  0.00000000000E+00  0.00000000000E+00  0.82220531881E+03  0.82220531883E+03  0.50400001928E-02 0. -1.
        1   -1    0    0  501    0  0.00000000000E+00  0.00000000000E+00 -0.21842021196E+04  0.21842021196E+04  0.50400001928E-02 0.  1.
    10030    2    1    2    0    0  0.00000000000E+00  0.00000000000E+00 -0.13619968008E+04  0.30064074384E+04  0.26801959631E+04 0.  0.
        4    1    3    3  502    0  0.53240941149E+03  0.25185071632E+03  0.66924277778E+03  0.89150214429E+03  0.12699999809E+01 0. -1.
       -4    1    3    3    0  502 -0.53240941149E+03 -0.25185071632E+03 -0.20312395785E+04  0.21149052941E+04  0.12699999809E+01 0.  1.
</event>
<event>
 5   0  0.1732312E-06  0.2700638E+04  0.7818609E-02  0.8334798E-01
       -1   -1    0    0    0  501  0.00000000000E+00  0.00000000000E+00  0.13840084496E+04  0.13840084496E+04  0.50400001928E-02 0. -1.
        1   -1    0    0  501    0  0.00000000000E+00  0.00000000000E+00 -0.13174493358E+04  0.13174493358E+04  0.50400001928E-02 0.  1.
    10030    2    1    2    0    0  0.00000000000E+00  0.00000000000E+00  0.66559113788E+02  0.27014577855E+04  0.27006377119E+04 0.  0.
        5    1    3    3  502    0 -0.96931073427E+03  0.20167481705E+03 -0.88520560959E+03  0.13280990523E+04  0.46999998093E+01 0.  1.
       -5    1    3    3    0  502  0.96931073427E+03 -0.20167481705E+03  0.95176472338E+03  0.13733587332E+04  0.46999998093E+01 0. -1.
</event>
<event>
 5   0  0.4439357E-06  0.2704104E+04  0.7818609E-02  0.8333675E-01
       -2   -1    0    0    0  501  0.00000000000E+00  0.00000000000E+00  0.14113379858E+04  0.14113379858E+04  0.25500000920E-02 0. -1.
        2   -1    0    0  501    0  0.00000000000E+00  0.00000000000E+00 -0.12952567016E+04  0.12952567016E+04  0.25500000920E-02 0.  1.
    10030    2    1    2    0    0  0.00000000000E+00  0.00000000000E+00  0.11608128419E+03  0.27065946874E+04  0.27041042764E+04 0.  0.
        4    1    3    3  502    0 -0.18161060985E+03 -0.49545418962E+03  0.13040108170E+04  0.14067349044E+04  0.12699999809E+01 0. -1.
       -4    1    3    3    0  502  0.18161060985E+03  0.49545418962E+03 -0.11879295328E+04  0.12998597830E+04  0.12699999809E+01 0.  1.
</event>
<event>
 5   0  0.4401659E-06  0.2634245E+04  0.7818609E-02  0.8356661E-01
       -2   -1    0    0    0  501  0.00000000000E+00  0.00000000000E+00  0.10659495889E+04  0.10659495889E+04  0.25500000920E-02 0. -1.
        2   -1    0    0  501    0  0.00000000000E+00  0.00000000000E+00 -0.16274800670E+04  0.16274800670E+04  0.25500000920E-02 0.  1.
    10030    2    1    2    0    0  0.00000000000E+00  0.00000000000E+00 -0.56153047803E+03  0.26934296559E+04  0.26342450215E+04 0.  0.
        5    1    3    3  502    0 -0.40419623516E+02  0.11458082544E+04  0.38208967208E+03  0.12085217869E+04  0.46999998093E+01 0. -1.
       -5    1    3    3    0  502  0.40419623516E+02 -0.11458082544E+04 -0.94362015012E+03  0.14849078690E+04  0.46999998093E+01 0.  1.
</event>
<event>
 5   0  0.4448804E-06  0.2641365E+04  0.7818609E-02  0.8354285E-01
        2   -1    0    0  501    0  0.00000000000E+00  0.00000000000E+00  0.15313450373E+04  0.15313450373E+04  0.25500000920E-02 0.  1.
       -2   -1    0    0    0  501  0.00000000000E+00  0.00000000000E+00 -0.11390003686E+04  0.11390003686E+04  0.25500000920E-02 0. -1.
    10030    2    1    2    0    0  0.00000000000E+00  0.00000000000E+00  0.39234466870E+03  0.26703454058E+04  0.26413652242E+04 0.  0.
        2    1    3    3  502    0  0.97528230735E+03  0.70535743217E+03 -0.35338899621E+03  0.12544275462E+04  0.25500000920E-02 0. -1.
       -2    1    3    3    0  502 -0.97528230735E+03 -0.70535743217E+03  0.74573366491E+03  0.14159178596E+04  0.25500000920E-02 0.  1.
</event>
<event>
 5   0  0.4487186E-06  0.2701834E+04  0.7818609E-02  0.8334410E-01
        2   -1    0    0  501    0  0.00000000000E+00  0.00000000000E+00  0.24507018918E+04  0.24507018918E+04  0.25500000920E-02 0. -1.
       -2   -1    0    0    0  501  0.00000000000E+00  0.00000000000E+00 -0.74467520248E+03  0.74467520248E+03  0.25500000920E-02 0.  1.
    10030    2    1    2    0    0  0.00000000000E+00  0.00000000000E+00  0.17060266894E+04  0.31953770943E+04  0.27018341382E+04 0.  0.
        3    1    3    3  502    0  0.51694133491E+03  0.19488782654E+03  0.23109947396E+04  0.23761115936E+04  0.10100000352E+00 0. -1.
       -3    1    3    3    0  502 -0.51694133491E+03 -0.19488782654E+03 -0.60496805023E+03  0.81926550072E+03  0.10100000352E+00 0.  1.
</event>
<event>
 5   0  0.4448804E-06  0.2700808E+04  0.7818609E-02  0.8334743E-01
       -2   -1    0    0    0  501  0.00000000000E+00  0.00000000000E+00  0.93085547992E+03  0.93085547993E+03  0.25500000920E-02 0.  1.
        2   -1    0    0  501    0  0.00000000000E+00  0.00000000000E+00 -0.19590489067E+04  0.19590489067E+04  0.25500000920E-02 0. -1.
    10030    2    1    2    0    0  0.00000000000E+00  0.00000000000E+00 -0.10281934268E+04  0.28899043866E+04  0.27008083310E+04 0.  0.
        2    1    3    3  502    0  0.13010721275E+04 -0.25941300776E+03 -0.78374808312E+03  0.15408909265E+04  0.25500000920E-02 0. -1.
       -2    1    3    3    0  502 -0.13010721275E+04  0.25941300776E+03 -0.24444534364E+03  0.13490134601E+04  0.25500000920E-02 0.  1.
</event>
<event>
 5   0  0.4487186E-06  0.2702236E+04  0.7818609E-02  0.8334280E-01
       -2   -1    0    0    0  501  0.00000000000E+00  0.00000000000E+00  0.81170220335E+03  0.81170220335E+03  0.25500000920E-02 0. -1.
        2   -1    0    0  501    0  0.00000000000E+00  0.00000000000E+00 -0.22490021901E+04  0.22490021901E+04  0.25500000920E-02 0.  1.
    10030    2    1    2    0    0  0.00000000000E+00  0.00000000000E+00 -0.14372999867E+04  0.30607043934E+04  0.27022361355E+04 0.  0.
        3    1    3    3  502    0 -0.23632098841E+03  0.26119807891E+03  0.75878175410E+03  0.83655352880E+03  0.10100000352E+00 0. -1.
       -3    1    3    3    0  502  0.23632098841E+03 -0.26119807891E+03 -0.21960817408E+04  0.22241508646E+04  0.10100000352E+00 0.  1.
</event>
<event>
 5   0  0.4487186E-06  0.2703953E+04  0.7818609E-02  0.8333724E-01
        2   -1    0    0  501    0  0.00000000000E+00  0.00000000000E+00  0.22459291006E+04  0.22459291006E+04  0.25500000920E-02 0. -1.
       -2   -1    0    0    0  501  0.00000000000E+00  0.00000000000E+00 -0.81384601159E+03  0.81384601159E+03  0.25500000920E-02 0.  1.
    10030    2    1    2    0    0  0.00000000000E+00  0.00000000000E+00  0.14320830890E+04  0.30597751122E+04  0.27039529884E+04 0.  0.
        3    1    3    3  502    0  0.12449908380E+04 -0.31210491596E+03  0.23537570309E+03  0.13049189235E+04  0.10100000352E+00 0.  1.
       -3    1    3    3    0  502 -0.12449908380E+04  0.31210491596E+03  0.11967073859E+04  0.17548561886E+04  0.10100000352E+00 0. -1.
</event>
<event>
 5   0  0.4439357E-06  0.2679914E+04  0.7818609E-02  0.8341552E-01
       -2   -1    0    0    0  501  0.00000000000E+00  0.00000000000E+00  0.11495479360E+04  0.11495479360E+04  0.25500000920E-02 0.  1.
        2   -1    0    0  501    0  0.00000000000E+00  0.00000000000E+00 -0.15619047958E+04  0.15619047958E+04  0.25500000920E-02 0. -1.
    10030    2    1    2    0    0  0.00000000000E+00  0.00000000000E+00 -0.41235685978E+03  0.27114527318E+04  0.26799137555E+04 0.  0.
        4    1    3    3  502    0 -0.90359947489E+03  0.90691455500E+03 -0.60643083585E+03  0.14165966231E+04  0.12699999809E+01 0.  1.
       -4    1    3    3    0  502  0.90359947489E+03 -0.90691455500E+03  0.19407397607E+03  0.12948561087E+04  0.12699999809E+01 0. -1.
</event>
<event>
 5   0  0.1732312E-06  0.2703339E+04  0.7818609E-02  0.8333922E-01
       -1   -1    0    0    0  501  0.00000000000E+00  0.00000000000E+00  0.14062938349E+04  0.14062938349E+04  0.50400001928E-02 0. -1.
        1   -1    0    0  501    0  0.00000000000E+00  0.00000000000E+00 -0.12991670092E+04  0.12991670092E+04  0.50400001928E-02 0.  1.
    10030    2    1    2    0    0  0.00000000000E+00  0.00000000000E+00  0.10712682566E+03  0.27054608441E+04  0.27033390875E+04 0.  0.
        5    1    3    3  502    0  0.46450729223E+03  0.52553697507E+02  0.13228094049E+04  0.14029881422E+04  0.46999998093E+01 0. -1.
       -5    1    3    3    0  502 -0.46450729223E+03 -0.52553697507E+02 -0.12156825792E+04  0.13024727018E+04  0.46999998093E+01 0.  1.
</event>
<event>
 5   0  0.1771016E-06  0.2643566E+04  0.7818609E-02  0.8353552E-01
       -1   -1    0    0    0  501  0.00000000000E+00  0.00000000000E+00  0.98567696591E+03  0.98567696592E+03  0.50400001928E-02 0. -1.
        1   -1    0    0  501    0  0.00000000000E+00  0.00000000000E+00 -0.17724976097E+04  0.17724976097E+04  0.50400001928E-02 0.  1.
    10030    2    1    2    0    0  0.00000000000E+00  0.00000000000E+00 -0.78682064380E+03  0.27581745756E+04  0.26435658237E+04 0.  0.
        2    1    3    3  502    0 -0.63757635786E+03  0.85323495408E+03  0.42320759006E+03  0.11461318263E+04  0.25500000920E-02 0. -1.
       -2    1    3    3    0  502  0.63757635786E+03 -0.85323495408E+03 -0.12100282339E+04  0.16120427493E+04  0.25500000920E-02 0.  1.
</event>
<event>
 5   0  0.1771016E-06  0.2702759E+04  0.7818609E-02  0.8334110E-01
       -1   -1    0    0    0  501  0.00000000000E+00  0.00000000000E+00  0.82151251810E+03  0.82151251812E+03  0.50400001928E-02 0. -1.
        1   -1    0    0  501    0  0.00000000000E+00  0.00000000000E+00 -0.22230055103E+04  0.22230055103E+04  0.50400001928E-02 0.  1.
    10030    2    1    2    0    0  0.00000000000E+00  0.00000000000E+00 -0.14014929922E+04  0.30445180284E+04  0.27027592231E+04 0.  0.
        2    1    3    3  502    0 -0.53083085414E+03  0.12390774471E+04 -0.59309824969E+03  0.14727049431E+04  0.25500000920E-02 0. -1.
       -2    1    3    3    0  502  0.53083085414E+03 -0.12390774471E+04 -0.80839474247E+03  0.15718130853E+04  0.25500000920E-02 0.  1.
</event>
<event>
 5   0  0.1753474E-06  0.2701302E+04  0.7818609E-02  0.8334583E-01
       -1   -1    0    0    0  501  0.00000000000E+00  0.00000000000E+00  0.81814426953E+03  0.81814426954E+03  0.50400001928E-02 0. -1.
        1   -1    0    0  501    0  0.00000000000E+00  0.00000000000E+00 -0.22297516431E+04  0.22297516431E+04  0.50400001928E-02 0.  1.
    10030    2    1    2    0    0  0.00000000000E+00  0.00000000000E+00 -0.14116073736E+04  0.30478959127E+04  0.27013023002E+04 0.  0.
        3    1    3    3  502    0 -0.68441392252E+03  0.10001402230E+04 -0.13785955444E+04  0.18355458502E+04  0.10100000352E+00 0.  1.
       -3    1    3    3    0  502  0.68441392252E+03 -0.10001402230E+04 -0.33011829219E+02  0.12123500625E+04  0.10100000352E+00 0. -1.
</event>
<event>
 5   0  0.4655882E-06  0.2678658E+04  0.7818609E-02  0.8341963E-01
       -2   -1    0    0    0  501  0.00000000000E+00  0.00000000000E+00  0.12995541072E+04  0.12995541073E+04  0.25500000920E-02 0. -1.
        2   -1    0    0  501    0  0.00000000000E+00  0.00000000000E+00 -0.13803209376E+04  0.13803209376E+04  0.25500000920E-02 0.  1.
    10030    2    1    2    0    0  0.00000000000E+00  0.00000000000E+00 -0.80766830340E+02  0.26798750448E+04  0.26786576816E+04 0.  0.
        1    1    3    3  502    0  0.10144071071E+04 -0.48279590913E+03  0.68911741059E+03  0.13179516207E+04  0.50400001928E-02 0. -1.
       -1    1    3    3    0  502 -0.10144071071E+04  0.48279590913E+03 -0.76988424093E+03  0.13619234242E+04  0.50400001928E-02 0.  1.
</event>
<event>
 5   0  0.1753474E-06  0.2705668E+04  0.7818609E-02  0.8333168E-01
       -1   -1    0    0    0  501  0.00000000000E+00  0.00000000000E+00  0.88084725019E+03  0.88084725020E+03  0.50400001928E-02 0. -1.
        1   -1    0    0  501    0  0.00000000000E+00  0.00000000000E+00 -0.20777264172E+04  0.20777264172E+04  0.50400001928E-02 0.  1.
    10030    2    1    2    0    0  0.00000000000E+00  0.00000000000E+00 -0.11968791670E+04  0.29585736674E+04  0.27056678298E+04 0.  0.
        3    1    3    3  502    0  0.21773376276E+03  0.86002278122E+03 -0.17152345988E+04  0.19310817991E+04  0.10100000352E+00 0.  1.
       -3    1    3    3    0  502 -0.21773376276E+03 -0.86002278122E+03  0.51835543177E+03  0.10274918683E+04  0.10100000352E+00 0. -1.
</event>
<event>
 5   0  0.4487186E-06  0.2696231E+04  0.7818609E-02  0.8336229E-01
        2   -1    0    0  501    0  0.00000000000E+00  0.00000000000E+00  0.12834825551E+04  0.12834825551E+04  0.25500000920E-02 0. -1.
       -2   -1    0    0    0  501  0.00000000000E+00  0.00000000000E+00 -0.14160037196E+04  0.14160037196E+04  0.25500000920E-02 0.  1.
    10030    2    1    2    0    0  0.00000000000E+00  0.00000000000E+00 -0.13252116450E+03  0.26994862746E+04  0.26962314975E+04 0.  0.
        3    1    3    3  502    0 -0.63142132024E+02 -0.94207076626E+03  0.89715451281E+03  0.13024478828E+04  0.10100000352E+00 0. -1.
       -3    1    3    3    0  502  0.63142132024E+02  0.94207076626E+03 -0.10296756773E+04  0.13970383918E+04  0.10100000352E+00 0.  1.
</event>
<event>
 5   0  0.1723605E-06  0.2689360E+04  0.7818609E-02  0.8338465E-01
        1   -1    0    0  501    0  0.00000000000E+00  0.00000000000E+00  0.92774078860E+03  0.92774078862E+03  0.50400001928E-02 0. -1.
       -1   -1    0    0    0  501  0.00000000000E+00  0.00000000000E+00 -0.19489978801E+04  0.19489978801E+04  0.50400001928E-02 0.  1.
    10030    2    1    2    0    0  0.00000000000E+00  0.00000000000E+00 -0.10212570915E+04  0.28767386687E+04  0.26893603926E+04 0.  0.
        1    1    3    3  502    0  0.66191266145E+03  0.11451696429E+04 -0.25163721132E+03  0.13464260724E+04  0.50400001928E-02 0.  1.
       -1    1    3    3    0  502 -0.66191266145E+03 -0.11451696429E+04 -0.76961988017E+03  0.15303125963E+04  0.50400001928E-02 0. -1.
</event>
<event>
 5   0  0.4439357E-06  0.2710314E+04  0.7818609E-02  0.8331666E-01
        2   -1    0    0  501    0  0.00000000000E+00  0.00000000000E+00  0.16479669870E+04  0.16479669870E+04  0.25500000920E-02 0.  1.
       -2   -1    0    0    0  501  0.00000000000E+00  0.00000000000E+00 -0.11143732328E+04  0.11143732328E+04  0.25500000920E-02 0. -1.
    10030    2    1    2    0    0  0.00000000000E+00  0.00000000000E+00  0.53359375419E+03  0.27623402199E+04  0.27103138556E+04 0.  0.
        4    1    3    3  502    0  0.87143038918E+03 -0.93706977243E+03  0.72140614966E+03  0.14689857478E+04  0.12699999809E+01 0.  1.
       -4    1    3    3    0  502 -0.87143038918E+03  0.93706977243E+03 -0.18781239547E+03  0.12933544721E+04  0.12699999809E+01 0. -1.
</event>
<event>
 5   0  0.4439357E-06  0.2703559E+04  0.7818609E-02  0.8333851E-01
        2   -1    0    0  501    0  0.00000000000E+00  0.00000000000E+00  0.94037845291E+03  0.94037845291E+03  0.25500000920E-02 0.  1.
       -2   -1    0    0    0  501  0.00000000000E+00  0.00000000000E+00 -0.19431616888E+04  0.19431616888E+04  0.25500000920E-02 0. -1.
    10030    2    1    2    0    0  0.00000000000E+00  0.00000000000E+00 -0.10027832359E+04  0.28835401417E+04  0.27035586790E+04 0.  0.
        4    1    3    3  502    0 -0.72595961344E+03 -0.13450415113E+02  0.71473790783E+03  0.10188474684E+04  0.12699999809E+01 0.  1.
       -4    1    3    3    0  502  0.72595961344E+03  0.13450415113E+02 -0.17175211437E+04  0.18646926734E+04  0.12699999809E+01 0. -1.
</event>
<event>
 5   0  0.1732312E-06  0.2693537E+04  0.7818609E-02  0.8337105E-01
       -1   -1    0    0    0  501  0.00000000000E+00  0.00000000000E+00  0.13170169815E+04  0.13170169815E+04  0.50400001928E-02 0.  1.
        1   -1    0    0  501    0  0.00000000000E+00  0.00000000000E+00 -0.13771922398E+04  0.13771922398E+04  0.50400001928E-02 0. -1.
    10030    2    1    2    0    0  0.00000000000E+00  0.00000000000E+00 -0.60175258268E+02  0.26942092213E+04  0.26935371292E+04 0.  0.
        5    1    3    3  502    0  0.11612119826E+04 -0.68149372470E+03  0.19386027572E+00  0.13464282725E+04  0.46999998093E+01 0. -1.
       -5    1    3    3    0  502 -0.11612119826E+04  0.68149372470E+03 -0.60369118544E+02  0.13477809488E+04  0.46999998093E+01 0.  1.
</event>
<event>
 5   0  0.1753474E-06  0.2715983E+04  0.7818609E-02  0.8329838E-01
        1   -1    0    0  501    0  0.00000000000E+00  0.00000000000E+00  0.14460171509E+04  0.14460171509E+04  0.50400001928E-02 0.  1.
       -1   -1    0    0    0  501  0.00000000000E+00  0.00000000000E+00 -0.12753245272E+04  0.12753245272E+04  0.50400001928E-02 0. -1.
    10030    2    1    2    0    0  0.00000000000E+00  0.00000000000E+00  0.17069262372E+03  0.27213416781E+04  0.27159831659E+04 0.  0.
        3    1    3    3  502    0  0.41258406168E+03  0.62695968029E+03 -0.10486272918E+04  0.12895438170E+04  0.10100000352E+00 0. -1.
       -3    1    3    3    0  502 -0.41258406168E+03 -0.62695968029E+03  0.12193199155E+04  0.14317978612E+04  0.10100000352E+00 0.  1.
</event>
<event>
 5   0  0.1771016E-06  0.2698391E+04  0.7818609E-02  0.8335527E-01
       -1   -1    0    0    0  501  0.00000000000E+00  0.00000000000E+00  0.96447453527E+03  0.96447453528E+03  0.50400001928E-02 0. -1.
        1   -1    0    0  501    0  0.00000000000E+00  0.00000000000E+00 -0.18873788417E+04  0.18873788417E+04  0.50400001928E-02 0.  1.
    10030    2    1    2    0    0  0.00000000000E+00  0.00000000000E+00 -0.92290430645E+03  0.28518533770E+04  0.26983912476E+04 0.  0.
        2    1    3    3  502    0  0.83786288450E+03 -0.21132993502E+03  0.63364967228E+03  0.10715346293E+04  0.25500000920E-02 0. -1.
       -2    1    3    3    0  502 -0.83786288450E+03  0.21132993502E+03 -0.15565539787E+04  0.17803187477E+04  0.25500000920E-02 0.  1.
</event>
<event>
 5   0  0.4439357E-06  0.2718323E+04  0.7818609E-02  0.8329084E-01
        2   -1    0    0  501    0  0.00000000000E+00  0.00000000000E+00  0.15238943498E+04  0.15238943498E+04  0.25500000920E-02 0. -1.
       -2   -1    0    0    0  501  0.00000000000E+00  0.00000000000E+00 -0.12122359390E+04  0.12122359390E+04  0.25500000920E-02 0.  1.
    10030    2    1    2    0    0  0.00000000000E+00  0.00000000000E+00  0.31165841082E+03  0.27361302888E+04  0.27183226432E+04 0.  0.
        4    1    3    3  502    0 -0.47029711176E+03 -0.10218388634E+04  0.92370545893E+03  0.14555299460E+04  0.12699999809E+01 0. -1.
       -4    1    3    3    0  502  0.47029711176E+03  0.10218388634E+04 -0.61204704811E+03  0.12806003428E+04  0.12699999809E+01 0.  1.
</event>
<event>
 5   0  0.1753474E-06  0.2699743E+04  0.7818609E-02  0.8335088E-01
        1   -1    0    0  501    0  0.00000000000E+00  0.00000000000E+00  0.96968478603E+03  0.96968478605E+03  0.50400001928E-02 0. -1.
       -1   -1    0    0    0  501  0.00000000000E+00  0.00000000000E+00 -0.18791193176E+04  0.18791193176E+04  0.50400001928E-02 0.  1.
    10030    2    1    2    0    0  0.00000000000E+00  0.00000000000E+00 -0.90943453153E+03  0.28488041036E+04  0.26997432570E+04 0.  0.
        3    1    3    3  502    0 -0.29410836132E+03  0.42280354765E+02  0.93474863203E+03  0.98083758690E+03  0.10100000352E+00 0. -1.
       -3    1    3    3    0  502  0.29410836132E+03 -0.42280354765E+02 -0.18441831636E+04  0.18679665167E+04  0.10100000352E+00 0.  1.
</event>
<event>
 5   0  0.4448804E-06  0.2717111E+04  0.7818609E-02  0.8329474E-01
        2   -1    0    0  501    0  0.00000000000E+00  0.00000000000E+00  0.11555525766E+04  0.11555525766E+04  0.25500000920E-02 0.  1.
       -2   -1    0    0    0  501  0.00000000000E+00  0.00000000000E+00 -0.15972211802E+04  0.15972211802E+04  0.25500000920E-02 0. -1.
    10030    2    1    2    0    0  0.00000000000E+00  0.00000000000E+00 -0.44166860360E+03  0.27527737568E+04  0.27171110027E+04 0.  0.
        2    1    3    3  502    0 -0.34847527793E+03 -0.12464396029E+04  0.19765675849E+03  0.13092421079E+04  0.25500000920E-02 0.  1.
       -2    1    3    3    0  502  0.34847527793E+03  0.12464396029E+04 -0.63932536209E+03  0.14435316489E+04  0.25500000920E-02 0. -1.
</event>
<event>
 5   0  0.4439357E-06  0.2682828E+04  0.7818609E-02  0.8340598E-01
       -2   -1    0    0    0  501  0.00000000000E+00  0.00000000000E+00  0.81345909461E+03  0.81345909462E+03  0.25500000920E-02 0.  1.
        2   -1    0    0  501    0  0.00000000000E+00  0.00000000000E+00 -0.22120249341E+04  0.22120249341E+04  0.25500000920E-02 0. -1.
    10030    2    1    2    0    0  0.00000000000E+00  0.00000000000E+00 -0.13985658395E+04  0.30254840288E+04  0.26828282093E+04 0.  0.
        4    1    3    3  502    0  0.10830623098E+04 -0.69992533995E+03 -0.11158853241E+04  0.17053214119E+04  0.12699999809E+01 0. -1.
       -4    1    3    3    0  502 -0.10830623098E+04  0.69992533995E+03 -0.28268051540E+03  0.13201626169E+04  0.12699999809E+01 0.  1.
</event>
<event>
 5   0  0.1732312E-06  0.2702094E+04  0.7818609E-02  0.8334326E-01
        1   -1    0    0  501    0  0.00000000000E+00  0.00000000000E+00  0.15228456474E+04  0.15228456474E+04  0.50400001928E-02 0. -1.
       -1   -1    0    0    0  501  0.00000000000E+00  0.00000000000E+00 -0.11986295994E+04  0.11986295994E+04  0.50400001928E-02 0.  1.
    10030    2    1    2    0    0  0.00000000000E+00  0.00000000000E+00  0.32421604803E+03  0.27214752468E+04  0.27020939053E+04 0.  0.
        5    1    3    3  502    0  0.35933066279E+03  0.18499483091E+03  0.14605267742E+04  0.15154214466E+04  0.46999998093E+01 0. -1.
       -5    1    3    3    0  502 -0.35933066279E+03 -0.18499483091E+03 -0.11363107261E+04  0.12060538002E+04  0.46999998093E+01 0.  1.
</event>
<event>
 5   0  0.1771016E-06  0.2692643E+04  0.7818609E-02  0.8337396E-01
       -1   -1    0    0    0  501  0.00000000000E+00  0.00000000000E+00  0.95585023592E+03  0.95585023593E+03  0.50400001928E-02 0.  1.
        1   -1    0    0  501    0  0.00000000000E+00  0.00000000000E+00 -0.18963033216E+04  0.18963033216E+04  0.50400001928E-02 0. -1.
    10030    2    1    2    0    0  0.00000000000E+00  0.00000000000E+00 -0.94045308567E+03  0.28521535575E+04  0.26926432941E+04 0.  0.
        2    1    3    3  502    0  0.11992135738E+04  0.59219916531E+03 -0.30692176263E+03  0.13722295783E+04  0.25500000920E-02 0. -1.
       -2    1    3    3    0  502 -0.11992135738E+04 -0.59219916531E+03 -0.63353132303E+03  0.14799239793E+04  0.25500000920E-02 0.  1.
</event>
<event>
 5   0  0.4448804E-06  0.2704646E+04  0.7818609E-02  0.8333499E-01
       -2   -1    0    0    0  501  0.00000000000E+00  0.00000000000E+00  0.13062726210E+04  0.13062726210E+04  0.25500000920E-02 0. -1.
        2   -1    0    0  501    0  0.00000000000E+00  0.00000000000E+00 -0.13999969006E+04  0.13999969006E+04  0.25500000920E-02 0.  1.
    10030    2    1    2    0    0  0.00000000000E+00  0.00000000000E+00 -0.93724279601E+02  0.27062695216E+04  0.27046460920E+04 0.  0.
        2    1    3    3  502    0 -0.62647198083E+02  0.74860873067E+03  0.10782850945E+04  0.13141683485E+04  0.25500000920E-02 0. -1.
       -2    1    3    3    0  502  0.62647198083E+02 -0.74860873067E+03 -0.11720093741E+04  0.13921011731E+04  0.25500000920E-02 0.  1.
</event>
<event>
 5   0  0.4487186E-06  0.2691942E+04  0.7818609E-02  0.8337624E-01
        2   -1    0    0  501    0  0.00000000000E+00  0.00000000000E+00  0.23605956033E+04  0.23605956033E+04  0.25500000920E-02 0.  1.
       -2   -1    0    0    0  501  0.00000000000E+00  0.00000000000E+00 -0.76744927634E+03  0.76744927634E+03  0.25500000920E-02 0. -1.
    10030    2    1    2    0    0  0.00000000000E+00  0.00000000000E+00  0.15931463270E+04  0.31280448797E+04  0.26919415949E+04 0.  0.
        3    1    3    3  502    0  0.43377746847E+03  0.10105023224E+03  0.22724834999E+04  0.23157191776E+04  0.10100000352E+00 0.  1.
       -3    1    3    3    0  502 -0.43377746847E+03 -0.10105023224E+03 -0.67933717295E+03  0.81232570213E+03  0.10100000352E+00 0. -1.
</event>
<event>
 5   0  0.4401659E-06  0.2699094E+04  0.7818609E-02  0.8335299E-01
        2   -1    0    0  501    0  0.00000000000E+00  0.00000000000E+00  0.17446897753E+04  0.17446897753E+04  0.25500000920E-02 0.  1.
       -2   -1    0    0    0  501  0.00000000000E+00  0.00000000000E+00 -0.10438971322E+04  0.10438971322E+04  0.25500000920E-02 0. -1.
    10030    2    1    2    0    0  0.00000000000E+00  0.00000000000E+00  0.70079264314E+03  0.27885869075E+04  0.26990936649E+04 0.  0.
        5    1    3    3  502    0 -0.10677146644E+04 -0.59712960337E+03 -0.23830017621E+03  0.12463496426E+04  0.46999998093E+01 0. -1.
       -5    1    3    3    0  502  0.10677146644E+04  0.59712960337E+03  0.93909281935E+03  0.15422372648E+04  0.46999998093E+01 0.  1.
</event>
<event>
 5   0  0.1771016E-06  0.2707535E+04  0.7818609E-02  0.8332564E-01
       -1   -1    0    0    0  501  0.00000000000E+00  0.00000000000E+00  0.12277835216E+04  0.12277835216E+04  0.50400001928E-02 0. -1.
        1   -1    0    0  501    0  0.00000000000E+00  0.00000000000E+00 -0.14926785587E+04  0.14926785587E+04  0.50400001928E-02 0.  1.
    10030    2    1    2    0    0  0.00000000000E+00  0.00000000000E+00 -0.26489503712E+03  0.27204620803E+04  0.27075347735E+04 0.  0.
        2    1    3    3  502    0  0.25086082071E+03  0.83959495016E+03 -0.11692830097E+04  0.14611891009E+04  0.25500000920E-02 0.  1.
       -2    1    3    3    0  502 -0.25086082071E+03 -0.83959495016E+03  0.90438797258E+03  0.12592729794E+04  0.25500000920E-02 0. -1.
</event>
<event>
 5   0  0.4448804E-06  0.2699746E+04  0.7818609E-02  0.8335087E-01
       -2   -1    0    0    0  501  0.00000000000E+00  0.00000000000E+00  0.91799732759E+03  0.91799732759E+03  0.25500000920E-02 0.  1.
        2   -1    0    0  501    0  0.00000000000E+00  0.00000000000E+00 -0.19849269878E+04  0.19849269878E+04  0.25500000920E-02 0. -1.
    10030    2    1    2    0    0  0.00000000000E+00  0.00000000000E+00 -0.10669296602E+04  0.29029243154E+04  0.26997464105E+04 0.  0.
        2    1    3    3  502    0  0.10874120715E+03 -0.95373850446E+03  0.48702023171E+03  0.10763969951E+04  0.25500000920E-02 0.  1.
       -2    1    3    3    0  502 -0.10874120715E+03  0.95373850446E+03 -0.15539498919E+04  0.18265273202E+04  0.25500000920E-02 0. -1.
</event>
<event>
 5   0  0.1771016E-06  0.2694033E+04  0.7818609E-02  0.8336944E-01
        1   -1    0    0  501    0  0.00000000000E+00  0.00000000000E+00  0.26100776307E+04  0.26100776307E+04  0.50400001928E-02 0. -1.
       -1   -1    0    0    0  501  0.00000000000E+00  0.00000000000E+00 -0.69517242365E+03  0.69517242367E+03  0.50400001928E-02 0.  1.
    10030    2    1    2    0    0  0.00000000000E+00  0.00000000000E+00  0.19149052071E+04  0.33052500544E+04  0.26940334018E+04 0.  0.
        2    1    3    3  502    0  0.35413790626E+03 -0.76944001751E+03  0.22424585369E+04  0.23970965535E+04  0.25500000920E-02 0. -1.
       -2    1    3    3    0  502 -0.35413790626E+03  0.76944001751E+03 -0.32755332986E+03  0.90815350085E+03  0.25500000920E-02 0.  1.
</event>
<event>
 5   0  0.4401659E-06  0.2731650E+04  0.7818609E-02  0.8324808E-01
       -2   -1    0    0    0  501  0.00000000000E+00  0.00000000000E+00  0.95599785561E+03  0.95599785561E+03  0.25500000920E-02 0.  1.
        2   -1    0    0  501    0  0.00000000000E+00  0.00000000000E+00 -0.19513409028E+04  0.19513409028E+04  0.25500000920E-02 0. -1.
    10030    2    1    2    0    0  0.00000000000E+00  0.00000000000E+00 -0.99534304722E+03  0.29073387584E+04  0.27316498448E+04 0.  0.
        5    1    3    3  502    0 -0.67761792855E+02  0.44556774794E+03 -0.18699102395E+04  0.19234626776E+04  0.46999998093E+01 0. -1.
       -5    1    3    3    0  502  0.67761792855E+02 -0.44556774794E+03  0.87456719226E+03  0.98387608079E+03  0.46999998093E+01 0.  1.
</event>
<event>
 5   0  0.1723605E-06  0.2703636E+04  0.7818609E-02  0.8333826E-01
        1   -1    0    0  501    0  0.00000000000E+00  0.00000000000E+00  0.12082410270E+04  0.12082410270E+04  0.50400001928E-02 0. -1.
       -1   -1    0    0    0  501  0.00000000000E+00  0.00000000000E+00 -0.15124559662E+04  0.15124559662E+04  0.50400001928E-02 0.  1.
    10030    2    1    2    0    0  0.00000000000E+00  0.00000000000E+00 -0.30421493917E+03  0.27206969932E+04  0.27036355892E+04 0.  0.
        1    1    3    3  502    0  0.95769702117E+03 -0.46116950653E+03  0.68835792055E+03  0.12663717957E+04  0.50400001928E-02 0. -1.
       -1    1    3    3    0  502 -0.95769702117E+03  0.46116950653E+03 -0.99257285972E+03  0.14543251975E+04  0.50400001928E-02 0.  1.
</event>
<event>
 5   0  0.1828511E-06  0.2682911E+04  0.7818609E-02  0.8340571E-01
        1   -1    0    0  501    0  0.00000000000E+00  0.00000000000E+00  0.11067773087E+04  0.11067773087E+04  0.50400001928E-02 0. -1.
       -1   -1    0    0    0  501  0.00000000000E+00  0.00000000000E+00 -0.16258938376E+04  0.16258938376E+04  0.50400001928E-02 0.  1.
    10030    2    1    2    0    0  0.00000000000E+00  0.00000000000E+00 -0.51911652890E+03  0.27326711463E+04  0.26829106625E+04 0.  0.
        4    1    3    3  502    0  0.68693417937E+03  0.68467257032E+02 -0.14310799295E+04  0.15888856817E+04  0.12699999809E+01 0.  1.
       -4    1    3    3    0  502 -0.68693417937E+03 -0.68467257032E+02  0.91196340057E+03  0.11437854646E+04  0.12699999809E+01 0. -1.
</event>
<event>
 5   0  0.1723605E-06  0.2651992E+04  0.7818609E-02  0.8350752E-01
        1   -1    0    0  501    0  0.00000000000E+00  0.00000000000E+00  0.12870921420E+04  0.12870921420E+04  0.50400001928E-02 0. -1.
       -1   -1    0    0    0  501  0.00000000000E+00  0.00000000000E+00 -0.13660762096E+04  0.13660762096E+04  0.50400001928E-02 0.  1.
    10030    2    1    2    0    0  0.00000000000E+00  0.00000000000E+00 -0.78984067657E+02  0.26531683516E+04  0.26519924244E+04 0.  0.
        1    1    3    3  502    0  0.58535892735E+03 -0.33057801475E+03  0.11039666706E+04  0.12925437352E+04  0.50400001928E-02 0. -1.
       -1    1    3    3    0  502 -0.58535892735E+03  0.33057801475E+03 -0.11829507382E+04  0.13606246164E+04  0.50400001928E-02 0.  1.
</event>
<event>
 5   0  0.4401659E-06  0.2705909E+04  0.7818609E-02  0.8333090E-01
       -2   -1    0    0    0  501  0.00000000000E+00  0.00000000000E+00  0.13017012732E+04  0.13017012732E+04  0.25500000920E-02 0.  1.
        2   -1    0    0  501    0  0.00000000000E+00  0.00000000000E+00 -0.14062255313E+04  0.14062255313E+04  0.25500000920E-02 0. -1.
    10030    2    1    2    0    0  0.00000000000E+00  0.00000000000E+00 -0.10452425805E+03  0.27079268045E+04  0.27059087675E+04 0.  0.
        5    1    3    3  502    0 -0.57616615767E+03  0.68164311669E+03  0.96528460238E+03  0.13146867434E+04  0.46999998093E+01 0.  1.
       -5    1    3    3    0  502  0.57616615767E+03 -0.68164311669E+03 -0.10698088604E+04  0.13932400610E+04  0.46999998093E+01 0. -1.
</event>
<event>
 5   0  0.1732312E-06  0.2517344E+04  0.7818609E-02  0.8396832E-01
        1   -1    0    0  501    0  0.00000000000E+00  0.00000000000E+00  0.18851906486E+04  0.18851906486E+04  0.50400001928E-02 0. -1.
       -1   -1    0    0    0  501  0.00000000000E+00  0.00000000000E+00 -0.84036890353E+03  0.84036890355E+03  0.50400001928E-02 0.  1.
    10030    2    1    2    0    0  0.00000000000E+00  0.00000000000E+00  0.10448217451E+04  0.27255595522E+04  0.25173443137E+04 0.  0.
        5    1    3    3  502    0 -0.46559096120E+03 -0.33372913394E+03  0.17358620237E+04  0.18279466987E+04  0.46999998093E+01 0. -1.
       -5    1    3    3    0  502  0.46559096120E+03  0.33372913394E+03 -0.69104027863E+03  0.89761285345E+03  0.46999998093E+01 0.  1.
</event>
<event>
 5   0  0.1753474E-06  0.2691834E+04  0.7818609E-02  0.8337659E-01
        1   -1    0    0  501    0  0.00000000000E+00  0.00000000000E+00  0.13329233560E+04  0.13329233560E+04  0.50400001928E-02 0.  1.
       -1   -1    0    0    0  501  0.00000000000E+00  0.00000000000E+00 -0.13590373908E+04  0.13590373908E+04  0.50400001928E-02 0. -1.
    10030    2    1    2    0    0  0.00000000000E+00  0.00000000000E+00 -0.26114034790E+02  0.26919607468E+04  0.26918340810E+04 0.  0.
        3    1    3    3  502    0  0.67955815695E+01  0.43425715899E+03  0.12609209821E+04  0.13336218330E+04  0.10100000352E+00 0.  1.
       -3    1    3    3    0  502 -0.67955815695E+01 -0.43425715899E+03 -0.12870350169E+04  0.13583389139E+04  0.10100000352E+00 0. -1.
</event>
<event>
 5   0  0.4655882E-06  0.2685502E+04  0.7818609E-02  0.8339724E-01
        2   -1    0    0  501    0  0.00000000000E+00  0.00000000000E+00  0.18720452885E+04  0.18720452885E+04  0.25500000920E-02 0. -1.
       -2   -1    0    0    0  501  0.00000000000E+00  0.00000000000E+00 -0.96310736257E+03  0.96310736257E+03  0.25500000920E-02 0.  1.
    10030    2    1    2    0    0  0.00000000000E+00  0.00000000000E+00  0.90893792596E+03  0.28351526511E+04  0.26855022625E+04 0.  0.
        1    1    3    3  502    0 -0.24768975978E+02  0.30082533374E+02 -0.96251029908E+03  0.96329877860E+03  0.50400001928E-02 0.  1.
       -1    1    3    3    0  502  0.24768975978E+02 -0.30082533374E+02  0.18714482250E+04  0.18718538725E+04  0.50400001928E-02 0. -1.
</event>
<event>
 5   0  0.1753474E-06  0.2676330E+04  0.7818609E-02  0.8342726E-01
       -1   -1    0    0    0  501  0.00000000000E+00  0.00000000000E+00  0.94290960131E+03  0.94290960133E+03  0.50400001928E-02 0. -1.
        1   -1    0    0  501    0  0.00000000000E+00  0.00000000000E+00 -0.18991063822E+04  0.18991063822E+04  0.50400001928E-02 0.  1.
    10030    2    1    2    0    0  0.00000000000E+00  0.00000000000E+00 -0.95619678091E+03  0.28420159836E+04  0.26763300557E+04 0.  0.
        3    1    3    3  502    0 -0.42894288115E+03 -0.78114147855E+03 -0.15381524898E+04  0.17776633812E+04  0.10100000352E+00 0.  1.
       -3    1    3    3    0  502  0.42894288115E+03  0.78114147855E+03  0.58195570890E+03  0.10643526023E+04  0.10100000352E+00 0. -1.
</event>
<event>
 5   0  0.4487186E-06  0.2710384E+04  0.7818609E-02  0.8331644E-01
        2   -1    0    0  501    0  0.00000000000E+00  0.00000000000E+00  0.26329657989E+04  0.26329657989E+04  0.25500000920E-02 0.  1.
       -2   -1    0    0    0  501  0.00000000000E+00  0.00000000000E+00 -0.69751968958E+03  0.69751968958E+03  0.25500000920E-02 0. -1.
    10030    2    1    2    0    0  0.00000000000E+00  0.00000000000E+00  0.19354461093E+04  0.33304854885E+04  0.27103840958E+04 0.  0.
        3    1    3    3  502    0  0.96550853454E+03 -0.32968067871E+03 -0.12834513624E+03  0.10282842819E+04  0.10100000352E+00 0. -1.
       -3    1    3    3    0  502 -0.96550853454E+03  0.32968067871E+03  0.20637912455E+04  0.23022012066E+04  0.10100000352E+00 0.  1.
</event>
<event>
 5   0  0.1753474E-06  0.2697449E+04  0.7818609E-02  0.8335833E-01
        1   -1    0    0  501    0  0.00000000000E+00  0.00000000000E+00  0.59503650466E+03  0.59503650468E+03  0.50400001928E-02 0.  1.
       -1   -1    0    0    0  501  0.00000000000E+00  0.00000000000E+00 -0.30570532434E+04  0.30570532434E+04  0.50400001928E-02 0. -1.
    10030    2    1    2    0    0  0.00000000000E+00  0.00000000000E+00 -0.24620167388E+04  0.36520897481E+04  0.26974493705E+04 0.  0.
        3    1    3    3  502    0 -0.54860110783E+03  0.10674324432E+04 -0.39785283371E+03  0.12643820957E+04  0.10100000352E+00 0.  1.
       -3    1    3    3    0  502  0.54860110783E+03 -0.10674324432E+04 -0.20641639051E+04  0.23877076524E+04  0.10100000352E+00 0. -1.
</event>
<event>
 5   0  0.1723605E-06  0.2694925E+04  0.7818609E-02  0.8336654E-01
       -1   -1    0    0    0  501  0.00000000000E+00  0.00000000000E+00  0.66119581668E+03  0.66119581670E+03  0.50400001928E-02 0.  1.
        1   -1    0    0  501    0  0.00000000000E+00  0.00000000000E+00 -0.27460169183E+04  0.27460169183E+04  0.50400001928E-02 0. -1.
    10030    2    1    2    0    0  0.00000000000E+00  0.00000000000E+00 -0.20848211016E+04  0.34072127350E+04  0.26949247848E+04 0.  0.
        1    1    3    3  502    0 -0.96164166368E+03  0.94294148303E+03 -0.98934624836E+03  0.16711371365E+04  0.50400001928E-02 0. -1.
       -1    1    3    3    0  502  0.96164166368E+03 -0.94294148303E+03 -0.10954748533E+04  0.17360755986E+04  0.50400001928E-02 0.  1.
</event>
<event>
 5   0  0.4655882E-06  0.2687088E+04  0.7818609E-02  0.8339207E-01
        2   -1    0    0  501    0  0.00000000000E+00  0.00000000000E+00  0.15007665198E+04  0.15007665198E+04  0.25500000920E-02 0.  1.
       -2   -1    0    0    0  501  0.00000000000E+00  0.00000000000E+00 -0.12027920522E+04  0.12027920522E+04  0.25500000920E-02 0. -1.
    10030    2    1    2    0    0  0.00000000000E+00  0.00000000000E+00  0.29797446767E+03  0.27035585720E+04  0.26870876742E+04 0.  0.
        1    1    3    3  502    0  0.47111755111E+03  0.10852317165E+04  0.78962436991E+03  0.14223875249E+04  0.50400001928E-02 0.  1.
       -1    1    3    3    0  502 -0.47111755111E+03 -0.10852317165E+04 -0.49164990224E+03  0.12811710471E+04  0.50400001928E-02 0. -1.
</event>
<event>
 5   0  0.1753474E-06  0.2696881E+04  0.7818609E-02  0.8336018E-01
       -1   -1    0    0    0  501  0.00000000000E+00  0.00000000000E+00  0.79334424532E+03  0.79334424534E+03  0.50400001928E-02 0.  1.
        1   -1    0    0  501    0  0.00000000000E+00  0.00000000000E+00 -0.22919327358E+04  0.22919327358E+04  0.50400001928E-02 0. -1.
    10030    2    1    2    0    0  0.00000000000E+00  0.00000000000E+00 -0.14985884905E+04  0.30852769812E+04  0.26968808996E+04 0.  0.
        3    1    3    3  502    0 -0.65994228003E+03 -0.11348685714E+04 -0.11016089705E+04  0.17137656845E+04  0.10100000352E+00 0. -1.
       -3    1    3    3    0  502  0.65994228003E+03  0.11348685714E+04 -0.39697952002E+03  0.13715112967E+04  0.10100000352E+00 0.  1.
</event>
<event>
 5   0  0.1753474E-06  0.2688720E+04  0.7818609E-02  0.8338674E-01
        1   -1    0    0  501    0  0.00000000000E+00  0.00000000000E+00  0.15833171744E+04  0.15833171744E+04  0.50400001928E-02 0.  1.
       -1   -1    0    0    0  501  0.00000000000E+00  0.00000000000E+00 -0.11414669283E+04  0.11414669283E+04  0.50400001928E-02 0. -1.
    10030    2    1    2    0    0  0.00000000000E+00  0.00000000000E+00  0.44185024612E+03  0.27247841026E+04  0.26887202841E+04 0.  0.
        3    1    3    3  502    0  0.46164807652E+02 -0.13416316637E+04  0.14786464702E+03  0.13505445845E+04  0.10100000352E+00 0.  1.
       -3    1    3    3    0  502 -0.46164807652E+02  0.13416316637E+04  0.29398559909E+03  0.13742395182E+04  0.10100000352E+00 0. -1.
</event>
<event>
 5   0  0.4487186E-06  0.2701640E+04  0.7818609E-02  0.8334473E-01
       -2   -1    0    0    0  501  0.00000000000E+00  0.00000000000E+00  0.98865154146E+03  0.98865154146E+03  0.25500000920E-02 0.  1.
        2   -1    0    0  501    0  0.00000000000E+00  0.00000000000E+00 -0.18456599775E+04  0.18456599775E+04  0.25500000920E-02 0. -1.
    10030    2    1    2    0    0  0.00000000000E+00  0.00000000000E+00 -0.85700843603E+03  0.28343115189E+04  0.27016399329E+04 0.  0.
        3    1    3    3  502    0  0.62246305731E+03  0.11729184678E+04 -0.16829887359E+03  0.13384776841E+04  0.10100000352E+00 0.  1.
       -3    1    3    3    0  502 -0.62246305731E+03 -0.11729184678E+04 -0.68870956244E+03  0.14958338348E+04  0.10100000352E+00 0. -1.
</event>
<event>
 5   0  0.4401659E-06  0.2697744E+04  0.7818609E-02  0.8335737E-01
        2   -1    0    0  501    0  0.00000000000E+00  0.00000000000E+00  0.16935603547E+04  0.16935603547E+04  0.25500000920E-02 0. -1.
       -2   -1    0    0    0  501  0.00000000000E+00  0.00000000000E+00 -0.10743376382E+04  0.10743376382E+04  0.25500000920E-02 0.  1.
    10030    2    1    2    0    0  0.00000000000E+00  0.00000000000E+00  0.61922271651E+03  0.27678979930E+04  0.26977439698E+04 0.  0.
        5    1    3    3  502    0  0.19336169364E+03  0.12461922030E+04  0.80064845073E+03  0.14938017884E+04  0.46999998093E+01 0. -1.
       -5    1    3    3    0  502 -0.19336169364E+03 -0.12461922030E+04 -0.18142573422E+03  0.12740962046E+04  0.46999998093E+01 0.  1.
</event>
<event>
 5   0  0.4448804E-06  0.2694572E+04  0.7818609E-02  0.8336768E-01
        2   -1    0    0  501    0  0.00000000000E+00  0.00000000000E+00  0.11317893123E+04  0.11317893123E+04  0.25500000920E-02 0.  1.
       -2   -1    0    0    0  501  0.00000000000E+00  0.00000000000E+00 -0.16038136647E+04  0.16038136647E+04  0.25500000920E-02 0. -1.
    10030    2    1    2    0    0  0.00000000000E+00  0.00000000000E+00 -0.47202435241E+03  0.27356029770E+04  0.26945717022E+04 0.  0.
        2    1    3    3  502    0  0.71073156537E+03  0.94434215424E+03 -0.89258861906E+03  0.14810928078E+04  0.25500000920E-02 0. -1.
       -2    1    3    3    0  502 -0.71073156537E+03 -0.94434215424E+03  0.42056426665E+03  0.12545101692E+04  0.25500000920E-02 0.  1.
</event>
<event>
 5   0  0.4448804E-06  0.2715049E+04  0.7818609E-02  0.8330139E-01
        2   -1    0    0  501    0  0.00000000000E+00  0.00000000000E+00  0.18060646057E+04  0.18060646057E+04  0.25500000920E-02 0. -1.
       -2   -1    0    0    0  501  0.00000000000E+00  0.00000000000E+00 -0.10203803490E+04  0.10203803490E+04  0.25500000920E-02 0.  1.
    10030    2    1    2    0    0  0.00000000000E+00  0.00000000000E+00  0.78568425675E+03  0.28264449547E+04  0.27150490476E+04 0.  0.
        2    1    3    3  502    0 -0.72720290903E+03 -0.11087625166E+04  0.89878626778E+02  0.13290058528E+04  0.25500000920E-02 0.  1.
       -2    1    3    3    0  502  0.72720290903E+03  0.11087625166E+04  0.69580562997E+03  0.14974391019E+04  0.25500000920E-02 0. -1.
</event>
<event>
 5   0  0.4487186E-06  0.2708387E+04  0.7818609E-02  0.8332289E-01
       -2   -1    0    0    0  501  0.00000000000E+00  0.00000000000E+00  0.10800330224E+04  0.10800330224E+04  0.25500000920E-02 0.  1.
        2   -1    0    0  501    0  0.00000000000E+00  0.00000000000E+00 -0.16979481972E+04  0.16979481972E+04  0.25500000920E-02 0. -1.
    10030    2    1    2    0    0  0.00000000000E+00  0.00000000000E+00 -0.61791517481E+03  0.27779812197E+04  0.27083870649E+04 0.  0.
        3    1    3    3  502    0  0.18976847588E+03  0.52799425795E+03 -0.15731250948E+04  0.16701833986E+04  0.10100000352E+00 0. -1.
       -3    1    3    3    0  502 -0.18976847588E+03 -0.52799425795E+03  0.95520992000E+03  0.11077978211E+04  0.10100000352E+00 0.  1.
</event>
<event>
 5   0  0.1771016E-06  0.2701321E+04  0.7818609E-02  0.8334576E-01
        1   -1    0    0  501    0  0.00000000000E+00  0.00000000000E+00  0.33795785501E+04  0.33795785501E+04  0.50400001928E-02 0. -1.
       -1   -1    0    0    0  501  0.00000000000E+00  0.00000000000E+00 -0.53979635164E+03  0.53979635167E+03  0.50400001928E-02 0.  1.
    10030    2    1    2    0    0  0.00000000000E+00  0.00000000000E+00  0.28397821985E+04  0.39193749018E+04  0.27013212852E+04 0.  0.
        2    1    3    3  502    0  0.65836272184E+03  0.79198587509E+03  0.15202371094E+03  0.10410544215E+04  0.25500000920E-02 0.  1.
       -2    1    3    3    0  502 -0.65836272184E+03 -0.79198587509E+03  0.26877584875E+04  0.28783204803E+04  0.25500000920E-02 0. -1.
</event>
<event>
 5   0  0.4655882E-06  0.2659415E+04  0.7818609E-02  0.8348295E-01
        2   -1    0    0  501    0  0.00000000000E+00  0.00000000000E+00  0.14787158088E+04  0.14787158088E+04  0.25500000920E-02 0.  1.
       -2   -1    0    0    0  501  0.00000000000E+00  0.00000000000E+00 -0.11957142536E+04  0.11957142536E+04  0.25500000920E-02 0. -1.
    10030    2    1    2    0    0  0.00000000000E+00  0.00000000000E+00  0.28300155520E+03  0.26744300624E+04  0.26594146496E+04 0.  0.
        1    1    3    3  502    0  0.99895357555E+03  0.11762086069E+02  0.10239946414E+04  0.14305983428E+04  0.50400001928E-02 0.  1.
       -1    1    3    3    0  502 -0.99895357555E+03 -0.11762086069E+02 -0.74099308621E+03  0.12438317196E+04  0.50400001928E-02 0. -1.
</event>
<event>
 5   0  0.1753474E-06  0.2705817E+04  0.7818609E-02  0.8333120E-01
       -1   -1    0    0    0  501  0.00000000000E+00  0.00000000000E+00  0.87343722342E+03  0.87343722343E+03  0.50400001928E-02 0.  1.
        1   -1    0    0  501    0  0.00000000000E+00  0.00000000000E+00 -0.20955844665E+04  0.20955844665E+04  0.50400001928E-02 0. -1.
    10030    2    1    2    0    0  0.00000000000E+00  0.00000000000E+00 -0.12221472431E+04  0.29690216899E+04  0.27058170506E+04 0.  0.
        3    1    3    3  502    0 -0.52493120445E+03  0.34006547412E+02  0.75662953974E+03  0.92151911824E+03  0.10100000352E+00 0.  1.
       -3    1    3    3    0  502  0.52493120445E+03 -0.34006547412E+02 -0.19787767828E+04  0.20475025717E+04  0.10100000352E+00 0. -1.
</event>
<event>
 5   0  0.1753474E-06  0.2701522E+04  0.7818609E-02  0.8334511E-01
       -1   -1    0    0    0  501  0.00000000000E+00  0.00000000000E+00  0.15134740432E+04  0.15134740432E+04  0.50400001928E-02 0.  1.
        1   -1    0    0  501    0  0.00000000000E+00  0.00000000000E+00 -0.12055413920E+04  0.12055413920E+04  0.50400001928E-02 0. -1.
    10030    2    1    2    0    0  0.00000000000E+00  0.00000000000E+00  0.30793265119E+03  0.27190154352E+04  0.27015222411E+04 0.  0.
        3    1    3    3  502    0 -0.12507908070E+04  0.40703549916E+03 -0.15526910491E+03  0.13244863327E+04  0.10100000352E+00 0. -1.
       -3    1    3    3    0  502  0.12507908070E+04 -0.40703549916E+03  0.46320175611E+03  0.13945291024E+04  0.10100000352E+00 0.  1.
</event>
<event>
 5   0  0.1828511E-06  0.2698546E+04  0.7818609E-02  0.8335477E-01
       -1   -1    0    0    0  501  0.00000000000E+00  0.00000000000E+00  0.18714903189E+04  0.18714903189E+04  0.50400001928E-02 0. -1.
        1   -1    0    0  501    0  0.00000000000E+00  0.00000000000E+00 -0.97277434512E+03  0.97277434514E+03  0.50400001928E-02 0.  1.
    10030    2    1    2    0    0  0.00000000000E+00  0.00000000000E+00  0.89871597377E+03  0.28442646640E+04  0.26985461044E+04 0.  0.
        4    1    3    3  502    0 -0.17507911355E+02 -0.12048973851E+04  0.10891378638E+04  0.16242866541E+04  0.12699999809E+01 0. -1.
       -4    1    3    3    0  502  0.17507911355E+02  0.12048973851E+04 -0.19042189002E+03  0.12199780099E+04  0.12699999809E+01 0.  1.
</event>
<event>
 5   0  0.4439357E-06  0.2689615E+04  0.7818609E-02  0.8338382E-01
       -2   -1    0    0    0  501  0.00000000000E+00  0.00000000000E+00  0.97074208029E+03  0.97074208029E+03  0.25500000920E-02 0.  1.
        2   -1    0    0  501    0  0.00000000000E+00  0.00000000000E+00 -0.18630156742E+04  0.18630156742E+04  0.25500000920E-02 0. -1.
    10030    2    1    2    0    0  0.00000000000E+00  0.00000000000E+00 -0.89227359386E+03  0.28337577544E+04  0.26896153711E+04 0.  0.
        4    1    3    3  502    0  0.44296596093E+03 -0.11010007647E+04  0.22028385268E+03  0.12070410578E+04  0.12699999809E+01 0.  1.
       -4    1    3    3    0  502 -0.44296596093E+03  0.11010007647E+04 -0.11125574465E+04  0.16267166967E+04  0.12699999809E+01 0. -1.
</event>
<event>
 5   0  0.1753474E-06  0.2708958E+04  0.7818609E-02  0.8332104E-01
        1   -1    0    0  501    0  0.00000000000E+00  0.00000000000E+00  0.25718797260E+04  0.25718797260E+04  0.50400001928E-02 0. -1.
       -1   -1    0    0    0  501  0.00000000000E+00  0.00000000000E+00 -0.71333562976E+03  0.71333562978E+03  0.50400001928E-02 0.  1.
    10030    2    1    2    0    0  0.00000000000E+00  0.00000000000E+00  0.18585440962E+04  0.32852153558E+04  0.27089580610E+04 0.  0.
        3    1    3    3  502    0  0.57964258491E+03 -0.12061440154E+04  0.11832050996E+04  0.17862651623E+04  0.10100000352E+00 0. -1.
       -3    1    3    3    0  502 -0.57964258491E+03  0.12061440154E+04  0.67533899662E+03  0.14989501935E+04  0.10100000352E+00 0.  1.
</event>
<event>
 5   0  0.4401659E-06  0.2698081E+04  0.7818609E-02  0.8335628E-01
        2   -1    0    0  501    0  0.00000000000E+00  0.00000000000E+00  0.19236556290E+04  0.19236556290E+04  0.25500000920E-02 0.  1.
       -2   -1    0    0    0  501  0.00000000000E+00  0.00000000000E+00 -0.94606884464E+03  0.94606884464E+03  0.25500000920E-02 0. -1.
    10030    2    1    2    0    0  0.00000000000E+00  0.00000000000E+00  0.97758678440E+03  0.28697244737E+04  0.26980812875E+04 0.  0.
        5    1    3    3  502    0  0.43460254103E+03  0.12182700164E+04  0.89635069275E+03  0.15736987818E+04  0.46999998093E+01 0.  1.
       -5    1    3    3    0  502 -0.43460254103E+03 -0.12182700164E+04  0.81236091646E+02  0.12960256919E+04  0.46999998093E+01 0. -1.
</event>
<event>
 5   0  0.1753474E-06  0.2693920E+04  0.7818609E-02  0.8336980E-01
        1   -1    0    0  501    0  0.00000000000E+00  0.00000000000E+00  0.21320949542E+04  0.21320949542E+04  0.50400001928E-02 0. -1.
       -1   -1    0    0    0  501  0.00000000000E+00  0.00000000000E+00 -0.85094751740E+03  0.85094751742E+03  0.50400001928E-02 0.  1.
    10030    2    1    2    0    0  0.00000000000E+00  0.00000000000E+00  0.12811474368E+04  0.29830424716E+04  0.26939197525E+04 0.  0.
        3    1    3    3  502    0  0.74328897982E+03  0.67647887708E+03 -0.35244279504E+03  0.10650437140E+04  0.10100000352E+00 0.  1.
       -3    1    3    3    0  502 -0.74328897982E+03 -0.67647887708E+03  0.16335902319E+04  0.19179987577E+04  0.10100000352E+00 0. -1.
</event>
<event>
 5   0  0.4655882E-06  0.2683361E+04  0.7818609E-02  0.8340424E-01
        2   -1    0    0  501    0  0.00000000000E+00  0.00000000000E+00  0.27144172521E+04  0.27144172521E+04  0.25500000920E-02 0. -1.
       -2   -1    0    0    0  501  0.00000000000E+00  0.00000000000E+00 -0.66316490674E+03  0.66316490674E+03  0.25500000920E-02 0.  1.
    10030    2    1    2    0    0  0.00000000000E+00  0.00000000000E+00  0.20512523454E+04  0.33775821589E+04  0.26833607762E+04 0.  0.
        1    1    3    3  502    0 -0.73285335444E+03  0.93285054204E+03  0.18145313500E+04  0.21679041015E+04  0.50400001928E-02 0. -1.
       -1    1    3    3    0  502  0.73285335444E+03 -0.93285054204E+03  0.23672099536E+03  0.12096780574E+04  0.50400001928E-02 0.  1.
</event>
<event>
 5   0  0.1753474E-06  0.2704570E+04  0.7818609E-02  0.8333524E-01
       -1   -1    0    0    0  501  0.00000000000E+00  0.00000000000E+00  0.11753065707E+04  0.11753065707E+04  0.50400001928E-02 0. -1.
        1   -1    0    0  501    0  0.00000000000E+00  0.00000000000E+00 -0.15559124070E+04  0.15559124070E+04  0.50400001928E-02 0.  1.
    10030    2    1    2    0    0  0.00000000000E+00  0.00000000000E+00 -0.38060583629E+03  0.27312189777E+04  0.27045695224E+04 0.  0.
        3    1    3    3  502    0 -0.44190871168E+03 -0.57038775852E+03 -0.13452718588E+04  0.15265588390E+04  0.10100000352E+00 0.  1.
       -3    1    3    3    0  502  0.44190871168E+03  0.57038775852E+03  0.96466602254E+03  0.12046601387E+04  0.10100000352E+00 0. -1.
</event>
<event>
 5   0  0.4401659E-06  0.2702382E+04  0.7818609E-02  0.8334233E-01
        2   -1    0    0  501    0  0.00000000000E+00  0.00000000000E+00  0.23043100557E+04  0.23043100557E+04  0.25500000920E-02 0.  1.
       -2   -1    0    0    0  501  0.00000000000E+00  0.00000000000E+00 -0.79230508644E+03  0.79230508644E+03  0.25500000920E-02 0. -1.
    10030    2    1    2    0    0  0.00000000000E+00  0.00000000000E+00  0.15120049692E+04  0.30966151421E+04  0.27023815999E+04 0.  0.
        5    1    3    3  502    0  0.23237187938E+03  0.40727222126E+03 -0.69607554379E+03  0.83929172830E+03  0.46999998093E+01 0. -1.
       -5    1    3    3    0  502 -0.23237187938E+03 -0.40727222126E+03  0.22080805130E+04  0.22573234138E+04  0.46999998093E+01 0.  1.
</event>
<event>
 5   0  0.4487186E-06  0.2655190E+04  0.7818609E-02  0.8349693E-01
        2   -1    0    0  501    0  0.00000000000E+00  0.00000000000E+00  0.18940785935E+04  0.18940785935E+04  0.25500000920E-02 0.  1.
       -2   -1    0    0    0  501  0.00000000000E+00  0.00000000000E+00 -0.93053582288E+03  0.93053582289E+03  0.25500000920E-02 0. -1.
    10030    2    1    2    0    0  0.00000000000E+00  0.00000000000E+00  0.96354277066E+03  0.28246144164E+04  0.26551896223E+04 0.  0.
        3    1    3    3  502    0 -0.92784572139E+03 -0.32142040896E+02 -0.52776993246E+03  0.10679287922E+04  0.10100000352E+00 0. -1.
       -3    1    3    3    0  502  0.92784572139E+03  0.32142040896E+02  0.14913127031E+04  0.17566856242E+04  0.10100000352E+00 0.  1.
</event>
<event>
 5   0  0.4487186E-06  0.2718926E+04  0.7818609E-02  0.8328890E-01
        2   -1    0    0  501    0  0.00000000000E+00  0.00000000000E+00  0.13374969403E+04  0.13374969403E+04  0.25500000920E-02 0.  1.
       -2   -1    0    0    0  501  0.00000000000E+00  0.00000000000E+00 -0.13817899044E+04  0.13817899044E+04  0.25500000920E-02 0. -1.
    10030    2    1    2    0    0  0.00000000000E+00  0.00000000000E+00 -0.44292964111E+02  0.27192868447E+04  0.27189260889E+04 0.  0.
        3    1    3    3  502    0 -0.45021939383E+03  0.12817425236E+04  0.28637806510E+02  0.13588162251E+04  0.10100000352E+00 0.  1.
       -3    1    3    3    0  502  0.45021939383E+03 -0.12817425236E+04 -0.72930770621E+02  0.13604706196E+04  0.10100000352E+00 0. -1.
</event>
<event>
 5   0  0.1723605E-06  0.2698882E+04  0.7818609E-02  0.8335368E-01
        1   -1    0    0  501    0  0.00000000000E+00  0.00000000000E+00  0.16778545871E+04  0.16778545871E+04  0.50400001928E-02 0.  1.
       -1   -1    0    0    0  501  0.00000000000E+00  0.00000000000E+00 -0.10853088112E+04  0.10853088113E+04  0.50400001928E-02 0. -1.
    10030    2    1    2    0    0  0.00000000000E+00  0.00000000000E+00  0.59254577585E+03  0.27631633984E+04  0.26988815219E+04 0.  0.
        1    1    3    3  502    0 -0.71186204797E+03  0.27116195322E+03  0.14366765065E+04  0.16261352234E+04  0.50400001928E-02 0.  1.
       -1    1    3    3    0  502  0.71186204797E+03 -0.27116195322E+03 -0.84413073068E+03  0.11370281750E+04  0.50400001928E-02 0. -1.
</event>
<event>
 5   0  0.1828511E-06  0.2744995E+04  0.7818609E-02  0.8320552E-01
       -1   -1    0    0    0  501  0.00000000000E+00  0.00000000000E+00  0.12238673967E+04  0.12238673967E+04  0.50400001928E-02 0.  1.
        1   -1    0    0  501    0  0.00000000000E+00  0.00000000000E+00 -0.15391771902E+04  0.15391771902E+04  0.50400001928E-02 0. -1.
    10030    2    1    2    0    0  0.00000000000E+00  0.00000000000E+00 -0.31530979343E+03  0.27630445869E+04  0.27449945580E+04 0.  0.
        4    1    3    3  502    0 -0.28950877095E+03 -0.19376056207E+03 -0.14939342344E+04  0.15340142091E+04  0.12699999809E+01 0. -1.
       -4    1    3    3    0  502  0.28950877095E+03  0.19376056207E+03  0.11786244410E+04  0.12290303779E+04  0.12699999809E+01 0.  1.
</event>
<event>
 5   0  0.1723605E-06  0.2700369E+04  0.7818609E-02  0.8334885E-01
        1   -1    0    0  501    0  0.00000000000E+00  0.00000000000E+00  0.10477741839E+04  0.10477741839E+04  0.50400001928E-02 0.  1.
       -1   -1    0    0    0  501  0.00000000000E+00  0.00000000000E+00 -0.17398769177E+04  0.17398769177E+04  0.50400001928E-02 0. -1.
    10030    2    1    2    0    0  0.00000000000E+00  0.00000000000E+00 -0.69210273379E+03  0.27876511016E+04  0.27003689507E+04 0.  0.
        1    1    3    3  502    0  0.70598985932E+03  0.10188910800E+04  0.20644595245E+03  0.12566545451E+04  0.50400001928E-02 0. -1.
       -1    1    3    3    0  502 -0.70598985932E+03 -0.10188910800E+04 -0.89854868624E+03  0.15309965565E+04  0.50400001928E-02 0.  1.
</event>
<event>
 5   0  0.1732312E-06  0.2696516E+04  0.7818609E-02  0.8336136E-01
        1   -1    0    0  501    0  0.00000000000E+00  0.00000000000E+00  0.22079096408E+04  0.22079096408E+04  0.50400001928E-02 0. -1.
       -1   -1    0    0    0  501  0.00000000000E+00  0.00000000000E+00 -0.82331271360E+03  0.82331271362E+03  0.50400001928E-02 0.  1.
    10030    2    1    2    0    0  0.00000000000E+00  0.00000000000E+00  0.13845969272E+04  0.30312223544E+04  0.26965163287E+04 0.  0.
        5    1    3    3  502    0  0.89964499237E+03 -0.47111422082E+03  0.16892070634E+04  0.19709775023E+04  0.46999998093E+01 0. -1.
       -5    1    3    3    0  502 -0.89964499237E+03  0.47111422082E+03 -0.30461013625E+03  0.10602448521E+04  0.46999998093E+01 0.  1.
</event>
<event>
 5   0  0.1828511E-06  0.2696135E+04  0.7818609E-02  0.8336260E-01
       -1   -1    0    0    0  501  0.00000000000E+00  0.00000000000E+00  0.95123855768E+03  0.95123855770E+03  0.50400001928E-02 0. -1.
        1   -1    0    0  501    0  0.00000000000E+00  0.00000000000E+00 -0.19104421424E+04  0.19104421424E+04  0.50400001928E-02 0.  1.
    10030    2    1    2    0    0  0.00000000000E+00  0.00000000000E+00 -0.95920358469E+03  0.28616807001E+04  0.26961351806E+04 0.  0.
        4    1    3    3  502    0  0.12015717267E+04 -0.53990035979E+03 -0.78357341747E+03  0.15327282624E+04  0.12699999809E+01 0. -1.
       -4    1    3    3    0  502 -0.12015717267E+04  0.53990035979E+03 -0.17563016721E+03  0.13289524376E+04  0.12699999809E+01 0.  1.
</event>
<event>
 5   0  0.1771016E-06  0.2700364E+04  0.7818609E-02  0.8334887E-01
       -1   -1    0    0    0  501  0.00000000000E+00  0.00000000000E+00  0.15881207805E+04  0.15881207805E+04  0.50400001928E-02 0.  1.
        1   -1    0    0  501    0  0.00000000000E+00  0.00000000000E+00 -0.11478920065E+04  0.11478920066E+04  0.50400001928E-02 0. -1.
    10030    2    1    2    0    0  0.00000000000E+00  0.00000000000E+00  0.44022877400E+03  0.27360127871E+04  0.27003637899E+04 0.  0.
        2    1    3    3  502    0  0.93103608295E+03  0.45033886303E+03 -0.65930596451E+03  0.12265062715E+04  0.25500000920E-02 0. -1.
       -2    1    3    3    0  502 -0.93103608295E+03 -0.45033886303E+03  0.10995347385E+04  0.15095065156E+04  0.25500000920E-02 0.  1.
</event>
<event>
 5   0  0.4448804E-06  0.2681536E+04  0.7818609E-02  0.8341021E-01
       -2   -1    0    0    0  501  0.00000000000E+00  0.00000000000E+00  0.10170448693E+04  0.10170448693E+04  0.25500000920E-02 0. -1.
        2   -1    0    0  501    0  0.00000000000E+00  0.00000000000E+00 -0.17675308945E+04  0.17675308945E+04  0.25500000920E-02 0.  1.
    10030    2    1    2    0    0  0.00000000000E+00  0.00000000000E+00 -0.75048602521E+03  0.27845757638E+04  0.26815355508E+04 0.  0.
        2    1    3    3  502    0  0.19132111265E+02 -0.70867878323E+03 -0.15569818987E+04  0.17107846996E+04  0.25500000920E-02 0.  1.
       -2    1    3    3    0  502 -0.19132111265E+02  0.70867878323E+03  0.80649587352E+03  0.10737910642E+04  0.25500000920E-02 0. -1.
</event>
<event>
 5   0  0.1732312E-06  0.2696701E+04  0.7818609E-02  0.8336076E-01
       -1   -1    0    0    0  501  0.00000000000E+00  0.00000000000E+00  0.14721755447E+04  0.14721755447E+04  0.50400001928E-02 0.  1.
        1   -1    0    0  501    0  0.00000000000E+00  0.00000000000E+00 -0.12349399985E+04  0.12349399985E+04  0.50400001928E-02 0. -1.
    10030    2    1    2    0    0  0.00000000000E+00  0.00000000000E+00  0.23723554619E+03  0.27071155431E+04  0.26967005506E+04 0.  0.
        5    1    3    3  502    0  0.73843231578E+03 -0.11272593438E+04  0.16385244851E+03  0.13575218702E+04  0.46999998093E+01 0.  1.
       -5    1    3    3    0  502 -0.73843231578E+03  0.11272593438E+04  0.73383097676E+02  0.13495936730E+04  0.46999998093E+01 0. -1.
</event>
<event>
 5   0  0.1753474E-06  0.2702669E+04  0.7818609E-02  0.8334139E-01
       -1   -1    0    0    0  501  0.00000000000E+00  0.00000000000E+00  0.10445182027E+04  0.10445182027E+04  0.50400001928E-02 0.  1.
        1   -1    0    0  501    0  0.00000000000E+00  0.00000000000E+00 -0.17482753201E+04  0.17482753201E+04  0.50400001928E-02 0. -1.
    10030    2    1    2    0    0  0.00000000000E+00  0.00000000000E+00 -0.70375711740E+03  0.27927935228E+04  0.27026693436E+04 0.  0.
        3    1    3    3  502    0  0.10782983881E+04  0.81248174655E+03 -0.41080089490E+03  0.14112446236E+04  0.10100000352E+00 0. -1.
       -3    1    3    3    0  502 -0.10782983881E+04 -0.81248174655E+03 -0.29295622250E+03  0.13815488992E+04  0.10100000352E+00 0.  1.
</event>
<event>
 5   0  0.4448804E-06  0.2704741E+04  0.7818609E-02  0.8333468E-01
        2   -1    0    0  501    0  0.00000000000E+00  0.00000000000E+00  0.14140961056E+04  0.14140961056E+04  0.25500000920E-02 0. -1.
       -2   -1    0    0    0  501  0.00000000000E+00  0.00000000000E+00 -0.12933391509E+04  0.12933391510E+04  0.25500000920E-02 0.  1.
    10030    2    1    2    0    0  0.00000000000E+00  0.00000000000E+00  0.12075695466E+03  0.27074352566E+04  0.27047409167E+04 0.  0.
        2    1    3    3  502    0  0.81335228517E+03  0.86691348842E+03  0.70586572335E+03  0.13825076331E+04  0.25500000920E-02 0. -1.
       -2    1    3    3    0  502 -0.81335228517E+03 -0.86691348842E+03 -0.58510876869E+03  0.13249276235E+04  0.25500000920E-02 0.  1.
</event>
<event>
 5   0  0.1771016E-06  0.2693961E+04  0.7818609E-02  0.8336967E-01
        1   -1    0    0  501    0  0.00000000000E+00  0.00000000000E+00  0.16284110935E+04  0.16284110935E+04  0.50400001928E-02 0.  1.
       -1   -1    0    0    0  501  0.00000000000E+00  0.00000000000E+00 -0.11141883419E+04  0.11141883419E+04  0.50400001928E-02 0. -1.
    10030    2    1    2    0    0  0.00000000000E+00  0.00000000000E+00  0.51422275161E+03  0.27425994354E+04  0.26939611402E+04 0.  0.
        2    1    3    3  502    0 -0.20785861786E+03  0.11737842621E+04 -0.38141416530E+03  0.12515795878E+04  0.25500000920E-02 0. -1.
       -2    1    3    3    0  502  0.20785861786E+03 -0.11737842621E+04  0.89563691691E+03  0.14910198476E+04  0.25500000920E-02 0.  1.
</event>
<event>
 5   0  0.1732312E-06  0.2701086E+04  0.7818609E-02  0.8334653E-01
       -1   -1    0    0    0  501  0.00000000000E+00  0.00000000000E+00  0.14008102503E+04  0.14008102503E+04  0.50400001928E-02 0.  1.
        1   -1    0    0  501    0  0.00000000000E+00  0.00000000000E+00 -0.13020795749E+04  0.13020795749E+04  0.50400001928E-02 0. -1.
    10030    2    1    2    0    0  0.00000000000E+00  0.00000000000E+00  0.98730675442E+02  0.27028898252E+04  0.27010860151E+04 0.  0.
        5    1    3    3  502    0  0.66970251017E+03  0.11685411547E+04 -0.50473245995E+02  0.13477980267E+04  0.46999998093E+01 0. -1.
       -5    1    3    3    0  502 -0.66970251017E+03 -0.11685411547E+04  0.14920392144E+03  0.13550917985E+04  0.46999998093E+01 0.  1.
</event>
<event>
 5   0  0.4655882E-06  0.2692320E+04  0.7818609E-02  0.8337501E-01
        2   -1    0    0  501    0  0.00000000000E+00  0.00000000000E+00  0.16521081846E+04  0.16521081846E+04  0.25500000920E-02 0. -1.
       -2   -1    0    0    0  501  0.00000000000E+00  0.00000000000E+00 -0.10968689200E+04  0.10968689200E+04  0.25500000920E-02 0.  1.
    10030    2    1    2    0    0  0.00000000000E+00  0.00000000000E+00  0.55523926462E+03  0.27489771046E+04  0.26923195353E+04 0.  0.
        1    1    3    3  502    0  0.47545084019E+03  0.25560908685E+03  0.15367606659E+04  0.16288102563E+04  0.50400001928E-02 0. -1.
       -1    1    3    3    0  502 -0.47545084019E+03 -0.25560908685E+03 -0.98152140129E+03  0.11201668483E+04  0.50400001928E-02 0.  1.
</event>
<event>
 5   0  0.4448804E-06  0.2723296E+04  0.7818609E-02  0.8327485E-01
        2   -1    0    0  501    0  0.00000000000E+00  0.00000000000E+00  0.17749265532E+04  0.17749265532E+04  0.25500000920E-02 0. -1.
       -2   -1    0    0    0  501  0.00000000000E+00  0.00000000000E+00 -0.10445985970E+04  0.10445985970E+04  0.25500000920E-02 0.  1.
    10030    2    1    2    0    0  0.00000000000E+00  0.00000000000E+00  0.73032795619E+03  0.28195251501E+04  0.27232963755E+04 0.  0.
        2    1    3    3  502    0 -0.11271219542E+04  0.45420287806E+03 -0.27085700609E+03  0.12450171372E+04  0.25500000920E-02 0.  1.
       -2    1    3    3    0  502  0.11271219542E+04 -0.45420287806E+03  0.10011849623E+04  0.15745080129E+04  0.25500000920E-02 0. -1.
</event>
<event>
 5   0  0.4439357E-06  0.2684080E+04  0.7818609E-02  0.8340189E-01
        2   -1    0    0  501    0  0.00000000000E+00  0.00000000000E+00  0.13350896818E+04  0.13350896818E+04  0.25500000920E-02 0. -1.
       -2   -1    0    0    0  501  0.00000000000E+00  0.00000000000E+00 -0.13490268533E+04  0.13490268533E+04  0.25500000920E-02 0.  1.
    10030    2    1    2    0    0  0.00000000000E+00  0.00000000000E+00 -0.13937171506E+02  0.26841165352E+04  0.26840803508E+04 0.  0.
        4    1    3    3  502    0  0.56368458104E+03  0.90671295248E+03  0.80618537383E+03  0.13378359970E+04  0.12699999809E+01 0. -1.
       -4    1    3    3    0  502 -0.56368458104E+03 -0.90671295248E+03 -0.82012254533E+03  0.13462805381E+04  0.12699999809E+01 0.  1.
</event>
<event>
 5   0  0.4401659E-06  0.2693258E+04  0.7818609E-02  0.8337196E-01
       -2   -1    0    0    0  501  0.00000000000E+00  0.00000000000E+00  0.11643699036E+04  0.11643699036E+04  0.25500000920E-02 0.  1.
        2   -1    0    0  501    0  0.00000000000E+00  0.00000000000E+00 -0.15574169371E+04  0.15574169372E+04  0.25500000920E-02 0. -1.
    10030    2    1    2    0    0  0.00000000000E+00  0.00000000000E+00 -0.39304703352E+03  0.27217868408E+04  0.26932578109E+04 0.  0.
        5    1    3    3  502    0  0.49241462081E+03 -0.87702669752E+03 -0.11014072413E+04  0.14915656164E+04  0.46999998093E+01 0. -1.
       -5    1    3    3    0  502 -0.49241462081E+03  0.87702669752E+03  0.70836020776E+03  0.12302212244E+04  0.46999998093E+01 0.  1.
</event>
<event>
 5   0  0.4439357E-06  0.2632864E+04  0.7818609E-02  0.8357123E-01
        2   -1    0    0  501    0  0.00000000000E+00  0.00000000000E+00  0.12436982343E+04  0.12436982343E+04  0.25500000920E-02 0. -1.
       -2   -1    0    0    0  501  0.00000000000E+00  0.00000000000E+00 -0.13934194391E+04  0.13934194391E+04  0.25500000920E-02 0.  1.
    10030    2    1    2    0    0  0.00000000000E+00  0.00000000000E+00 -0.14972120477E+03  0.26371176734E+04  0.26328640649E+04 0.  0.
        4    1    3    3  502    0 -0.31370183853E+03  0.25381530851E+03 -0.13299455296E+04  0.13898157356E+04  0.12699999809E+01 0.  1.
       -4    1    3    3    0  502  0.31370183853E+03 -0.25381530851E+03  0.11802243248E+04  0.12473019378E+04  0.12699999809E+01 0. -1.
</event>
<event>
 5   0  0.4655882E-06  0.2697285E+04  0.7818609E-02  0.8335886E-01
       -2   -1    0    0    0  501  0.00000000000E+00  0.00000000000E+00  0.14411088787E+04  0.14411088787E+04  0.25500000920E-02 0.  1.
        2   -1    0    0  501    0  0.00000000000E+00  0.00000000000E+00 -0.12621090121E+04  0.12621090121E+04  0.25500000920E-02 0. -1.
    10030    2    1    2    0    0  0.00000000000E+00  0.00000000000E+00  0.17899986664E+03  0.27032178908E+04  0.26972849336E+04 0.  0.
        1    1    3    3  502    0  0.79396151186E+03 -0.22964657249E+03  0.11575476161E+04  0.14223322095E+04  0.50400001928E-02 0.  1.
       -1    1    3    3    0  502 -0.79396151186E+03  0.22964657249E+03 -0.97854774948E+03  0.12808856813E+04  0.50400001928E-02 0. -1.
</event>
<event>
 5   0  0.1828511E-06  0.2723533E+04  0.7818609E-02  0.8327409E-01
       -1   -1    0    0    0  501  0.00000000000E+00  0.00000000000E+00  0.12578137867E+04  0.12578137867E+04  0.50400001928E-02 0.  1.
        1   -1    0    0  501    0  0.00000000000E+00  0.00000000000E+00 -0.14743105739E+04  0.14743105739E+04  0.50400001928E-02 0. -1.
    10030    2    1    2    0    0  0.00000000000E+00  0.00000000000E+00 -0.21649678719E+03  0.27321243607E+04  0.27235331214E+04 0.  0.
        4    1    3    3  502    0 -0.13097846788E+04 -0.36999071712E+03 -0.63638831850E+02  0.13625272655E+04  0.12699999809E+01 0. -1.
       -4    1    3    3    0  502  0.13097846788E+04  0.36999071712E+03 -0.15285795534E+03  0.13695970951E+04  0.12699999809E+01 0.  1.
</event>
<event>
 5   0  0.4448804E-06  0.2684470E+04  0.7818609E-02  0.8340061E-01
       -2   -1    0    0    0  501  0.00000000000E+00  0.00000000000E+00  0.67712658611E+03  0.67712658611E+03  0.25500000920E-02 0. -1.
        2   -1    0    0  501    0  0.00000000000E+00  0.00000000000E+00 -0.26606479215E+04  0.26606479215E+04  0.25500000920E-02 0.  1.
    10030    2    1    2    0    0  0.00000000000E+00  0.00000000000E+00 -0.19835213354E+04  0.33377745076E+04  0.26844704833E+04 0.  0.
        2    1    3    3  502    0  0.10449790196E+04  0.62772649167E+03 -0.29328900462E+03  0.12538102488E+04  0.25500000920E-02 0. -1.
       -2    1    3    3    0  502 -0.10449790196E+04 -0.62772649167E+03 -0.16902323308E+04  0.20839642588E+04  0.25500000920E-02 0.  1.
</event>
<event>
 5   0  0.4487186E-06  0.2722819E+04  0.7818609E-02  0.8327639E-01
        2   -1    0    0  501    0  0.00000000000E+00  0.00000000000E+00  0.17634431498E+04  0.17634431498E+04  0.25500000920E-02 0.  1.
       -2   -1    0    0    0  501  0.00000000000E+00  0.00000000000E+00 -0.10510321707E+04  0.10510321707E+04  0.25500000920E-02 0. -1.
    10030    2    1    2    0    0  0.00000000000E+00  0.00000000000E+00  0.71241097904E+03  0.28144753205E+04  0.27228187466E+04 0.  0.
        3    1    3    3  502    0 -0.24898427713E+03 -0.13171443639E+04  0.11034801487E+03  0.13450052566E+04  0.10100000352E+00 0.  1.
       -3    1    3    3    0  502  0.24898427713E+03  0.13171443639E+04  0.60206296416E+03  0.14694700639E+04  0.10100000352E+00 0. -1.
</event>
<event>
 5   0  0.1771016E-06  0.2699744E+04  0.7818609E-02  0.8335088E-01
        1   -1    0    0  501    0  0.00000000000E+00  0.00000000000E+00  0.23702354371E+04  0.23702354371E+04  0.50400001928E-02 0. -1.
       -1   -1    0    0    0  501  0.00000000000E+00  0.00000000000E+00 -0.76876495870E+03  0.76876495872E+03  0.50400001928E-02 0.  1.
    10030    2    1    2    0    0  0.00000000000E+00  0.00000000000E+00  0.16014704784E+04  0.31390003958E+04  0.26997436530E+04 0.  0.
        2    1    3    3  502    0  0.11344128829E+04 -0.71949026481E+03  0.64650663316E+03  0.14908150981E+04  0.25500000920E-02 0.  1.
       -2    1    3    3    0  502 -0.11344128829E+04  0.71949026481E+03  0.95496384525E+03  0.16481852977E+04  0.25500000920E-02 0. -1.
</event>
<event>
 5   0  0.4655882E-06  0.2675244E+04  0.7818609E-02  0.8343083E-01
        2   -1    0    0  501    0  0.00000000000E+00  0.00000000000E+00  0.76880293872E+03  0.76880293873E+03  0.25500000920E-02 0.  1.
       -2   -1    0    0    0  501  0.00000000000E+00  0.00000000000E+00 -0.23272960488E+04  0.23272960489E+04  0.25500000920E-02 0. -1.
    10030    2    1    2    0    0  0.00000000000E+00  0.00000000000E+00 -0.15584931101E+04  0.30960989876E+04  0.26752435715E+04 0.  0.
        1    1    3    3  502    0 -0.12320292903E+04 -0.51564085990E+02 -0.17936326442E+03  0.12460843502E+04  0.50400001928E-02 0.  1.
       -1    1    3    3    0  502  0.12320292903E+04  0.51564085990E+02 -0.13791298457E+04  0.18500146374E+04  0.50400001928E-02 0. -1.
</event>
<event>
 5   0  0.1723605E-06  0.2698343E+04  0.7818609E-02  0.8335543E-01
        1   -1    0    0  501    0  0.00000000000E+00  0.00000000000E+00  0.10462288938E+04  0.10462288938E+04  0.50400001928E-02 0.  1.
       -1   -1    0    0    0  501  0.00000000000E+00  0.00000000000E+00 -0.17398338089E+04  0.17398338089E+04  0.50400001928E-02 0. -1.
    10030    2    1    2    0    0  0.00000000000E+00  0.00000000000E+00 -0.69360491513E+03  0.27860627027E+04  0.26983434928E+04 0.  0.
        1    1    3    3  502    0  0.36540625266E+03  0.37936223584E+03  0.93568245094E+03  0.10737500102E+04  0.50400001928E-02 0.  1.
       -1    1    3    3    0  502 -0.36540625266E+03 -0.37936223584E+03 -0.16292873661E+04  0.17123126924E+04  0.50400001928E-02 0. -1.
</event>
<event>
 5   0  0.4448804E-06  0.2709702E+04  0.7818609E-02  0.8331864E-01
        2   -1    0    0  501    0  0.00000000000E+00  0.00000000000E+00  0.12989959533E+04  0.12989959533E+04  0.25500000920E-02 0.  1.
       -2   -1    0    0    0  501  0.00000000000E+00  0.00000000000E+00 -0.14131073434E+04  0.14131073434E+04  0.25500000920E-02 0. -1.
    10030    2    1    2    0    0  0.00000000000E+00  0.00000000000E+00 -0.11411139005E+03  0.27121032967E+04  0.27097016224E+04 0.  0.
        2    1    3    3  502    0  0.77257929960E+03 -0.37437884394E+03 -0.11061175098E+04  0.14001907864E+04  0.25500000920E-02 0. -1.
       -2    1    3    3    0  502 -0.77257929960E+03  0.37437884394E+03  0.99200611975E+03  0.13119125103E+04  0.25500000920E-02 0.  1.
</event>
<event>
 5   0  0.1732312E-06  0.2716344E+04  0.7818609E-02  0.8329721E-01
        1   -1    0    0  501    0  0.00000000000E+00  0.00000000000E+00  0.17303662303E+04  0.17303662303E+04  0.50400001928E-02 0.  1.
       -1   -1    0    0    0  501  0.00000000000E+00  0.00000000000E+00 -0.10660354204E+04  0.10660354204E+04  0.50400001928E-02 0. -1.
    10030    2    1    2    0    0  0.00000000000E+00  0.00000000000E+00  0.66433080994E+03  0.27964016508E+04  0.27163443757E+04 0.  0.
        5    1    3    3  502    0 -0.13756922417E+03 -0.13422531696E+04  0.49178589088E+03  0.14361212746E+04  0.46999998093E+01 0.  1.
       -5    1    3    3    0  502  0.13756922417E+03  0.13422531696E+04  0.17254491905E+03  0.13602803762E+04  0.46999998093E+01 0. -1.
</event>
<event>
 5   0  0.4401659E-06  0.2696422E+04  0.7818609E-02  0.8336167E-01
       -2   -1    0    0    0  501  0.00000000000E+00  0.00000000000E+00  0.10297064260E+04  0.10297064260E+04  0.25500000920E-02 0. -1.
        2   -1    0    0  501    0  0.00000000000E+00  0.00000000000E+00 -0.17652340155E+04  0.17652340155E+04  0.25500000920E-02 0.  1.
    10030    2    1    2    0    0  0.00000000000E+00  0.00000000000E+00 -0.73552758947E+03  0.27949404415E+04  0.26964219322E+04 0.  0.
        5    1    3    3  502    0  0.54816169128E+03 -0.91827916564E+03 -0.12186921992E+04  0.16214039078E+04  0.46999998093E+01 0.  1.
       -5    1    3    3    0  502 -0.54816169128E+03  0.91827916564E+03  0.48316460970E+03  0.11735365337E+04  0.46999998093E+01 0. -1.
</event>
<event>
 5   0  0.1828511E-06  0.2697969E+04  0.7818609E-02  0.8335664E-01
        1   -1    0    0  501    0  0.00000000000E+00  0.00000000000E+00  0.28377051126E+04  0.28377051126E+04  0.50400001928E-02 0.  1.
       -1   -1    0    0    0  501  0.00000000000E+00  0.00000000000E+00 -0.64127857810E+03  0.64127857812E+03  0.50400001928E-02 0. -1.
    10030    2    1    2    0    0  0.00000000000E+00  0.00000000000E+00  0.21964265345E+04  0.34789836907E+04  0.26979692361E+04 0.  0.
        4    1    3    3  502    0 -0.16532605387E+03  0.11396154748E+04  0.20042540234E+04  0.23115129110E+04  0.12699999809E+01 0.  1.
       -4    1    3    3    0  502  0.16532605387E+03 -0.11396154748E+04  0.19217251109E+03  0.11674707797E+04  0.12699999809E+01 0. -1.
</event>
<event>
 5   0  0.4439357E-06  0.2716427E+04  0.7818609E-02  0.8329694E-01
        2   -1    0    0  501    0  0.00000000000E+00  0.00000000000E+00  0.17485302389E+04  0.17485302389E+04  0.25500000920E-02 0. -1.
       -2   -1    0    0    0  501  0.00000000000E+00  0.00000000000E+00 -0.10550257495E+04  0.10550257496E+04  0.25500000920E-02 0.  1.
    10030    2    1    2    0    0  0.00000000000E+00  0.00000000000E+00  0.69350448939E+03  0.28035559885E+04  0.27164273787E+04 0.  0.
        4    1    3    3  502    0  0.46101881560E+03 -0.10258903409E+04 -0.43908537231E+03  0.12073884698E+04  0.12699999809E+01 0.  1.
       -4    1    3    3    0  502 -0.46101881560E+03  0.10258903409E+04  0.11325898617E+04  0.15961675187E+04  0.12699999809E+01 0. -1.
</event>
<event>
 5   0  0.1723605E-06  0.2688390E+04  0.7818609E-02  0.8338782E-01
        1   -1    0    0  501    0  0.00000000000E+00  0.00000000000E+00  0.17568355910E+04  0.17568355910E+04  0.50400001928E-02 0. -1.
       -1   -1    0    0    0  501  0.00000000000E+00  0.00000000000E+00 -0.10284744809E+04  0.10284744810E+04  0.50400001928E-02 0.  1.
    10030    2    1    2    0    0  0.00000000000E+00  0.00000000000E+00  0.72836111001E+03  0.27853100719E+04  0.26883902786E+04 0.  0.
        1    1    3    3  502    0  0.12429106301E+04 -0.45423672583E+03  0.60870342985E+03  0.14565979895E+04  0.50400001928E-02 0. -1.
       -1    1    3    3    0  502 -0.12429106301E+04  0.45423672583E+03  0.11965768016E+03  0.13287120824E+04  0.50400001928E-02 0.  1.
</event>
<event>
 5   0  0.4655882E-06  0.2715671E+04  0.7818609E-02  0.8329938E-01
       -2   -1    0    0    0  501  0.00000000000E+00  0.00000000000E+00  0.98438551567E+03  0.98438551567E+03  0.25500000920E-02 0.  1.
        2   -1    0    0  501    0  0.00000000000E+00  0.00000000000E+00 -0.18729623012E+04  0.18729623012E+04  0.25500000920E-02 0. -1.
    10030    2    1    2    0    0  0.00000000000E+00  0.00000000000E+00 -0.88857678550E+03  0.28573478168E+04  0.27156707906E+04 0.  0.
        1    1    3    3  502    0 -0.22461171769E+02  0.10765778810E+04 -0.13146007495E+04  0.16993232679E+04  0.50400001928E-02 0. -1.
       -1    1    3    3    0  502  0.22461171769E+02 -0.10765778810E+04  0.42602396403E+03  0.11580245490E+04  0.50400001928E-02 0.  1.
</event>
<event>
 5   0  0.1828511E-06  0.2680606E+04  0.7818609E-02  0.8341325E-01
        1   -1    0    0  501    0  0.00000000000E+00  0.00000000000E+00  0.15370663930E+04  0.15370663930E+04  0.50400001928E-02 0. -1.
       -1   -1    0    0    0  501  0.00000000000E+00  0.00000000000E+00 -0.11687279612E+04  0.11687279612E+04  0.50400001928E-02 0.  1.
    10030    2    1    2    0    0  0.00000000000E+00  0.00000000000E+00  0.36833843184E+03  0.27057943542E+04  0.26806062536E+04 0.  0.
        4    1    3    3  502    0  0.62105496501E+03  0.60386707781E+03 -0.84820507491E+03  0.12123605814E+04  0.12699999809E+01 0.  1.
       -4    1    3    3    0  502 -0.62105496501E+03 -0.60386707781E+03  0.12165435067E+04  0.14934337729E+04  0.12699999809E+01 0. -1.
</event>
<event>
 5   0  0.4487186E-06  0.2697350E+04  0.7818609E-02  0.8335865E-01
        2   -1    0    0  501    0  0.00000000000E+00  0.00000000000E+00  0.13546039993E+04  0.13546039993E+04  0.25500000920E-02 0.  1.
       -2   -1    0    0    0  501  0.00000000000E+00  0.00000000000E+00 -0.13427721248E+04  0.13427721248E+04  0.25500000920E-02 0. -1.
    10030    2    1    2    0    0  0.00000000000E+00  0.00000000000E+00  0.11831874488E+02  0.26973761241E+04  0.26973501741E+04 0.  0.
        3    1    3    3  502    0 -0.99992421842E+02 -0.50015868876E+03  0.12544339685E+04  0.13541646096E+04  0.10100000352E+00 0.  1.
       -3    1    3    3    0  502  0.99992421842E+02  0.50015868876E+03 -0.12426020940E+04  0.13432115145E+04  0.10100000352E+00 0. -1.
</event>
<event>
 5   0  0.1753474E-06  0.2620492E+04  0.7818609E-02  0.8361274E-01
       -1   -1    0    0    0  501  0.00000000000E+00  0.00000000000E+00  0.10196227047E+04  0.10196227047E+04  0.50400001928E-02 0. -1.
        1   -1    0    0  501    0  0.00000000000E+00  0.00000000000E+00 -0.16837062088E+04  0.16837062088E+04  0.50400001928E-02 0.  1.
    10030    2    1    2    0    0  0.00000000000E+00  0.00000000000E+00 -0.66408350405E+03  0.27033289135E+04  0.26204923801E+04 0.  0.
        3    1    3    3  502    0  0.48140887939E+03  0.12144342184E+04 -0.22816057603E+03  0.13261456325E+04  0.10100000352E+00 0. -1.
       -3    1    3    3    0  502 -0.48140887939E+03 -0.12144342184E+04 -0.43592292802E+03  0.13771832810E+04  0.10100000352E+00 0.  1.
</event>
<event>
 5   0  0.4655882E-06  0.2683749E+04  0.7818609E-02  0.8340297E-01
       -2   -1    0    0    0  501  0.00000000000E+00  0.00000000000E+00  0.11296146402E+04  0.11296146402E+04  0.25500000920E-02 0. -1.
        2   -1    0    0  501    0  0.00000000000E+00  0.00000000000E+00 -0.15940189163E+04  0.15940189163E+04  0.25500000920E-02 0.  1.
    10030    2    1    2    0    0  0.00000000000E+00  0.00000000000E+00 -0.46440427611E+03  0.27236335565E+04  0.26837489485E+04 0.  0.
        1    1    3    3  502    0 -0.41454166227E+03  0.59621844815E+03 -0.13773805719E+04  0.15570801096E+04  0.50400001928E-02 0.  1.
       -1    1    3    3    0  502  0.41454166227E+03 -0.59621844815E+03  0.91297629584E+03  0.11665534469E+04  0.50400001928E-02 0. -1.
</event>
<event>
 5   0  0.1828511E-06  0.2703946E+04  0.7818609E-02  0.8333726E-01
       -1   -1    0    0    0  501  0.00000000000E+00  0.00000000000E+00  0.95192056435E+03  0.95192056436E+03  0.50400001928E-02 0.  1.
        1   -1    0    0  501    0  0.00000000000E+00  0.00000000000E+00 -0.19201503113E+04  0.19201503113E+04  0.50400001928E-02 0. -1.
    10030    2    1    2    0    0  0.00000000000E+00  0.00000000000E+00 -0.96822974692E+03  0.28720708756E+04  0.27039456858E+04 0.  0.
        4    1    3    3  502    0 -0.24604257214E+03  0.11164743517E+04  0.28240443566E+03  0.11776271921E+04  0.12699999809E+01 0.  1.
       -4    1    3    3    0  502  0.24604257214E+03 -0.11164743517E+04 -0.12506341826E+04  0.16944436836E+04  0.12699999809E+01 0. -1.
</event>
<event>
 5   0  0.4487186E-06  0.2673465E+04  0.7818609E-02  0.8343666E-01
       -2   -1    0    0    0  501  0.00000000000E+00  0.00000000000E+00  0.96139114988E+03  0.96139114989E+03  0.25500000920E-02 0. -1.
        2   -1    0    0  501    0  0.00000000000E+00  0.00000000000E+00 -0.18586133309E+04  0.18586133309E+04  0.25500000920E-02 0.  1.
    10030    2    1    2    0    0  0.00000000000E+00  0.00000000000E+00 -0.89722218099E+03  0.28200044808E+04  0.26734654719E+04 0.  0.
        3    1    3    3  502    0  0.10331893750E+04 -0.45341469830E+03  0.30746884737E+03  0.11694452854E+04  0.10100000352E+00 0. -1.
       -3    1    3    3    0  502 -0.10331893750E+04  0.45341469830E+03 -0.12046910284E+04  0.16505591953E+04  0.10100000352E+00 0.  1.
</event>
<event>
 5   0  0.1828511E-06  0.2702292E+04  0.7818609E-02  0.8334262E-01
        1   -1    0    0  501    0  0.00000000000E+00  0.00000000000E+00  0.13874918052E+04  0.13874918052E+04  0.50400001928E-02 0.  1.
       -1   -1    0    0    0  501  0.00000000000E+00  0.00000000000E+00 -0.13157521218E+04  0.13157521218E+04  0.50400001928E-02 0. -1.
    10030    2    1    2    0    0  0.00000000000E+00  0.00000000000E+00  0.71739683380E+02  0.27032439271E+04  0.27022918323E+04 0.  0.
        4    1    3    3  502    0  0.12603329026E+04  0.77654755304E+02 -0.44505351979E+03  0.13388590422E+04  0.12699999809E+01 0. -1.
       -4    1    3    3    0  502 -0.12603329026E+04 -0.77654755304E+02  0.51679320317E+03  0.13643848849E+04  0.12699999809E+01 0.  1.
</event>
<event>
 5   0  0.1828511E-06  0.2678826E+04  0.7818609E-02  0.8341908E-01
       -1   -1    0    0    0  501  0.00000000000E+00  0.00000000000E+00  0.59384620930E+03  0.59384620933E+03  0.50400001928E-02 0. -1.
        1   -1    0    0  501    0  0.00000000000E+00  0.00000000000E+00 -0.30210302515E+04  0.30210302515E+04  0.50400001928E-02 0.  1.
    10030    2    1    2    0    0  0.00000000000E+00  0.00000000000E+00 -0.24271840422E+04  0.36148764609E+04  0.26788261333E+04 0.  0.
        4    1    3    3  502    0  0.41654076306E+03 -0.25877539062E+01  0.50421815783E+03  0.65402635065E+03  0.12699999809E+01 0. -1.
       -4    1    3    3    0  502 -0.41654076306E+03  0.25877539062E+01 -0.29314022001E+04  0.29608501102E+04  0.12699999809E+01 0.  1.
</event>
<event>
 5   0  0.1732312E-06  0.2700038E+04  0.7818609E-02  0.8334993E-01
        1   -1    0    0  501    0  0.00000000000E+00  0.00000000000E+00  0.19588404231E+04  0.19588404231E+04  0.50400001928E-02 0.  1.
       -1   -1    0    0    0  501  0.00000000000E+00  0.00000000000E+00 -0.93042353925E+03  0.93042353926E+03  0.50400001928E-02 0. -1.
    10030    2    1    2    0    0  0.00000000000E+00  0.00000000000E+00  0.10284168838E+04  0.28892639624E+04  0.27000379548E+04 0.  0.
        5    1    3    3  502    0 -0.12414661148E+04  0.47945379946E+03  0.27156830172E+03  0.13582656193E+04  0.46999998093E+01 0. -1.
       -5    1    3    3    0  502  0.12414661148E+04 -0.47945379946E+03  0.75684858212E+03  0.15309983430E+04  0.46999998093E+01 0.  1.
</event>
<event>
 5   0  0.4448804E-06  0.2689064E+04  0.7818609E-02  0.8338562E-01
       -2   -1    0    0    0  501  0.00000000000E+00  0.00000000000E+00  0.11484048712E+04  0.11484048713E+04  0.25500000920E-02 0. -1.
        2   -1    0    0  501    0  0.00000000000E+00  0.00000000000E+00 -0.15741539655E+04  0.15741539655E+04  0.25500000920E-02 0.  1.
    10030    2    1    2    0    0  0.00000000000E+00  0.00000000000E+00 -0.42574909421E+03  0.27225588367E+04  0.26890638386E+04 0.  0.
        2    1    3    3  502    0 -0.68052656038E+03 -0.37634188305E+03 -0.13233576327E+04  0.15349348639E+04  0.25500000920E-02 0.  1.
       -2    1    3    3    0  502  0.68052656038E+03  0.37634188305E+03  0.89760853853E+03  0.11876239728E+04  0.25500000920E-02 0. -1.
</event>
<event>
 5   0  0.4439357E-06  0.2684119E+04  0.7818609E-02  0.8340176E-01
        2   -1    0    0  501    0  0.00000000000E+00  0.00000000000E+00  0.13637677572E+04  0.13637677572E+04  0.25500000920E-02 0.  1.
       -2   -1    0    0    0  501  0.00000000000E+00  0.00000000000E+00 -0.13206965854E+04  0.13206965854E+04  0.25500000920E-02 0. -1.
    10030    2    1    2    0    0  0.00000000000E+00  0.00000000000E+00  0.43071171869E+02  0.26844643426E+04  0.26841187904E+04 0.  0.
        4    1    3    3  502    0  0.93900256646E+03  0.20033046765E+02 -0.93722992330E+03  0.13268491568E+04  0.12699999809E+01 0.  1.
       -4    1    3    3    0  502 -0.93900256646E+03 -0.20033046765E+02  0.98030109517E+03  0.13576151859E+04  0.12699999809E+01 0. -1.
</event>
<event>
 5   0  0.4401659E-06  0.2629918E+04  0.7818609E-02  0.8358109E-01
        2   -1    0    0  501    0  0.00000000000E+00  0.00000000000E+00  0.11252931479E+04  0.11252931479E+04  0.25500000920E-02 0. -1.
       -2   -1    0    0    0  501  0.00000000000E+00  0.00000000000E+00 -0.15365927168E+04  0.15365927168E+04  0.25500000920E-02 0.  1.
    10030    2    1    2    0    0  0.00000000000E+00  0.00000000000E+00 -0.41129956892E+03  0.26618858647E+04  0.26299180636E+04 0.  0.
        5    1    3    3  502    0  0.58611533654E+03  0.57744191862E+03 -0.12438493493E+04  0.14913596652E+04  0.46999998093E+01 0.  1.
       -5    1    3    3    0  502 -0.58611533654E+03 -0.57744191862E+03  0.83254978038E+03  0.11705261996E+04  0.46999998093E+01 0. -1.
</event>
<event>
 5   0  0.1482875E-06  0.2608047E+04  0.7818609E-02  0.8365473E-01
        4   -1    0    0  501    0  0.00000000000E+00  0.00000000000E+00  0.91927015813E+03  0.91927103540E+03  0.12699999809E+01 0. -1.
       -4   -1    0    0    0  501  0.00000000000E+00  0.00000000000E+00 -0.18498104579E+04  0.18498108938E+04  0.12699999809E+01 0.  1.
    10030    2    1    2    0    0  0.00000000000E+00  0.00000000000E+00 -0.93054029973E+03  0.27690819292E+04  0.26080470627E+04 0.  0.
        3    1    3    3  502    0  0.30416768378E+03 -0.38077847158E+03 -0.17494849376E+04  0.18160968536E+04  0.10100000352E+00 0.  1.
       -3    1    3    3    0  502 -0.30416768378E+03  0.38077847158E+03  0.81894463791E+03  0.95298507566E+03  0.10100000352E+00 0. -1.
</event>
<event>
 5   0  0.1828511E-06  0.2701646E+04  0.7818609E-02  0.8334471E-01
        1   -1    0    0  501    0  0.00000000000E+00  0.00000000000E+00  0.15948439893E+04  0.15948439893E+04  0.50400001928E-02 0.  1.
       -1   -1    0    0    0  501  0.00000000000E+00  0.00000000000E+00 -0.11441385357E+04  0.11441385358E+04  0.50400001928E-02 0. -1.
    10030    2    1    2    0    0  0.00000000000E+00  0.00000000000E+00  0.45070545353E+03  0.27389825250E+04  0.27016457700E+04 0.  0.
        4    1    3    3  502    0  0.11572480455E+04 -0.48104801758E+03  0.73639305372E+03  0.14535840452E+04  0.12699999809E+01 0.  1.
       -4    1    3    3    0  502 -0.11572480455E+04  0.48104801758E+03 -0.28568760020E+03  0.12853984798E+04  0.12699999809E+01 0. -1.
</event>
<event>
 5   0  0.1723605E-06  0.2693425E+04  0.7818609E-02  0.8337142E-01
        1   -1    0    0  501    0  0.00000000000E+00  0.00000000000E+00  0.18759610839E+04  0.18759610839E+04  0.50400001928E-02 0. -1.
       -1   -1    0    0    0  501  0.00000000000E+00  0.00000000000E+00 -0.96677605208E+03  0.96677605209E+03  0.50400001928E-02 0.  1.
    10030    2    1    2    0    0  0.00000000000E+00  0.00000000000E+00  0.90918503181E+03  0.28427371360E+04  0.26934247720E+04 0.  0.
        1    1    3    3  502    0 -0.42169689382E+03 -0.10281301504E+04 -0.34833990817E+03  0.11645688336E+04  0.50400001928E-02 0.  1.
       -1    1    3    3    0  502  0.42169689382E+03  0.10281301504E+04  0.12575249400E+04  0.16781683024E+04  0.50400001928E-02 0. -1.
</event>
<event>
 5   0  0.4487186E-06  0.2699937E+04  0.7818609E-02  0.8335025E-01
       -2   -1    0    0    0  501  0.00000000000E+00  0.00000000000E+00  0.15848328885E+04  0.15848328885E+04  0.25500000920E-02 0. -1.
        2   -1    0    0  501    0  0.00000000000E+00  0.00000000000E+00 -0.11499097085E+04  0.11499097085E+04  0.25500000920E-02 0.  1.
    10030    2    1    2    0    0  0.00000000000E+00  0.00000000000E+00  0.43492317998E+03  0.27347425971E+04  0.26999368325E+04 0.  0.
        3    1    3    3  502    0 -0.84137585569E+03  0.80054555908E+03 -0.47961680797E+03  0.12565105711E+04  0.10100000352E+00 0.  1.
       -3    1    3    3    0  502  0.84137585569E+03 -0.80054555908E+03  0.91453998795E+03  0.14782320259E+04  0.10100000352E+00 0. -1.
</event>
<event>
 5   0  0.4655882E-06  0.2706437E+04  0.7818609E-02  0.8332920E-01
        2   -1    0    0  501    0  0.00000000000E+00  0.00000000000E+00  0.12864402151E+04  0.12864402151E+04  0.25500000920E-02 0. -1.
       -2   -1    0    0    0  501  0.00000000000E+00  0.00000000000E+00 -0.14234629021E+04  0.14234629021E+04  0.25500000920E-02 0.  1.
    10030    2    1    2    0    0  0.00000000000E+00  0.00000000000E+00 -0.13702268694E+03  0.27099031172E+04  0.27064367142E+04 0.  0.
        1    1    3    3  502    0 -0.80551314473E+03  0.14656446877E+03 -0.11473268668E+04  0.14095004466E+04  0.50400001928E-02 0.  1.
       -1    1    3    3    0  502  0.80551314473E+03 -0.14656446877E+03  0.10103041798E+04  0.13004026706E+04  0.50400001928E-02 0. -1.
</event>
<event>
 5   0  0.4401659E-06  0.2626358E+04  0.7818609E-02  0.8359303E-01
        2   -1    0    0  501    0  0.00000000000E+00  0.00000000000E+00  0.15721318244E+04  0.15721318244E+04  0.25500000920E-02 0.  1.
       -2   -1    0    0    0  501  0.00000000000E+00  0.00000000000E+00 -0.10968792978E+04  0.10968792978E+04  0.25500000920E-02 0. -1.
    10030    2    1    2    0    0  0.00000000000E+00  0.00000000000E+00  0.47525252657E+03  0.26690111222E+04  0.26263578215E+04 0.  0.
        5    1    3    3  502    0 -0.45406463060E+03  0.11728574048E+04  0.62144722912E+03  0.14028499311E+04  0.46999998093E+01 0.  1.
       -5    1    3    3    0  502  0.45406463060E+03 -0.11728574048E+04 -0.14619470255E+03  0.12661611911E+04  0.46999998093E+01 0. -1.
</event>
<event>
 5   0  0.1732312E-06  0.2603745E+04  0.7818609E-02  0.8366930E-01
       -1   -1    0    0    0  501  0.00000000000E+00  0.00000000000E+00  0.15622842628E+04  0.15622842628E+04  0.50400001928E-02 0. -1.
        1   -1    0    0  501    0  0.00000000000E+00  0.00000000000E+00 -0.10848674869E+04  0.10848674869E+04  0.50400001928E-02 0.  1.
    10030    2    1    2    0    0  0.00000000000E+00  0.00000000000E+00  0.47741677586E+03  0.26471517497E+04  0.26037445359E+04 0.  0.
        5    1    3    3  502    0  0.81195165458E+03 -0.28201415542E+03  0.12327880468E+04  0.15028592521E+04  0.46999998093E+01 0. -1.
       -5    1    3    3    0  502 -0.81195165458E+03  0.28201415542E+03 -0.75537127091E+03  0.11442924976E+04  0.46999998093E+01 0.  1.
</event>
<event>
 5   0  0.4448804E-06  0.2703057E+04  0.7818609E-02  0.8334014E-01
        2   -1    0    0  501    0  0.00000000000E+00  0.00000000000E+00  0.17669585098E+04  0.17669585098E+04  0.25500000920E-02 0. -1.
       -2   -1    0    0    0  501  0.00000000000E+00  0.00000000000E+00 -0.10337704416E+04  0.10337704416E+04  0.25500000920E-02 0.  1.
    10030    2    1    2    0    0  0.00000000000E+00  0.00000000000E+00  0.73318806814E+03  0.28007289514E+04  0.27030571426E+04 0.  0.
        2    1    3    3  502    0 -0.57574239601E+03 -0.43093994564E+03  0.15522503274E+04  0.17107511866E+04  0.25500000920E-02 0. -1.
       -2    1    3    3    0  502  0.57574239601E+03  0.43093994564E+03 -0.81906225927E+03  0.10899777649E+04  0.25500000920E-02 0.  1.
</event>
<event>
 5   0  0.1723605E-06  0.2709301E+04  0.7818609E-02  0.8331993E-01
        1   -1    0    0  501    0  0.00000000000E+00  0.00000000000E+00  0.11592169636E+04  0.11592169636E+04  0.50400001928E-02 0.  1.
       -1   -1    0    0    0  501  0.00000000000E+00  0.00000000000E+00 -0.15830328189E+04  0.15830328189E+04  0.50400001928E-02 0. -1.
    10030    2    1    2    0    0  0.00000000000E+00  0.00000000000E+00 -0.42381585529E+03  0.27422497826E+04  0.27093013843E+04 0.  0.
        1    1    3    3  502    0  0.10786131832E+03  0.48034945015E+03 -0.14892813831E+04  0.15685434952E+04  0.50400001928E-02 0. -1.
       -1    1    3    3    0  502 -0.10786131832E+03 -0.48034945015E+03  0.10654655278E+04  0.11737062874E+04  0.50400001928E-02 0.  1.
</event>
<event>
 5   0  0.4487186E-06  0.2704680E+04  0.7818609E-02  0.8333488E-01
        2   -1    0    0  501    0  0.00000000000E+00  0.00000000000E+00  0.12389872486E+04  0.12389872486E+04  0.25500000920E-02 0.  1.
       -2   -1    0    0    0  501  0.00000000000E+00  0.00000000000E+00 -0.14760628710E+04  0.14760628710E+04  0.25500000920E-02 0. -1.
    10030    2    1    2    0    0  0.00000000000E+00  0.00000000000E+00 -0.23707562242E+03  0.27150501196E+04  0.27046797040E+04 0.  0.
        3    1    3    3  502    0  0.70864285286E+03 -0.75146832794E+03  0.75770296050E+03  0.12810125399E+04  0.10100000352E+00 0.  1.
       -3    1    3    3    0  502 -0.70864285286E+03  0.75146832794E+03 -0.99477858292E+03  0.14340375797E+04  0.10100000352E+00 0. -1.
</event>
<event>
 5   0  0.4448804E-06  0.2701383E+04  0.7818609E-02  0.8334556E-01
        2   -1    0    0  501    0  0.00000000000E+00  0.00000000000E+00  0.11454586003E+04  0.11454586003E+04  0.25500000920E-02 0. -1.
       -2   -1    0    0    0  501  0.00000000000E+00  0.00000000000E+00 -0.15926962393E+04  0.15926962393E+04  0.25500000920E-02 0.  1.
    10030    2    1    2    0    0  0.00000000000E+00  0.00000000000E+00 -0.44723763893E+03  0.27381548396E+04  0.27013830569E+04 0.  0.
        2    1    3    3  502    0 -0.12752495705E+04  0.43652206304E+03 -0.31171930996E+03  0.13834673494E+04  0.25500000920E-02 0.  1.
       -2    1    3    3    0  502  0.12752495705E+04 -0.43652206304E+03 -0.13551832897E+03  0.13546874902E+04  0.25500000920E-02 0. -1.
</event>
<event>
 5   0  0.1753474E-06  0.2699184E+04  0.7818609E-02  0.8335270E-01
        1   -1    0    0  501    0  0.00000000000E+00  0.00000000000E+00  0.19458177287E+04  0.19458177288E+04  0.50400001928E-02 0. -1.
       -1   -1    0    0    0  501  0.00000000000E+00  0.00000000000E+00 -0.93605825068E+03  0.93605825069E+03  0.50400001928E-02 0.  1.
    10030    2    1    2    0    0  0.00000000000E+00  0.00000000000E+00  0.10097594781E+04  0.28818759794E+04  0.26991841281E+04 0.  0.
        3    1    3    3  502    0 -0.12223337482E+04  0.40992976628E+03  0.78799501127E+02  0.12916468468E+04  0.10100000352E+00 0.  1.
       -3    1    3    3    0  502  0.12223337482E+04 -0.40992976628E+03  0.93095997694E+03  0.15902291326E+04  0.10100000352E+00 0. -1.
</event>
<event>
 5   0  0.4401659E-06  0.2697730E+04  0.7818609E-02  0.8335742E-01
        2   -1    0    0  501    0  0.00000000000E+00  0.00000000000E+00  0.10134503069E+04  0.10134503069E+04  0.25500000920E-02 0.  1.
       -2   -1    0    0    0  501  0.00000000000E+00  0.00000000000E+00 -0.17952899139E+04  0.17952899139E+04  0.25500000920E-02 0. -1.
    10030    2    1    2    0    0  0.00000000000E+00  0.00000000000E+00 -0.78183960703E+03  0.28087402208E+04  0.26977302417E+04 0.  0.
        5    1    3    3  502    0  0.12513768034E+04 -0.16004911103E+03  0.10606455192E+03  0.12660297789E+04  0.46999998093E+01 0.  1.
       -5    1    3    3    0  502 -0.12513768034E+04  0.16004911103E+03 -0.88790415895E+03  0.15427104419E+04  0.46999998093E+01 0. -1.
</event>
<event>
 5   0  0.4448804E-06  0.2712284E+04  0.7818609E-02  0.8331030E-01
        2   -1    0    0  501    0  0.00000000000E+00  0.00000000000E+00  0.14369292420E+04  0.14369292420E+04  0.25500000920E-02 0.  1.
       -2   -1    0    0    0  501  0.00000000000E+00  0.00000000000E+00 -0.12798972238E+04  0.12798972238E+04  0.25500000920E-02 0. -1.
    10030    2    1    2    0    0  0.00000000000E+00  0.00000000000E+00  0.15703201819E+03  0.27168264657E+04  0.27122844597E+04 0.  0.
        2    1    3    3  502    0 -0.20464325466E+02  0.11849965995E+04 -0.58174335040E+03  0.13202503759E+04  0.25500000920E-02 0. -1.
       -2    1    3    3    0  502  0.20464325466E+02 -0.11849965995E+04  0.73877536858E+03  0.13965760898E+04  0.25500000920E-02 0.  1.
</event>
<event>
 5   0  0.1482875E-06  0.2692304E+04  0.7818609E-02  0.8337507E-01
       -4   -1    0    0    0  501  0.00000000000E+00  0.00000000000E+00  0.12592871155E+04  0.12592877559E+04  0.12699999809E+01 0.  1.
        4   -1    0    0  501    0  0.00000000000E+00  0.00000000000E+00 -0.14390069896E+04  0.14390075500E+04  0.12699999809E+01 0. -1.
    10030    2    1    2    0    0  0.00000000000E+00  0.00000000000E+00 -0.17971987411E+03  0.26982953059E+04  0.26923035351E+04 0.  0.
        2    1    3    3  502    0  0.46491798624E+03  0.12632518279E+04 -0.76766916801E+02  0.13482755928E+04  0.25500000920E-02 0.  1.
       -2    1    3    3    0  502 -0.46491798624E+03 -0.12632518279E+04 -0.10295295731E+03  0.13500197132E+04  0.25500000920E-02 0. -1.
</event>
<event>
 5   0  0.1723605E-06  0.2634698E+04  0.7818609E-02  0.8356510E-01
       -1   -1    0    0    0  501  0.00000000000E+00  0.00000000000E+00  0.10406573312E+04  0.10406573312E+04  0.50400001928E-02 0.  1.
        1   -1    0    0  501    0  0.00000000000E+00  0.00000000000E+00 -0.16676072698E+04  0.16676072698E+04  0.50400001928E-02 0. -1.
    10030    2    1    2    0    0  0.00000000000E+00  0.00000000000E+00 -0.62694993860E+03  0.27082646010E+04  0.26346975013E+04 0.  0.
        1    1    3    3  502    0  0.11559049451E+04 -0.62531897350E+03 -0.22000934739E+03  0.13324954686E+04  0.50400001928E-02 0. -1.
       -1    1    3    3    0  502 -0.11559049451E+04  0.62531897350E+03 -0.40694059122E+03  0.13757691324E+04  0.50400001928E-02 0.  1.
</event>
<event>
 5   0  0.4439357E-06  0.2673396E+04  0.7818609E-02  0.8343689E-01
       -2   -1    0    0    0  501  0.00000000000E+00  0.00000000000E+00  0.90969504827E+03  0.90969504827E+03  0.25500000920E-02 0. -1.
        2   -1    0    0  501    0  0.00000000000E+00  0.00000000000E+00 -0.19641322367E+04  0.19641322367E+04  0.25500000920E-02 0.  1.
    10030    2    1    2    0    0  0.00000000000E+00  0.00000000000E+00 -0.10544371884E+04  0.28738272850E+04  0.26733958703E+04 0.  0.
        4    1    3    3  502    0 -0.26424699008E+03  0.39664597030E+03  0.81525186056E+03  0.94434723834E+03  0.12699999809E+01 0. -1.
       -4    1    3    3    0  502  0.26424699008E+03 -0.39664597030E+03 -0.18696890490E+04  0.19294800466E+04  0.12699999809E+01 0.  1.
</event>
<event>
 5   0  0.4487186E-06  0.2714196E+04  0.7818609E-02  0.8330413E-01
        2   -1    0    0  501    0  0.00000000000E+00  0.00000000000E+00  0.15471920208E+04  0.15471920208E+04  0.25500000920E-02 0. -1.
       -2   -1    0    0    0  501  0.00000000000E+00  0.00000000000E+00 -0.11903598099E+04  0.11903598099E+04  0.25500000920E-02 0.  1.
    10030    2    1    2    0    0  0.00000000000E+00  0.00000000000E+00  0.35683221090E+03  0.27375518306E+04  0.27141961607E+04 0.  0.
        3    1    3    3  502    0 -0.11837311272E+04 -0.62514292395E+03  0.40325163211E+03  0.13980825963E+04  0.10100000352E+00 0. -1.
       -3    1    3    3    0  502  0.11837311272E+04  0.62514292395E+03 -0.46419421209E+02  0.13394692344E+04  0.10100000352E+00 0.  1.
</event>
<event>
 5   0  0.1482875E-06  0.2693028E+04  0.7818609E-02  0.8337271E-01
       -4   -1    0    0    0  501  0.00000000000E+00  0.00000000000E+00  0.14541258379E+04  0.14541263925E+04  0.12699999809E+01 0.  1.
        4   -1    0    0  501    0  0.00000000000E+00  0.00000000000E+00 -0.12468645732E+04  0.12468652200E+04  0.12699999809E+01 0. -1.
    10030    2    1    2    0    0  0.00000000000E+00  0.00000000000E+00  0.20726126470E+03  0.27009916126E+04  0.26930277495E+04 0.  0.
        1    1    3    3  502    0  0.75360043585E+03 -0.52428038150E+03 -0.88432859368E+03  0.12746845088E+04  0.50400001928E-02 0. -1.
       -1    1    3    3    0  502 -0.75360043585E+03  0.52428038150E+03  0.10915898584E+04  0.14263071038E+04  0.50400001928E-02 0.  1.
</event>
<event>
 5   0  0.4487186E-06  0.2690798E+04  0.7818609E-02  0.8337997E-01
       -2   -1    0    0    0  501  0.00000000000E+00  0.00000000000E+00  0.12007032878E+04  0.12007032878E+04  0.25500000920E-02 0.  1.
        2   -1    0    0  501    0  0.00000000000E+00  0.00000000000E+00 -0.15075319980E+04  0.15075319980E+04  0.25500000920E-02 0. -1.
    10030    2    1    2    0    0  0.00000000000E+00  0.00000000000E+00 -0.30682871018E+03  0.27082352858E+04  0.26907981169E+04 0.  0.
        3    1    3    3  502    0 -0.88713069019E+03  0.31634703443E+03 -0.11203807383E+04  0.14636698113E+04  0.10100000352E+00 0. -1.
       -3    1    3    3    0  502  0.88713069019E+03 -0.31634703443E+03  0.81355202809E+03  0.12445654745E+04  0.10100000352E+00 0.  1.
</event>
<event>
 5   0  0.1753474E-06  0.2698539E+04  0.7818609E-02  0.8335479E-01
        1   -1    0    0  501    0  0.00000000000E+00  0.00000000000E+00  0.23248134282E+04  0.23248134282E+04  0.50400001928E-02 0. -1.
       -1   -1    0    0    0  501  0.00000000000E+00  0.00000000000E+00 -0.78308587141E+03  0.78308587143E+03  0.50400001928E-02 0.  1.
    10030    2    1    2    0    0  0.00000000000E+00  0.00000000000E+00  0.15417275568E+04  0.31078992996E+04  0.26985392710E+04 0.  0.
        3    1    3    3  502    0 -0.79559383434E+03 -0.10238965703E+04  0.34117925969E+03  0.13407971634E+04  0.10100000352E+00 0.  1.
       -3    1    3    3    0  502  0.79559383434E+03  0.10238965703E+04  0.12005482971E+04  0.17671021362E+04  0.10100000352E+00 0. -1.
</event>
<event>
 5   0  0.1732312E-06  0.2705526E+04  0.7818609E-02  0.8333214E-01
        1   -1    0    0  501    0  0.00000000000E+00  0.00000000000E+00  0.14900208873E+04  0.14900208873E+04  0.50400001928E-02 0. -1.
       -1   -1    0    0    0  501  0.00000000000E+00  0.00000000000E+00 -0.12281488045E+04  0.12281488045E+04  0.50400001928E-02 0.  1.
    10030    2    1    2    0    0  0.00000000000E+00  0.00000000000E+00  0.26187208282E+03  0.27181696919E+04  0.27055257319E+04 0.  0.
        5    1    3    3  502    0 -0.13965047865E+03 -0.13447263323E+04  0.17756540624E+03  0.13635771810E+04  0.46999998093E+01 0. -1.
       -5    1    3    3    0  502  0.13965047865E+03  0.13447263323E+04  0.84306676574E+02  0.13545925109E+04  0.46999998093E+01 0.  1.
</event>
<event>
 5   0  0.4439357E-06  0.2710962E+04  0.7818609E-02  0.8331457E-01
        2   -1    0    0  501    0  0.00000000000E+00  0.00000000000E+00  0.17537710989E+04  0.17537710989E+04  0.25500000920E-02 0. -1.
       -2   -1    0    0    0  501  0.00000000000E+00  0.00000000000E+00 -0.10476448716E+04  0.10476448716E+04  0.25500000920E-02 0.  1.
    10030    2    1    2    0    0  0.00000000000E+00  0.00000000000E+00  0.70612622731E+03  0.28014159704E+04  0.27109624104E+04 0.  0.
        4    1    3    3  502    0  0.94065485145E+03 -0.65274798821E+03 -0.39669077495E+03  0.12117246674E+04  0.12699999809E+01 0.  1.
       -4    1    3    3    0  502 -0.94065485145E+03  0.65274798821E+03  0.11028170023E+04  0.15896913031E+04  0.12699999809E+01 0. -1.
</event>
<event>
 5   0  0.1732312E-06  0.2693746E+04  0.7818609E-02  0.8337037E-01
       -1   -1    0    0    0  501  0.00000000000E+00  0.00000000000E+00  0.15763766543E+04  0.15763766543E+04  0.50400001928E-02 0.  1.
        1   -1    0    0  501    0  0.00000000000E+00  0.00000000000E+00 -0.11507823819E+04  0.11507823819E+04  0.50400001928E-02 0. -1.
    10030    2    1    2    0    0  0.00000000000E+00  0.00000000000E+00  0.42559427235E+03  0.27271590362E+04  0.26937457052E+04 0.  0.
        5    1    3    3  502    0  0.66345238099E+03 -0.50469424456E+03  0.12838225473E+04  0.15307213219E+04  0.46999998093E+01 0.  1.
       -5    1    3    3    0  502 -0.66345238099E+03  0.50469424456E+03 -0.85822827495E+03  0.11964377143E+04  0.46999998093E+01 0. -1.
</event>
<event>
 5   0  0.1732312E-06  0.2705458E+04  0.7818609E-02  0.8333236E-01
        1   -1    0    0  501    0  0.00000000000E+00  0.00000000000E+00  0.11661598353E+04  0.11661598353E+04  0.50400001928E-02 0. -1.
       -1   -1    0    0    0  501  0.00000000000E+00  0.00000000000E+00 -0.15691465646E+04  0.15691465646E+04  0.50400001928E-02 0.  1.
    10030    2    1    2    0    0  0.00000000000E+00  0.00000000000E+00 -0.40298672934E+03  0.27353063999E+04  0.27054579645E+04 0.  0.
        5    1    3    3  502    0 -0.84286798569E+03  0.10034809355E+04 -0.54053346047E+03  0.14176032382E+04  0.46999998093E+01 0.  1.
       -5    1    3    3    0  502  0.84286798569E+03 -0.10034809355E+04  0.13754673113E+03  0.13177031617E+04  0.46999998093E+01 0. -1.
</event>
<event>
 5   0  0.1753474E-06  0.2589789E+04  0.7818609E-02  0.8371678E-01
       -1   -1    0    0    0  501  0.00000000000E+00  0.00000000000E+00  0.79500010872E+03  0.79500010873E+03  0.50400001928E-02 0.  1.
        1   -1    0    0  501    0  0.00000000000E+00  0.00000000000E+00 -0.21091210167E+04  0.21091210167E+04  0.50400001928E-02 0. -1.
    10030    2    1    2    0    0  0.00000000000E+00  0.00000000000E+00 -0.13141209080E+04  0.29041211255E+04  0.25897887463E+04 0.  0.
        3    1    3    3  502    0 -0.10956928002E+04 -0.51129009050E+03 -0.13735342976E+03  0.12168920429E+04  0.10100000352E+00 0.  1.
       -3    1    3    3    0  502  0.10956928002E+04  0.51129009050E+03 -0.11767674783E+04  0.16872290826E+04  0.10100000352E+00 0. -1.
</event>
<event>
 5   0  0.4655882E-06  0.2698569E+04  0.7818609E-02  0.8335469E-01
       -2   -1    0    0    0  501  0.00000000000E+00  0.00000000000E+00  0.75823202957E+03  0.75823202957E+03  0.25500000920E-02 0.  1.
        2   -1    0    0  501    0  0.00000000000E+00  0.00000000000E+00 -0.24010706808E+04  0.24010706808E+04  0.25500000920E-02 0. -1.
    10030    2    1    2    0    0  0.00000000000E+00  0.00000000000E+00 -0.16428386512E+04  0.31593027104E+04  0.26985690248E+04 0.  0.
        1    1    3    3  502    0 -0.43383884741E+03  0.93896860603E+03  0.19293146239E+03  0.10521885467E+04  0.50400001928E-02 0.  1.
       -1    1    3    3    0  502  0.43383884741E+03 -0.93896860603E+03 -0.18357701136E+04  0.21071141636E+04  0.50400001928E-02 0. -1.
</event>
<event>
 5   0  0.1771016E-06  0.2694467E+04  0.7818609E-02  0.8336802E-01
       -1   -1    0    0    0  501  0.00000000000E+00  0.00000000000E+00  0.12221290636E+04  0.12221290636E+04  0.50400001928E-02 0. -1.
        1   -1    0    0  501    0  0.00000000000E+00  0.00000000000E+00 -0.14851443216E+04  0.14851443216E+04  0.50400001928E-02 0.  1.
    10030    2    1    2    0    0  0.00000000000E+00  0.00000000000E+00 -0.26301525797E+03  0.27072733853E+04  0.26944669522E+04 0.  0.
        2    1    3    3  502    0  0.48400092278E+03 -0.83760599497E+03 -0.10736194129E+04  0.14451641221E+04  0.25500000920E-02 0.  1.
       -2    1    3    3    0  502 -0.48400092278E+03  0.83760599497E+03  0.81060415495E+03  0.12621092631E+04  0.25500000920E-02 0. -1.
</event>
<event>
 5   0  0.1753474E-06  0.2682874E+04  0.7818609E-02  0.8340583E-01
       -1   -1    0    0    0  501  0.00000000000E+00  0.00000000000E+00  0.93487664815E+03  0.93487664816E+03  0.50400001928E-02 0.  1.
        1   -1    0    0  501    0  0.00000000000E+00  0.00000000000E+00 -0.19248021803E+04  0.19248021803E+04  0.50400001928E-02 0. -1.
    10030    2    1    2    0    0  0.00000000000E+00  0.00000000000E+00 -0.98992553215E+03  0.28596788285E+04  0.26828735421E+04 0.  0.
        3    1    3    3  502    0  0.12086060721E+03 -0.13286571079E+04 -0.34605818750E+03  0.13782936103E+04  0.10100000352E+00 0. -1.
       -3    1    3    3    0  502 -0.12086060721E+03  0.13286571079E+04 -0.64386734465E+03  0.14813852182E+04  0.10100000352E+00 0.  1.
</event>
<event>
 5   0  0.1771016E-06  0.2697945E+04  0.7818609E-02  0.8335672E-01
       -1   -1    0    0    0  501  0.00000000000E+00  0.00000000000E+00  0.10528059232E+04  0.10528059232E+04  0.50400001928E-02 0. -1.
        1   -1    0    0  501    0  0.00000000000E+00  0.00000000000E+00 -0.17284540755E+04  0.17284540755E+04  0.50400001928E-02 0.  1.
    10030    2    1    2    0    0  0.00000000000E+00  0.00000000000E+00 -0.67564815229E+03  0.27812599987E+04  0.26979449132E+04 0.  0.
        2    1    3    3  502    0  0.11208007249E+03 -0.13119504855E+04 -0.35597156957E+02  0.13172103767E+04  0.25500000920E-02 0. -1.
       -2    1    3    3    0  502 -0.11208007249E+03  0.13119504855E+04 -0.64005099533E+03  0.14640496220E+04  0.25500000920E-02 0.  1.
</event>
<event>
 5   0  0.1753474E-06  0.2693740E+04  0.7818609E-02  0.8337039E-01
       -1   -1    0    0    0  501  0.00000000000E+00  0.00000000000E+00  0.71105636208E+03  0.71105636210E+03  0.50400001928E-02 0.  1.
        1   -1    0    0  501    0  0.00000000000E+00  0.00000000000E+00 -0.25512163144E+04  0.25512163144E+04  0.50400001928E-02 0. -1.
    10030    2    1    2    0    0  0.00000000000E+00  0.00000000000E+00 -0.18401599523E+04  0.32622726765E+04  0.26937398474E+04 0.  0.
        3    1    3    3  502    0 -0.11634101395E+04  0.46009237564E+03 -0.31594523683E+03  0.12903602403E+04  0.10100000352E+00 0.  1.
       -3    1    3    3    0  502  0.11634101395E+04 -0.46009237564E+03 -0.15242147155E+04  0.19719124362E+04  0.10100000352E+00 0. -1.
</event>
<event>
 5   0  0.4401659E-06  0.2712161E+04  0.7818609E-02  0.8331070E-01
        2   -1    0    0  501    0  0.00000000000E+00  0.00000000000E+00  0.11794151762E+04  0.11794151762E+04  0.25500000920E-02 0. -1.
       -2   -1    0    0    0  501  0.00000000000E+00  0.00000000000E+00 -0.15592081306E+04  0.15592081306E+04  0.25500000920E-02 0.  1.
    10030    2    1    2    0    0  0.00000000000E+00  0.00000000000E+00 -0.37979295441E+03  0.27386233067E+04  0.27121605646E+04 0.  0.
        5    1    3    3  502    0  0.66993820854E+03  0.46708403969E+03  0.90323116700E+03  0.12177164425E+04  0.46999998093E+01 0. -1.
       -5    1    3    3    0  502 -0.66993820854E+03 -0.46708403969E+03 -0.12830241214E+04  0.15209068642E+04  0.46999998093E+01 0.  1.
</event>
<event>
 5   0  0.4655882E-06  0.2700760E+04  0.7818609E-02  0.8334759E-01
       -2   -1    0    0    0  501  0.00000000000E+00  0.00000000000E+00  0.13044051264E+04  0.13044051264E+04  0.25500000920E-02 0.  1.
        2   -1    0    0  501    0  0.00000000000E+00  0.00000000000E+00 -0.13979749944E+04  0.13979749944E+04  0.25500000920E-02 0. -1.
    10030    2    1    2    0    0  0.00000000000E+00  0.00000000000E+00 -0.93569867928E+02  0.27023801208E+04  0.27007597074E+04 0.  0.
        1    1    3    3  502    0  0.98197049141E+02 -0.13465053060E+04 -0.75201792626E+02  0.13521739937E+04  0.50400001928E-02 0. -1.
       -1    1    3    3    0  502 -0.98197049141E+02  0.13465053060E+04 -0.18368075302E+02  0.13502061271E+04  0.50400001928E-02 0.  1.
</event>
<event>
 5   0  0.1723605E-06  0.2700523E+04  0.7818609E-02  0.8334835E-01
       -1   -1    0    0    0  501  0.00000000000E+00  0.00000000000E+00  0.17054112752E+04  0.17054112752E+04  0.50400001928E-02 0.  1.
        1   -1    0    0  501    0  0.00000000000E+00  0.00000000000E+00 -0.10690708754E+04  0.10690708754E+04  0.50400001928E-02 0. -1.
    10030    2    1    2    0    0  0.00000000000E+00  0.00000000000E+00  0.63634039981E+03  0.27744821506E+04  0.27005225604E+04 0.  0.
        1    1    3    3  502    0  0.43068581866E+03 -0.85117509916E+03  0.12999654556E+04  0.16124203886E+04  0.50400001928E-02 0.  1.
       -1    1    3    3    0  502 -0.43068581866E+03  0.85117509916E+03 -0.66362505584E+03  0.11620617619E+04  0.50400001928E-02 0. -1.
</event>
<event>
 5   0  0.4448804E-06  0.2707406E+04  0.7818609E-02  0.8332606E-01
       -2   -1    0    0    0  501  0.00000000000E+00  0.00000000000E+00  0.66595233434E+03  0.66595233435E+03  0.25500000920E-02 0. -1.
        2   -1    0    0  501    0  0.00000000000E+00  0.00000000000E+00 -0.27517159228E+04  0.27517159228E+04  0.25500000920E-02 0.  1.
    10030    2    1    2    0    0  0.00000000000E+00  0.00000000000E+00 -0.20857635884E+04  0.34176682571E+04  0.27074058744E+04 0.  0.
        2    1    3    3  502    0 -0.10961072488E+04 -0.79290206014E+03 -0.11042952059E+04  0.17463140266E+04  0.25500000920E-02 0.  1.
       -2    1    3    3    0  502  0.10961072488E+04  0.79290206014E+03 -0.98146838254E+03  0.16713542305E+04  0.25500000920E-02 0. -1.
</event>
<event>
 5   0  0.4401659E-06  0.2720243E+04  0.7818609E-02  0.8328467E-01
       -2   -1    0    0    0  501  0.00000000000E+00  0.00000000000E+00  0.11017398067E+04  0.11017398067E+04  0.25500000920E-02 0. -1.
        2   -1    0    0  501    0  0.00000000000E+00  0.00000000000E+00 -0.16790989928E+04  0.16790989928E+04  0.25500000920E-02 0.  1.
    10030    2    1    2    0    0  0.00000000000E+00  0.00000000000E+00 -0.57735918608E+03  0.27808387995E+04  0.27202427831E+04 0.  0.
        5    1    3    3  502    0 -0.20129239972E+03 -0.51938237612E+03 -0.15571388762E+04  0.16537775705E+04  0.46999998093E+01 0.  1.
       -5    1    3    3    0  502  0.20129239972E+03  0.51938237612E+03  0.97977969013E+03  0.11270612290E+04  0.46999998093E+01 0. -1.
</event>
<event>
 5   0  0.1771016E-06  0.2707491E+04  0.7818609E-02  0.8332579E-01
        1   -1    0    0  501    0  0.00000000000E+00  0.00000000000E+00  0.12660758974E+04  0.12660758974E+04  0.50400001928E-02 0.  1.
       -1   -1    0    0    0  501  0.00000000000E+00  0.00000000000E+00 -0.14474856501E+04  0.14474856501E+04  0.50400001928E-02 0. -1.
    10030    2    1    2    0    0  0.00000000000E+00  0.00000000000E+00 -0.18140975273E+03  0.27135615475E+04  0.27074908631E+04 0.  0.
        2    1    3    3  502    0 -0.10653613267E+04  0.43125050420E+03  0.62619955091E+03  0.13088535561E+04  0.25500000920E-02 0.  1.
       -2    1    3    3    0  502  0.10653613267E+04 -0.43125050420E+03 -0.80760930364E+03  0.14047079914E+04  0.25500000920E-02 0. -1.
</event>
<event>
 5   0  0.4448804E-06  0.2720991E+04  0.7818609E-02  0.8328226E-01
       -2   -1    0    0    0  501  0.00000000000E+00  0.00000000000E+00  0.10626302855E+04  0.10626302855E+04  0.25500000920E-02 0.  1.
        2   -1    0    0  501    0  0.00000000000E+00  0.00000000000E+00 -0.17418549714E+04  0.17418549714E+04  0.25500000920E-02 0. -1.
    10030    2    1    2    0    0  0.00000000000E+00  0.00000000000E+00 -0.67922468582E+03  0.28044852569E+04  0.27209908825E+04 0.  0.
        2    1    3    3  502    0  0.11927087461E+04 -0.64740522025E+03 -0.43879497547E+03  0.14262638966E+04  0.25500000920E-02 0.  1.
       -2    1    3    3    0  502 -0.11927087461E+04  0.64740522025E+03 -0.24042971035E+03  0.13782213603E+04  0.25500000920E-02 0. -1.
</event>
<event>
 5   0  0.4487186E-06  0.2695363E+04  0.7818609E-02  0.8336511E-01
       -2   -1    0    0    0  501  0.00000000000E+00  0.00000000000E+00  0.10665327894E+04  0.10665327894E+04  0.25500000920E-02 0. -1.
        2   -1    0    0  501    0  0.00000000000E+00  0.00000000000E+00 -0.17029437859E+04  0.17029437859E+04  0.25500000920E-02 0.  1.
    10030    2    1    2    0    0  0.00000000000E+00  0.00000000000E+00 -0.63641099649E+03  0.27694765754E+04  0.26953629709E+04 0.  0.
        3    1    3    3  502    0 -0.14971168266E+02 -0.10329408433E+04  0.57107165320E+03  0.11803871250E+04  0.10100000352E+00 0. -1.
       -3    1    3    3    0  502  0.14971168266E+02  0.10329408433E+04 -0.12074826497E+04  0.15890894503E+04  0.10100000352E+00 0.  1.
</event>
<event>
 5   0  0.1482875E-06  0.2682759E+04  0.7818609E-02  0.8340621E-01
        3   -1    0    0  501    0  0.00000000000E+00  0.00000000000E+00  0.12531675315E+04  0.12531675356E+04  0.10100000352E+00 0. -1.
       -3   -1    0    0    0  501  0.00000000000E+00  0.00000000000E+00 -0.14358008183E+04  0.14358008219E+04  0.10100000352E+00 0.  1.
    10030    2    1    2    0    0  0.00000000000E+00  0.00000000000E+00 -0.18263328682E+03  0.26889683575E+04  0.26827590108E+04 0.  0.
        5    1    3    3  502    0  0.14313845341E+02  0.69459161089E+03 -0.12414106640E+04  0.14225979470E+04  0.46999998093E+01 0.  1.
       -5    1    3    3    0  502 -0.14313845341E+02 -0.69459161089E+03  0.10587773772E+04  0.12663704105E+04  0.46999998093E+01 0. -1.
</event>
<event>
 5   0  0.1732312E-06  0.2703525E+04  0.7818609E-02  0.8333862E-01
       -1   -1    0    0    0  501  0.00000000000E+00  0.00000000000E+00  0.76341554430E+03  0.76341554432E+03  0.50400001928E-02 0. -1.
        1   -1    0    0  501    0  0.00000000000E+00  0.00000000000E+00 -0.23935345700E+04  0.23935345700E+04  0.50400001928E-02 0.  1.
    10030    2    1    2    0    0  0.00000000000E+00  0.00000000000E+00 -0.16301190257E+04  0.31569501143E+04  0.27035247338E+04 0.  0.
        5    1    3    3  502    0  0.83367726666E+03  0.10436783610E+04 -0.10570815159E+04  0.17034452523E+04  0.46999998093E+01 0.  1.
       -5    1    3    3    0  502 -0.83367726666E+03 -0.10436783610E+04 -0.57303750972E+03  0.14535048620E+04  0.46999998093E+01 0. -1.
</event>
<event>
 5   0  0.4655882E-06  0.2702923E+04  0.7818609E-02  0.8334057E-01
        2   -1    0    0  501    0  0.00000000000E+00  0.00000000000E+00  0.15905230353E+04  0.15905230353E+04  0.25500000920E-02 0.  1.
       -2   -1    0    0    0  501  0.00000000000E+00  0.00000000000E+00 -0.11483316696E+04  0.11483316696E+04  0.25500000920E-02 0. -1.
    10030    2    1    2    0    0  0.00000000000E+00  0.00000000000E+00  0.44219136574E+03  0.27388547049E+04  0.27029228421E+04 0.  0.
        1    1    3    3  502    0 -0.10608563697E+04 -0.67354299604E+03 -0.28288075919E+03  0.12880597535E+04  0.50400001928E-02 0. -1.
       -1    1    3    3    0  502  0.10608563697E+04  0.67354299604E+03  0.72507212492E+03  0.14507949514E+04  0.50400001928E-02 0.  1.
</event>
<event>
 5   0  0.1828511E-06  0.2699374E+04  0.7818609E-02  0.8335208E-01
        1   -1    0    0  501    0  0.00000000000E+00  0.00000000000E+00  0.23270721993E+04  0.23270721993E+04  0.50400001928E-02 0.  1.
       -1   -1    0    0    0  501  0.00000000000E+00  0.00000000000E+00 -0.78280969088E+03  0.78280969090E+03  0.50400001928E-02 0. -1.
    10030    2    1    2    0    0  0.00000000000E+00  0.00000000000E+00  0.15442625084E+04  0.31098818902E+04  0.26993737563E+04 0.  0.
        4    1    3    3  502    0  0.84678188317E+03  0.10378542939E+04  0.96308391842E+03  0.16497616009E+04  0.12699999809E+01 0.  1.
       -4    1    3    3    0  502 -0.84678188317E+03 -0.10378542939E+04  0.58117859001E+03  0.14601202893E+04  0.12699999809E+01 0. -1.
</event>
<event>
 5   0  0.1771016E-06  0.2700152E+04  0.7818609E-02  0.8334956E-01
       -1   -1    0    0    0  501  0.00000000000E+00  0.00000000000E+00  0.65077271461E+03  0.65077271463E+03  0.50400001928E-02 0. -1.
        1   -1    0    0  501    0  0.00000000000E+00  0.00000000000E+00 -0.28008330119E+04  0.28008330119E+04  0.50400001928E-02 0.  1.
    10030    2    1    2    0    0  0.00000000000E+00  0.00000000000E+00 -0.21500602973E+04  0.34516057265E+04  0.27001523678E+04 0.  0.
        2    1    3    3  502    0 -0.12912610468E+03  0.57341318409E+03  0.47863309301E+03  0.75800123241E+03  0.25500000920E-02 0. -1.
       -2    1    3    3    0  502  0.12912610468E+03 -0.57341318409E+03 -0.26286933903E+04  0.26936044941E+04  0.25500000920E-02 0.  1.
</event>
<event>
 5   0  0.4439357E-06  0.2687427E+04  0.7818609E-02  0.8339096E-01
       -2   -1    0    0    0  501  0.00000000000E+00  0.00000000000E+00  0.11243692669E+04  0.11243692669E+04  0.25500000920E-02 0. -1.
        2   -1    0    0  501    0  0.00000000000E+00  0.00000000000E+00 -0.16058479886E+04  0.16058479886E+04  0.25500000920E-02 0.  1.
    10030    2    1    2    0    0  0.00000000000E+00  0.00000000000E+00 -0.48147872174E+03  0.27302172555E+04  0.26874271158E+04 0.  0.
        4    1    3    3  502    0 -0.10212204320E+02 -0.37410760695E+03  0.10703530880E+04  0.11338951171E+04  0.12699999809E+01 0. -1.
       -4    1    3    3    0  502  0.10212204320E+02  0.37410760695E+03 -0.15518318098E+04  0.15963221383E+04  0.12699999809E+01 0.  1.
</event>
<event>
 5   0  0.4448804E-06  0.2704462E+04  0.7818609E-02  0.8333559E-01
       -2   -1    0    0    0  501  0.00000000000E+00  0.00000000000E+00  0.15269069719E+04  0.15269069719E+04  0.25500000920E-02 0. -1.
        2   -1    0    0  501    0  0.00000000000E+00  0.00000000000E+00 -0.11975374435E+04  0.11975374435E+04  0.25500000920E-02 0.  1.
    10030    2    1    2    0    0  0.00000000000E+00  0.00000000000E+00  0.32936952840E+03  0.27244444155E+04  0.27044617000E+04 0.  0.
        2    1    3    3  502    0 -0.48934801204E+03 -0.10550392951E+04  0.85968000976E+03  0.14462431020E+04  0.25500000920E-02 0. -1.
       -2    1    3    3    0  502  0.48934801204E+03  0.10550392951E+04 -0.53031048137E+03  0.12782013134E+04  0.25500000920E-02 0.  1.
</event>
<event>
 5   0  0.4401659E-06  0.2713872E+04  0.7818609E-02  0.8330518E-01
        2   -1    0    0  501    0  0.00000000000E+00  0.00000000000E+00  0.15198536493E+04  0.15198536493E+04  0.25500000920E-02 0.  1.
       -2   -1    0    0    0  501  0.00000000000E+00  0.00000000000E+00 -0.12114821068E+04  0.12114821068E+04  0.25500000920E-02 0. -1.
    10030    2    1    2    0    0  0.00000000000E+00  0.00000000000E+00  0.30837154248E+03  0.27313357562E+04  0.27138721423E+04 0.  0.
        5    1    3    3  502    0 -0.21941301046E+02 -0.53227109691E+03  0.14101986252E+04  0.15074734471E+04  0.46999998093E+01 0.  1.
       -5    1    3    3    0  502  0.21941301046E+02  0.53227109691E+03 -0.11018270827E+04  0.12238623090E+04  0.46999998093E+01 0. -1.
</event>
<event>
 5   0  0.1771016E-06  0.2703608E+04  0.7818609E-02  0.8333835E-01
        1   -1    0    0  501    0  0.00000000000E+00  0.00000000000E+00  0.14591268936E+04  0.14591268936E+04  0.50400001928E-02 0.  1.
       -1   -1    0    0    0  501  0.00000000000E+00  0.00000000000E+00 -0.12523746621E+04  0.12523746621E+04  0.50400001928E-02 0. -1.
    10030    2    1    2    0    0  0.00000000000E+00  0.00000000000E+00  0.20675223150E+03  0.27115015558E+04  0.27036076272E+04 0.  0.
        2    1    3    3  502    0 -0.43917829266E+03  0.35896479079E+03 -0.11272519178E+04  0.12619152824E+04  0.25500000920E-02 0. -1.
       -2    1    3    3    0  502  0.43917829266E+03 -0.35896479079E+03  0.13340041493E+04  0.14495862734E+04  0.25500000920E-02 0.  1.
</event>
<event>
 5   0  0.4439357E-06  0.2732199E+04  0.7818609E-02  0.8324632E-01
       -2   -1    0    0    0  501  0.00000000000E+00  0.00000000000E+00  0.10699204072E+04  0.10699204072E+04  0.25500000920E-02 0.  1.
        2   -1    0    0  501    0  0.00000000000E+00  0.00000000000E+00 -0.17442681059E+04  0.17442681060E+04  0.25500000920E-02 0. -1.
    10030    2    1    2    0    0  0.00000000000E+00  0.00000000000E+00 -0.67434769872E+03  0.28141885132E+04  0.27321991452E+04 0.  0.
        4    1    3    3  502    0 -0.89792059416E+03 -0.94968393689E+03  0.72331254635E+02  0.13089669196E+04  0.12699999809E+01 0. -1.
       -4    1    3    3    0  502  0.89792059416E+03  0.94968393689E+03 -0.74667895335E+03  0.15052215935E+04  0.12699999809E+01 0.  1.
</event>
<event>
 5   0  0.4487186E-06  0.2702513E+04  0.7818609E-02  0.8334190E-01
        2   -1    0    0  501    0  0.00000000000E+00  0.00000000000E+00  0.11725667951E+04  0.11725667951E+04  0.25500000920E-02 0. -1.
       -2   -1    0    0    0  501  0.00000000000E+00  0.00000000000E+00 -0.15571776039E+04  0.15571776039E+04  0.25500000920E-02 0.  1.
    10030    2    1    2    0    0  0.00000000000E+00  0.00000000000E+00 -0.38461080876E+03  0.27297443990E+04  0.27025134615E+04 0.  0.
        3    1    3    3  502    0 -0.81642180390E+03 -0.10763901025E+04 -0.21968065891E+03  0.13687292708E+04  0.10100000352E+00 0. -1.
       -3    1    3    3    0  502  0.81642180390E+03  0.10763901025E+04 -0.16493014985E+03  0.13610151282E+04  0.10100000352E+00 0.  1.
</event>
<event>
 5   0  0.1732312E-06  0.2707926E+04  0.7818609E-02  0.8332438E-01
        1   -1    0    0  501    0  0.00000000000E+00  0.00000000000E+00  0.17784872643E+04  0.17784872643E+04  0.50400001928E-02 0.  1.
       -1   -1    0    0    0  501  0.00000000000E+00  0.00000000000E+00 -0.10307724830E+04  0.10307724831E+04  0.50400001928E-02 0. -1.
    10030    2    1    2    0    0  0.00000000000E+00  0.00000000000E+00  0.74771478129E+03  0.28092597474E+04  0.27079259470E+04 0.  0.
        5    1    3    3  502    0  0.44200928317E+02  0.91834838009E+03 -0.65725586111E+03  0.11301879606E+04  0.46999998093E+01 0. -1.
       -5    1    3    3    0  502 -0.44200928317E+02 -0.91834838009E+03  0.14049706424E+04  0.16790717868E+04  0.46999998093E+01 0.  1.
</event>
<event>
 5   0  0.4487186E-06  0.2704391E+04  0.7818609E-02  0.8333582E-01
       -2   -1    0    0    0  501  0.00000000000E+00  0.00000000000E+00  0.65274914926E+03  0.65274914926E+03  0.25500000920E-02 0.  1.
        2   -1    0    0  501    0  0.00000000000E+00  0.00000000000E+00 -0.28011264268E+04  0.28011264268E+04  0.25500000920E-02 0. -1.
    10030    2    1    2    0    0  0.00000000000E+00  0.00000000000E+00 -0.21483772775E+04  0.34538755761E+04  0.27043911641E+04 0.  0.
        3    1    3    3  502    0 -0.34491656436E+03  0.70944923992E+03  0.32842268356E+03  0.85448647132E+03  0.10100000352E+00 0.  1.
       -3    1    3    3    0  502  0.34491656436E+03 -0.70944923992E+03 -0.24767999611E+04  0.25993891047E+04  0.10100000352E+00 0. -1.
</event>
<event>
 5   0  0.1771016E-06  0.2689838E+04  0.7818609E-02  0.8338310E-01
        1   -1    0    0  501    0  0.00000000000E+00  0.00000000000E+00  0.10414362304E+04  0.10414362304E+04  0.50400001928E-02 0. -1.
       -1   -1    0    0    0  501  0.00000000000E+00  0.00000000000E+00 -0.17368391187E+04  0.17368391187E+04  0.50400001928E-02 0.  1.
    10030    2    1    2    0    0  0.00000000000E+00  0.00000000000E+00 -0.69540288826E+03  0.27782753491E+04  0.26898380506E+04 0.  0.
        2    1    3    3  502    0 -0.42782336791E+03  0.18321769817E+03  0.95561156351E+03  0.10629181621E+04  0.25500000920E-02 0. -1.
       -2    1    3    3    0  502  0.42782336791E+03 -0.18321769817E+03 -0.16510144518E+04  0.17153571870E+04  0.25500000920E-02 0.  1.
</event>
<event>
 5   0  0.1723605E-06  0.2708466E+04  0.7818609E-02  0.8332263E-01
       -1   -1    0    0    0  501  0.00000000000E+00  0.00000000000E+00  0.13341010733E+04  0.13341010733E+04  0.50400001928E-02 0.  1.
        1   -1    0    0  501    0  0.00000000000E+00  0.00000000000E+00 -0.13746683842E+04  0.13746683842E+04  0.50400001928E-02 0. -1.
    10030    2    1    2    0    0  0.00000000000E+00  0.00000000000E+00 -0.40567310888E+02  0.27087694575E+04  0.27084656666E+04 0.  0.
        1    1    3    3  502    0  0.56657727573E+03  0.87627216079E+03  0.84299556322E+03  0.13414560108E+04  0.50400001928E-02 0.  1.
       -1    1    3    3    0  502 -0.56657727573E+03 -0.87627216079E+03 -0.88356287411E+03  0.13673134468E+04  0.50400001928E-02 0. -1.
</event>
<event>
 5   0  0.4439357E-06  0.2704411E+04  0.7818609E-02  0.8333575E-01
       -2   -1    0    0    0  501  0.00000000000E+00  0.00000000000E+00  0.65974430360E+03  0.65974430361E+03  0.25500000920E-02 0.  1.
        2   -1    0    0  501    0  0.00000000000E+00  0.00000000000E+00 -0.27714664267E+04  0.27714664267E+04  0.25500000920E-02 0. -1.
    10030    2    1    2    0    0  0.00000000000E+00  0.00000000000E+00 -0.21117221231E+04  0.34312107303E+04  0.27044106106E+04 0.  0.
        4    1    3    3  502    0 -0.34495782603E+03 -0.36278700687E+03  0.53784138846E+03  0.73476886579E+03  0.12699999809E+01 0.  1.
       -4    1    3    3    0  502  0.34495782603E+03  0.36278700687E+03 -0.26495635116E+04  0.26964418645E+04  0.12699999809E+01 0. -1.
</event>
<event>
 5   0  0.4439357E-06  0.2709931E+04  0.7818609E-02  0.8331790E-01
        2   -1    0    0  501    0  0.00000000000E+00  0.00000000000E+00  0.25663879170E+04  0.25663879170E+04  0.25500000920E-02 0.  1.
       -2   -1    0    0    0  501  0.00000000000E+00  0.00000000000E+00 -0.71537592761E+03  0.71537592762E+03  0.25500000920E-02 0. -1.
    10030    2    1    2    0    0  0.00000000000E+00  0.00000000000E+00  0.18510119894E+04  0.32817638446E+04  0.27099314654E+04 0.  0.
        4    1    3    3  502    0 -0.10579066221E+04  0.23715783173E+03 -0.58713792138E+02  0.10857528174E+04  0.12699999809E+01 0. -1.
       -4    1    3    3    0  502  0.10579066221E+04 -0.23715783173E+03  0.19097257815E+04  0.21960110272E+04  0.12699999809E+01 0.  1.
</event>
<event>
 5   0  0.4439357E-06  0.2548219E+04  0.7818609E-02  0.8386006E-01
        2   -1    0    0  501    0  0.00000000000E+00  0.00000000000E+00  0.10855966627E+04  0.10855966627E+04  0.25500000920E-02 0.  1.
       -2   -1    0    0    0  501  0.00000000000E+00  0.00000000000E+00 -0.14953573780E+04  0.14953573780E+04  0.25500000920E-02 0. -1.
    10030    2    1    2    0    0  0.00000000000E+00  0.00000000000E+00 -0.40976071529E+03  0.25809540407E+04  0.25482189695E+04 0.  0.
        4    1    3    3  502    0 -0.11280287631E+04  0.13425276426E+03  0.37948951253E+03  0.11977005461E+04  0.12699999809E+01 0. -1.
       -4    1    3    3    0  502  0.11280287631E+04 -0.13425276426E+03 -0.78925022782E+03  0.13832534946E+04  0.12699999809E+01 0.  1.
</event>
<event>
 5   0  0.1753474E-06  0.2684680E+04  0.7818609E-02  0.8339993E-01
       -1   -1    0    0    0  501  0.00000000000E+00  0.00000000000E+00  0.63577189442E+03  0.63577189444E+03  0.50400001928E-02 0. -1.
        1   -1    0    0  501    0  0.00000000000E+00  0.00000000000E+00 -0.28341552069E+04  0.28341552069E+04  0.50400001928E-02 0.  1.
    10030    2    1    2    0    0  0.00000000000E+00  0.00000000000E+00 -0.21983833125E+04  0.34699271014E+04  0.26846796643E+04 0.  0.
        3    1    3    3  502    0 -0.60241786993E+03 -0.51356054663E+03 -0.25003534743E+04  0.26226740613E+04  0.10100000352E+00 0.  1.
       -3    1    3    3    0  502  0.60241786993E+03  0.51356054663E+03  0.30197016182E+03  0.84725304006E+03  0.10100000352E+00 0. -1.
</event>
<event>
 5   0  0.4401659E-06  0.2690664E+04  0.7818609E-02  0.8338040E-01
        2   -1    0    0  501    0  0.00000000000E+00  0.00000000000E+00  0.84322633988E+03  0.84322633988E+03  0.25500000920E-02 0. -1.
       -2   -1    0    0    0  501  0.00000000000E+00  0.00000000000E+00 -0.21464205394E+04  0.21464205394E+04  0.25500000920E-02 0.  1.
    10030    2    1    2    0    0  0.00000000000E+00  0.00000000000E+00 -0.13031941996E+04  0.29896468793E+04  0.26906641078E+04 0.  0.
        5    1    3    3  502    0 -0.36495022541E+03  0.95194808549E+03 -0.16269177357E+04  0.19199680292E+04  0.46999998093E+01 0.  1.
       -5    1    3    3    0  502  0.36495022541E+03 -0.95194808549E+03  0.32372353614E+03  0.10696788501E+04  0.46999998093E+01 0. -1.
</event>
<event>
 5   0  0.4487186E-06  0.2699502E+04  0.7818609E-02  0.8335167E-01
       -2   -1    0    0    0  501  0.00000000000E+00  0.00000000000E+00  0.12492033065E+04  0.12492033065E+04  0.25500000920E-02 0.  1.
        2   -1    0    0  501    0  0.00000000000E+00  0.00000000000E+00 -0.14583913728E+04  0.14583913728E+04  0.25500000920E-02 0. -1.
    10030    2    1    2    0    0  0.00000000000E+00  0.00000000000E+00 -0.20918806633E+03  0.27075946793E+04  0.26995016763E+04 0.  0.
        3    1    3    3  502    0 -0.75832304382E+03  0.89951938791E+02  0.10117035532E+04  0.12675524762E+04  0.10100000352E+00 0.  1.
       -3    1    3    3    0  502  0.75832304382E+03 -0.89951938791E+02 -0.12208916195E+04  0.14400422032E+04  0.10100000352E+00 0. -1.
</event>
<event>
 5   0  0.1771016E-06  0.2694383E+04  0.7818609E-02  0.8336830E-01
       -1   -1    0    0    0  501  0.00000000000E+00  0.00000000000E+00  0.61808752825E+03  0.61808752827E+03  0.50400001928E-02 0.  1.
        1   -1    0    0  501    0  0.00000000000E+00  0.00000000000E+00 -0.29363554699E+04  0.29363554699E+04  0.50400001928E-02 0. -1.
    10030    2    1    2    0    0  0.00000000000E+00  0.00000000000E+00 -0.23182679417E+04  0.35544429982E+04  0.26943828195E+04 0.  0.
        2    1    3    3  502    0  0.19572147771E+03  0.13163611108E+04 -0.88300946921E+03  0.15971284211E+04  0.25500000920E-02 0. -1.
       -2    1    3    3    0  502 -0.19572147771E+03 -0.13163611108E+04 -0.14352584724E+04  0.19573145771E+04  0.25500000920E-02 0.  1.
</event>
<event>
 5   0  0.1723605E-06  0.2694898E+04  0.7818609E-02  0.8336662E-01
        1   -1    0    0  501    0  0.00000000000E+00  0.00000000000E+00  0.16628773431E+04  0.16628773431E+04  0.50400001928E-02 0.  1.
       -1   -1    0    0    0  501  0.00000000000E+00  0.00000000000E+00 -0.10918540520E+04  0.10918540520E+04  0.50400001928E-02 0. -1.
    10030    2    1    2    0    0  0.00000000000E+00  0.00000000000E+00  0.57102329114E+03  0.27547313951E+04  0.26948984137E+04 0.  0.
        1    1    3    3  502    0  0.22608501661E+03  0.12206569451E+04 -0.25004974733E+03  0.12663501445E+04  0.50400001928E-02 0. -1.
       -1    1    3    3    0  502 -0.22608501661E+03 -0.12206569451E+04  0.82107303846E+03  0.14883812505E+04  0.50400001928E-02 0.  1.
</event>
<event>
 5   0  0.1771016E-06  0.2718750E+04  0.7818609E-02  0.8328947E-01
       -1   -1    0    0    0  501  0.00000000000E+00  0.00000000000E+00  0.15720964741E+04  0.15720964741E+04  0.50400001928E-02 0.  1.
        1   -1    0    0  501    0  0.00000000000E+00  0.00000000000E+00 -0.11754369499E+04  0.11754369500E+04  0.50400001928E-02 0. -1.
    10030    2    1    2    0    0  0.00000000000E+00  0.00000000000E+00  0.39665952418E+03  0.27475334241E+04  0.27187499220E+04 0.  0.
        2    1    3    3  502    0  0.89205935600E+03  0.60867287518E+03 -0.63603070018E+03  0.12533106619E+04  0.25500000920E-02 0. -1.
       -2    1    3    3    0  502 -0.89205935600E+03 -0.60867287518E+03  0.10326902244E+04  0.14942227622E+04  0.25500000920E-02 0.  1.
</event>
<event>
 5   0  0.4487186E-06  0.2719585E+04  0.7818609E-02  0.8328678E-01
        2   -1    0    0  501    0  0.00000000000E+00  0.00000000000E+00  0.66751287010E+03  0.66751287011E+03  0.25500000920E-02 0. -1.
       -2   -1    0    0    0  501  0.00000000000E+00  0.00000000000E+00 -0.27700379602E+04  0.27700379602E+04  0.25500000920E-02 0.  1.
    10030    2    1    2    0    0  0.00000000000E+00  0.00000000000E+00 -0.21025250901E+04  0.34375508303E+04  0.27195852545E+04 0.  0.
        3    1    3    3  502    0 -0.97889851325E+03 -0.23879752594E+03  0.10290652721E+03  0.10128456552E+04  0.10100000352E+00 0. -1.
       -3    1    3    3    0  502  0.97889851325E+03  0.23879752594E+03 -0.22054316173E+04  0.24247051752E+04  0.10100000352E+00 0.  1.
</event>
<event>
 5   0  0.1771016E-06  0.2701203E+04  0.7818609E-02  0.8334615E-01
        1   -1    0    0  501    0  0.00000000000E+00  0.00000000000E+00  0.20662404087E+04  0.20662404087E+04  0.50400001928E-02 0. -1.
       -1   -1    0    0    0  501  0.00000000000E+00  0.00000000000E+00 -0.88282269117E+03  0.88282269119E+03  0.50400001928E-02 0.  1.
    10030    2    1    2    0    0  0.00000000000E+00  0.00000000000E+00  0.11834177175E+04  0.29490630999E+04  0.27012026346E+04 0.  0.
        2    1    3    3  502    0  0.99340594777E+03  0.90147840496E+03  0.42045491382E+03  0.14058097404E+04  0.25500000920E-02 0.  1.
       -2    1    3    3    0  502 -0.99340594777E+03 -0.90147840496E+03  0.76296280371E+03  0.15432533595E+04  0.25500000920E-02 0. -1.
</event>
<event>
 5   0  0.4439357E-06  0.2709004E+04  0.7818609E-02  0.8332089E-01
        2   -1    0    0  501    0  0.00000000000E+00  0.00000000000E+00  0.22425040191E+04  0.22425040191E+04  0.25500000920E-02 0.  1.
       -2   -1    0    0    0  501  0.00000000000E+00  0.00000000000E+00 -0.81813703679E+03  0.81813703679E+03  0.25500000920E-02 0. -1.
    10030    2    1    2    0    0  0.00000000000E+00  0.00000000000E+00  0.14243669823E+04  0.30606410559E+04  0.27090039448E+04 0.  0.
        4    1    3    3  502    0  0.31281243065E+03 -0.13673119584E+03  0.21930993586E+04  0.22195119838E+04  0.12699999809E+01 0.  1.
       -4    1    3    3    0  502 -0.31281243065E+03  0.13673119584E+03 -0.76873237628E+03  0.84112907210E+03  0.12699999809E+01 0. -1.
</event>
<event>
 5   0  0.1753474E-06  0.2726251E+04  0.7818609E-02  0.8326537E-01
       -1   -1    0    0    0  501  0.00000000000E+00  0.00000000000E+00  0.78034442638E+03  0.78034442639E+03  0.50400001928E-02 0.  1.
        1   -1    0    0  501    0  0.00000000000E+00  0.00000000000E+00 -0.23811430999E+04  0.23811430999E+04  0.50400001928E-02 0. -1.
    10030    2    1    2    0    0  0.00000000000E+00  0.00000000000E+00 -0.16007986736E+04  0.31614875263E+04  0.27262514532E+04 0.  0.
        3    1    3    3  502    0  0.11393008798E+04 -0.58982968059E+03 -0.13346002008E+04  0.18512329008E+04  0.10100000352E+00 0. -1.
       -3    1    3    3    0  502 -0.11393008798E+04  0.58982968059E+03 -0.26619847278E+03  0.13102546256E+04  0.10100000352E+00 0.  1.
</event>
<event>
 5   0  0.1723605E-06  0.2695528E+04  0.7818609E-02  0.8336457E-01
        1   -1    0    0  501    0  0.00000000000E+00  0.00000000000E+00  0.14075071325E+04  0.14075071325E+04  0.50400001928E-02 0. -1.
       -1   -1    0    0    0  501  0.00000000000E+00  0.00000000000E+00 -0.12905569210E+04  0.12905569210E+04  0.50400001928E-02 0.  1.
    10030    2    1    2    0    0  0.00000000000E+00  0.00000000000E+00  0.11695021153E+03  0.26980640535E+04  0.26955282014E+04 0.  0.
        1    1    3    3  502    0 -0.73879554308E+03  0.68105280967E+02 -0.10677549059E+04  0.13002144911E+04  0.50400001928E-02 0.  1.
       -1    1    3    3    0  502  0.73879554308E+03 -0.68105280967E+02  0.11847051174E+04  0.13978495624E+04  0.50400001928E-02 0. -1.
</event>
<event>
 5   0  0.4439357E-06  0.2679743E+04  0.7818609E-02  0.8341608E-01
        2   -1    0    0  501    0  0.00000000000E+00  0.00000000000E+00  0.17460189991E+04  0.17460189991E+04  0.25500000920E-02 0.  1.
       -2   -1    0    0    0  501  0.00000000000E+00  0.00000000000E+00 -0.10281990934E+04  0.10281990934E+04  0.25500000920E-02 0. -1.
    10030    2    1    2    0    0  0.00000000000E+00  0.00000000000E+00  0.71781990565E+03  0.27742180925E+04  0.26797426383E+04 0.  0.
        4    1    3    3  502    0 -0.91610932383E+03  0.29635554856E+03  0.13235161754E+04  0.16366977680E+04  0.12699999809E+01 0.  1.
       -4    1    3    3    0  502  0.91610932383E+03 -0.29635554856E+03 -0.60569626978E+03  0.11375203244E+04  0.12699999809E+01 0. -1.
</event>
<event>
 5   0  0.4401659E-06  0.2670914E+04  0.7818609E-02  0.8344504E-01
       -2   -1    0    0    0  501  0.00000000000E+00  0.00000000000E+00  0.11261213630E+04  0.11261213630E+04  0.25500000920E-02 0.  1.
        2   -1    0    0  501    0  0.00000000000E+00  0.00000000000E+00 -0.15837063828E+04  0.15837063828E+04  0.25500000920E-02 0. -1.
    10030    2    1    2    0    0  0.00000000000E+00  0.00000000000E+00 -0.45758501985E+03  0.27098277458E+04  0.26709141434E+04 0.  0.
        5    1    3    3  502    0  0.10192310396E+04 -0.34232660912E+03  0.57483616911E+03  0.12192120942E+04  0.46999998093E+01 0.  1.
       -5    1    3    3    0  502 -0.10192310396E+04  0.34232660912E+03 -0.10324211890E+04  0.14906156516E+04  0.46999998093E+01 0. -1.
</event>
<event>
 5   0  0.1771016E-06  0.2727804E+04  0.7818609E-02  0.8326040E-01
       -1   -1    0    0    0  501  0.00000000000E+00  0.00000000000E+00  0.13485210262E+04  0.13485210262E+04  0.50400001928E-02 0. -1.
        1   -1    0    0  501    0  0.00000000000E+00  0.00000000000E+00 -0.13794585116E+04  0.13794585117E+04  0.50400001928E-02 0.  1.
    10030    2    1    2    0    0  0.00000000000E+00  0.00000000000E+00 -0.30937485483E+02  0.27279795378E+04  0.27278041042E+04 0.  0.
        2    1    3    3  502    0 -0.94940166726E+03  0.75758273540E+03 -0.63593888311E+03  0.13710264001E+04  0.25500000920E-02 0.  1.
       -2    1    3    3    0  502  0.94940166726E+03 -0.75758273540E+03  0.60500139762E+03  0.13569531377E+04  0.25500000920E-02 0. -1.
</event>
<event>
 5   0  0.1828511E-06  0.2723580E+04  0.7818609E-02  0.8327394E-01
       -1   -1    0    0    0  501  0.00000000000E+00  0.00000000000E+00  0.32021882620E+04  0.32021882620E+04  0.50400001928E-02 0. -1.
        1   -1    0    0  501    0  0.00000000000E+00  0.00000000000E+00 -0.57912644019E+03  0.57912644021E+03  0.50400001928E-02 0.  1.
    10030    2    1    2    0    0  0.00000000000E+00  0.00000000000E+00  0.26230618218E+04  0.37813147023E+04  0.27235799155E+04 0.  0.
        4    1    3    3  502    0 -0.82186167162E+01 -0.12873522566E+04  0.69511243947E+03  0.14630537566E+04  0.12699999809E+01 0.  1.
       -4    1    3    3    0  502  0.82186167162E+01  0.12873522566E+04  0.19279493824E+04  0.23182609457E+04  0.12699999809E+01 0. -1.
</event>
<event>
 5   0  0.1723605E-06  0.2753063E+04  0.7818609E-02  0.8317990E-01
        1   -1    0    0  501    0  0.00000000000E+00  0.00000000000E+00  0.96792062279E+03  0.96792062280E+03  0.50400001928E-02 0.  1.
       -1   -1    0    0    0  501  0.00000000000E+00  0.00000000000E+00 -0.19576391608E+04  0.19576391608E+04  0.50400001928E-02 0. -1.
    10030    2    1    2    0    0  0.00000000000E+00  0.00000000000E+00 -0.98971853803E+03  0.29255597836E+04  0.27530632508E+04 0.  0.
        1    1    3    3  502    0  0.38365545379E+03 -0.12206678051E+04  0.44503321566E+02  0.12803132208E+04  0.50400001928E-02 0.  1.
       -1    1    3    3    0  502 -0.38365545379E+03  0.12206678051E+04 -0.10342218596E+04  0.16452465628E+04  0.50400001928E-02 0. -1.
</event>
<event>
 5   0  0.1732312E-06  0.2697465E+04  0.7818609E-02  0.8335828E-01
        1   -1    0    0  501    0  0.00000000000E+00  0.00000000000E+00  0.19388125887E+04  0.19388125887E+04  0.50400001928E-02 0.  1.
       -1   -1    0    0    0  501  0.00000000000E+00  0.00000000000E+00 -0.93824394663E+03  0.93824394664E+03  0.50400001928E-02 0. -1.
    10030    2    1    2    0    0  0.00000000000E+00  0.00000000000E+00  0.10005686421E+04  0.28770565354E+04  0.26974648654E+04 0.  0.
        5    1    3    3  502    0 -0.21156547850E+03  0.46519886013E+03  0.18315373149E+04  0.19015049190E+04  0.46999998093E+01 0.  1.
       -5    1    3    3    0  502  0.21156547850E+03 -0.46519886013E+03 -0.83096867276E+03  0.97555161640E+03  0.46999998093E+01 0. -1.
</event>
<event>
 5   0  0.1753474E-06  0.2723447E+04  0.7818609E-02  0.8327437E-01
        1   -1    0    0  501    0  0.00000000000E+00  0.00000000000E+00  0.17841555722E+04  0.17841555722E+04  0.50400001928E-02 0.  1.
       -1   -1    0    0    0  501  0.00000000000E+00  0.00000000000E+00 -0.10393102427E+04  0.10393102427E+04  0.50400001928E-02 0. -1.
    10030    2    1    2    0    0  0.00000000000E+00  0.00000000000E+00  0.74484532949E+03  0.28234658149E+04  0.27234471985E+04 0.  0.
        3    1    3    3  502    0  0.92475893165E+02 -0.84044034890E+02 -0.10333534923E+04  0.10408816652E+04  0.10100000352E+00 0. -1.
       -3    1    3    3    0  502 -0.92475893165E+02  0.84044034890E+02  0.17781988218E+04  0.17825841497E+04  0.10100000352E+00 0.  1.
</event>
<event>
 5   0  0.4655882E-06  0.2694497E+04  0.7818609E-02  0.8336793E-01
       -2   -1    0    0    0  501  0.00000000000E+00  0.00000000000E+00  0.11011064009E+04  0.11011064009E+04  0.25500000920E-02 0.  1.
        2   -1    0    0  501    0  0.00000000000E+00  0.00000000000E+00 -0.16484128104E+04  0.16484128104E+04  0.25500000920E-02 0. -1.
    10030    2    1    2    0    0  0.00000000000E+00  0.00000000000E+00 -0.54730640955E+03  0.27495192113E+04  0.26944965369E+04 0.  0.
        1    1    3    3  502    0 -0.42905632711E+03 -0.12739743302E+04 -0.36479663176E+03  0.13929021891E+04  0.50400001928E-02 0.  1.
       -1    1    3    3    0  502  0.42905632711E+03  0.12739743302E+04 -0.18250977779E+03  0.13566170222E+04  0.50400001928E-02 0. -1.
</event>
<event>
 5   0  0.1732312E-06  0.2700347E+04  0.7818609E-02  0.8334892E-01
        1   -1    0    0  501    0  0.00000000000E+00  0.00000000000E+00  0.16047166349E+04  0.16047166349E+04  0.50400001928E-02 0.  1.
       -1   -1    0    0    0  501  0.00000000000E+00  0.00000000000E+00 -0.11360065288E+04  0.11360065288E+04  0.50400001928E-02 0. -1.
    10030    2    1    2    0    0  0.00000000000E+00  0.00000000000E+00  0.46871010614E+03  0.27407231637E+04  0.27003470697E+04 0.  0.
        5    1    3    3  502    0  0.71259554623E+03 -0.10703056726E+04  0.65233774764E+03  0.14418437059E+04  0.46999998093E+01 0.  1.
       -5    1    3    3    0  502 -0.71259554623E+03  0.10703056726E+04 -0.18362764150E+03  0.12988794578E+04  0.46999998093E+01 0. -1.
</event>
<event>
 5   0  0.1723605E-06  0.2756684E+04  0.7818609E-02  0.8316844E-01
       -1   -1    0    0    0  501  0.00000000000E+00  0.00000000000E+00  0.23698564498E+04  0.23698564499E+04  0.50400001928E-02 0. -1.
        1   -1    0    0  501    0  0.00000000000E+00  0.00000000000E+00 -0.80166344733E+03  0.80166344735E+03  0.50400001928E-02 0.  1.
    10030    2    1    2    0    0  0.00000000000E+00  0.00000000000E+00  0.15681930025E+04  0.31715198972E+04  0.27566844515E+04 0.  0.
        1    1    3    3  502    0  0.30136461232E+03  0.37251864675E+03  0.22709540815E+04  0.23209530827E+04  0.50400001928E-02 0. -1.
       -1    1    3    3    0  502 -0.30136461232E+03 -0.37251864675E+03 -0.70276107900E+03  0.85056681449E+03  0.50400001928E-02 0.  1.
</event>
<event>
 5   0  0.1753474E-06  0.2702343E+04  0.7818609E-02  0.8334245E-01
       -1   -1    0    0    0  501  0.00000000000E+00  0.00000000000E+00  0.23318875141E+04  0.23318875141E+04  0.50400001928E-02 0.  1.
        1   -1    0    0  501    0  0.00000000000E+00  0.00000000000E+00 -0.78291256194E+03  0.78291256196E+03  0.50400001928E-02 0. -1.
    10030    2    1    2    0    0  0.00000000000E+00  0.00000000000E+00  0.15489749522E+04  0.31148000761E+04  0.27023427080E+04 0.  0.
        3    1    3    3  502    0 -0.64294945165E+03  0.49901111479E+03  0.20176549217E+04  0.21756211719E+04  0.10100000352E+00 0.  1.
       -3    1    3    3    0  502  0.64294945165E+03 -0.49901111479E+03 -0.46867996955E+03  0.93917890422E+03  0.10100000352E+00 0. -1.
</event>
<event>
 5   0  0.1828511E-06  0.2701700E+04  0.7818609E-02  0.8334454E-01
       -1   -1    0    0    0  501  0.00000000000E+00  0.00000000000E+00  0.74116313878E+03  0.74116313880E+03  0.50400001928E-02 0.  1.
        1   -1    0    0  501    0  0.00000000000E+00  0.00000000000E+00 -0.24620696634E+04  0.24620696634E+04  0.50400001928E-02 0. -1.
    10030    2    1    2    0    0  0.00000000000E+00  0.00000000000E+00 -0.17209065246E+04  0.32032328022E+04  0.27016996722E+04 0.  0.
        4    1    3    3  502    0 -0.82162285333E+03  0.10574358197E+04 -0.64982660738E+03  0.14884592230E+04  0.12699999809E+01 0. -1.
       -4    1    3    3    0  502  0.82162285333E+03 -0.10574358197E+04 -0.10710799172E+04  0.17147735792E+04  0.12699999809E+01 0.  1.
</event>
<event>
 5   0  0.1753474E-06  0.2703999E+04  0.7818609E-02  0.8333709E-01
        1   -1    0    0  501    0  0.00000000000E+00  0.00000000000E+00  0.19477617038E+04  0.19477617038E+04  0.50400001928E-02 0. -1.
       -1   -1    0    0    0  501  0.00000000000E+00  0.00000000000E+00 -0.93846335046E+03  0.93846335048E+03  0.50400001928E-02 0.  1.
    10030    2    1    2    0    0  0.00000000000E+00  0.00000000000E+00  0.10092983534E+04  0.28862250543E+04  0.27039992415E+04 0.  0.
        3    1    3    3  502    0  0.12356880732E+04  0.52507401001E+03  0.33495332705E+03  0.13837707439E+04  0.10100000352E+00 0. -1.
       -3    1    3    3    0  502 -0.12356880732E+04 -0.52507401001E+03  0.67434502631E+03  0.15024543104E+04  0.10100000352E+00 0.  1.
</event>
<event>
 5   0  0.4655882E-06  0.2693379E+04  0.7818609E-02  0.8337157E-01
       -2   -1    0    0    0  501  0.00000000000E+00  0.00000000000E+00  0.14719723254E+04  0.14719723254E+04  0.25500000920E-02 0. -1.
        2   -1    0    0  501    0  0.00000000000E+00  0.00000000000E+00 -0.12320693778E+04  0.12320693778E+04  0.25500000920E-02 0.  1.
    10030    2    1    2    0    0  0.00000000000E+00  0.00000000000E+00  0.23990294756E+03  0.27040417032E+04  0.26933785676E+04 0.  0.
        1    1    3    3  502    0 -0.11747614717E+04  0.65446702138E+03  0.47691321424E+02  0.13456099211E+04  0.50400001928E-02 0. -1.
       -1    1    3    3    0  502  0.11747614717E+04 -0.65446702138E+03  0.19221162614E+03  0.13584317821E+04  0.50400001928E-02 0.  1.
</event>
<event>
 5   0  0.4401659E-06  0.2692930E+04  0.7818609E-02  0.8337303E-01
       -2   -1    0    0    0  501  0.00000000000E+00  0.00000000000E+00  0.17077259485E+04  0.17077259485E+04  0.25500000920E-02 0.  1.
        2   -1    0    0  501    0  0.00000000000E+00  0.00000000000E+00 -0.10616267430E+04  0.10616267430E+04  0.25500000920E-02 0. -1.
    10030    2    1    2    0    0  0.00000000000E+00  0.00000000000E+00  0.64609920547E+03  0.27693526915E+04  0.26929296587E+04 0.  0.
        5    1    3    3  502    0 -0.96997114876E+03 -0.44060191352E+03 -0.52370767309E+03  0.11871250534E+04  0.46999998093E+01 0. -1.
       -5    1    3    3    0  502  0.96997114876E+03  0.44060191352E+03  0.11698068786E+04  0.15822276381E+04  0.46999998093E+01 0.  1.
</event>
<event>
 5   0  0.1753474E-06  0.2690543E+04  0.7818609E-02  0.8338080E-01
       -1   -1    0    0    0  501  0.00000000000E+00  0.00000000000E+00  0.14107673374E+04  0.14107673374E+04  0.50400001928E-02 0.  1.
        1   -1    0    0  501    0  0.00000000000E+00  0.00000000000E+00 -0.12828160563E+04  0.12828160564E+04  0.50400001928E-02 0. -1.
    10030    2    1    2    0    0  0.00000000000E+00  0.00000000000E+00  0.12795128102E+03  0.26935833937E+04  0.26905426904E+04 0.  0.
        3    1    3    3  502    0 -0.10924131367E+04  0.58659483485E+03 -0.45843304431E+03  0.13219761071E+04  0.10100000352E+00 0. -1.
       -3    1    3    3    0  502  0.10924131367E+04 -0.58659483485E+03  0.58638432534E+03  0.13716072866E+04  0.10100000352E+00 0.  1.
</event>
<event>
 5   0  0.1771016E-06  0.2697436E+04  0.7818609E-02  0.8335837E-01
        1   -1    0    0  501    0  0.00000000000E+00  0.00000000000E+00  0.21571808409E+04  0.21571808409E+04  0.50400001928E-02 0.  1.
       -1   -1    0    0    0  501  0.00000000000E+00  0.00000000000E+00 -0.84324881975E+03  0.84324881976E+03  0.50400001928E-02 0. -1.
    10030    2    1    2    0    0  0.00000000000E+00  0.00000000000E+00  0.13139320211E+04  0.30004296606E+04  0.26974359663E+04 0.  0.
        2    1    3    3  502    0 -0.99034052503E+02  0.11385069751E+04  0.14536856382E+04  0.18491100050E+04  0.25500000920E-02 0.  1.
       -2    1    3    3    0  502  0.99034052503E+02 -0.11385069751E+04 -0.13975361704E+03  0.11513196556E+04  0.25500000920E-02 0. -1.
</event>
<event>
 5   0  0.1828511E-06  0.2702090E+04  0.7818609E-02  0.8334327E-01
       -1   -1    0    0    0  501  0.00000000000E+00  0.00000000000E+00  0.25719338521E+04  0.25719338521E+04  0.50400001928E-02 0. -1.
        1   -1    0    0  501    0  0.00000000000E+00  0.00000000000E+00 -0.70970843146E+03  0.70970843148E+03  0.50400001928E-02 0.  1.
    10030    2    1    2    0    0  0.00000000000E+00  0.00000000000E+00  0.18622254206E+04  0.32816422835E+04  0.27020904056E+04 0.  0.
        4    1    3    3  502    0  0.72613634421E+03  0.10448413666E+04  0.37941920979E+03  0.13277529971E+04  0.12699999809E+01 0.  1.
       -4    1    3    3    0  502 -0.72613634421E+03 -0.10448413666E+04  0.14828062108E+04  0.19538892864E+04  0.12699999809E+01 0. -1.
</event>
<event>
 5   0  0.1771016E-06  0.2715943E+04  0.7818609E-02  0.8329850E-01
        1   -1    0    0  501    0  0.00000000000E+00  0.00000000000E+00  0.28465671918E+04  0.28465671918E+04  0.50400001928E-02 0.  1.
       -1   -1    0    0    0  501  0.00000000000E+00  0.00000000000E+00 -0.64782836941E+03  0.64782836943E+03  0.50400001928E-02 0. -1.
    10030    2    1    2    0    0  0.00000000000E+00  0.00000000000E+00  0.21987388224E+04  0.34943955612E+04  0.27159432853E+04 0.  0.
        2    1    3    3  502    0 -0.13222944555E+04 -0.69271071850E+02  0.71161552336E+03  0.15032158067E+04  0.25500000920E-02 0. -1.
       -2    1    3    3    0  502  0.13222944555E+04  0.69271071850E+02  0.14871232990E+04  0.19911797545E+04  0.25500000920E-02 0.  1.
</event>
<event>
 5   0  0.1723605E-06  0.2700788E+04  0.7818609E-02  0.8334749E-01
        1   -1    0    0  501    0  0.00000000000E+00  0.00000000000E+00  0.16180054827E+04  0.16180054827E+04  0.50400001928E-02 0. -1.
       -1   -1    0    0    0  501  0.00000000000E+00  0.00000000000E+00 -0.11270441620E+04  0.11270441620E+04  0.50400001928E-02 0.  1.
    10030    2    1    2    0    0  0.00000000000E+00  0.00000000000E+00  0.49096132072E+03  0.27450496447E+04  0.27007877617E+04 0.  0.
        1    1    3    3  502    0  0.12701343618E+03  0.40421905785E+03 -0.10577332138E+04  0.11394406572E+04  0.50400001928E-02 0.  1.
       -1    1    3    3    0  502 -0.12701343618E+03 -0.40421905785E+03  0.15486945345E+04  0.16056089875E+04  0.50400001928E-02 0. -1.
</event>
<event>
 5   0  0.1732312E-06  0.2716707E+04  0.7818609E-02  0.8329605E-01
       -1   -1    0    0    0  501  0.00000000000E+00  0.00000000000E+00  0.12515560001E+04  0.12515560001E+04  0.50400001928E-02 0. -1.
        1   -1    0    0  501    0  0.00000000000E+00  0.00000000000E+00 -0.14742638429E+04  0.14742638429E+04  0.50400001928E-02 0.  1.
    10030    2    1    2    0    0  0.00000000000E+00  0.00000000000E+00 -0.22270784282E+03  0.27258198431E+04  0.27167066521E+04 0.  0.
        5    1    3    3  502    0 -0.24688069508E+03 -0.24512397942E+03  0.12060875314E+04  0.12552709135E+04  0.46999998093E+01 0. -1.
       -5    1    3    3    0  502  0.24688069508E+03  0.24512397942E+03 -0.14287953742E+04  0.14705489296E+04  0.46999998093E+01 0.  1.
</event>
<event>
 5   0  0.4401659E-06  0.2733701E+04  0.7818609E-02  0.8324152E-01
       -2   -1    0    0    0  501  0.00000000000E+00  0.00000000000E+00  0.12146393678E+04  0.12146393678E+04  0.25500000920E-02 0. -1.
        2   -1    0    0  501    0  0.00000000000E+00  0.00000000000E+00 -0.15381358329E+04  0.15381358329E+04  0.25500000920E-02 0.  1.
    10030    2    1    2    0    0  0.00000000000E+00  0.00000000000E+00 -0.32349646518E+03  0.27527752007E+04  0.27337010339E+04 0.  0.
        5    1    3    3  502    0  0.10710117653E+04 -0.12452232631E+03 -0.10076609479E+04  0.14757962892E+04  0.46999998093E+01 0.  1.
       -5    1    3    3    0  502 -0.10710117653E+04  0.12452232631E+03  0.68416448275E+03  0.12769789116E+04  0.46999998093E+01 0. -1.
</event>
<event>
 5   0  0.4439357E-06  0.2706728E+04  0.7818609E-02  0.8332825E-01
       -2   -1    0    0    0  501  0.00000000000E+00  0.00000000000E+00  0.84857674214E+03  0.84857674214E+03  0.25500000920E-02 0. -1.
        2   -1    0    0  501    0  0.00000000000E+00  0.00000000000E+00 -0.21584305169E+04  0.21584305169E+04  0.25500000920E-02 0.  1.
    10030    2    1    2    0    0  0.00000000000E+00  0.00000000000E+00 -0.13098537748E+04  0.30070072590E+04  0.27067278668E+04 0.  0.
        4    1    3    3  502    0 -0.77635498050E+03  0.86113606173E+03 -0.14304460298E+04  0.18413201323E+04  0.12699999809E+01 0.  1.
       -4    1    3    3    0  502  0.77635498050E+03 -0.86113606173E+03  0.12059225504E+03  0.11656871267E+04  0.12699999809E+01 0. -1.
</event>
<event>
 5   0  0.1732312E-06  0.2697166E+04  0.7818609E-02  0.8335925E-01
       -1   -1    0    0    0  501  0.00000000000E+00  0.00000000000E+00  0.11901137509E+04  0.11901137509E+04  0.50400001928E-02 0.  1.
        1   -1    0    0  501    0  0.00000000000E+00  0.00000000000E+00 -0.15281535398E+04  0.15281535398E+04  0.50400001928E-02 0. -1.
    10030    2    1    2    0    0  0.00000000000E+00  0.00000000000E+00 -0.33803978887E+03  0.27182672907E+04  0.26971663213E+04 0.  0.
        5    1    3    3  502    0 -0.93875607458E+02  0.86792372535E+03  0.86690794694E+03  0.12303071572E+04  0.46999998093E+01 0.  1.
       -5    1    3    3    0  502  0.93875607458E+02 -0.86792372535E+03 -0.12049477358E+04  0.14879601334E+04  0.46999998093E+01 0. -1.
</event>
<event>
 5   0  0.4487186E-06  0.2664392E+04  0.7818609E-02  0.8346652E-01
       -2   -1    0    0    0  501  0.00000000000E+00  0.00000000000E+00  0.14364738866E+04  0.14364738866E+04  0.25500000920E-02 0. -1.
        2   -1    0    0  501    0  0.00000000000E+00  0.00000000000E+00 -0.12354877331E+04  0.12354877331E+04  0.25500000920E-02 0.  1.
    10030    2    1    2    0    0  0.00000000000E+00  0.00000000000E+00  0.20098615351E+03  0.26719616197E+04  0.26643917623E+04 0.  0.
        3    1    3    3  502    0  0.88990804591E+03  0.98623450563E+03 -0.54546953469E+00  0.13283806450E+04  0.10100000352E+00 0. -1.
       -3    1    3    3    0  502 -0.88990804591E+03 -0.98623450563E+03  0.20153162304E+03  0.13435809747E+04  0.10100000352E+00 0.  1.
</event>
<event>
 5   0  0.4439357E-06  0.2693049E+04  0.7818609E-02  0.8337264E-01
        2   -1    0    0  501    0  0.00000000000E+00  0.00000000000E+00  0.10578781752E+04  0.10578781752E+04  0.25500000920E-02 0.  1.
       -2   -1    0    0    0  501  0.00000000000E+00  0.00000000000E+00 -0.17139292106E+04  0.17139292106E+04  0.25500000920E-02 0. -1.
    10030    2    1    2    0    0  0.00000000000E+00  0.00000000000E+00 -0.65605103545E+03  0.27718073858E+04  0.26930490569E+04 0.  0.
        4    1    3    3  502    0  0.28949890835E+03  0.48093668090E+02 -0.16806133120E+04  0.17060437674E+04  0.12699999809E+01 0. -1.
       -4    1    3    3    0  502 -0.28949890835E+03 -0.48093668090E+02  0.10245622766E+04  0.10657636184E+04  0.12699999809E+01 0.  1.
</event>
<event>
 5   0  0.4439357E-06  0.2679228E+04  0.7818609E-02  0.8341776E-01
       -2   -1    0    0    0  501  0.00000000000E+00  0.00000000000E+00  0.14039483310E+04  0.14039483310E+04  0.25500000920E-02 0.  1.
        2   -1    0    0  501    0  0.00000000000E+00  0.00000000000E+00 -0.12782275606E+04  0.12782275606E+04  0.25500000920E-02 0. -1.
    10030    2    1    2    0    0  0.00000000000E+00  0.00000000000E+00  0.12572077045E+03  0.26821758916E+04  0.26792278368E+04 0.  0.
        4    1    3    3  502    0  0.13184984484E+04 -0.22134916804E+03 -0.21673186672E+02  0.13371256308E+04  0.12699999809E+01 0.  1.
       -4    1    3    3    0  502 -0.13184984484E+04  0.22134916804E+03  0.14739395713E+03  0.13450502608E+04  0.12699999809E+01 0. -1.
</event>
<event>
 5   0  0.1723605E-06  0.2647828E+04  0.7818609E-02  0.8352134E-01
        1   -1    0    0  501    0  0.00000000000E+00  0.00000000000E+00  0.21736170771E+04  0.21736170771E+04  0.50400001928E-02 0. -1.
       -1   -1    0    0    0  501  0.00000000000E+00  0.00000000000E+00 -0.80637402939E+03  0.80637402941E+03  0.50400001928E-02 0.  1.
    10030    2    1    2    0    0  0.00000000000E+00  0.00000000000E+00  0.13672430477E+04  0.29799911065E+04  0.26478280615E+04 0.  0.
        1    1    3    3  502    0 -0.24243354338E+03 -0.97053327305E+03 -0.29236880576E+03  0.10422036153E+04  0.50400001928E-02 0.  1.
       -1    1    3    3    0  502  0.24243354338E+03  0.97053327305E+03  0.16596118535E+04  0.19377874912E+04  0.50400001928E-02 0. -1.
</event>
<event>
 5   0  0.1732312E-06  0.2698511E+04  0.7818609E-02  0.8335488E-01
       -1   -1    0    0    0  501  0.00000000000E+00  0.00000000000E+00  0.17642566156E+04  0.17642566156E+04  0.50400001928E-02 0.  1.
        1   -1    0    0  501    0  0.00000000000E+00  0.00000000000E+00 -0.10318736866E+04  0.10318736866E+04  0.50400001928E-02 0. -1.
    10030    2    1    2    0    0  0.00000000000E+00  0.00000000000E+00  0.73238292898E+03  0.27961303022E+04  0.26985106841E+04 0.  0.
        5    1    3    3  502    0  0.31748306848E+03 -0.10889592102E+04  0.11232664777E+04  0.15963637838E+04  0.46999998093E+01 0.  1.
       -5    1    3    3    0  502 -0.31748306848E+03  0.10889592102E+04 -0.39088354869E+03  0.11997665185E+04  0.46999998093E+01 0. -1.
</event>
<event>
 5   0  0.1753474E-06  0.2694548E+04  0.7818609E-02  0.8336776E-01
        1   -1    0    0  501    0  0.00000000000E+00  0.00000000000E+00  0.16448486772E+04  0.16448486772E+04  0.50400001928E-02 0.  1.
       -1   -1    0    0    0  501  0.00000000000E+00  0.00000000000E+00 -0.11035345561E+04  0.11035345561E+04  0.50400001928E-02 0. -1.
    10030    2    1    2    0    0  0.00000000000E+00  0.00000000000E+00  0.54131412109E+03  0.27483832333E+04  0.26945480919E+04 0.  0.
        3    1    3    3  502    0  0.12620783377E+04  0.40880945647E+03  0.51025547573E+03  0.14213822719E+04  0.10100000352E+00 0.  1.
       -3    1    3    3    0  502 -0.12620783377E+04 -0.40880945647E+03  0.31058645359E+02  0.13270009615E+04  0.10100000352E+00 0. -1.
</event>
<event>
 5   0  0.4439357E-06  0.2643138E+04  0.7818609E-02  0.8353694E-01
        2   -1    0    0  501    0  0.00000000000E+00  0.00000000000E+00  0.15497957494E+04  0.15497957494E+04  0.25500000920E-02 0.  1.
       -2   -1    0    0    0  501  0.00000000000E+00  0.00000000000E+00 -0.11269516630E+04  0.11269516630E+04  0.25500000920E-02 0. -1.
    10030    2    1    2    0    0  0.00000000000E+00  0.00000000000E+00  0.42284408640E+03  0.26767474123E+04  0.26431382083E+04 0.  0.
        4    1    3    3  502    0 -0.23807452497E+03  0.48151642057E+03 -0.10114109161E+04  0.11452035613E+04  0.12699999809E+01 0. -1.
       -4    1    3    3    0  502  0.23807452497E+03 -0.48151642057E+03  0.14342550025E+04  0.15315438511E+04  0.12699999809E+01 0.  1.
</event>
<event>
 5   0  0.1828511E-06  0.2703223E+04  0.7818609E-02  0.8333960E-01
       -1   -1    0    0    0  501  0.00000000000E+00  0.00000000000E+00  0.11053070991E+04  0.11053070991E+04  0.50400001928E-02 0.  1.
        1   -1    0    0  501    0  0.00000000000E+00  0.00000000000E+00 -0.16528013448E+04  0.16528013448E+04  0.50400001928E-02 0. -1.
    10030    2    1    2    0    0  0.00000000000E+00  0.00000000000E+00 -0.54749424575E+03  0.27581084439E+04  0.27032225656E+04 0.  0.
        4    1    3    3  502    0  0.31073162556E+03 -0.28527391774E+03  0.10364263813E+04  0.11189801643E+04  0.12699999809E+01 0.  1.
       -4    1    3    3    0  502 -0.31073162556E+03  0.28527391774E+03 -0.15839206271E+04  0.16391282796E+04  0.12699999809E+01 0. -1.
</event>
<event>
 5   0  0.4487186E-06  0.2685537E+04  0.7818609E-02  0.8339713E-01
        2   -1    0    0  501    0  0.00000000000E+00  0.00000000000E+00  0.16302634486E+04  0.16302634486E+04  0.25500000920E-02 0. -1.
       -2   -1    0    0    0  501  0.00000000000E+00  0.00000000000E+00 -0.11059726364E+04  0.11059726364E+04  0.25500000920E-02 0.  1.
    10030    2    1    2    0    0  0.00000000000E+00  0.00000000000E+00  0.52429081217E+03  0.27362360851E+04  0.26855366424E+04 0.  0.
        3    1    3    3  502    0 -0.55133415516E+03 -0.12031226035E+04  0.49348563369E+03  0.14124451956E+04  0.10100000352E+00 0.  1.
       -3    1    3    3    0  502  0.55133415516E+03  0.12031226035E+04  0.30805178485E+02  0.13237908894E+04  0.10100000352E+00 0. -1.
</event>
<event>
 5   0  0.1732312E-06  0.2702286E+04  0.7818609E-02  0.8334264E-01
        1   -1    0    0  501    0  0.00000000000E+00  0.00000000000E+00  0.11673901778E+04  0.11673901778E+04  0.50400001928E-02 0. -1.
       -1   -1    0    0    0  501  0.00000000000E+00  0.00000000000E+00 -0.15638194288E+04  0.15638194288E+04  0.50400001928E-02 0.  1.
    10030    2    1    2    0    0  0.00000000000E+00  0.00000000000E+00 -0.39642925102E+03  0.27312096067E+04  0.27022860257E+04 0.  0.
        5    1    3    3  502    0  0.58463949363E+03  0.58069460821E+03  0.88401971645E+03  0.12085207961E+04  0.46999998093E+01 0. -1.
       -5    1    3    3    0  502 -0.58463949363E+03 -0.58069460821E+03 -0.12804489675E+04  0.15226888106E+04  0.46999998093E+01 0.  1.
</event>
<event>
 5   0  0.4487186E-06  0.2670418E+04  0.7818609E-02  0.8344668E-01
       -2   -1    0    0    0  501  0.00000000000E+00  0.00000000000E+00  0.12790853121E+04  0.12790853121E+04  0.25500000920E-02 0. -1.
        2   -1    0    0  501    0  0.00000000000E+00  0.00000000000E+00 -0.13937952805E+04  0.13937952805E+04  0.25500000920E-02 0.  1.
    10030    2    1    2    0    0  0.00000000000E+00  0.00000000000E+00 -0.11470996843E+03  0.26728805926E+04  0.26704179982E+04 0.  0.
        3    1    3    3  502    0 -0.61554180146E+02 -0.12740992518E+04  0.33755320037E+03  0.13194923243E+04  0.10100000352E+00 0. -1.
       -3    1    3    3    0  502  0.61554180146E+02  0.12740992518E+04 -0.45226316880E+03  0.13533882683E+04  0.10100000352E+00 0.  1.
</event>
<event>
 5   0  0.4655882E-06  0.2684576E+04  0.7818609E-02  0.8340027E-01
        2   -1    0    0  501    0  0.00000000000E+00  0.00000000000E+00  0.25664704772E+04  0.25664704772E+04  0.25500000920E-02 0.  1.
       -2   -1    0    0    0  501  0.00000000000E+00  0.00000000000E+00 -0.70202910085E+03  0.70202910086E+03  0.25500000920E-02 0. -1.
    10030    2    1    2    0    0  0.00000000000E+00  0.00000000000E+00  0.18644413763E+04  0.32684995781E+04  0.26845759155E+04 0.  0.
        1    1    3    3  502    0  0.32776395654E+03 -0.60029931226E+03  0.23384050791E+04  0.24363757489E+04  0.50400001928E-02 0.  1.
       -1    1    3    3    0  502 -0.32776395654E+03  0.60029931226E+03 -0.47396370280E+03  0.83212382919E+03  0.50400001928E-02 0. -1.
</event>
<event>
 5   0  0.1732312E-06  0.2705931E+04  0.7818609E-02  0.8333083E-01
       -1   -1    0    0    0  501  0.00000000000E+00  0.00000000000E+00  0.10416586947E+04  0.10416586947E+04  0.50400001928E-02 0. -1.
        1   -1    0    0  501    0  0.00000000000E+00  0.00000000000E+00 -0.17573079290E+04  0.17573079290E+04  0.50400001928E-02 0.  1.
    10030    2    1    2    0    0  0.00000000000E+00  0.00000000000E+00 -0.71564923428E+03  0.27989666238E+04  0.27059305857E+04 0.  0.
        5    1    3    3  502    0  0.12708474029E+04 -0.45370429255E+03 -0.45913224622E+03  0.14253859884E+04  0.46999998093E+01 0.  1.
       -5    1    3    3    0  502 -0.12708474029E+04  0.45370429255E+03 -0.25651698806E+03  0.13735806353E+04  0.46999998093E+01 0. -1.
</event>
<event>
 5   0  0.1771016E-06  0.2697593E+04  0.7818609E-02  0.8335786E-01
       -1   -1    0    0    0  501  0.00000000000E+00  0.00000000000E+00  0.10015766511E+04  0.10015766512E+04  0.50400001928E-02 0.  1.
        1   -1    0    0  501    0  0.00000000000E+00  0.00000000000E+00 -0.18163885200E+04  0.18163885200E+04  0.50400001928E-02 0. -1.
    10030    2    1    2    0    0  0.00000000000E+00  0.00000000000E+00 -0.81481186888E+03  0.28179651712E+04  0.26975932466E+04 0.  0.
        2    1    3    3  502    0 -0.15316641621E+03 -0.46736742595E+03  0.90456609636E+03  0.10296271580E+04  0.25500000920E-02 0.  1.
       -2    1    3    3    0  502  0.15316641621E+03  0.46736742595E+03 -0.17193779652E+04  0.17883380131E+04  0.25500000920E-02 0. -1.
</event>
<event>
 5   0  0.4448804E-06  0.2701598E+04  0.7818609E-02  0.8334487E-01
       -2   -1    0    0    0  501  0.00000000000E+00  0.00000000000E+00  0.93442083069E+03  0.93442083069E+03  0.25500000920E-02 0.  1.
        2   -1    0    0  501    0  0.00000000000E+00  0.00000000000E+00 -0.19527152514E+04  0.19527152514E+04  0.25500000920E-02 0. -1.
    10030    2    1    2    0    0  0.00000000000E+00  0.00000000000E+00 -0.10182944208E+04  0.28871360821E+04  0.27015979030E+04 0.  0.
        2    1    3    3  502    0  0.95347598319E+03 -0.69580668270E+03 -0.12110610477E+04  0.16911334221E+04  0.25500000920E-02 0. -1.
       -2    1    3    3    0  502 -0.95347598319E+03  0.69580668270E+03  0.19276662696E+03  0.11960026600E+04  0.25500000920E-02 0.  1.
</event>
<event>
 5   0  0.4448804E-06  0.2708339E+04  0.7818609E-02  0.8332304E-01
       -2   -1    0    0    0  501  0.00000000000E+00  0.00000000000E+00  0.11033845796E+04  0.11033845796E+04  0.25500000920E-02 0.  1.
        2   -1    0    0  501    0  0.00000000000E+00  0.00000000000E+00 -0.16619544218E+04  0.16619544218E+04  0.25500000920E-02 0. -1.
    10030    2    1    2    0    0  0.00000000000E+00  0.00000000000E+00 -0.55856984222E+03  0.27653390014E+04  0.27083388865E+04 0.  0.
        2    1    3    3  502    0  0.28757049884E+03 -0.29371755963E+03 -0.15967146563E+04  0.16487766648E+04  0.25500000920E-02 0. -1.
       -2    1    3    3    0  502 -0.28757049884E+03  0.29371755963E+03  0.10381448141E+04  0.11165623367E+04  0.25500000920E-02 0.  1.
</event>
<event>
 5   0  0.1753474E-06  0.2701032E+04  0.7818609E-02  0.8334670E-01
        1   -1    0    0  501    0  0.00000000000E+00  0.00000000000E+00  0.13291420261E+04  0.13291420261E+04  0.50400001928E-02 0.  1.
       -1   -1    0    0    0  501  0.00000000000E+00  0.00000000000E+00 -0.13722335592E+04  0.13722335592E+04  0.50400001928E-02 0. -1.
    10030    2    1    2    0    0  0.00000000000E+00  0.00000000000E+00 -0.43091533107E+02  0.27013755853E+04  0.27010318718E+04 0.  0.
        3    1    3    3  502    0 -0.67732297927E+03  0.10814840393E+04 -0.46377749444E+03  0.13577421405E+04  0.10100000352E+00 0.  1.
       -3    1    3    3    0  502  0.67732297927E+03 -0.10814840393E+04  0.42068596133E+03  0.13436334448E+04  0.10100000352E+00 0. -1.
</event>
<event>
 5   0  0.1771016E-06  0.2694119E+04  0.7818609E-02  0.8336916E-01
       -1   -1    0    0    0  501  0.00000000000E+00  0.00000000000E+00  0.10975266904E+04  0.10975266905E+04  0.50400001928E-02 0. -1.
        1   -1    0    0  501    0  0.00000000000E+00  0.00000000000E+00 -0.16533263214E+04  0.16533263214E+04  0.50400001928E-02 0.  1.
    10030    2    1    2    0    0  0.00000000000E+00  0.00000000000E+00 -0.55579963099E+03  0.27508530119E+04  0.26941193484E+04 0.  0.
        2    1    3    3  502    0 -0.12577198224E+04  0.48210591730E+03 -0.26067753212E+03  0.13719468076E+04  0.25500000920E-02 0. -1.
       -2    1    3    3    0  502  0.12577198224E+04 -0.48210591730E+03 -0.29512209887E+03  0.13789062043E+04  0.25500000920E-02 0.  1.
</event>
<event>
 5   0  0.4655882E-06  0.2697529E+04  0.7818609E-02  0.8335807E-01
       -2   -1    0    0    0  501  0.00000000000E+00  0.00000000000E+00  0.20365571570E+04  0.20365571570E+04  0.25500000920E-02 0. -1.
        2   -1    0    0  501    0  0.00000000000E+00  0.00000000000E+00 -0.89325529251E+03  0.89325529252E+03  0.25500000920E-02 0.  1.
    10030    2    1    2    0    0  0.00000000000E+00  0.00000000000E+00  0.11433018645E+04  0.29298124495E+04  0.26975288388E+04 0.  0.
        1    1    3    3  502    0 -0.34176476540E+03 -0.63543671927E+03 -0.66602941043E+03  0.98192573785E+03  0.50400001928E-02 0.  1.
       -1    1    3    3    0  502  0.34176476540E+03  0.63543671927E+03  0.18093312749E+04  0.19478867116E+04  0.50400001928E-02 0. -1.
</event>
<event>
 5   0  0.1828511E-06  0.2704739E+04  0.7818609E-02  0.8333469E-01
       -1   -1    0    0    0  501  0.00000000000E+00  0.00000000000E+00  0.21750420144E+04  0.21750420144E+04  0.50400001928E-02 0.  1.
        1   -1    0    0  501    0  0.00000000000E+00  0.00000000000E+00 -0.84085908873E+03  0.84085908875E+03  0.50400001928E-02 0. -1.
    10030    2    1    2    0    0  0.00000000000E+00  0.00000000000E+00  0.13341829257E+04  0.30159011032E+04  0.27047394301E+04 0.  0.
        4    1    3    3  502    0  0.61777938200E+03 -0.11359740348E+04  0.11086455281E+04  0.17032864975E+04  0.12699999809E+01 0.  1.
       -4    1    3    3    0  502 -0.61777938200E+03  0.11359740348E+04  0.22553739759E+03  0.13126146057E+04  0.12699999809E+01 0. -1.
</event>
<event>
 5   0  0.4655882E-06  0.2694834E+04  0.7818609E-02  0.8336683E-01
        2   -1    0    0  501    0  0.00000000000E+00  0.00000000000E+00  0.16572142209E+04  0.16572142209E+04  0.25500000920E-02 0. -1.
       -2   -1    0    0    0  501  0.00000000000E+00  0.00000000000E+00 -0.10955326189E+04  0.10955326189E+04  0.25500000920E-02 0.  1.
    10030    2    1    2    0    0  0.00000000000E+00  0.00000000000E+00  0.56168160203E+03  0.27527468398E+04  0.26948337504E+04 0.  0.
        1    1    3    3  502    0  0.90589481481E+03 -0.73043169234E+03 -0.41298836524E+03  0.12348017098E+04  0.50400001928E-02 0.  1.
       -1    1    3    3    0  502 -0.90589481481E+03  0.73043169234E+03  0.97466996727E+03  0.15179451300E+04  0.50400001928E-02 0. -1.
</event>
<event>
 5   0  0.1723605E-06  0.2703393E+04  0.7818609E-02  0.8333905E-01
        1   -1    0    0  501    0  0.00000000000E+00  0.00000000000E+00  0.18915375258E+04  0.18915375258E+04  0.50400001928E-02 0.  1.
       -1   -1    0    0    0  501  0.00000000000E+00  0.00000000000E+00 -0.96592521573E+03  0.96592521574E+03  0.50400001928E-02 0. -1.
    10030    2    1    2    0    0  0.00000000000E+00  0.00000000000E+00  0.92561231010E+03  0.28574627416E+04  0.27033932697E+04 0.  0.
        1    1    3    3  502    0 -0.72752206836E+03 -0.35969094678E+03 -0.67973128554E+03  0.10586314551E+04  0.50400001928E-02 0. -1.
       -1    1    3    3    0  502  0.72752206836E+03  0.35969094678E+03  0.16053435956E+04  0.17988312865E+04  0.50400001928E-02 0.  1.
</event>
<event>
 5   0  0.4439357E-06  0.2702469E+04  0.7818609E-02  0.8334204E-01
       -2   -1    0    0    0  501  0.00000000000E+00  0.00000000000E+00  0.87644699093E+03  0.87644699093E+03  0.25500000920E-02 0.  1.
        2   -1    0    0  501    0  0.00000000000E+00  0.00000000000E+00 -0.20832224609E+04  0.20832224609E+04  0.25500000920E-02 0. -1.
    10030    2    1    2    0    0  0.00000000000E+00  0.00000000000E+00 -0.12067754700E+04  0.29596694518E+04  0.27024685436E+04 0.  0.
        4    1    3    3  502    0  0.43325510707E+03 -0.11877961844E+04 -0.81296231834E+02  0.12669571633E+04  0.12699999809E+01 0.  1.
       -4    1    3    3    0  502 -0.43325510707E+03  0.11877961844E+04 -0.11254792381E+04  0.16927122885E+04  0.12699999809E+01 0. -1.
</event>
<event>
 5   0  0.4487186E-06  0.2699590E+04  0.7818609E-02  0.8335138E-01
       -2   -1    0    0    0  501  0.00000000000E+00  0.00000000000E+00  0.73453953454E+03  0.73453953454E+03  0.25500000920E-02 0. -1.
        2   -1    0    0  501    0  0.00000000000E+00  0.00000000000E+00 -0.24803924147E+04  0.24803924147E+04  0.25500000920E-02 0.  1.
    10030    2    1    2    0    0  0.00000000000E+00  0.00000000000E+00 -0.17458528802E+04  0.32149319492E+04  0.26995898131E+04 0.  0.
        3    1    3    3  502    0  0.64817376142E+03 -0.36526629244E+03  0.46829877030E+03  0.87912026359E+03  0.10100000352E+00 0. -1.
       -3    1    3    3    0  502 -0.64817376142E+03  0.36526629244E+03 -0.22141516505E+04  0.23358116857E+04  0.10100000352E+00 0.  1.
</event>
<event>
 5   0  0.4448804E-06  0.2705878E+04  0.7818609E-02  0.8333100E-01
       -2   -1    0    0    0  501  0.00000000000E+00  0.00000000000E+00  0.14168380001E+04  0.14168380001E+04  0.25500000920E-02 0. -1.
        2   -1    0    0  501    0  0.00000000000E+00  0.00000000000E+00 -0.12919216809E+04  0.12919216809E+04  0.25500000920E-02 0.  1.
    10030    2    1    2    0    0  0.00000000000E+00  0.00000000000E+00  0.12491631918E+03  0.27087596810E+04  0.27058778469E+04 0.  0.
        2    1    3    3  502    0  0.60831947084E+03  0.37159315924E+03 -0.10886837812E+04  0.13012941367E+04  0.25500000920E-02 0.  1.
       -2    1    3    3    0  502 -0.60831947084E+03 -0.37159315924E+03  0.12136001004E+04  0.14074655443E+04  0.25500000920E-02 0. -1.
</event>
<event>
 5   0  0.4655882E-06  0.2686321E+04  0.7818609E-02  0.8339457E-01
        2   -1    0    0  501    0  0.00000000000E+00  0.00000000000E+00  0.15291899490E+04  0.15291899490E+04  0.25500000920E-02 0. -1.
       -2   -1    0    0    0  501  0.00000000000E+00  0.00000000000E+00 -0.11797619050E+04  0.11797619051E+04  0.25500000920E-02 0.  1.
    10030    2    1    2    0    0  0.00000000000E+00  0.00000000000E+00  0.34942804396E+03  0.27089518541E+04  0.26863209395E+04 0.  0.
        1    1    3    3  502    0 -0.10127072986E+04  0.12394572467E+03  0.10556531607E+04  0.14681083785E+04  0.50400001928E-02 0. -1.
       -1    1    3    3    0  502  0.10127072986E+04 -0.12394572467E+03 -0.70622511669E+03  0.12408434756E+04  0.50400001928E-02 0.  1.
</event>
<event>
 5   0  0.1828511E-06  0.2700765E+04  0.7818609E-02  0.8334757E-01
        1   -1    0    0  501    0  0.00000000000E+00  0.00000000000E+00  0.12626678338E+04  0.12626678338E+04  0.50400001928E-02 0. -1.
       -1   -1    0    0    0  501  0.00000000000E+00  0.00000000000E+00 -0.14441902910E+04  0.14441902910E+04  0.50400001928E-02 0.  1.
    10030    2    1    2    0    0  0.00000000000E+00  0.00000000000E+00 -0.18152245718E+03  0.27068581249E+04  0.27007648001E+04 0.  0.
        4    1    3    3  502    0 -0.96034291671E+02 -0.52408404950E+03 -0.13343847669E+04  0.14368267102E+04  0.12699999809E+01 0.  1.
       -4    1    3    3    0  502  0.96034291671E+02  0.52408404950E+03  0.11528623097E+04  0.12700314146E+04  0.12699999809E+01 0. -1.
</event>
<event>
 5   0  0.4448804E-06  0.2706235E+04  0.7818609E-02  0.8332985E-01
        2   -1    0    0  501    0  0.00000000000E+00  0.00000000000E+00  0.14608312204E+04  0.14608312204E+04  0.25500000920E-02 0. -1.
       -2   -1    0    0    0  501  0.00000000000E+00  0.00000000000E+00 -0.12533463923E+04  0.12533463923E+04  0.25500000920E-02 0.  1.
    10030    2    1    2    0    0  0.00000000000E+00  0.00000000000E+00  0.20748482816E+03  0.27141776127E+04  0.27062354220E+04 0.  0.
        2    1    3    3  502    0  0.72787745870E+03 -0.96827196334E+03  0.70848077172E+03  0.14033179233E+04  0.25500000920E-02 0. -1.
       -2    1    3    3    0  502 -0.72787745870E+03  0.96827196334E+03 -0.50099594356E+03  0.13108596894E+04  0.25500000920E-02 0.  1.
</event>
<event>
 5   0  0.1732312E-06  0.2701584E+04  0.7818609E-02  0.8334491E-01
       -1   -1    0    0    0  501  0.00000000000E+00  0.00000000000E+00  0.79449504499E+03  0.79449504500E+03  0.50400001928E-02 0.  1.
        1   -1    0    0  501    0  0.00000000000E+00  0.00000000000E+00 -0.22966013731E+04  0.22966013731E+04  0.50400001928E-02 0. -1.
    10030    2    1    2    0    0  0.00000000000E+00  0.00000000000E+00 -0.15021063281E+04  0.30910964181E+04  0.27015835440E+04 0.  0.
        5    1    3    3  502    0 -0.94420285440E+02 -0.37263372480E+03  0.73057982989E+03  0.82555439615E+03  0.46999998093E+01 0.  1.
       -5    1    3    3    0  502  0.94420285440E+02  0.37263372480E+03 -0.22326861580E+04  0.22655420220E+04  0.46999998093E+01 0. -1.
</event>
<event>
 5   0  0.1828511E-06  0.2712406E+04  0.7818609E-02  0.8330991E-01
       -1   -1    0    0    0  501  0.00000000000E+00  0.00000000000E+00  0.97615932259E+03  0.97615932260E+03  0.50400001928E-02 0.  1.
        1   -1    0    0  501    0  0.00000000000E+00  0.00000000000E+00 -0.18842069798E+04  0.18842069799E+04  0.50400001928E-02 0. -1.
    10030    2    1    2    0    0  0.00000000000E+00  0.00000000000E+00 -0.90804765726E+03  0.28603663025E+04  0.27124057286E+04 0.  0.
        4    1    3    3  502    0  0.80182456960E+03  0.52234781210E+03 -0.14674425219E+04  0.17519015512E+04  0.12699999809E+01 0. -1.
       -4    1    3    3    0  502 -0.80182456960E+03 -0.52234781210E+03  0.55939486464E+03  0.11084647512E+04  0.12699999809E+01 0.  1.
</event>
<event>
 5   0  0.1771016E-06  0.2705014E+04  0.7818609E-02  0.8333380E-01
        1   -1    0    0  501    0  0.00000000000E+00  0.00000000000E+00  0.19324679404E+04  0.19324679404E+04  0.50400001928E-02 0.  1.
       -1   -1    0    0    0  501  0.00000000000E+00  0.00000000000E+00 -0.94660083018E+03  0.94660083020E+03  0.50400001928E-02 0. -1.
    10030    2    1    2    0    0  0.00000000000E+00  0.00000000000E+00  0.98586711019E+03  0.28790687706E+04  0.27050144227E+04 0.  0.
        2    1    3    3  502    0 -0.90837208869E+02 -0.92858271533E+03 -0.54923284474E+03  0.10826698368E+04  0.25500000920E-02 0. -1.
       -2    1    3    3    0  502  0.90837208869E+02  0.92858271533E+03  0.15350999549E+04  0.17963989338E+04  0.25500000920E-02 0.  1.
</event>
<event>
 5   0  0.1732312E-06  0.2703548E+04  0.7818609E-02  0.8333855E-01
       -1   -1    0    0    0  501  0.00000000000E+00  0.00000000000E+00  0.15284578205E+04  0.15284578205E+04  0.50400001928E-02 0.  1.
        1   -1    0    0  501    0  0.00000000000E+00  0.00000000000E+00 -0.11955144649E+04  0.11955144649E+04  0.50400001928E-02 0. -1.
    10030    2    1    2    0    0  0.00000000000E+00  0.00000000000E+00  0.33294335566E+03  0.27239722854E+04  0.27035483597E+04 0.  0.
        5    1    3    3  502    0  0.10346873182E+04 -0.46733012038E+03 -0.57275756884E+03  0.12716322623E+04  0.46999998093E+01 0. -1.
       -5    1    3    3    0  502 -0.10346873182E+04  0.46733012038E+03  0.90570092450E+03  0.14523400231E+04  0.46999998093E+01 0.  1.
</event>
<event>
 5   0  0.4487186E-06  0.2699564E+04  0.7818609E-02  0.8335146E-01
        2   -1    0    0  501    0  0.00000000000E+00  0.00000000000E+00  0.14092942221E+04  0.14092942221E+04  0.25500000920E-02 0. -1.
       -2   -1    0    0    0  501  0.00000000000E+00  0.00000000000E+00 -0.12927828737E+04  0.12927828737E+04  0.25500000920E-02 0.  1.
    10030    2    1    2    0    0  0.00000000000E+00  0.00000000000E+00  0.11651134840E+03  0.27020770959E+04  0.26995639903E+04 0.  0.
        3    1    3    3  502    0 -0.97048040322E+03  0.72298936854E+03 -0.54010145888E+03  0.13252378791E+04  0.10100000352E+00 0.  1.
       -3    1    3    3    0  502  0.97048040322E+03 -0.72298936854E+03  0.65661280728E+03  0.13768392168E+04  0.10100000352E+00 0. -1.
</event>
<event>
 5   0  0.4439357E-06  0.2698748E+04  0.7818609E-02  0.8335411E-01
        2   -1    0    0  501    0  0.00000000000E+00  0.00000000000E+00  0.20145882088E+04  0.20145882088E+04  0.25500000920E-02 0. -1.
       -2   -1    0    0    0  501  0.00000000000E+00  0.00000000000E+00 -0.90381228631E+03  0.90381228631E+03  0.25500000920E-02 0.  1.
    10030    2    1    2    0    0  0.00000000000E+00  0.00000000000E+00  0.11107759225E+04  0.29184004951E+04  0.26987475428E+04 0.  0.
        4    1    3    3  502    0  0.86753712256E+03 -0.84561410944E+03 -0.87220290218E+02  0.12146163481E+04  0.12699999809E+01 0.  1.
       -4    1    3    3    0  502 -0.86753712256E+03  0.84561410944E+03  0.11979962127E+04  0.17037841470E+04  0.12699999809E+01 0. -1.
</event>
<event>
 5   0  0.4401659E-06  0.2702398E+04  0.7818609E-02  0.8334227E-01
       -2   -1    0    0    0  501  0.00000000000E+00  0.00000000000E+00  0.78718503883E+03  0.78718503883E+03  0.25500000920E-02 0. -1.
        2   -1    0    0  501    0  0.00000000000E+00  0.00000000000E+00 -0.23193257129E+04  0.23193257129E+04  0.25500000920E-02 0.  1.
    10030    2    1    2    0    0  0.00000000000E+00  0.00000000000E+00 -0.15321406740E+04  0.31065107517E+04  0.27023978252E+04 0.  0.
        5    1    3    3  502    0 -0.39955958212E+03  0.75461633651E+03 -0.19698644117E+04  0.21469703224E+04  0.46999998093E+01 0.  1.
       -5    1    3    3    0  502  0.39955958212E+03 -0.75461633651E+03  0.43772373761E+03  0.95954042930E+03  0.46999998093E+01 0. -1.
</event>
<event>
 5   0  0.1771016E-06  0.2705743E+04  0.7818609E-02  0.8333144E-01
        1   -1    0    0  501    0  0.00000000000E+00  0.00000000000E+00  0.17251754835E+04  0.17251754835E+04  0.50400001928E-02 0.  1.
       -1   -1    0    0    0  501  0.00000000000E+00  0.00000000000E+00 -0.10609134874E+04  0.10609134874E+04  0.50400001928E-02 0. -1.
    10030    2    1    2    0    0  0.00000000000E+00  0.00000000000E+00  0.66426199603E+03  0.27860889709E+04  0.27057434753E+04 0.  0.
        2    1    3    3  502    0 -0.53564462539E+03 -0.10717134409E+04  0.97910126685E+03  0.15472957555E+04  0.25500000920E-02 0.  1.
       -2    1    3    3    0  502  0.53564462539E+03  0.10717134409E+04 -0.31483927082E+03  0.12387932154E+04  0.25500000920E-02 0. -1.
</event>
<event>
 5   0  0.1771016E-06  0.2705757E+04  0.7818609E-02  0.8333139E-01
        1   -1    0    0  501    0  0.00000000000E+00  0.00000000000E+00  0.24138036136E+04  0.24138036136E+04  0.50400001928E-02 0.  1.
       -1   -1    0    0    0  501  0.00000000000E+00  0.00000000000E+00 -0.75825564043E+03  0.75825564045E+03  0.50400001928E-02 0. -1.
    10030    2    1    2    0    0  0.00000000000E+00  0.00000000000E+00  0.16555479732E+04  0.31720592541E+04  0.27057569772E+04 0.  0.
        2    1    3    3  502    0  0.69921624874E+03  0.37339852302E+02  0.21848434564E+04  0.22943056806E+04  0.25500000920E-02 0.  1.
       -2    1    3    3    0  502 -0.69921624874E+03 -0.37339852302E+02 -0.52929548326E+03  0.87775357343E+03  0.25500000920E-02 0. -1.
</event>
<event>
 5   0  0.1828511E-06  0.2699200E+04  0.7818609E-02  0.8335265E-01
       -1   -1    0    0    0  501  0.00000000000E+00  0.00000000000E+00  0.10960372417E+04  0.10960372417E+04  0.50400001928E-02 0. -1.
        1   -1    0    0  501    0  0.00000000000E+00  0.00000000000E+00 -0.16618230778E+04  0.16618230778E+04  0.50400001928E-02 0.  1.
    10030    2    1    2    0    0  0.00000000000E+00  0.00000000000E+00 -0.56578583608E+03  0.27578603195E+04  0.26991998684E+04 0.  0.
        4    1    3    3  502    0  0.10178098316E+02 -0.12612677370E+04  0.20766477150E+03  0.12782903302E+04  0.12699999809E+01 0.  1.
       -4    1    3    3    0  502 -0.10178098316E+02  0.12612677370E+04 -0.77345060758E+03  0.14795699893E+04  0.12699999809E+01 0. -1.
</event>
<event>
 5   0  0.1753474E-06  0.2696207E+04  0.7818609E-02  0.8336237E-01
        1   -1    0    0  501    0  0.00000000000E+00  0.00000000000E+00  0.17093308400E+04  0.17093308400E+04  0.50400001928E-02 0. -1.
       -1   -1    0    0    0  501  0.00000000000E+00  0.00000000000E+00 -0.10632128097E+04  0.10632128098E+04  0.50400001928E-02 0.  1.
    10030    2    1    2    0    0  0.00000000000E+00  0.00000000000E+00  0.64611803029E+03  0.27725436498E+04  0.26962065538E+04 0.  0.
        3    1    3    3  502    0 -0.12234597561E+04  0.52730990011E+03  0.53498359982E+03  0.14356590709E+04  0.10100000352E+00 0. -1.
       -3    1    3    3    0  502  0.12234597561E+04 -0.52730990011E+03  0.11113443047E+03  0.13368845789E+04  0.10100000352E+00 0.  1.
</event>
<event>
 5   0  0.4439357E-06  0.2688192E+04  0.7818609E-02  0.8338846E-01
       -2   -1    0    0    0  501  0.00000000000E+00  0.00000000000E+00  0.63783297180E+03  0.63783297181E+03  0.25500000920E-02 0.  1.
        2   -1    0    0  501    0  0.00000000000E+00  0.00000000000E+00 -0.28323933100E+04  0.28323933100E+04  0.25500000920E-02 0. -1.
    10030    2    1    2    0    0  0.00000000000E+00  0.00000000000E+00 -0.21945603382E+04  0.34702262818E+04  0.26881918400E+04 0.  0.
        4    1    3    3  502    0  0.46305777971E+03  0.87341355007E+03 -0.22728764701E+04  0.24785565957E+04  0.12699999809E+01 0. -1.
       -4    1    3    3    0  502 -0.46305777971E+03 -0.87341355007E+03  0.78316131985E+02  0.99166968604E+03  0.12699999809E+01 0.  1.
</event>
<event>
 5   0  0.4401659E-06  0.2700241E+04  0.7818609E-02  0.8334927E-01
       -2   -1    0    0    0  501  0.00000000000E+00  0.00000000000E+00  0.13392826658E+04  0.13392826658E+04  0.25500000920E-02 0. -1.
        2   -1    0    0  501    0  0.00000000000E+00  0.00000000000E+00 -0.13610458590E+04  0.13610458590E+04  0.25500000920E-02 0.  1.
    10030    2    1    2    0    0  0.00000000000E+00  0.00000000000E+00 -0.21763193209E+02  0.27003285248E+04  0.27002408236E+04 0.  0.
        5    1    3    3  502    0  0.31486054465E+03 -0.12913794810E+04  0.22577965479E+03  0.13482569002E+04  0.46999998093E+01 0.  1.
       -5    1    3    3    0  502 -0.31486054465E+03  0.12913794810E+04 -0.24754284800E+03  0.13520716246E+04  0.46999998093E+01 0. -1.
</event>
<event>
 5   0  0.1732312E-06  0.2700096E+04  0.7818609E-02  0.8334974E-01
        1   -1    0    0  501    0  0.00000000000E+00  0.00000000000E+00  0.18866290771E+04  0.18866290771E+04  0.50400001928E-02 0. -1.
       -1   -1    0    0    0  501  0.00000000000E+00  0.00000000000E+00 -0.96607715571E+03  0.96607715572E+03  0.50400001928E-02 0.  1.
    10030    2    1    2    0    0  0.00000000000E+00  0.00000000000E+00  0.92055192141E+03  0.28527062328E+04  0.27000957411E+04 0.  0.
        5    1    3    3  502    0 -0.10416811489E+04 -0.84724937351E+03  0.31207643969E+03  0.13785299819E+04  0.46999998093E+01 0.  1.
       -5    1    3    3    0  502  0.10416811489E+04  0.84724937351E+03  0.60847548172E+03  0.14741762509E+04  0.46999998093E+01 0. -1.
</event>
<event>
 5   0  0.4655882E-06  0.2698244E+04  0.7818609E-02  0.8335575E-01
        2   -1    0    0  501    0  0.00000000000E+00  0.00000000000E+00  0.11121749149E+04  0.11121749149E+04  0.25500000920E-02 0.  1.
       -2   -1    0    0    0  501  0.00000000000E+00  0.00000000000E+00 -0.16365502279E+04  0.16365502279E+04  0.25500000920E-02 0. -1.
    10030    2    1    2    0    0  0.00000000000E+00  0.00000000000E+00 -0.52437531295E+03  0.27487251428E+04  0.26982439552E+04 0.  0.
        1    1    3    3  502    0  0.12880477008E+04 -0.35696010501E+03 -0.75336574809E+02  0.13387169214E+04  0.50400001928E-02 0.  1.
       -1    1    3    3    0  502 -0.12880477008E+04  0.35696010501E+03 -0.44903873814E+03  0.14100082214E+04  0.50400001928E-02 0. -1.
</event>
<event>
 5   0  0.4448804E-06  0.2705034E+04  0.7818609E-02  0.8333374E-01
        2   -1    0    0  501    0  0.00000000000E+00  0.00000000000E+00  0.21803262483E+04  0.21803262483E+04  0.25500000920E-02 0.  1.
       -2   -1    0    0    0  501  0.00000000000E+00  0.00000000000E+00 -0.83900366100E+03  0.83900366100E+03  0.25500000920E-02 0. -1.
    10030    2    1    2    0    0  0.00000000000E+00  0.00000000000E+00  0.13413225873E+04  0.30193299093E+04  0.27050336075E+04 0.  0.
        2    1    3    3  502    0 -0.14108108882E+03  0.13376391033E+04  0.51233754460E+03  0.14393304013E+04  0.25500000920E-02 0.  1.
       -2    1    3    3    0  502  0.14108108882E+03 -0.13376391033E+04  0.82898504268E+03  0.15799995080E+04  0.25500000920E-02 0. -1.
</event>
<event>
 5   0  0.4448804E-06  0.2703427E+04  0.7818609E-02  0.8333894E-01
        2   -1    0    0  501    0  0.00000000000E+00  0.00000000000E+00  0.13762133114E+04  0.13762133114E+04  0.25500000920E-02 0.  1.
       -2   -1    0    0    0  501  0.00000000000E+00  0.00000000000E+00 -0.13276502979E+04  0.13276502979E+04  0.25500000920E-02 0. -1.
    10030    2    1    2    0    0  0.00000000000E+00  0.00000000000E+00  0.48563013533E+02  0.27038636093E+04  0.27034274637E+04 0.  0.
        2    1    3    3  502    0  0.79581473799E+02 -0.20374561039E+03  0.13583949505E+04  0.13758932830E+04  0.25500000920E-02 0.  1.
       -2    1    3    3    0  502 -0.79581473799E+02  0.20374561039E+03 -0.13098319369E+04  0.13279703264E+04  0.25500000920E-02 0. -1.
</event>
<event>
 5   0  0.1828511E-06  0.2676590E+04  0.7818609E-02  0.8342641E-01
        1   -1    0    0  501    0  0.00000000000E+00  0.00000000000E+00  0.14660200908E+04  0.14660200908E+04  0.50400001928E-02 0. -1.
       -1   -1    0    0    0  501  0.00000000000E+00  0.00000000000E+00 -0.12216973723E+04  0.12216973723E+04  0.50400001928E-02 0.  1.
    10030    2    1    2    0    0  0.00000000000E+00  0.00000000000E+00  0.24432271857E+03  0.26877174631E+04  0.26765895409E+04 0.  0.
        4    1    3    3  502    0  0.19964620312E+02 -0.42387543896E+03  0.13966751113E+04  0.14597163948E+04  0.12699999809E+01 0. -1.
       -4    1    3    3    0  502 -0.19964620312E+02  0.42387543896E+03 -0.11523523927E+04  0.12280010683E+04  0.12699999809E+01 0.  1.
</event>
<event>
 5   0  0.1723605E-06  0.2695684E+04  0.7818609E-02  0.8336407E-01
        1   -1    0    0  501    0  0.00000000000E+00  0.00000000000E+00  0.17512197239E+04  0.17512197239E+04  0.50400001928E-02 0. -1.
       -1   -1    0    0    0  501  0.00000000000E+00  0.00000000000E+00 -0.10373787969E+04  0.10373787969E+04  0.50400001928E-02 0.  1.
    10030    2    1    2    0    0  0.00000000000E+00  0.00000000000E+00  0.71384092696E+03  0.27885985208E+04  0.26956841138E+04 0.  0.
        1    1    3    3  502    0 -0.74329638228E+03  0.32451610488E+03  0.14705374629E+04  0.16793691208E+04  0.50400001928E-02 0. -1.
       -1    1    3    3    0  502  0.74329638228E+03 -0.32451610488E+03 -0.75669653592E+03  0.11092294000E+04  0.50400001928E-02 0.  1.
</event>
<event>
 5   0  0.4401659E-06  0.2688268E+04  0.7818609E-02  0.8338822E-01
       -2   -1    0    0    0  501  0.00000000000E+00  0.00000000000E+00  0.10289075138E+04  0.10289075138E+04  0.25500000920E-02 0. -1.
        2   -1    0    0  501    0  0.00000000000E+00  0.00000000000E+00 -0.17559366147E+04  0.17559366147E+04  0.25500000920E-02 0.  1.
    10030    2    1    2    0    0  0.00000000000E+00  0.00000000000E+00 -0.72702910090E+03  0.27848441284E+04  0.26882681239E+04 0.  0.
        5    1    3    3  502    0  0.86035937162E+03  0.10167931690E+04 -0.55052035858E+03  0.14412429886E+04  0.46999998093E+01 0.  1.
       -5    1    3    3    0  502 -0.86035937162E+03 -0.10167931690E+04 -0.17650874232E+03  0.13436011399E+04  0.46999998093E+01 0. -1.
</event>
<event>
 5   0  0.1732312E-06  0.2647191E+04  0.7818609E-02  0.8352346E-01
       -1   -1    0    0    0  501  0.00000000000E+00  0.00000000000E+00  0.14062084949E+04  0.14062084949E+04  0.50400001928E-02 0. -1.
        1   -1    0    0  501    0  0.00000000000E+00  0.00000000000E+00 -0.12458358011E+04  0.12458358011E+04  0.50400001928E-02 0.  1.
    10030    2    1    2    0    0  0.00000000000E+00  0.00000000000E+00  0.16037269380E+03  0.26520442961E+04  0.26471908785E+04 0.  0.
        5    1    3    3  502    0 -0.11061838550E+04  0.70393546669E+03  0.26139066555E+03  0.13369798175E+04  0.46999998093E+01 0. -1.
       -5    1    3    3    0  502  0.11061838550E+04 -0.70393546669E+03 -0.10101797176E+03  0.13150644786E+04  0.46999998093E+01 0.  1.
</event>
<event>
 5   0  0.4448804E-06  0.2695458E+04  0.7818609E-02  0.8336480E-01
        2   -1    0    0  501    0  0.00000000000E+00  0.00000000000E+00  0.16374280878E+04  0.16374280878E+04  0.25500000920E-02 0.  1.
       -2   -1    0    0    0  501  0.00000000000E+00  0.00000000000E+00 -0.11092845328E+04  0.11092845328E+04  0.25500000920E-02 0. -1.
    10030    2    1    2    0    0  0.00000000000E+00  0.00000000000E+00  0.52814355494E+03  0.27467126206E+04  0.26954581439E+04 0.  0.
        2    1    3    3  502    0  0.95689795284E+03 -0.91013061114E+03 -0.10083499652E+02  0.13206411695E+04  0.25500000920E-02 0. -1.
       -2    1    3    3    0  502 -0.95689795284E+03  0.91013061114E+03  0.53822705459E+03  0.14260714512E+04  0.25500000920E-02 0.  1.
</event>
<event>
 5   0  0.4439357E-06  0.2695959E+04  0.7818609E-02  0.8336317E-01
       -2   -1    0    0    0  501  0.00000000000E+00  0.00000000000E+00  0.11468618662E+04  0.11468618662E+04  0.25500000920E-02 0. -1.
        2   -1    0    0  501    0  0.00000000000E+00  0.00000000000E+00 -0.15843659163E+04  0.15843659163E+04  0.25500000920E-02 0.  1.
    10030    2    1    2    0    0  0.00000000000E+00  0.00000000000E+00 -0.43750405015E+03  0.27312277825E+04  0.26959590883E+04 0.  0.
        4    1    3    3  502    0  0.98645641279E+03 -0.60619716085E+03 -0.91805460909E+03  0.14776322717E+04  0.12699999809E+01 0.  1.
       -4    1    3    3    0  502 -0.98645641279E+03  0.60619716085E+03  0.48055055893E+03  0.12535955108E+04  0.12699999809E+01 0. -1.
</event>
<event>
 5   0  0.1828511E-06  0.2698259E+04  0.7818609E-02  0.8335570E-01
       -1   -1    0    0    0  501  0.00000000000E+00  0.00000000000E+00  0.76759738834E+03  0.76759738836E+03  0.50400001928E-02 0. -1.
        1   -1    0    0  501    0  0.00000000000E+00  0.00000000000E+00 -0.23712299053E+04  0.23712299053E+04  0.50400001928E-02 0.  1.
    10030    2    1    2    0    0  0.00000000000E+00  0.00000000000E+00 -0.16036325170E+04  0.31388272937E+04  0.26982586107E+04 0.  0.
        4    1    3    3  502    0  0.64399531445E+03  0.11516886942E+04 -0.11288434320E+04  0.17364924187E+04  0.12699999809E+01 0.  1.
       -4    1    3    3    0  502 -0.64399531445E+03 -0.11516886942E+04 -0.47478908493E+03  0.14023348749E+04  0.12699999809E+01 0. -1.
</event>
<event>
 5   0  0.4401659E-06  0.2694158E+04  0.7818609E-02  0.8336903E-01
       -2   -1    0    0    0  501  0.00000000000E+00  0.00000000000E+00  0.67906945640E+03  0.67906945641E+03  0.25500000920E-02 0.  1.
        2   -1    0    0  501    0  0.00000000000E+00  0.00000000000E+00 -0.26722178387E+04  0.26722178387E+04  0.25500000920E-02 0. -1.
    10030    2    1    2    0    0  0.00000000000E+00  0.00000000000E+00 -0.19931483823E+04  0.33512872951E+04  0.26941577646E+04 0.  0.
        5    1    3    3  502    0  0.29334985596E+02  0.12937334613E+04 -0.14619900733E+04  0.19524456138E+04  0.46999998093E+01 0. -1.
       -5    1    3    3    0  502 -0.29334985596E+02 -0.12937334613E+04 -0.53115830896E+03  0.13988416813E+04  0.46999998093E+01 0.  1.
</event>
<event>
 5   0  0.4487186E-06  0.2697733E+04  0.7818609E-02  0.8335741E-01
        2   -1    0    0  501    0  0.00000000000E+00  0.00000000000E+00  0.16121654357E+04  0.16121654357E+04  0.25500000920E-02 0. -1.
       -2   -1    0    0    0  501  0.00000000000E+00  0.00000000000E+00 -0.11285699207E+04  0.11285699207E+04  0.25500000920E-02 0.  1.
    10030    2    1    2    0    0  0.00000000000E+00  0.00000000000E+00  0.48359551502E+03  0.27407353565E+04  0.26977334324E+04 0.  0.
        3    1    3    3  502    0 -0.13325286105E+04 -0.82118654698E+02  0.43739045139E+03  0.14048794925E+04  0.10100000352E+00 0. -1.
       -3    1    3    3    0  502  0.13325286105E+04  0.82118654698E+02  0.46205063634E+02  0.13358558640E+04  0.10100000352E+00 0.  1.
</event>
<event>
 5   0  0.4439357E-06  0.2704926E+04  0.7818609E-02  0.8333408E-01
       -2   -1    0    0    0  501  0.00000000000E+00  0.00000000000E+00  0.17629194868E+04  0.17629194868E+04  0.25500000920E-02 0. -1.
        2   -1    0    0  501    0  0.00000000000E+00  0.00000000000E+00 -0.10375720713E+04  0.10375720713E+04  0.25500000920E-02 0.  1.
    10030    2    1    2    0    0  0.00000000000E+00  0.00000000000E+00  0.72534741552E+03  0.28004915581E+04  0.27049258943E+04 0.  0.
        4    1    3    3  502    0 -0.51816857375E+03  0.45288963881E+03  0.15680874570E+04  0.17124565926E+04  0.12699999809E+01 0. -1.
       -4    1    3    3    0  502  0.51816857375E+03 -0.45288963881E+03 -0.84274004149E+03  0.10880349655E+04  0.12699999809E+01 0.  1.
</event>
<event>
 5   0  0.1771016E-06  0.2704714E+04  0.7818609E-02  0.8333477E-01
       -1   -1    0    0    0  501  0.00000000000E+00  0.00000000000E+00  0.77034194144E+03  0.77034194145E+03  0.50400001928E-02 0.  1.
        1   -1    0    0  501    0  0.00000000000E+00  0.00000000000E+00 -0.23741001348E+04  0.23741001348E+04  0.50400001928E-02 0. -1.
    10030    2    1    2    0    0  0.00000000000E+00  0.00000000000E+00 -0.16037581934E+04  0.31444420763E+04  0.27047135945E+04 0.  0.
        2    1    3    3  502    0  0.85856383274E+03  0.10393660779E+04 -0.92630872702E+03  0.16356838192E+04  0.25500000920E-02 0. -1.
       -2    1    3    3    0  502 -0.85856383274E+03 -0.10393660779E+04 -0.67744946635E+03  0.15087582570E+04  0.25500000920E-02 0.  1.
</event>
<event>
 5   0  0.4401659E-06  0.2688039E+04  0.7818609E-02  0.8338896E-01
        2   -1    0    0  501    0  0.00000000000E+00  0.00000000000E+00  0.20545636876E+04  0.20545636876E+04  0.25500000920E-02 0.  1.
       -2   -1    0    0    0  501  0.00000000000E+00  0.00000000000E+00 -0.87920751310E+03  0.87920751310E+03  0.25500000920E-02 0. -1.
    10030    2    1    2    0    0  0.00000000000E+00  0.00000000000E+00  0.11753561745E+04  0.29337712007E+04  0.26880385640E+04 0.  0.
        5    1    3    3  502    0 -0.45711374852E+02  0.11252591011E+04  0.13882666753E+04  0.17876252477E+04  0.46999998093E+01 0.  1.
       -5    1    3    3    0  502  0.45711374852E+02 -0.11252591011E+04 -0.21291050077E+03  0.11461459531E+04  0.46999998093E+01 0. -1.
</event>
<event>
 5   0  0.1732312E-06  0.2709967E+04  0.7818609E-02  0.8331778E-01
        1   -1    0    0  501    0  0.00000000000E+00  0.00000000000E+00  0.23676248043E+04  0.23676248043E+04  0.50400001928E-02 0. -1.
       -1   -1    0    0    0  501  0.00000000000E+00  0.00000000000E+00 -0.77545246255E+03  0.77545246257E+03  0.50400001928E-02 0.  1.
    10030    2    1    2    0    0  0.00000000000E+00  0.00000000000E+00  0.15921723417E+04  0.31430772668E+04  0.27099671473E+04 0.  0.
        5    1    3    3  502    0  0.13383161971E+04 -0.10579579867E+03  0.10089233114E+04  0.16793544393E+04  0.46999998093E+01 0. -1.
       -5    1    3    3    0  502 -0.13383161971E+04  0.10579579867E+03  0.58324903031E+03  0.14637228275E+04  0.46999998093E+01 0.  1.
</event>
<event>
 5   0  0.4439357E-06  0.2696578E+04  0.7818609E-02  0.8336116E-01
       -2   -1    0    0    0  501  0.00000000000E+00  0.00000000000E+00  0.11329706224E+04  0.11329706224E+04  0.25500000920E-02 0.  1.
        2   -1    0    0  501    0  0.00000000000E+00  0.00000000000E+00 -0.16045277052E+04  0.16045277052E+04  0.25500000920E-02 0. -1.
    10030    2    1    2    0    0  0.00000000000E+00  0.00000000000E+00 -0.47155708287E+03  0.27374983276E+04  0.26965776479E+04 0.  0.
        4    1    3    3  502    0  0.52471117778E+03  0.22675553634E+03 -0.14754320786E+04  0.15822898991E+04  0.12699999809E+01 0. -1.
       -4    1    3    3    0  502 -0.52471117778E+03 -0.22675553634E+03  0.10038749957E+04  0.11552084285E+04  0.12699999809E+01 0.  1.
</event>
<event>
 5   0  0.1723605E-06  0.2701916E+04  0.7818609E-02  0.8334383E-01
        1   -1    0    0  501    0  0.00000000000E+00  0.00000000000E+00  0.11879529908E+04  0.11879529908E+04  0.50400001928E-02 0.  1.
       -1   -1    0    0    0  501  0.00000000000E+00  0.00000000000E+00 -0.15363302615E+04  0.15363302615E+04  0.50400001928E-02 0. -1.
    10030    2    1    2    0    0  0.00000000000E+00  0.00000000000E+00 -0.34837727072E+03  0.27242832523E+04  0.27019164525E+04 0.  0.
        1    1    3    3  502    0  0.97948200094E+03 -0.50941077197E+03 -0.95922481700E+03  0.14625308798E+04  0.50400001928E-02 0. -1.
       -1    1    3    3    0  502 -0.97948200094E+03  0.50941077197E+03  0.61084754628E+03  0.12617523725E+04  0.50400001928E-02 0.  1.
</event>
<event>
 5   0  0.4401659E-06  0.2637034E+04  0.7818609E-02  0.8355729E-01
        2   -1    0    0  501    0  0.00000000000E+00  0.00000000000E+00  0.16335725047E+04  0.16335725047E+04  0.25500000920E-02 0. -1.
       -2   -1    0    0    0  501  0.00000000000E+00  0.00000000000E+00 -0.10642241474E+04  0.10642241474E+04  0.25500000920E-02 0.  1.
    10030    2    1    2    0    0  0.00000000000E+00  0.00000000000E+00  0.56934835728E+03  0.26977966522E+04  0.26370341720E+04 0.  0.
        5    1    3    3  502    0  0.94116068345E+02 -0.91145030585E+03  0.12546052304E+04  0.15535944994E+04  0.46999998093E+01 0. -1.
       -5    1    3    3    0  502 -0.94116068345E+02  0.91145030585E+03 -0.68525687309E+03  0.11442021528E+04  0.46999998093E+01 0.  1.
</event>
<event>
 5   0  0.1732312E-06  0.2700504E+04  0.7818609E-02  0.8334842E-01
        1   -1    0    0  501    0  0.00000000000E+00  0.00000000000E+00  0.13953570981E+04  0.13953570981E+04  0.50400001928E-02 0. -1.
       -1   -1    0    0    0  501  0.00000000000E+00  0.00000000000E+00 -0.13066045932E+04  0.13066045932E+04  0.50400001928E-02 0.  1.
    10030    2    1    2    0    0  0.00000000000E+00  0.00000000000E+00  0.88752504905E+02  0.27019616914E+04  0.27005036520E+04 0.  0.
        5    1    3    3  502    0 -0.77276582446E+03 -0.99458815781E+03 -0.44249235082E+03  0.13349884620E+04  0.46999998093E+01 0.  1.
       -5    1    3    3    0  502  0.77276582446E+03  0.99458815781E+03  0.53124485573E+03  0.13669732294E+04  0.46999998093E+01 0. -1.
</event>
<event>
 5   0  0.1732312E-06  0.2704489E+04  0.7818609E-02  0.8333550E-01
       -1   -1    0    0    0  501  0.00000000000E+00  0.00000000000E+00  0.11890797336E+04  0.11890797336E+04  0.50400001928E-02 0. -1.
        1   -1    0    0  501    0  0.00000000000E+00  0.00000000000E+00 -0.15377990320E+04  0.15377990320E+04  0.50400001928E-02 0.  1.
    10030    2    1    2    0    0  0.00000000000E+00  0.00000000000E+00 -0.34871929842E+03  0.27268787656E+04  0.27044893516E+04 0.  0.
        5    1    3    3  502    0 -0.40345761499E+03 -0.31473388560E+03 -0.14364039491E+04  0.15248324041E+04  0.46999998093E+01 0.  1.
       -5    1    3    3    0  502  0.40345761499E+03  0.31473388560E+03  0.10876846506E+04  0.12020463615E+04  0.46999998093E+01 0. -1.
</event>
<event>
 5   0  0.4401659E-06  0.2707077E+04  0.7818609E-02  0.8332712E-01
        2   -1    0    0  501    0  0.00000000000E+00  0.00000000000E+00  0.18273324747E+04  0.18273324747E+04  0.25500000920E-02 0. -1.
       -2   -1    0    0    0  501  0.00000000000E+00  0.00000000000E+00 -0.10025909327E+04  0.10025909327E+04  0.25500000920E-02 0.  1.
    10030    2    1    2    0    0  0.00000000000E+00  0.00000000000E+00  0.82474154199E+03  0.28299234075E+04  0.27070773689E+04 0.  0.
        5    1    3    3  502    0  0.57328255928E+03  0.11589422945E+04  0.83084229631E+03  0.15369193688E+04  0.46999998093E+01 0. -1.
       -5    1    3    3    0  502 -0.57328255928E+03 -0.11589422945E+04 -0.61007543180E+01  0.12930040387E+04  0.46999998093E+01 0.  1.
</event>
<event>
 5   0  0.1723605E-06  0.2693695E+04  0.7818609E-02  0.8337054E-01
       -1   -1    0    0    0  501  0.00000000000E+00  0.00000000000E+00  0.10075379010E+04  0.10075379010E+04  0.50400001928E-02 0.  1.
        1   -1    0    0  501    0  0.00000000000E+00  0.00000000000E+00 -0.18004271145E+04  0.18004271145E+04  0.50400001928E-02 0. -1.
    10030    2    1    2    0    0  0.00000000000E+00  0.00000000000E+00 -0.79288921354E+03  0.28079650155E+04  0.26936952730E+04 0.  0.
        1    1    3    3  502    0  0.47194460182E+03 -0.88627126874E+03 -0.13321824391E+04  0.16682081765E+04  0.50400001928E-02 0. -1.
       -1    1    3    3    0  502 -0.47194460182E+03  0.88627126874E+03  0.53929322558E+03  0.11397568391E+04  0.50400001928E-02 0.  1.
</event>
<event>
 5   0  0.1828511E-06  0.2698076E+04  0.7818609E-02  0.8335629E-01
        1   -1    0    0  501    0  0.00000000000E+00  0.00000000000E+00  0.11421301837E+04  0.11421301837E+04  0.50400001928E-02 0.  1.
       -1   -1    0    0    0  501  0.00000000000E+00  0.00000000000E+00 -0.15934293538E+04  0.15934293538E+04  0.50400001928E-02 0. -1.
    10030    2    1    2    0    0  0.00000000000E+00  0.00000000000E+00 -0.45129917010E+03  0.27355595375E+04  0.26980761743E+04 0.  0.
        4    1    3    3  502    0 -0.39632051140E+03 -0.86976763092E+03  0.73959348421E+03  0.12085387103E+04  0.12699999809E+01 0.  1.
       -4    1    3    3    0  502  0.39632051140E+03  0.86976763092E+03 -0.11908926543E+04  0.15270208271E+04  0.12699999809E+01 0. -1.
</event>
<event>
 5   0  0.1732312E-06  0.2831325E+04  0.7818609E-02  0.8293609E-01
       -1   -1    0    0    0  501  0.00000000000E+00  0.00000000000E+00  0.10199885801E+04  0.10199885802E+04  0.50400001928E-02 0. -1.
        1   -1    0    0  501    0  0.00000000000E+00  0.00000000000E+00 -0.19648264903E+04  0.19648264903E+04  0.50400001928E-02 0.  1.
    10030    2    1    2    0    0  0.00000000000E+00  0.00000000000E+00 -0.94483791012E+03  0.29848150704E+04  0.28313251894E+04 0.  0.
        5    1    3    3  502    0  0.11229020200E+04 -0.40493587636E+03 -0.12747260514E+04  0.17463764218E+04  0.46999998093E+01 0.  1.
       -5    1    3    3    0  502 -0.11229020200E+04  0.40493587636E+03  0.32988814129E+03  0.12384386486E+04  0.46999998093E+01 0. -1.
</event>
<event>
 5   0  0.1828511E-06  0.2703038E+04  0.7818609E-02  0.8334020E-01
       -1   -1    0    0    0  501  0.00000000000E+00  0.00000000000E+00  0.16820533848E+04  0.16820533848E+04  0.50400001928E-02 0.  1.
        1   -1    0    0  501    0  0.00000000000E+00  0.00000000000E+00 -0.10859369995E+04  0.10859369995E+04  0.50400001928E-02 0. -1.
    10030    2    1    2    0    0  0.00000000000E+00  0.00000000000E+00  0.59611638523E+03  0.27679903843E+04  0.27030382948E+04 0.  0.
        4    1    3    3  502    0  0.22032211746E+03  0.51629643691E+03  0.15570306976E+04  0.16551284096E+04  0.12699999809E+01 0.  1.
       -4    1    3    3    0  502 -0.22032211746E+03 -0.51629643691E+03 -0.96091431234E+03  0.11128619747E+04  0.12699999809E+01 0. -1.
</event>
<event>
 5   0  0.1828511E-06  0.2723071E+04  0.7818609E-02  0.8327558E-01
       -1   -1    0    0    0  501  0.00000000000E+00  0.00000000000E+00  0.10542263793E+04  0.10542263793E+04  0.50400001928E-02 0.  1.
        1   -1    0    0  501    0  0.00000000000E+00  0.00000000000E+00 -0.17584255030E+04  0.17584255030E+04  0.50400001928E-02 0. -1.
    10030    2    1    2    0    0  0.00000000000E+00  0.00000000000E+00 -0.70419912367E+03  0.28126518823E+04  0.27230707309E+04 0.  0.
        4    1    3    3  502    0  0.22698650953E+03  0.11592810267E+04 -0.10513652314E+04  0.15813999611E+04  0.12699999809E+01 0. -1.
       -4    1    3    3    0  502 -0.22698650953E+03 -0.11592810267E+04  0.34716610769E+03  0.12312519212E+04  0.12699999809E+01 0.  1.
</event>
<event>
 5   0  0.1828511E-06  0.2706663E+04  0.7818609E-02  0.8332846E-01
       -1   -1    0    0    0  501  0.00000000000E+00  0.00000000000E+00  0.11695010169E+04  0.11695010169E+04  0.50400001928E-02 0. -1.
        1   -1    0    0  501    0  0.00000000000E+00  0.00000000000E+00 -0.15660582951E+04  0.15660582952E+04  0.50400001928E-02 0.  1.
    10030    2    1    2    0    0  0.00000000000E+00  0.00000000000E+00 -0.39655727826E+03  0.27355593121E+04  0.27066634580E+04 0.  0.
        4    1    3    3  502    0  0.52609108013E+03  0.74873143041E+03  0.80942880164E+03  0.12216984805E+04  0.12699999809E+01 0. -1.
       -4    1    3    3    0  502 -0.52609108013E+03 -0.74873143041E+03 -0.12059860799E+04  0.15138608315E+04  0.12699999809E+01 0.  1.
</event>
<event>
 5   0  0.1753474E-06  0.2701019E+04  0.7818609E-02  0.8334674E-01
       -1   -1    0    0    0  501  0.00000000000E+00  0.00000000000E+00  0.15958610606E+04  0.15958610606E+04  0.50400001928E-02 0. -1.
        1   -1    0    0  501    0  0.00000000000E+00  0.00000000000E+00 -0.11428791334E+04  0.11428791334E+04  0.50400001928E-02 0.  1.
    10030    2    1    2    0    0  0.00000000000E+00  0.00000000000E+00  0.45298192721E+03  0.27387401941E+04  0.27010192936E+04 0.  0.
        3    1    3    3  502    0  0.76232799502E+03 -0.28663614525E+03 -0.86585246846E+03  0.11886987672E+04  0.10100000352E+00 0.  1.
       -3    1    3    3    0  502 -0.76232799502E+03  0.28663614525E+03  0.13188343957E+04  0.15500414269E+04  0.10100000352E+00 0. -1.
</event>
<event>
 5   0  0.4448804E-06  0.2697665E+04  0.7818609E-02  0.8335763E-01
       -2   -1    0    0    0  501  0.00000000000E+00  0.00000000000E+00  0.87000202800E+03  0.87000202801E+03  0.25500000920E-02 0. -1.
        2   -1    0    0  501    0  0.00000000000E+00  0.00000000000E+00 -0.20912010184E+04  0.20912010184E+04  0.25500000920E-02 0.  1.
    10030    2    1    2    0    0  0.00000000000E+00  0.00000000000E+00 -0.12211989904E+04  0.29612030464E+04  0.26976650103E+04 0.  0.
        2    1    3    3  502    0 -0.76698862828E+03  0.10207909492E+04 -0.10878912265E+04  0.16774364485E+04  0.25500000920E-02 0. -1.
       -2    1    3    3    0  502  0.76698862828E+03 -0.10207909492E+04 -0.13330776387E+03  0.12837665979E+04  0.25500000920E-02 0.  1.
</event>
<event>
 5   0  0.1753474E-06  0.2699172E+04  0.7818609E-02  0.8335274E-01
       -1   -1    0    0    0  501  0.00000000000E+00  0.00000000000E+00  0.10283404509E+04  0.10283404509E+04  0.50400001928E-02 0.  1.
        1   -1    0    0  501    0  0.00000000000E+00  0.00000000000E+00 -0.17711860807E+04  0.17711860807E+04  0.50400001928E-02 0. -1.
    10030    2    1    2    0    0  0.00000000000E+00  0.00000000000E+00 -0.74284562986E+03  0.27995265316E+04  0.26991719418E+04 0.  0.
        3    1    3    3  502    0 -0.13230331918E+04 -0.26168671252E+03 -0.31971422435E+03  0.13860425526E+04  0.10100000352E+00 0. -1.
       -3    1    3    3    0  502  0.13230331918E+04  0.26168671252E+03 -0.42313140551E+03  0.14134839790E+04  0.10100000352E+00 0.  1.
</event>
<event>
 5   0  0.1723605E-06  0.2697375E+04  0.7818609E-02  0.8335857E-01
        1   -1    0    0  501    0  0.00000000000E+00  0.00000000000E+00  0.11295572673E+04  0.11295572673E+04  0.50400001928E-02 0.  1.
       -1   -1    0    0    0  501  0.00000000000E+00  0.00000000000E+00 -0.16103281624E+04  0.16103281624E+04  0.50400001928E-02 0. -1.
    10030    2    1    2    0    0  0.00000000000E+00  0.00000000000E+00 -0.48077089508E+03  0.27398854297E+04  0.26973749302E+04 0.  0.
        1    1    3    3  502    0  0.38790304836E+03 -0.46214512668E+03 -0.14655919629E+04  0.15849311325E+04  0.50400001928E-02 0. -1.
       -1    1    3    3    0  502 -0.38790304836E+03  0.46214512668E+03  0.98482106777E+03  0.11549542972E+04  0.50400001928E-02 0.  1.
</event>
<event>
 5   0  0.4401659E-06  0.2707621E+04  0.7818609E-02  0.8332536E-01
        2   -1    0    0  501    0  0.00000000000E+00  0.00000000000E+00  0.11031891033E+04  0.11031891033E+04  0.25500000920E-02 0. -1.
       -2   -1    0    0    0  501  0.00000000000E+00  0.00000000000E+00 -0.16613682869E+04  0.16613682869E+04  0.25500000920E-02 0.  1.
    10030    2    1    2    0    0  0.00000000000E+00  0.00000000000E+00 -0.55817918358E+03  0.27645573902E+04  0.27076213846E+04 0.  0.
        5    1    3    3  502    0  0.91643651434E+02  0.68155439484E+03  0.91156499114E+03  0.11418790545E+04  0.46999998093E+01 0. -1.
       -5    1    3    3    0  502 -0.91643651434E+02 -0.68155439484E+03 -0.14697441747E+04  0.16226783357E+04  0.46999998093E+01 0.  1.
</event>
<event>
 5   0  0.1771016E-06  0.2665148E+04  0.7818609E-02  0.8346403E-01
       -1   -1    0    0    0  501  0.00000000000E+00  0.00000000000E+00  0.14820318250E+04  0.14820318250E+04  0.50400001928E-02 0.  1.
        1   -1    0    0  501    0  0.00000000000E+00  0.00000000000E+00 -0.11981885350E+04  0.11981885350E+04  0.50400001928E-02 0. -1.
    10030    2    1    2    0    0  0.00000000000E+00  0.00000000000E+00  0.28384328997E+03  0.26802203600E+04  0.26651480568E+04 0.  0.
        2    1    3    3  502    0 -0.11336045116E+04  0.37545384920E+03  0.73664478306E+03  0.14030931252E+04  0.25500000920E-02 0.  1.
       -2    1    3    3    0  502  0.11336045116E+04 -0.37545384920E+03 -0.45280149309E+03  0.12771272348E+04  0.25500000920E-02 0. -1.
</event>
<event>
 5   0  0.1732312E-06  0.2710226E+04  0.7818609E-02  0.8331695E-01
       -1   -1    0    0    0  501  0.00000000000E+00  0.00000000000E+00  0.16333708438E+04  0.16333708438E+04  0.50400001928E-02 0. -1.
        1   -1    0    0  501    0  0.00000000000E+00  0.00000000000E+00 -0.11242586436E+04  0.11242586436E+04  0.50400001928E-02 0.  1.
    10030    2    1    2    0    0  0.00000000000E+00  0.00000000000E+00  0.50911220018E+03  0.27576294874E+04  0.27102260343E+04 0.  0.
        5    1    3    3  502    0 -0.22178627304E+03 -0.39679262825E+03 -0.10443596741E+04  0.11390095521E+04  0.46999998093E+01 0.  1.
       -5    1    3    3    0  502  0.22178627304E+03  0.39679262825E+03  0.15534718743E+04  0.16186199353E+04  0.46999998093E+01 0. -1.
</event>
<event>
 5   0  0.1828511E-06  0.2696022E+04  0.7818609E-02  0.8336297E-01
       -1   -1    0    0    0  501  0.00000000000E+00  0.00000000000E+00  0.15332907982E+04  0.15332907982E+04  0.50400001928E-02 0. -1.
        1   -1    0    0  501    0  0.00000000000E+00  0.00000000000E+00 -0.11851198047E+04  0.11851198048E+04  0.50400001928E-02 0.  1.
    10030    2    1    2    0    0  0.00000000000E+00  0.00000000000E+00  0.34817099345E+03  0.27184106030E+04  0.26960217294E+04 0.  0.
        4    1    3    3  502    0  0.18163162284E+03  0.33047167456E+03 -0.11308529042E+04  0.11920702488E+04  0.12699999809E+01 0.  1.
       -4    1    3    3    0  502 -0.18163162284E+03 -0.33047167456E+03  0.14790238977E+04  0.15263403542E+04  0.12699999809E+01 0. -1.
</event>
<event>
 5   0  0.1828511E-06  0.2695718E+04  0.7818609E-02  0.8336396E-01
       -1   -1    0    0    0  501  0.00000000000E+00  0.00000000000E+00  0.20123342076E+04  0.20123342076E+04  0.50400001928E-02 0.  1.
        1   -1    0    0  501    0  0.00000000000E+00  0.00000000000E+00 -0.90279426333E+03  0.90279426334E+03  0.50400001928E-02 0. -1.
    10030    2    1    2    0    0  0.00000000000E+00  0.00000000000E+00  0.11095399443E+04  0.29151284709E+04  0.26957179218E+04 0.  0.
        4    1    3    3  502    0  0.53471980060E+03 -0.12364951669E+04  0.60161563732E+03  0.14753943713E+04  0.12699999809E+01 0. -1.
       -4    1    3    3    0  502 -0.53471980060E+03  0.12364951669E+04  0.50792430693E+03  0.14397340996E+04  0.12699999809E+01 0.  1.
</event>
<event>
 5   0  0.4439357E-06  0.2636958E+04  0.7818609E-02  0.8355755E-01
        2   -1    0    0  501    0  0.00000000000E+00  0.00000000000E+00  0.78291606293E+03  0.78291606294E+03  0.25500000920E-02 0.  1.
       -2   -1    0    0    0  501  0.00000000000E+00  0.00000000000E+00 -0.22203994991E+04  0.22203994991E+04  0.25500000920E-02 0. -1.
    10030    2    1    2    0    0  0.00000000000E+00  0.00000000000E+00 -0.14374834362E+04  0.30033155621E+04  0.26369576667E+04 0.  0.
        4    1    3    3  502    0 -0.35521835553E+03 -0.79650525000E+03 -0.18449515132E+04  0.20406980160E+04  0.12699999809E+01 0. -1.
       -4    1    3    3    0  502  0.35521835553E+03  0.79650525000E+03  0.40746807700E+03  0.96261754610E+03  0.12699999809E+01 0.  1.
</event>
<event>
 5   0  0.1753474E-06  0.2722769E+04  0.7818609E-02  0.8327655E-01
        1   -1    0    0  501    0  0.00000000000E+00  0.00000000000E+00  0.11327562211E+04  0.11327562211E+04  0.50400001928E-02 0.  1.
       -1   -1    0    0    0  501  0.00000000000E+00  0.00000000000E+00 -0.16361581681E+04  0.16361581681E+04  0.50400001928E-02 0. -1.
    10030    2    1    2    0    0  0.00000000000E+00  0.00000000000E+00 -0.50340194693E+03  0.27689143892E+04  0.27227694310E+04 0.  0.
        3    1    3    3  502    0 -0.27579229880E+03  0.23615188284E+03  0.10826102035E+04  0.11418730082E+04  0.10100000352E+00 0.  1.
       -3    1    3    3    0  502  0.27579229880E+03 -0.23615188284E+03 -0.15860121505E+04  0.16270413810E+04  0.10100000352E+00 0. -1.
</event>
<event>
 5   0  0.4448804E-06  0.2689297E+04  0.7818609E-02  0.8338486E-01
        2   -1    0    0  501    0  0.00000000000E+00  0.00000000000E+00  0.18789960261E+04  0.18789960261E+04  0.25500000920E-02 0. -1.
       -2   -1    0    0    0  501  0.00000000000E+00  0.00000000000E+00 -0.96225865675E+03  0.96225865676E+03  0.25500000920E-02 0.  1.
    10030    2    1    2    0    0  0.00000000000E+00  0.00000000000E+00  0.91673736934E+03  0.28412546828E+04  0.26892974489E+04 0.  0.
        2    1    3    3  502    0 -0.37907177703E+03  0.14993656938E+03 -0.89540223041E+03  0.98383003674E+03  0.25500000920E-02 0.  1.
       -2    1    3    3    0  502  0.37907177703E+03 -0.14993656938E+03  0.18121395997E+04  0.18574246461E+04  0.25500000920E-02 0. -1.
</event>
<event>
 5   0  0.4401659E-06  0.2702039E+04  0.7818609E-02  0.8334344E-01
        2   -1    0    0  501    0  0.00000000000E+00  0.00000000000E+00  0.13720701683E+04  0.13720701683E+04  0.25500000920E-02 0.  1.
       -2   -1    0    0    0  501  0.00000000000E+00  0.00000000000E+00 -0.13302922787E+04  0.13302922787E+04  0.25500000920E-02 0. -1.
    10030    2    1    2    0    0  0.00000000000E+00  0.00000000000E+00  0.41777889562E+02  0.27023624470E+04  0.27020394895E+04 0.  0.
        5    1    3    3  502    0  0.88147259982E+03  0.26611770633E+03 -0.96787459940E+03  0.13358951710E+04  0.46999998093E+01 0.  1.
       -5    1    3    3    0  502 -0.88147259982E+03 -0.26611770633E+03  0.10096524890E+04  0.13664672760E+04  0.46999998093E+01 0. -1.
</event>
<event>
 5   0  0.4487186E-06  0.2712978E+04  0.7818609E-02  0.8330806E-01
       -2   -1    0    0    0  501  0.00000000000E+00  0.00000000000E+00  0.95876212020E+03  0.95876212021E+03  0.25500000920E-02 0.  1.
        2   -1    0    0  501    0  0.00000000000E+00  0.00000000000E+00 -0.19192069027E+04  0.19192069027E+04  0.25500000920E-02 0. -1.
    10030    2    1    2    0    0  0.00000000000E+00  0.00000000000E+00 -0.96044478246E+03  0.28779690229E+04  0.27129783480E+04 0.  0.
        3    1    3    3  502    0  0.56371699994E+03 -0.91691590447E+02  0.82500242268E+03  0.10034008229E+04  0.10100000352E+00 0.  1.
       -3    1    3    3    0  502 -0.56371699994E+03  0.91691590447E+02 -0.17854472051E+04  0.18745682000E+04  0.10100000352E+00 0. -1.
</event>
<event>
 5   0  0.1771016E-06  0.2714870E+04  0.7818609E-02  0.8330196E-01
        1   -1    0    0  501    0  0.00000000000E+00  0.00000000000E+00  0.10339840115E+04  0.10339840115E+04  0.50400001928E-02 0. -1.
       -1   -1    0    0    0  501  0.00000000000E+00  0.00000000000E+00 -0.17820682200E+04  0.17820682200E+04  0.50400001928E-02 0.  1.
    10030    2    1    2    0    0  0.00000000000E+00  0.00000000000E+00 -0.74808420845E+03  0.28160522315E+04  0.27148701972E+04 0.  0.
        2    1    3    3  502    0 -0.47743870334E+03 -0.13850502715E+03 -0.16842489418E+04  0.17560825311E+04  0.25500000920E-02 0.  1.
       -2    1    3    3    0  502  0.47743870334E+03  0.13850502715E+03  0.93616473332E+03  0.10599697005E+04  0.25500000920E-02 0. -1.
</event>
<event>
 5   0  0.4487186E-06  0.2630802E+04  0.7818609E-02  0.8357813E-01
       -2   -1    0    0    0  501  0.00000000000E+00  0.00000000000E+00  0.10091741428E+04  0.10091741428E+04  0.25500000920E-02 0. -1.
        2   -1    0    0  501    0  0.00000000000E+00  0.00000000000E+00 -0.17145497331E+04  0.17145497331E+04  0.25500000920E-02 0.  1.
    10030    2    1    2    0    0  0.00000000000E+00  0.00000000000E+00 -0.70537559023E+03  0.27237238759E+04  0.26308015943E+04 0.  0.
        3    1    3    3  502    0 -0.39599263567E+03  0.10740927906E+04  0.31811207389E+03  0.11881417390E+04  0.10100000352E+00 0. -1.
       -3    1    3    3    0  502  0.39599263567E+03 -0.10740927906E+04 -0.10234876641E+04  0.15355821369E+04  0.10100000352E+00 0.  1.
</event>
<event>
 5   0  0.1732312E-06  0.2700131E+04  0.7818609E-02  0.8334963E-01
        1   -1    0    0  501    0  0.00000000000E+00  0.00000000000E+00  0.18274001257E+04  0.18274001257E+04  0.50400001928E-02 0.  1.
       -1   -1    0    0    0  501  0.00000000000E+00  0.00000000000E+00 -0.99741519260E+03  0.99741519262E+03  0.50400001928E-02 0. -1.
    10030    2    1    2    0    0  0.00000000000E+00  0.00000000000E+00  0.82998493313E+03  0.28248153184E+04  0.27001308475E+04 0.  0.
        5    1    3    3  502    0 -0.89117087175E+03 -0.64346857163E+03 -0.40505113303E+03  0.11714631175E+04  0.46999998093E+01 0. -1.
       -5    1    3    3    0  502  0.89117087175E+03  0.64346857163E+03  0.12350360662E+04  0.16533522008E+04  0.46999998093E+01 0.  1.
</event>
<event>
 5   0  0.1753474E-06  0.2714213E+04  0.7818609E-02  0.8330408E-01
        1   -1    0    0  501    0  0.00000000000E+00  0.00000000000E+00  0.11721783381E+04  0.11721783381E+04  0.50400001928E-02 0. -1.
       -1   -1    0    0    0  501  0.00000000000E+00  0.00000000000E+00 -0.15712098589E+04  0.15712098589E+04  0.50400001928E-02 0.  1.
    10030    2    1    2    0    0  0.00000000000E+00  0.00000000000E+00 -0.39903152081E+03  0.27433881970E+04  0.27142130802E+04 0.  0.
        3    1    3    3  502    0  0.11434721459E+04  0.68148026968E+03 -0.46654150355E+03  0.14105335484E+04  0.10100000352E+00 0.  1.
       -3    1    3    3    0  502 -0.11434721459E+04 -0.68148026968E+03  0.67509982739E+02  0.13328546486E+04  0.10100000352E+00 0. -1.
</event>
<event>
 5   0  0.1723605E-06  0.2710574E+04  0.7818609E-02  0.8331582E-01
       -1   -1    0    0    0  501  0.00000000000E+00  0.00000000000E+00  0.10742732840E+04  0.10742732840E+04  0.50400001928E-02 0.  1.
        1   -1    0    0  501    0  0.00000000000E+00  0.00000000000E+00 -0.17098096339E+04  0.17098096339E+04  0.50400001928E-02 0. -1.
    10030    2    1    2    0    0  0.00000000000E+00  0.00000000000E+00 -0.63553634988E+03  0.27840829179E+04  0.27105739691E+04 0.  0.
        1    1    3    3  502    0 -0.12039981349E+04  0.31086062592E+03  0.23588341768E+03  0.12656566771E+04  0.50400001928E-02 0.  1.
       -1    1    3    3    0  502  0.12039981349E+04 -0.31086062592E+03 -0.87141976756E+03  0.15184262408E+04  0.50400001928E-02 0. -1.
</event>
<event>
 5   0  0.4439357E-06  0.2697615E+04  0.7818609E-02  0.8335779E-01
       -2   -1    0    0    0  501  0.00000000000E+00  0.00000000000E+00  0.89532777408E+03  0.89532777409E+03  0.25500000920E-02 0.  1.
        2   -1    0    0  501    0  0.00000000000E+00  0.00000000000E+00 -0.20319725546E+04  0.20319725546E+04  0.25500000920E-02 0. -1.
    10030    2    1    2    0    0  0.00000000000E+00  0.00000000000E+00 -0.11366447805E+04  0.29273003287E+04  0.26976148460E+04 0.  0.
        4    1    3    3  502    0  0.13279006190E+03 -0.94892880100E+03 -0.15984553886E+04  0.18636416802E+04  0.12699999809E+01 0. -1.
       -4    1    3    3    0  502 -0.13279006190E+03  0.94892880100E+03  0.46181060807E+03  0.10636586485E+04  0.12699999809E+01 0.  1.
</event>
<event>
 5   0  0.1723605E-06  0.2682974E+04  0.7818609E-02  0.8340551E-01
        1   -1    0    0  501    0  0.00000000000E+00  0.00000000000E+00  0.11618742501E+04  0.11618742501E+04  0.50400001928E-02 0.  1.
       -1   -1    0    0    0  501  0.00000000000E+00  0.00000000000E+00 -0.15488655388E+04  0.15488655388E+04  0.50400001928E-02 0. -1.
    10030    2    1    2    0    0  0.00000000000E+00  0.00000000000E+00 -0.38699128870E+03  0.27107397889E+04  0.26829737132E+04 0.  0.
        1    1    3    3  502    0 -0.59427687658E+03  0.84309244490E+03 -0.10600530215E+04  0.14790815681E+04  0.50400001928E-02 0. -1.
       -1    1    3    3    0  502  0.59427687658E+03 -0.84309244490E+03  0.67306173279E+03  0.12316582208E+04  0.50400001928E-02 0.  1.
</event>
<event>
 5   0  0.1482875E-06  0.2697644E+04  0.7818609E-02  0.8335770E-01
       -4   -1    0    0    0  501  0.00000000000E+00  0.00000000000E+00  0.11648887535E+04  0.11648894458E+04  0.12699999809E+01 0.  1.
        4   -1    0    0  501    0  0.00000000000E+00  0.00000000000E+00 -0.15617970355E+04  0.15617975519E+04  0.12699999809E+01 0. -1.
    10030    2    1    2    0    0  0.00000000000E+00  0.00000000000E+00 -0.39690828203E+03  0.27266869977E+04  0.26976444908E+04 0.  0.
        5    1    3    3  502    0  0.33165043473E+03  0.39059120566E+03 -0.14595829048E+04  0.15469188236E+04  0.46999998093E+01 0. -1.
       -5    1    3    3    0  502 -0.33165043473E+03 -0.39059120566E+03  0.10626746228E+04  0.11797681741E+04  0.46999998093E+01 0.  1.
</event>
<event>
 5   0  0.1732312E-06  0.2715536E+04  0.7818609E-02  0.8329982E-01
        1   -1    0    0  501    0  0.00000000000E+00  0.00000000000E+00  0.11612843172E+04  0.11612843172E+04  0.50400001928E-02 0. -1.
       -1   -1    0    0    0  501  0.00000000000E+00  0.00000000000E+00 -0.15874952712E+04  0.15874952712E+04  0.50400001928E-02 0.  1.
    10030    2    1    2    0    0  0.00000000000E+00  0.00000000000E+00 -0.42621095406E+03  0.27487795884E+04  0.27155355730E+04 0.  0.
        5    1    3    3  502    0 -0.12837911567E+04 -0.20163343243E+03 -0.61128543649E+03  0.14361294336E+04  0.46999998093E+01 0.  1.
       -5    1    3    3    0  502  0.12837911567E+04  0.20163343243E+03  0.18507448243E+03  0.13126501549E+04  0.46999998093E+01 0. -1.
</event>
<event>
 5   0  0.4448804E-06  0.2701059E+04  0.7818609E-02  0.8334661E-01
        2   -1    0    0  501    0  0.00000000000E+00  0.00000000000E+00  0.26874160410E+04  0.26874160410E+04  0.25500000920E-02 0.  1.
       -2   -1    0    0    0  501  0.00000000000E+00  0.00000000000E+00 -0.67869303459E+03  0.67869303460E+03  0.25500000920E-02 0. -1.
    10030    2    1    2    0    0  0.00000000000E+00  0.00000000000E+00  0.20087230064E+04  0.33661090756E+04  0.27010594574E+04 0.  0.
        2    1    3    3  502    0  0.82551600401E+03 -0.62693080742E+02 -0.32537328598E+03  0.88953632331E+03  0.25500000920E-02 0. -1.
       -2    1    3    3    0  502 -0.82551600401E+03  0.62693080742E+02  0.23340962924E+04  0.24765727523E+04  0.25500000920E-02 0.  1.
</event>
<event>
 5   0  0.4439357E-06  0.2699514E+04  0.7818609E-02  0.8335163E-01
       -2   -1    0    0    0  501  0.00000000000E+00  0.00000000000E+00  0.69709702947E+03  0.69709702948E+03  0.25500000920E-02 0.  1.
        2   -1    0    0  501    0  0.00000000000E+00  0.00000000000E+00 -0.26134717546E+04  0.26134717546E+04  0.25500000920E-02 0. -1.
    10030    2    1    2    0    0  0.00000000000E+00  0.00000000000E+00 -0.19163747251E+04  0.33105687840E+04  0.26995135834E+04 0.  0.
        4    1    3    3  502    0 -0.84882954830E+03 -0.19794697996E+03  0.30570313238E+03  0.92366153270E+03  0.12699999809E+01 0.  1.
       -4    1    3    3    0  502  0.84882954830E+03  0.19794697996E+03 -0.22220778575E+04  0.23869072513E+04  0.12699999809E+01 0. -1.
</event>
<event>
 5   0  0.4448804E-06  0.2666364E+04  0.7818609E-02  0.8346002E-01
        2   -1    0    0  501    0  0.00000000000E+00  0.00000000000E+00  0.17945201587E+04  0.17945201587E+04  0.25500000920E-02 0.  1.
       -2   -1    0    0    0  501  0.00000000000E+00  0.00000000000E+00 -0.99044503403E+03  0.99044503403E+03  0.25500000920E-02 0. -1.
    10030    2    1    2    0    0  0.00000000000E+00  0.00000000000E+00  0.80407512471E+03  0.27849651928E+04  0.26663635009E+04 0.  0.
        2    1    3    3  502    0  0.48542897055E+03  0.12114180624E+04  0.68654799147E+03  0.14746264448E+04  0.25500000920E-02 0.  1.
       -2    1    3    3    0  502 -0.48542897055E+03 -0.12114180624E+04  0.11752713324E+03  0.13103387479E+04  0.25500000920E-02 0. -1.
</event>
<event>
 5   0  0.1828511E-06  0.2704361E+04  0.7818609E-02  0.8333592E-01
       -1   -1    0    0    0  501  0.00000000000E+00  0.00000000000E+00  0.12008539037E+04  0.12008539038E+04  0.50400001928E-02 0. -1.
        1   -1    0    0  501    0  0.00000000000E+00  0.00000000000E+00 -0.15225761290E+04  0.15225761290E+04  0.50400001928E-02 0.  1.
    10030    2    1    2    0    0  0.00000000000E+00  0.00000000000E+00 -0.32172222524E+03  0.27234300327E+04  0.27043605442E+04 0.  0.
        4    1    3    3  502    0 -0.39350342941E+02  0.61409686820E+03  0.10516749511E+04  0.12184766016E+04  0.12699999809E+01 0. -1.
       -4    1    3    3    0  502  0.39350342941E+02 -0.61409686820E+03 -0.13733971763E+04  0.15049534311E+04  0.12699999809E+01 0.  1.
</event>
<event>
 5   0  0.4401659E-06  0.2685921E+04  0.7818609E-02  0.8339588E-01
       -2   -1    0    0    0  501  0.00000000000E+00  0.00000000000E+00  0.10436482605E+04  0.10436482605E+04  0.25500000920E-02 0.  1.
        2   -1    0    0  501    0  0.00000000000E+00  0.00000000000E+00 -0.17281138174E+04  0.17281138174E+04  0.25500000920E-02 0. -1.
    10030    2    1    2    0    0  0.00000000000E+00  0.00000000000E+00 -0.68446555691E+03  0.27717620778E+04  0.26859210557E+04 0.  0.
        5    1    3    3  502    0  0.80016995666E+01 -0.47115209519E+02 -0.17272275594E+04  0.17278949627E+04  0.46999998093E+01 0. -1.
       -5    1    3    3    0  502 -0.80016995666E+01  0.47115209519E+02  0.10427620025E+04  0.10438671151E+04  0.46999998093E+01 0.  1.
</event>
<event>
 5   0  0.1771016E-06  0.2704241E+04  0.7818609E-02  0.8333630E-01
        1   -1    0    0  501    0  0.00000000000E+00  0.00000000000E+00  0.13780496038E+04  0.13780496038E+04  0.50400001928E-02 0.  1.
       -1   -1    0    0    0  501  0.00000000000E+00  0.00000000000E+00 -0.13266792894E+04  0.13266792894E+04  0.50400001928E-02 0. -1.
    10030    2    1    2    0    0  0.00000000000E+00  0.00000000000E+00  0.51370314404E+02  0.27047288933E+04  0.27042410168E+04 0.  0.
        2    1    3    3  502    0  0.43887989177E+03  0.54364318307E+03 -0.11321360596E+04  0.13303742057E+04  0.25500000920E-02 0. -1.
       -2    1    3    3    0  502 -0.43887989177E+03 -0.54364318307E+03  0.11835063740E+04  0.13743546875E+04  0.25500000920E-02 0.  1.
</event>
<event>
 5   0  0.1723605E-06  0.2669737E+04  0.7818609E-02  0.8344891E-01
       -1   -1    0    0    0  501  0.00000000000E+00  0.00000000000E+00  0.13366118299E+04  0.13366118299E+04  0.50400001928E-02 0.  1.
        1   -1    0    0  501    0  0.00000000000E+00  0.00000000000E+00 -0.13331279181E+04  0.13331279181E+04  0.50400001928E-02 0. -1.
    10030    2    1    2    0    0  0.00000000000E+00  0.00000000000E+00  0.34839117890E+01  0.26697397480E+04  0.26697374749E+04 0.  0.
        1    1    3    3  502    0 -0.28090189013E+03  0.62277814008E+03 -0.11450441192E+04  0.13333733605E+04  0.50400001928E-02 0. -1.
       -1    1    3    3    0  502  0.28090189013E+03 -0.62277814008E+03  0.11485280310E+04  0.13363663875E+04  0.50400001928E-02 0.  1.
</event>
<event>
 5   0  0.1732312E-06  0.2707242E+04  0.7818609E-02  0.8332659E-01
        1   -1    0    0  501    0  0.00000000000E+00  0.00000000000E+00  0.18736752530E+04  0.18736752530E+04  0.50400001928E-02 0. -1.
       -1   -1    0    0    0  501  0.00000000000E+00  0.00000000000E+00 -0.97791219690E+03  0.97791219692E+03  0.50400001928E-02 0.  1.
    10030    2    1    2    0    0  0.00000000000E+00  0.00000000000E+00  0.89576305613E+03  0.28515874500E+04  0.27072420527E+04 0.  0.
        5    1    3    3  502    0 -0.51142077730E+03  0.82333996806E+03  0.14431574063E+04  0.17384376042E+04  0.46999998093E+01 0. -1.
       -5    1    3    3    0  502  0.51142077730E+03 -0.82333996806E+03 -0.54739435016E+03  0.11131498457E+04  0.46999998093E+01 0.  1.
</event>
<event>
 5   0  0.1828511E-06  0.2693837E+04  0.7818609E-02  0.8337007E-01
        1   -1    0    0  501    0  0.00000000000E+00  0.00000000000E+00  0.17468317851E+04  0.17468317851E+04  0.50400001928E-02 0. -1.
       -1   -1    0    0    0  501  0.00000000000E+00  0.00000000000E+00 -0.10385599507E+04  0.10385599508E+04  0.50400001928E-02 0.  1.
    10030    2    1    2    0    0  0.00000000000E+00  0.00000000000E+00  0.70827183433E+03  0.27853917358E+04  0.26938370646E+04 0.  0.
        4    1    3    3  502    0 -0.30487917120E+03 -0.99048575378E+03  0.12437098376E+04  0.16188974985E+04  0.12699999809E+01 0. -1.
       -4    1    3    3    0  502  0.30487917120E+03  0.99048575378E+03 -0.53543800331E+03  0.11664942373E+04  0.12699999809E+01 0.  1.
</event>
<event>
 5   0  0.4655882E-06  0.2699579E+04  0.7818609E-02  0.8335142E-01
       -2   -1    0    0    0  501  0.00000000000E+00  0.00000000000E+00  0.14304579891E+04  0.14304579891E+04  0.25500000920E-02 0. -1.
        2   -1    0    0  501    0  0.00000000000E+00  0.00000000000E+00 -0.12736703472E+04  0.12736703472E+04  0.25500000920E-02 0.  1.
    10030    2    1    2    0    0  0.00000000000E+00  0.00000000000E+00  0.15678764189E+03  0.27041283363E+04  0.26995791699E+04 0.  0.
        1    1    3    3  502    0  0.92331448227E+03  0.94438243002E+03 -0.20057884652E+03  0.13358890976E+04  0.50400001928E-02 0.  1.
       -1    1    3    3    0  502 -0.92331448227E+03 -0.94438243002E+03  0.35736648841E+03  0.13682392387E+04  0.50400001928E-02 0. -1.
</event>
<event>
 5   0  0.1723605E-06  0.2691031E+04  0.7818609E-02  0.8337921E-01
       -1   -1    0    0    0  501  0.00000000000E+00  0.00000000000E+00  0.12606638559E+04  0.12606638559E+04  0.50400001928E-02 0. -1.
        1   -1    0    0  501    0  0.00000000000E+00  0.00000000000E+00 -0.14360782634E+04  0.14360782634E+04  0.50400001928E-02 0.  1.
    10030    2    1    2    0    0  0.00000000000E+00  0.00000000000E+00 -0.17541440757E+03  0.26967421193E+04  0.26910310001E+04 0.  0.
        1    1    3    3  502    0  0.98227493850E+03 -0.44639476086E+03  0.71791411303E+03  0.12959679823E+04  0.50400001928E-02 0. -1.
       -1    1    3    3    0  502 -0.98227493850E+03  0.44639476086E+03 -0.89332852060E+03  0.14007741371E+04  0.50400001928E-02 0.  1.
</event>
<event>
 5   0  0.4487186E-06  0.2695389E+04  0.7818609E-02  0.8336503E-01
       -2   -1    0    0    0  501  0.00000000000E+00  0.00000000000E+00  0.15873359158E+04  0.15873359158E+04  0.25500000920E-02 0. -1.
        2   -1    0    0  501    0  0.00000000000E+00  0.00000000000E+00 -0.11442317194E+04  0.11442317194E+04  0.25500000920E-02 0.  1.
    10030    2    1    2    0    0  0.00000000000E+00  0.00000000000E+00  0.44310419641E+03  0.27315676352E+04  0.26953887320E+04 0.  0.
        3    1    3    3  502    0 -0.38785739803E+03 -0.49706092044E+03 -0.98556012126E+03  0.11699708042E+04  0.10100000352E+00 0.  1.
       -3    1    3    3    0  502  0.38785739803E+03  0.49706092044E+03  0.14286643177E+04  0.15615968310E+04  0.10100000352E+00 0. -1.
</event>
<event>
 5   0  0.4655882E-06  0.2690600E+04  0.7818609E-02  0.8338061E-01
        2   -1    0    0  501    0  0.00000000000E+00  0.00000000000E+00  0.14672308645E+04  0.14672308645E+04  0.25500000920E-02 0.  1.
       -2   -1    0    0    0  501  0.00000000000E+00  0.00000000000E+00 -0.12335023274E+04  0.12335023274E+04  0.25500000920E-02 0. -1.
    10030    2    1    2    0    0  0.00000000000E+00  0.00000000000E+00  0.23372853715E+03  0.27007331919E+04  0.26906004431E+04 0.  0.
        1    1    3    3  502    0  0.44232493131E+03  0.22064917033E+03  0.13727737944E+04  0.14590563018E+04  0.50400001928E-02 0.  1.
       -1    1    3    3    0  502 -0.44232493131E+03 -0.22064917033E+03 -0.11390452572E+04  0.12416768901E+04  0.50400001928E-02 0. -1.
</event>
<event>
 5   0  0.4655882E-06  0.2600793E+04  0.7818609E-02  0.8367932E-01
       -2   -1    0    0    0  501  0.00000000000E+00  0.00000000000E+00  0.16900028252E+04  0.16900028252E+04  0.25500000920E-02 0. -1.
        2   -1    0    0  501    0  0.00000000000E+00  0.00000000000E+00 -0.10006087215E+04  0.10006087215E+04  0.25500000920E-02 0.  1.
    10030    2    1    2    0    0  0.00000000000E+00  0.00000000000E+00  0.68939410365E+03  0.26906115467E+04  0.26007933915E+04 0.  0.
        1    1    3    3  502    0 -0.17481979522E+03 -0.30285203124E+03  0.16404495447E+04  0.16773061803E+04  0.50400001928E-02 0. -1.
       -1    1    3    3    0  502  0.17481979522E+03  0.30285203124E+03 -0.95105544106E+03  0.10133053664E+04  0.50400001928E-02 0.  1.
</event>
<event>
 5   0  0.4401659E-06  0.2705975E+04  0.7818609E-02  0.8333069E-01
       -2   -1    0    0    0  501  0.00000000000E+00  0.00000000000E+00  0.75675480609E+03  0.75675480610E+03  0.25500000920E-02 0.  1.
        2   -1    0    0  501    0  0.00000000000E+00  0.00000000000E+00 -0.24189799562E+04  0.24189799562E+04  0.25500000920E-02 0. -1.
    10030    2    1    2    0    0  0.00000000000E+00  0.00000000000E+00 -0.16622251501E+04  0.31757347623E+04  0.27059746545E+04 0.  0.
        5    1    3    3  502    0  0.49236811399E+03 -0.21811184051E+03 -0.22877749027E+04  0.23503053483E+04  0.46999998093E+01 0. -1.
       -5    1    3    3    0  502 -0.49236811399E+03  0.21811184051E+03  0.62554975257E+03  0.82542941406E+03  0.46999998093E+01 0.  1.
</event>
<event>
 5   0  0.1732312E-06  0.2692266E+04  0.7818609E-02  0.8337519E-01
       -1   -1    0    0    0  501  0.00000000000E+00  0.00000000000E+00  0.10986788193E+04  0.10986788193E+04  0.50400001928E-02 0. -1.
        1   -1    0    0  501    0  0.00000000000E+00  0.00000000000E+00 -0.16493208209E+04  0.16493208209E+04  0.50400001928E-02 0.  1.
    10030    2    1    2    0    0  0.00000000000E+00  0.00000000000E+00 -0.55064200152E+03  0.27479996402E+04  0.26922658503E+04 0.  0.
        5    1    3    3  502    0  0.74618424578E+03 -0.86010785388E+03 -0.10081500302E+04  0.15208435233E+04  0.46999998093E+01 0.  1.
       -5    1    3    3    0  502 -0.74618424578E+03  0.86010785388E+03  0.45750802869E+03  0.12271561169E+04  0.46999998093E+01 0. -1.
</event>
<event>
 5   0  0.4487186E-06  0.2703254E+04  0.7818609E-02  0.8333950E-01
        2   -1    0    0  501    0  0.00000000000E+00  0.00000000000E+00  0.12323106415E+04  0.12323106415E+04  0.25500000920E-02 0.  1.
       -2   -1    0    0    0  501  0.00000000000E+00  0.00000000000E+00 -0.14824964946E+04  0.14824964947E+04  0.25500000920E-02 0. -1.
    10030    2    1    2    0    0  0.00000000000E+00  0.00000000000E+00 -0.25018585312E+03  0.27148071362E+04  0.27032544878E+04 0.  0.
        3    1    3    3  502    0  0.99926884788E+03 -0.81359856549E+03  0.28459081380E+03  0.13196487402E+04  0.10100000352E+00 0.  1.
       -3    1    3    3    0  502 -0.99926884788E+03  0.81359856549E+03 -0.53477666692E+03  0.13951583960E+04  0.10100000352E+00 0. -1.
</event>
<event>
 5   0  0.1828511E-06  0.2700246E+04  0.7818609E-02  0.8334925E-01
       -1   -1    0    0    0  501  0.00000000000E+00  0.00000000000E+00  0.96208320041E+03  0.96208320042E+03  0.50400001928E-02 0. -1.
        1   -1    0    0  501    0  0.00000000000E+00  0.00000000000E+00 -0.18946713862E+04  0.18946713863E+04  0.50400001928E-02 0.  1.
    10030    2    1    2    0    0  0.00000000000E+00  0.00000000000E+00 -0.93258818584E+03  0.28567545867E+04  0.27002455526E+04 0.  0.
        4    1    3    3  502    0  0.69763781282E+02 -0.11494258039E+04 -0.12119751990E+04  0.16718050604E+04  0.12699999809E+01 0.  1.
       -4    1    3    3    0  502 -0.69763781282E+02  0.11494258039E+04  0.27938701319E+03  0.11849495263E+04  0.12699999809E+01 0. -1.
</event>
<event>
 5   0  0.1723605E-06  0.2737414E+04  0.7818609E-02  0.8322966E-01
        1   -1    0    0  501    0  0.00000000000E+00  0.00000000000E+00  0.17853168527E+04  0.17853168527E+04  0.50400001928E-02 0.  1.
       -1   -1    0    0    0  501  0.00000000000E+00  0.00000000000E+00 -0.10493148427E+04  0.10493148427E+04  0.50400001928E-02 0. -1.
    10030    2    1    2    0    0  0.00000000000E+00  0.00000000000E+00  0.73600201000E+03  0.28346316954E+04  0.27374144534E+04 0.  0.
        1    1    3    3  502    0 -0.94711511728E+03  0.19258634280E+03 -0.63556293912E+03  0.11567440488E+04  0.50400001928E-02 0.  1.
       -1    1    3    3    0  502  0.94711511728E+03 -0.19258634280E+03  0.13715649491E+04  0.16778876466E+04  0.50400001928E-02 0. -1.
</event>
<event>
 5   0  0.1753474E-06  0.2728488E+04  0.7818609E-02  0.8325820E-01
        1   -1    0    0  501    0  0.00000000000E+00  0.00000000000E+00  0.14588614255E+04  0.14588614255E+04  0.50400001928E-02 0.  1.
       -1   -1    0    0    0  501  0.00000000000E+00  0.00000000000E+00 -0.12757635036E+04  0.12757635036E+04  0.50400001928E-02 0. -1.
    10030    2    1    2    0    0  0.00000000000E+00  0.00000000000E+00  0.18309792190E+03  0.27346249292E+04  0.27284883460E+04 0.  0.
        3    1    3    3  502    0  0.31971455372E+03  0.76516257893E+03 -0.99415605273E+03  0.12946186448E+04  0.10100000352E+00 0. -1.
       -3    1    3    3    0  502 -0.31971455372E+03 -0.76516257893E+03  0.11772539746E+04  0.14400062844E+04  0.10100000352E+00 0.  1.
</event>
<event>
 5   0  0.1753474E-06  0.2705198E+04  0.7818609E-02  0.8333321E-01
       -1   -1    0    0    0  501  0.00000000000E+00  0.00000000000E+00  0.98335509065E+03  0.98335509066E+03  0.50400001928E-02 0.  1.
        1   -1    0    0  501    0  0.00000000000E+00  0.00000000000E+00 -0.18604911033E+04  0.18604911033E+04  0.50400001928E-02 0. -1.
    10030    2    1    2    0    0  0.00000000000E+00  0.00000000000E+00 -0.87713601264E+03  0.28438461940E+04  0.27051975141E+04 0.  0.
        3    1    3    3  502    0 -0.76191470562E+02 -0.13405218673E+04 -0.26672960051E+03  0.13689224620E+04  0.10100000352E+00 0. -1.
       -3    1    3    3    0  502  0.76191470562E+02  0.13405218673E+04 -0.61040641213E+03  0.14749237320E+04  0.10100000352E+00 0.  1.
</event>
<event>
 5   0  0.4448804E-06  0.2670142E+04  0.7818609E-02  0.8344758E-01
       -2   -1    0    0    0  501  0.00000000000E+00  0.00000000000E+00  0.99662670611E+03  0.99662670612E+03  0.25500000920E-02 0. -1.
        2   -1    0    0  501    0  0.00000000000E+00  0.00000000000E+00 -0.17884473032E+04  0.17884473032E+04  0.25500000920E-02 0.  1.
    10030    2    1    2    0    0  0.00000000000E+00  0.00000000000E+00 -0.79182059709E+03  0.27850740093E+04  0.26701418276E+04 0.  0.
        2    1    3    3  502    0 -0.16040732057E+03 -0.12851911156E+04 -0.73384291558E+03  0.14886141666E+04  0.25500000920E-02 0.  1.
       -2    1    3    3    0  502  0.16040732057E+03  0.12851911156E+04 -0.57977681508E+02  0.12964598427E+04  0.25500000920E-02 0. -1.
</event>
<event>
 5   0  0.1732312E-06  0.2698731E+04  0.7818609E-02  0.8335417E-01
       -1   -1    0    0    0  501  0.00000000000E+00  0.00000000000E+00  0.14596666198E+04  0.14596666198E+04  0.50400001928E-02 0. -1.
        1   -1    0    0  501    0  0.00000000000E+00  0.00000000000E+00 -0.12473991726E+04  0.12473991726E+04  0.50400001928E-02 0.  1.
    10030    2    1    2    0    0  0.00000000000E+00  0.00000000000E+00  0.21226744718E+03  0.27070657924E+04  0.26987307638E+04 0.  0.
        5    1    3    3  502    0 -0.49926123493E+03  0.93854523835E+03  0.93974547004E+03  0.14188983697E+04  0.46999998093E+01 0. -1.
       -5    1    3    3    0  502  0.49926123493E+03 -0.93854523835E+03 -0.72747802286E+03  0.12881674227E+04  0.46999998093E+01 0.  1.
</event>
<event>
 5   0  0.4401659E-06  0.2700396E+04  0.7818609E-02  0.8334876E-01
       -2   -1    0    0    0  501  0.00000000000E+00  0.00000000000E+00  0.11207098571E+04  0.11207098571E+04  0.25500000920E-02 0.  1.
        2   -1    0    0  501    0  0.00000000000E+00  0.00000000000E+00 -0.16266785769E+04  0.16266785769E+04  0.25500000920E-02 0. -1.
    10030    2    1    2    0    0  0.00000000000E+00  0.00000000000E+00 -0.50596871980E+03  0.27473884340E+04  0.27003960565E+04 0.  0.
        5    1    3    3  502    0  0.76714219414E+02  0.12335685573E+04  0.30001474916E+03  0.12718519555E+04  0.46999998093E+01 0.  1.
       -5    1    3    3    0  502 -0.76714219414E+02 -0.12335685573E+04 -0.80598346897E+03  0.14755364785E+04  0.46999998093E+01 0. -1.
</event>
<event>
 5   0  0.1771016E-06  0.2705265E+04  0.7818609E-02  0.8333299E-01
       -1   -1    0    0    0  501  0.00000000000E+00  0.00000000000E+00  0.10749178019E+04  0.10749178020E+04  0.50400001928E-02 0.  1.
        1   -1    0    0  501    0  0.00000000000E+00  0.00000000000E+00 -0.17020972728E+04  0.17020972728E+04  0.50400001928E-02 0. -1.
    10030    2    1    2    0    0  0.00000000000E+00  0.00000000000E+00 -0.62717947084E+03  0.27770150748E+04  0.27052649846E+04 0.  0.
        2    1    3    3  502    0  0.91153950293E+02 -0.67177406203E+03 -0.15151144487E+04  0.16598678338E+04  0.25500000920E-02 0. -1.
       -2    1    3    3    0  502 -0.91153950293E+02  0.67177406203E+03  0.88793497785E+03  0.11171472409E+04  0.25500000920E-02 0.  1.
</event>
<event>
 5   0  0.1771016E-06  0.2699926E+04  0.7818609E-02  0.8335029E-01
       -1   -1    0    0    0  501  0.00000000000E+00  0.00000000000E+00  0.11453805323E+04  0.11453805323E+04  0.50400001928E-02 0.  1.
        1   -1    0    0  501    0  0.00000000000E+00  0.00000000000E+00 -0.15910875147E+04  0.15910875147E+04  0.50400001928E-02 0. -1.
    10030    2    1    2    0    0  0.00000000000E+00  0.00000000000E+00 -0.44570698240E+03  0.27364680469E+04  0.26999264171E+04 0.  0.
        2    1    3    3  502    0 -0.66088892025E+03  0.96680524040E+03 -0.90344319385E+03  0.14790862525E+04  0.25500000920E-02 0. -1.
       -2    1    3    3    0  502  0.66088892025E+03 -0.96680524040E+03  0.45773621145E+03  0.12573817945E+04  0.25500000920E-02 0.  1.
</event>
<event>
 5   0  0.1723605E-06  0.2689069E+04  0.7818609E-02  0.8338561E-01
        1   -1    0    0  501    0  0.00000000000E+00  0.00000000000E+00  0.16658246072E+04  0.16658246072E+04  0.50400001928E-02 0.  1.
       -1   -1    0    0    0  501  0.00000000000E+00  0.00000000000E+00 -0.10852117411E+04  0.10852117411E+04  0.50400001928E-02 0. -1.
    10030    2    1    2    0    0  0.00000000000E+00  0.00000000000E+00  0.58061286603E+03  0.27510363483E+04  0.26890685543E+04 0.  0.
        1    1    3    3  502    0  0.83884000029E+03  0.61754507853E+03 -0.57943647037E+03  0.11919568337E+04  0.50400001928E-02 0. -1.
       -1    1    3    3    0  502 -0.83884000029E+03 -0.61754507853E+03  0.11600493364E+04  0.15590795147E+04  0.50400001928E-02 0.  1.
</event>
<event>
 5   0  0.1771016E-06  0.2705059E+04  0.7818609E-02  0.8333365E-01
        1   -1    0    0  501    0  0.00000000000E+00  0.00000000000E+00  0.13214841033E+04  0.13214841033E+04  0.50400001928E-02 0. -1.
       -1   -1    0    0    0  501  0.00000000000E+00  0.00000000000E+00 -0.13843042061E+04  0.13843042061E+04  0.50400001928E-02 0.  1.
    10030    2    1    2    0    0  0.00000000000E+00  0.00000000000E+00 -0.62820102816E+02  0.27057883094E+04  0.27050589661E+04 0.  0.
        2    1    3    3  502    0  0.71233312390E+03 -0.89915380532E+03 -0.74815049549E+03  0.13695346688E+04  0.25500000920E-02 0.  1.
       -2    1    3    3    0  502 -0.71233312390E+03  0.89915380532E+03  0.68533039267E+03  0.13362536406E+04  0.25500000920E-02 0. -1.
</event>
<event>
 5   0  0.4655882E-06  0.2699575E+04  0.7818609E-02  0.8335143E-01
       -2   -1    0    0    0  501  0.00000000000E+00  0.00000000000E+00  0.81138417457E+03  0.81138417458E+03  0.25500000920E-02 0.  1.
        2   -1    0    0  501    0  0.00000000000E+00  0.00000000000E+00 -0.22454552589E+04  0.22454552589E+04  0.25500000920E-02 0. -1.
    10030    2    1    2    0    0  0.00000000000E+00  0.00000000000E+00 -0.14340710844E+04  0.30568394335E+04  0.26995754198E+04 0.  0.
        1    1    3    3  502    0  0.10721395482E+04 -0.38957697562E+02  0.21046560728E+03  0.10932962475E+04  0.50400001928E-02 0. -1.
       -1    1    3    3    0  502 -0.10721395482E+04  0.38957697562E+02 -0.16445366916E+04  0.19635431860E+04  0.50400001928E-02 0.  1.
</event>
<event>
 5   0  0.4655882E-06  0.2709482E+04  0.7818609E-02  0.8331935E-01
        2   -1    0    0  501    0  0.00000000000E+00  0.00000000000E+00  0.23860361775E+04  0.23860361775E+04  0.25500000920E-02 0. -1.
       -2   -1    0    0    0  501  0.00000000000E+00  0.00000000000E+00 -0.76919319791E+03  0.76919319791E+03  0.25500000920E-02 0.  1.
    10030    2    1    2    0    0  0.00000000000E+00  0.00000000000E+00  0.16168429795E+04  0.31552293754E+04  0.27094817199E+04 0.  0.
        1    1    3    3  502    0 -0.13240881908E+04 -0.10031225284E+03  0.49583957190E+03  0.14174374646E+04  0.50400001928E-02 0.  1.
       -1    1    3    3    0  502  0.13240881908E+04  0.10031225284E+03  0.11210034076E+04  0.17377919107E+04  0.50400001928E-02 0. -1.
</event>
<event>
 5   0  0.1828511E-06  0.2695270E+04  0.7818609E-02  0.8336541E-01
        1   -1    0    0  501    0  0.00000000000E+00  0.00000000000E+00  0.18513204916E+04  0.18513204917E+04  0.50400001928E-02 0.  1.
       -1   -1    0    0    0  501  0.00000000000E+00  0.00000000000E+00 -0.98098618283E+03  0.98098618284E+03  0.50400001928E-02 0. -1.
    10030    2    1    2    0    0  0.00000000000E+00  0.00000000000E+00  0.87033430882E+03  0.28323066745E+04  0.26952697990E+04 0.  0.
        4    1    3    3  502    0  0.44312312360E+02  0.17815417835E+03 -0.96778394055E+03  0.98504307559E+03  0.12699999809E+01 0. -1.
       -4    1    3    3    0  502 -0.44312312360E+02 -0.17815417835E+03  0.18381182494E+04  0.18472635989E+04  0.12699999809E+01 0.  1.
</event>
<event>
 5   0  0.4401659E-06  0.2694165E+04  0.7818609E-02  0.8336901E-01
       -2   -1    0    0    0  501  0.00000000000E+00  0.00000000000E+00  0.99305231809E+03  0.99305231809E+03  0.25500000920E-02 0. -1.
        2   -1    0    0  501    0  0.00000000000E+00  0.00000000000E+00 -0.18273264919E+04  0.18273264919E+04  0.25500000920E-02 0.  1.
    10030    2    1    2    0    0  0.00000000000E+00  0.00000000000E+00 -0.83427417379E+03  0.28203788100E+04  0.26941646636E+04 0.  0.
        5    1    3    3  502    0  0.27597427525E+02  0.11090359392E+04 -0.12170587938E+04  0.16468079822E+04  0.46999998093E+01 0. -1.
       -5    1    3    3    0  502 -0.27597427525E+02 -0.11090359392E+04  0.38278462004E+03  0.11735708278E+04  0.46999998093E+01 0.  1.
</event>
<event>
 5   0  0.1732312E-06  0.2761739E+04  0.7818609E-02  0.8315246E-01
        1   -1    0    0  501    0  0.00000000000E+00  0.00000000000E+00  0.18431723804E+04  0.18431723804E+04  0.50400001928E-02 0. -1.
       -1   -1    0    0    0  501  0.00000000000E+00  0.00000000000E+00 -0.10345210671E+04  0.10345210671E+04  0.50400001928E-02 0.  1.
    10030    2    1    2    0    0  0.00000000000E+00  0.00000000000E+00  0.80865131332E+03  0.28776934475E+04  0.27617390593E+04 0.  0.
        5    1    3    3  502    0 -0.68737572143E+03 -0.11705060017E+04  0.14029190233E+03  0.13646514538E+04  0.46999998093E+01 0.  1.
       -5    1    3    3    0  502  0.68737572143E+03  0.11705060017E+04  0.66835941099E+03  0.15130419937E+04  0.46999998093E+01 0. -1.
</event>
<event>
 5   0  0.1771016E-06  0.2668424E+04  0.7818609E-02  0.8345324E-01
        1   -1    0    0  501    0  0.00000000000E+00  0.00000000000E+00  0.22510857963E+04  0.22510857963E+04  0.50400001928E-02 0. -1.
       -1   -1    0    0    0  501  0.00000000000E+00  0.00000000000E+00 -0.79078351107E+03  0.79078351108E+03  0.50400001928E-02 0.  1.
    10030    2    1    2    0    0  0.00000000000E+00  0.00000000000E+00  0.14603022852E+04  0.30418693074E+04  0.26684239017E+04 0.  0.
        2    1    3    3  502    0 -0.53884231720E+03  0.95474090139E+03  0.15969930642E+04  0.19370772000E+04  0.25500000920E-02 0. -1.
       -2    1    3    3    0  502  0.53884231720E+03 -0.95474090139E+03 -0.13669077894E+03  0.11047921074E+04  0.25500000920E-02 0.  1.
</event>
<event>
 5   0  0.4401659E-06  0.2706465E+04  0.7818609E-02  0.8332910E-01
       -2   -1    0    0    0  501  0.00000000000E+00  0.00000000000E+00  0.10847902103E+04  0.10847902103E+04  0.25500000920E-02 0. -1.
        2   -1    0    0  501    0  0.00000000000E+00  0.00000000000E+00 -0.16881041018E+04  0.16881041018E+04  0.25500000920E-02 0.  1.
    10030    2    1    2    0    0  0.00000000000E+00  0.00000000000E+00 -0.60331389155E+03  0.27728943121E+04  0.27064654467E+04 0.  0.
        5    1    3    3  502    0  0.12784209174E+04  0.40562328547E+02  0.15101479542E+03  0.12879568715E+04  0.46999998093E+01 0. -1.
       -5    1    3    3    0  502 -0.12784209174E+04 -0.40562328547E+02 -0.75432868697E+03  0.14849374406E+04  0.46999998093E+01 0.  1.
</event>
<event>
 5   0  0.4655882E-06  0.2706075E+04  0.7818609E-02  0.8333036E-01
        2   -1    0    0  501    0  0.00000000000E+00  0.00000000000E+00  0.22263284204E+04  0.22263284204E+04  0.25500000920E-02 0. -1.
       -2   -1    0    0    0  501  0.00000000000E+00  0.00000000000E+00 -0.82230035529E+03  0.82230035529E+03  0.25500000920E-02 0.  1.
    10030    2    1    2    0    0  0.00000000000E+00  0.00000000000E+00  0.14040280651E+04  0.30486287757E+04  0.27060751291E+04 0.  0.
        1    1    3    3  502    0 -0.13470858132E+04 -0.56068178015E+02  0.57392540143E+03  0.14653239216E+04  0.50400001928E-02 0.  1.
       -1    1    3    3    0  502  0.13470858132E+04  0.56068178015E+02  0.83010266371E+03  0.15833048541E+04  0.50400001928E-02 0. -1.
</event>
<event>
 5   0  0.1828511E-06  0.2692188E+04  0.7818609E-02  0.8337544E-01
        1   -1    0    0  501    0  0.00000000000E+00  0.00000000000E+00  0.10091964625E+04  0.10091964625E+04  0.50400001928E-02 0. -1.
       -1   -1    0    0    0  501  0.00000000000E+00  0.00000000000E+00 -0.17954566157E+04  0.17954566157E+04  0.50400001928E-02 0.  1.
    10030    2    1    2    0    0  0.00000000000E+00  0.00000000000E+00 -0.78626015324E+03  0.28046530782E+04  0.26921875604E+04 0.  0.
        4    1    3    3  502    0  0.13017271206E+04 -0.33919291332E+03 -0.44439474534E+03  0.14166981441E+04  0.12699999809E+01 0. -1.
       -4    1    3    3    0  502 -0.13017271206E+04  0.33919291332E+03 -0.34186540791E+03  0.13879549341E+04  0.12699999809E+01 0.  1.
</event>
<event>
 5   0  0.1482875E-06  0.2702471E+04  0.7818609E-02  0.8334204E-01
       -3   -1    0    0    0  501  0.00000000000E+00  0.00000000000E+00  0.15881959110E+04  0.15881959143E+04  0.10100000352E+00 0.  1.
        3   -1    0    0  501    0  0.00000000000E+00  0.00000000000E+00 -0.11496295667E+04  0.11496295711E+04  0.10100000352E+00 0. -1.
    10030    2    1    2    0    0  0.00000000000E+00  0.00000000000E+00  0.43856634438E+03  0.27378254853E+04  0.27024707121E+04 0.  0.
        1    1    3    3  502    0  0.70922551908E+03  0.91345824235E+03  0.92730397119E+03  0.14823290635E+04  0.50400001928E-02 0.  1.
       -1    1    3    3    0  502 -0.70922551908E+03 -0.91345824235E+03 -0.48873762682E+03  0.12554964219E+04  0.50400001928E-02 0. -1.
</event>
<event>
 5   0  0.1732312E-06  0.2700003E+04  0.7818609E-02  0.8335004E-01
        1   -1    0    0  501    0  0.00000000000E+00  0.00000000000E+00  0.17358042101E+04  0.17358042101E+04  0.50400001928E-02 0. -1.
       -1   -1    0    0    0  501  0.00000000000E+00  0.00000000000E+00 -0.10499478504E+04  0.10499478504E+04  0.50400001928E-02 0.  1.
    10030    2    1    2    0    0  0.00000000000E+00  0.00000000000E+00  0.68585635964E+03  0.27857520605E+04  0.27000028882E+04 0.  0.
        5    1    3    3  502    0  0.79772317960E+03 -0.91337014367E+03  0.95495737668E+03  0.15435585418E+04  0.46999998093E+01 0. -1.
       -5    1    3    3    0  502 -0.79772317960E+03  0.91337014367E+03 -0.26910101704E+03  0.12421935187E+04  0.46999998093E+01 0.  1.
</event>
<event>
 5   0  0.1753474E-06  0.2699025E+04  0.7818609E-02  0.8335321E-01
       -1   -1    0    0    0  501  0.00000000000E+00  0.00000000000E+00  0.19791537031E+04  0.19791537031E+04  0.50400001928E-02 0.  1.
        1   -1    0    0  501    0  0.00000000000E+00  0.00000000000E+00 -0.92018338910E+03  0.92018338911E+03  0.50400001928E-02 0. -1.
    10030    2    1    2    0    0  0.00000000000E+00  0.00000000000E+00  0.10589703140E+04  0.28993370922E+04  0.26990252774E+04 0.  0.
        3    1    3    3  502    0  0.59145713945E+02  0.64094846272E+03  0.18036303793E+04  0.19150445694E+04  0.10100000352E+00 0.  1.
       -3    1    3    3    0  502 -0.59145713945E+02 -0.64094846272E+03 -0.74466006534E+03  0.98429252281E+03  0.10100000352E+00 0. -1.
</event>
<event>
 5   0  0.1732312E-06  0.2695150E+04  0.7818609E-02  0.8336580E-01
        1   -1    0    0  501    0  0.00000000000E+00  0.00000000000E+00  0.11948374487E+04  0.11948374488E+04  0.50400001928E-02 0. -1.
       -1   -1    0    0    0  501  0.00000000000E+00  0.00000000000E+00 -0.15198374135E+04  0.15198374135E+04  0.50400001928E-02 0.  1.
    10030    2    1    2    0    0  0.00000000000E+00  0.00000000000E+00 -0.32499996472E+03  0.27146748622E+04  0.26951502056E+04 0.  0.
        5    1    3    3  502    0  0.47002571891E+03  0.10646705014E+03 -0.14300589544E+04  0.15090891664E+04  0.46999998093E+01 0.  1.
       -5    1    3    3    0  502 -0.47002571891E+03 -0.10646705014E+03  0.11050589897E+04  0.12055856958E+04  0.46999998093E+01 0. -1.
</event>
<event>
 5   0  0.1828511E-06  0.2701566E+04  0.7818609E-02  0.8334497E-01
        1   -1    0    0  501    0  0.00000000000E+00  0.00000000000E+00  0.11074969555E+04  0.11074969555E+04  0.50400001928E-02 0. -1.
       -1   -1    0    0    0  501  0.00000000000E+00  0.00000000000E+00 -0.16475124109E+04  0.16475124109E+04  0.50400001928E-02 0.  1.
    10030    2    1    2    0    0  0.00000000000E+00  0.00000000000E+00 -0.54001545545E+03  0.27550093664E+04  0.27015661970E+04 0.  0.
        4    1    3    3  502    0 -0.12681951078E+04  0.11450118534E+03  0.18966869968E+03  0.12874024940E+04  0.12699999809E+01 0. -1.
       -4    1    3    3    0  502  0.12681951078E+04 -0.11450118534E+03 -0.72968415513E+03  0.14676068725E+04  0.12699999809E+01 0.  1.
</event>
<event>
 5   0  0.1732312E-06  0.2694779E+04  0.7818609E-02  0.8336701E-01
        1   -1    0    0  501    0  0.00000000000E+00  0.00000000000E+00  0.20236813700E+04  0.20236813701E+04  0.50400001928E-02 0.  1.
       -1   -1    0    0    0  501  0.00000000000E+00  0.00000000000E+00 -0.89710654356E+03  0.89710654357E+03  0.50400001928E-02 0. -1.
    10030    2    1    2    0    0  0.00000000000E+00  0.00000000000E+00  0.11265748265E+04  0.29207879136E+04  0.26947785061E+04 0.  0.
        5    1    3    3  502    0  0.60287918889E+03  0.88670649937E+03  0.14476371432E+04  0.18014958009E+04  0.46999998093E+01 0.  1.
       -5    1    3    3    0  502 -0.60287918889E+03 -0.88670649937E+03 -0.32106231667E+03  0.11192921127E+04  0.46999998093E+01 0. -1.
</event>
<event>
 5   0  0.4439357E-06  0.2713234E+04  0.7818609E-02  0.8330724E-01
        2   -1    0    0  501    0  0.00000000000E+00  0.00000000000E+00  0.18631325578E+04  0.18631325578E+04  0.25500000920E-02 0. -1.
       -2   -1    0    0    0  501  0.00000000000E+00  0.00000000000E+00 -0.98780407082E+03  0.98780407083E+03  0.25500000920E-02 0.  1.
    10030    2    1    2    0    0  0.00000000000E+00  0.00000000000E+00  0.87532848697E+03  0.28509366286E+04  0.27132341772E+04 0.  0.
        4    1    3    3  502    0 -0.35056713878E+03  0.12863605515E+04  0.70095582100E+03  0.15063072273E+04  0.12699999809E+01 0. -1.
       -4    1    3    3    0  502  0.35056713878E+03 -0.12863605515E+04  0.17437266597E+03  0.13446294013E+04  0.12699999809E+01 0.  1.
</event>
<event>
 5   0  0.1732312E-06  0.2717275E+04  0.7818609E-02  0.8329421E-01
        1   -1    0    0  501    0  0.00000000000E+00  0.00000000000E+00  0.13532060562E+04  0.13532060562E+04  0.50400001928E-02 0. -1.
       -1   -1    0    0    0  501  0.00000000000E+00  0.00000000000E+00 -0.13640908485E+04  0.13640908486E+04  0.50400001928E-02 0.  1.
    10030    2    1    2    0    0  0.00000000000E+00  0.00000000000E+00 -0.10884792374E+02  0.27172969047E+04  0.27172751038E+04 0.  0.
        5    1    3    3  502    0  0.91584735741E+03  0.41544440006E+03  0.90807655078E+03  0.13549891305E+04  0.46999998093E+01 0. -1.
       -5    1    3    3    0  502 -0.91584735741E+03 -0.41544440006E+03 -0.91896134316E+03  0.13623077743E+04  0.46999998093E+01 0.  1.
</event>
<event>
 5   0  0.4487186E-06  0.2613133E+04  0.7818609E-02  0.8363754E-01
        2   -1    0    0  501    0  0.00000000000E+00  0.00000000000E+00  0.11188058566E+04  0.11188058566E+04  0.25500000920E-02 0. -1.
       -2   -1    0    0    0  501  0.00000000000E+00  0.00000000000E+00 -0.15258372059E+04  0.15258372059E+04  0.25500000920E-02 0.  1.
    10030    2    1    2    0    0  0.00000000000E+00  0.00000000000E+00 -0.40703134927E+03  0.26446430625E+04  0.26131326811E+04 0.  0.
        3    1    3    3  502    0 -0.33997156438E+03  0.23555565227E+03  0.10508035039E+04  0.11292719531E+04  0.10100000352E+00 0. -1.
       -3    1    3    3    0  502  0.33997156438E+03 -0.23555565227E+03 -0.14578348532E+04  0.15153711094E+04  0.10100000352E+00 0.  1.
</event>
<event>
 5   0  0.4487186E-06  0.2704393E+04  0.7818609E-02  0.8333581E-01
        2   -1    0    0  501    0  0.00000000000E+00  0.00000000000E+00  0.16181998426E+04  0.16181998426E+04  0.25500000920E-02 0.  1.
       -2   -1    0    0    0  501  0.00000000000E+00  0.00000000000E+00 -0.11299192792E+04  0.11299192792E+04  0.25500000920E-02 0. -1.
    10030    2    1    2    0    0  0.00000000000E+00  0.00000000000E+00  0.48828056336E+03  0.27481191218E+04  0.27043928707E+04 0.  0.
        3    1    3    3  502    0  0.23302357356E+03  0.67044839047E+03 -0.92539612833E+03  0.11662585625E+04  0.10100000352E+00 0. -1.
       -3    1    3    3    0  502 -0.23302357356E+03 -0.67044839047E+03  0.14136766917E+04  0.15818605593E+04  0.10100000352E+00 0.  1.
</event>
<event>
 5   0  0.1771016E-06  0.2702482E+04  0.7818609E-02  0.8334200E-01
        1   -1    0    0  501    0  0.00000000000E+00  0.00000000000E+00  0.68529035320E+03  0.68529035322E+03  0.50400001928E-02 0. -1.
       -1   -1    0    0    0  501  0.00000000000E+00  0.00000000000E+00 -0.26643489871E+04  0.26643489871E+04  0.50400001928E-02 0.  1.
    10030    2    1    2    0    0  0.00000000000E+00  0.00000000000E+00 -0.19790586339E+04  0.33496393403E+04  0.27024823096E+04 0.  0.
        2    1    3    3  502    0 -0.96416895001E+03  0.13701920666E+02 -0.21628038695E+04  0.23680223995E+04  0.25500000920E-02 0.  1.
       -2    1    3    3    0  502  0.96416895001E+03 -0.13701920666E+02  0.18374523562E+03  0.98161694077E+03  0.25500000920E-02 0. -1.
</event>
<event>
 5   0  0.4401659E-06  0.2696580E+04  0.7818609E-02  0.8336116E-01
        2   -1    0    0  501    0  0.00000000000E+00  0.00000000000E+00  0.14027948057E+04  0.14027948057E+04  0.25500000920E-02 0.  1.
       -2   -1    0    0    0  501  0.00000000000E+00  0.00000000000E+00 -0.12959025656E+04  0.12959025656E+04  0.25500000920E-02 0. -1.
    10030    2    1    2    0    0  0.00000000000E+00  0.00000000000E+00  0.10689224008E+03  0.26986973713E+04  0.26965796022E+04 0.  0.
        5    1    3    3  502    0 -0.22462158959E+03 -0.13013298737E+04  0.32559533828E+03  0.13601281972E+04  0.46999998093E+01 0.  1.
       -5    1    3    3    0  502  0.22462158959E+03  0.13013298737E+04 -0.21870309820E+03  0.13385691741E+04  0.46999998093E+01 0. -1.
</event>
<event>
 5   0  0.1732312E-06  0.2704609E+04  0.7818609E-02  0.8333511E-01
        1   -1    0    0  501    0  0.00000000000E+00  0.00000000000E+00  0.12000950302E+04  0.12000950303E+04  0.50400001928E-02 0. -1.
       -1   -1    0    0    0  501  0.00000000000E+00  0.00000000000E+00 -0.15238184954E+04  0.15238184954E+04  0.50400001928E-02 0.  1.
    10030    2    1    2    0    0  0.00000000000E+00  0.00000000000E+00 -0.32372346517E+03  0.27239135257E+04  0.27046086618E+04 0.  0.
        5    1    3    3  502    0  0.10905085974E+04 -0.66147824213E+03 -0.61444937271E+03  0.14157445347E+04  0.46999998093E+01 0.  1.
       -5    1    3    3    0  502 -0.10905085974E+04  0.66147824213E+03  0.29072590754E+03  0.13081689910E+04  0.46999998093E+01 0. -1.
</event>
<event>
 5   0  0.1771016E-06  0.2702685E+04  0.7818609E-02  0.8334134E-01
        1   -1    0    0  501    0  0.00000000000E+00  0.00000000000E+00  0.99278186532E+03  0.99278186533E+03  0.50400001928E-02 0. -1.
       -1   -1    0    0    0  501  0.00000000000E+00  0.00000000000E+00 -0.18394032439E+04  0.18394032439E+04  0.50400001928E-02 0.  1.
    10030    2    1    2    0    0  0.00000000000E+00  0.00000000000E+00 -0.84662137856E+03  0.28321851092E+04  0.27026847271E+04 0.  0.
        2    1    3    3  502    0  0.96055227696E+03 -0.12034174026E+03 -0.14113473668E+04  0.17114450622E+04  0.25500000920E-02 0.  1.
       -2    1    3    3    0  502 -0.96055227696E+03  0.12034174026E+03  0.56472598821E+03  0.11207400470E+04  0.25500000920E-02 0. -1.
</event>
<event>
 5   0  0.4401659E-06  0.2700005E+04  0.7818609E-02  0.8335003E-01
        2   -1    0    0  501    0  0.00000000000E+00  0.00000000000E+00  0.15843431669E+04  0.15843431669E+04  0.25500000920E-02 0. -1.
       -2   -1    0    0    0  501  0.00000000000E+00  0.00000000000E+00 -0.11503228966E+04  0.11503228966E+04  0.25500000920E-02 0.  1.
    10030    2    1    2    0    0  0.00000000000E+00  0.00000000000E+00  0.43402027034E+03  0.27346660635E+04  0.27000046081E+04 0.  0.
        5    1    3    3  502    0 -0.60156133484E+03 -0.55392365035E+03  0.13049394380E+04  0.15399988561E+04  0.46999998093E+01 0. -1.
       -5    1    3    3    0  502  0.60156133484E+03  0.55392365035E+03 -0.87091916762E+03  0.11946672074E+04  0.46999998093E+01 0.  1.
</event>
<event>
 5   0  0.4655882E-06  0.2705826E+04  0.7818609E-02  0.8333117E-01
        2   -1    0    0  501    0  0.00000000000E+00  0.00000000000E+00  0.14404900897E+04  0.14404900897E+04  0.25500000920E-02 0. -1.
       -2   -1    0    0    0  501  0.00000000000E+00  0.00000000000E+00 -0.12706598478E+04  0.12706598478E+04  0.25500000920E-02 0.  1.
    10030    2    1    2    0    0  0.00000000000E+00  0.00000000000E+00  0.16983024187E+03  0.27111499375E+04  0.27058255067E+04 0.  0.
        1    1    3    3  502    0  0.39173481925E+03  0.51017391880E+03 -0.11076535505E+04  0.12808707913E+04  0.50400001928E-02 0.  1.
       -1    1    3    3    0  502 -0.39173481925E+03 -0.51017391880E+03  0.12774837924E+04  0.14302791462E+04  0.50400001928E-02 0. -1.
</event>
<event>
 5   0  0.1771016E-06  0.2701576E+04  0.7818609E-02  0.8334494E-01
       -1   -1    0    0    0  501  0.00000000000E+00  0.00000000000E+00  0.90109202292E+03  0.90109202293E+03  0.50400001928E-02 0. -1.
        1   -1    0    0  501    0  0.00000000000E+00  0.00000000000E+00 -0.20249071212E+04  0.20249071212E+04  0.50400001928E-02 0.  1.
    10030    2    1    2    0    0  0.00000000000E+00  0.00000000000E+00 -0.11238150983E+04  0.29259991441E+04  0.27015755804E+04 0.  0.
        2    1    3    3  502    0  0.80569425888E+03  0.20807999501E+03  0.59052676161E+03  0.10203736469E+04  0.25500000920E-02 0. -1.
       -2    1    3    3    0  502 -0.80569425888E+03 -0.20807999501E+03 -0.17143418599E+04  0.19056254972E+04  0.25500000920E-02 0.  1.
</event>
<event>
 5   0  0.4655882E-06  0.2699790E+04  0.7818609E-02  0.8335073E-01
        2   -1    0    0  501    0  0.00000000000E+00  0.00000000000E+00  0.18575483438E+04  0.18575483438E+04  0.25500000920E-02 0. -1.
       -2   -1    0    0    0  501  0.00000000000E+00  0.00000000000E+00 -0.98097918841E+03  0.98097918841E+03  0.25500000920E-02 0.  1.
    10030    2    1    2    0    0  0.00000000000E+00  0.00000000000E+00  0.87656915535E+03  0.28385275322E+04  0.26997898190E+04 0.  0.
        1    1    3    3  502    0 -0.13429883456E+02  0.10104406049E+04 -0.50272013720E+03  0.11286709504E+04  0.50400001928E-02 0.  1.
       -1    1    3    3    0  502  0.13429883456E+02 -0.10104406049E+04  0.13792892926E+04  0.17098565818E+04  0.50400001928E-02 0. -1.
</event>
<event>
 5   0  0.1828511E-06  0.2699085E+04  0.7818609E-02  0.8335302E-01
       -1   -1    0    0    0  501  0.00000000000E+00  0.00000000000E+00  0.93821145398E+03  0.93821145399E+03  0.50400001928E-02 0.  1.
        1   -1    0    0  501    0  0.00000000000E+00  0.00000000000E+00 -0.19412089572E+04  0.19412089572E+04  0.50400001928E-02 0. -1.
    10030    2    1    2    0    0  0.00000000000E+00  0.00000000000E+00 -0.10029975033E+04  0.28794204112E+04  0.26990846436E+04 0.  0.
        4    1    3    3  502    0 -0.79090903110E+03 -0.38571042595E+03 -0.15930703234E+04  0.18199407398E+04  0.12699999809E+01 0. -1.
       -4    1    3    3    0  502  0.79090903110E+03  0.38571042595E+03  0.59007282016E+03  0.10594796714E+04  0.12699999809E+01 0.  1.
</event>
<event>
 5   0  0.4487186E-06  0.2608143E+04  0.7818609E-02  0.8365441E-01
       -2   -1    0    0    0  501  0.00000000000E+00  0.00000000000E+00  0.80365143229E+03  0.80365143229E+03  0.25500000920E-02 0.  1.
        2   -1    0    0  501    0  0.00000000000E+00  0.00000000000E+00 -0.21160939283E+04  0.21160939283E+04  0.25500000920E-02 0. -1.
    10030    2    1    2    0    0  0.00000000000E+00  0.00000000000E+00 -0.13124424960E+04  0.29197453606E+04  0.26081425700E+04 0.  0.
        3    1    3    3  502    0  0.12757664543E+04 -0.46592752243E+01 -0.95868652843E+03  0.15958325804E+04  0.10100000352E+00 0.  1.
       -3    1    3    3    0  502 -0.12757664543E+04  0.46592752243E+01 -0.35375596754E+03  0.13239127802E+04  0.10100000352E+00 0. -1.
</event>
<event>
 5   0  0.1828511E-06  0.2693514E+04  0.7818609E-02  0.8337112E-01
       -1   -1    0    0    0  501  0.00000000000E+00  0.00000000000E+00  0.12193540167E+04  0.12193540167E+04  0.50400001928E-02 0. -1.
        1   -1    0    0  501    0  0.00000000000E+00  0.00000000000E+00 -0.14874720013E+04  0.14874720013E+04  0.50400001928E-02 0.  1.
    10030    2    1    2    0    0  0.00000000000E+00  0.00000000000E+00 -0.26811798464E+03  0.27068260180E+04  0.26935144028E+04 0.  0.
        4    1    3    3  502    0 -0.26809371842E+03 -0.11586303400E+04  0.50108893328E+03  0.12904999955E+04  0.12699999809E+01 0. -1.
       -4    1    3    3    0  502  0.26809371842E+03  0.11586303400E+04 -0.76920691792E+03  0.14163260225E+04  0.12699999809E+01 0.  1.
</event>
<event>
 5   0  0.4487186E-06  0.2695542E+04  0.7818609E-02  0.8336453E-01
       -2   -1    0    0    0  501  0.00000000000E+00  0.00000000000E+00  0.10719971365E+04  0.10719971365E+04  0.25500000920E-02 0. -1.
        2   -1    0    0  501    0  0.00000000000E+00  0.00000000000E+00 -0.16944889691E+04  0.16944889691E+04  0.25500000920E-02 0.  1.
    10030    2    1    2    0    0  0.00000000000E+00  0.00000000000E+00 -0.62249183256E+03  0.27664861057E+04  0.26955424855E+04 0.  0.
        3    1    3    3  502    0  0.90463951250E+03  0.29508185994E+03 -0.12908517419E+04  0.16036658572E+04  0.10100000352E+00 0.  1.
       -3    1    3    3    0  502 -0.90463951250E+03 -0.29508185994E+03  0.66835990936E+03  0.11628202485E+04  0.10100000352E+00 0. -1.
</event>
<event>
 5   0  0.4439357E-06  0.2706166E+04  0.7818609E-02  0.8333007E-01
        2   -1    0    0  501    0  0.00000000000E+00  0.00000000000E+00  0.23278348411E+04  0.23278348411E+04  0.25500000920E-02 0. -1.
       -2   -1    0    0    0  501  0.00000000000E+00  0.00000000000E+00 -0.78649658161E+03  0.78649658161E+03  0.25500000920E-02 0.  1.
    10030    2    1    2    0    0  0.00000000000E+00  0.00000000000E+00  0.15413382595E+04  0.31143314228E+04  0.27061663993E+04 0.  0.
        4    1    3    3  502    0  0.20577109355E+03 -0.65088569245E+02 -0.76656034277E+03  0.79636338238E+03  0.12699999809E+01 0.  1.
       -4    1    3    3    0  502 -0.20577109355E+03  0.65088569245E+02  0.23078986023E+04  0.23179680404E+04  0.12699999809E+01 0. -1.
</event>
<event>
 5   0  0.4448804E-06  0.2694800E+04  0.7818609E-02  0.8336694E-01
        2   -1    0    0  501    0  0.00000000000E+00  0.00000000000E+00  0.19065307389E+04  0.19065307389E+04  0.25500000920E-02 0. -1.
       -2   -1    0    0    0  501  0.00000000000E+00  0.00000000000E+00 -0.95224645301E+03  0.95224645301E+03  0.25500000920E-02 0.  1.
    10030    2    1    2    0    0  0.00000000000E+00  0.00000000000E+00  0.95428428593E+03  0.28587771920E+04  0.26948002774E+04 0.  0.
        2    1    3    3  502    0  0.64873465485E+03 -0.57156378591E+03  0.15734391630E+04  0.17953419210E+04  0.25500000920E-02 0. -1.
       -2    1    3    3    0  502 -0.64873465485E+03  0.57156378591E+03 -0.61915487703E+03  0.10634352710E+04  0.25500000920E-02 0.  1.
</event>
<event>
 5   0  0.4448804E-06  0.2694170E+04  0.7818609E-02  0.8336899E-01
        2   -1    0    0  501    0  0.00000000000E+00  0.00000000000E+00  0.14394954569E+04  0.14394954569E+04  0.25500000920E-02 0. -1.
       -2   -1    0    0    0  501  0.00000000000E+00  0.00000000000E+00 -0.12606070031E+04  0.12606070031E+04  0.25500000920E-02 0.  1.
    10030    2    1    2    0    0  0.00000000000E+00  0.00000000000E+00  0.17888845379E+03  0.27001024601E+04  0.26941700421E+04 0.  0.
        2    1    3    3  502    0  0.65792074649E+03 -0.36659675219E+03 -0.10298790352E+04  0.12758933006E+04  0.25500000920E-02 0.  1.
       -2    1    3    3    0  502 -0.65792074649E+03  0.36659675219E+03  0.12087674890E+04  0.14242091594E+04  0.25500000920E-02 0. -1.
</event>
<event>
 5   0  0.1828511E-06  0.2708932E+04  0.7818609E-02  0.8332113E-01
       -1   -1    0    0    0  501  0.00000000000E+00  0.00000000000E+00  0.17342923257E+04  0.17342923257E+04  0.50400001928E-02 0.  1.
        1   -1    0    0  501    0  0.00000000000E+00  0.00000000000E+00 -0.10578248331E+04  0.10578248331E+04  0.50400001928E-02 0. -1.
    10030    2    1    2    0    0  0.00000000000E+00  0.00000000000E+00  0.67646749253E+03  0.27921171588E+04  0.27089315163E+04 0.  0.
        4    1    3    3  502    0  0.11856375867E+04  0.18009971675E+03  0.98717344393E+03  0.15532821431E+04  0.12699999809E+01 0.  1.
       -4    1    3    3    0  502 -0.11856375867E+04 -0.18009971675E+03 -0.31070595140E+03  0.12388350157E+04  0.12699999809E+01 0. -1.
</event>
<event>
 5   0  0.4448804E-06  0.2732283E+04  0.7818609E-02  0.8324606E-01
        2   -1    0    0  501    0  0.00000000000E+00  0.00000000000E+00  0.11903648295E+04  0.11903648296E+04  0.25500000920E-02 0. -1.
       -2   -1    0    0    0  501  0.00000000000E+00  0.00000000000E+00 -0.15678739329E+04  0.15678739329E+04  0.25500000920E-02 0.  1.
    10030    2    1    2    0    0  0.00000000000E+00  0.00000000000E+00 -0.37750910338E+03  0.27582387625E+04  0.27322825527E+04 0.  0.
        2    1    3    3  502    0 -0.64052568884E+03 -0.59681009178E+03 -0.12474722982E+04  0.15240218431E+04  0.25500000920E-02 0.  1.
       -2    1    3    3    0  502  0.64052568884E+03  0.59681009178E+03  0.86996319477E+03  0.12342169193E+04  0.25500000920E-02 0. -1.
</event>
<event>
 5   0  0.4401659E-06  0.2698353E+04  0.7818609E-02  0.8335540E-01
       -2   -1    0    0    0  501  0.00000000000E+00  0.00000000000E+00  0.11459522924E+04  0.11459522924E+04  0.25500000920E-02 0. -1.
        2   -1    0    0  501    0  0.00000000000E+00  0.00000000000E+00 -0.15884408610E+04  0.15884408610E+04  0.25500000920E-02 0.  1.
    10030    2    1    2    0    0  0.00000000000E+00  0.00000000000E+00 -0.44248856861E+03  0.27343931534E+04  0.26983531615E+04 0.  0.
        5    1    3    3  502    0  0.37042794040E+03 -0.12716824649E+04  0.38819754642E+02  0.13251121514E+04  0.46999998093E+01 0.  1.
       -5    1    3    3    0  502 -0.37042794040E+03  0.12716824649E+04 -0.48130832325E+03  0.14092810020E+04  0.46999998093E+01 0. -1.
</event>
<event>
 5   0  0.4401659E-06  0.2714197E+04  0.7818609E-02  0.8330413E-01
        2   -1    0    0  501    0  0.00000000000E+00  0.00000000000E+00  0.20534609717E+04  0.20534609717E+04  0.25500000920E-02 0.  1.
       -2   -1    0    0    0  501  0.00000000000E+00  0.00000000000E+00 -0.89688433171E+03  0.89688433171E+03  0.25500000920E-02 0. -1.
    10030    2    1    2    0    0  0.00000000000E+00  0.00000000000E+00  0.11565766400E+04  0.29503453034E+04  0.27141974661E+04 0.  0.
        5    1    3    3  502    0 -0.11083680464E+04 -0.76002928997E+03  0.37327730005E+03  0.13948054634E+04  0.46999998093E+01 0.  1.
       -5    1    3    3    0  502  0.11083680464E+04  0.76002928997E+03  0.78329933995E+03  0.15555398400E+04  0.46999998093E+01 0. -1.
</event>
<event>
 5   0  0.4487186E-06  0.2650879E+04  0.7818609E-02  0.8351121E-01
        2   -1    0    0  501    0  0.00000000000E+00  0.00000000000E+00  0.14784047736E+04  0.14784047736E+04  0.25500000920E-02 0. -1.
       -2   -1    0    0    0  501  0.00000000000E+00  0.00000000000E+00 -0.11883009905E+04  0.11883009906E+04  0.25500000920E-02 0.  1.
    10030    2    1    2    0    0  0.00000000000E+00  0.00000000000E+00  0.29010378301E+03  0.26667057641E+04  0.26508789915E+04 0.  0.
        3    1    3    3  502    0 -0.28853167786E+03  0.75483710725E+03  0.12019243314E+04  0.14483272062E+04  0.10100000352E+00 0. -1.
       -3    1    3    3    0  502  0.28853167786E+03 -0.75483710725E+03 -0.91182054842E+03  0.12183785579E+04  0.10100000352E+00 0.  1.
</event>
<event>
 5   0  0.1732312E-06  0.2704525E+04  0.7818609E-02  0.8333538E-01
        1   -1    0    0  501    0  0.00000000000E+00  0.00000000000E+00  0.16881697727E+04  0.16881697727E+04  0.50400001928E-02 0. -1.
       -1   -1    0    0    0  501  0.00000000000E+00  0.00000000000E+00 -0.10831929594E+04  0.10831929594E+04  0.50400001928E-02 0.  1.
    10030    2    1    2    0    0  0.00000000000E+00  0.00000000000E+00  0.60497681328E+03  0.27713627321E+04  0.27045248101E+04 0.  0.
        5    1    3    3  502    0  0.16840702414E+03  0.79593775418E+03 -0.80435083770E+03  0.11440630203E+04  0.46999998093E+01 0.  1.
       -5    1    3    3    0  502 -0.16840702414E+03 -0.79593775418E+03  0.14093276510E+04  0.16272997118E+04  0.46999998093E+01 0. -1.
</event>
<event>
 5   0  0.1723605E-06  0.2694685E+04  0.7818609E-02  0.8336731E-01
       -1   -1    0    0    0  501  0.00000000000E+00  0.00000000000E+00  0.92767926788E+03  0.92767926789E+03  0.50400001928E-02 0.  1.
        1   -1    0    0  501    0  0.00000000000E+00  0.00000000000E+00 -0.19568531477E+04  0.19568531477E+04  0.50400001928E-02 0. -1.
    10030    2    1    2    0    0  0.00000000000E+00  0.00000000000E+00 -0.10291738798E+04  0.28845324156E+04  0.26946852101E+04 0.  0.
        1    1    3    3  502    0 -0.58176829908E+02 -0.55547023016E+03  0.79792938024E+03  0.97397280044E+03  0.50400001928E-02 0.  1.
       -1    1    3    3    0  502  0.58176829908E+02  0.55547023016E+03 -0.18271032600E+04  0.19105596151E+04  0.50400001928E-02 0. -1.
</event>
<event>
 5   0  0.4487186E-06  0.2709576E+04  0.7818609E-02  0.8331905E-01
        2   -1    0    0  501    0  0.00000000000E+00  0.00000000000E+00  0.14779370521E+04  0.14779370521E+04  0.25500000920E-02 0.  1.
       -2   -1    0    0    0  501  0.00000000000E+00  0.00000000000E+00 -0.12419004049E+04  0.12419004049E+04  0.25500000920E-02 0. -1.
    10030    2    1    2    0    0  0.00000000000E+00  0.00000000000E+00  0.23603664719E+03  0.27198374571E+04  0.27095760728E+04 0.  0.
        3    1    3    3  502    0  0.52857839595E+03  0.59035096308E+03 -0.98502504125E+03  0.12641929134E+04  0.10100000352E+00 0. -1.
       -3    1    3    3    0  502 -0.52857839595E+03 -0.59035096308E+03  0.12210616884E+04  0.14556445436E+04  0.10100000352E+00 0.  1.
</event>
<event>
 5   0  0.1771016E-06  0.2652068E+04  0.7818609E-02  0.8350727E-01
        1   -1    0    0  501    0  0.00000000000E+00  0.00000000000E+00  0.20658244216E+04  0.20658244217E+04  0.50400001928E-02 0. -1.
       -1   -1    0    0    0  501  0.00000000000E+00  0.00000000000E+00 -0.85116891534E+03  0.85116891536E+03  0.50400001928E-02 0.  1.
    10030    2    1    2    0    0  0.00000000000E+00  0.00000000000E+00  0.12146555063E+04  0.29169933370E+04  0.26520675197E+04 0.  0.
        2    1    3    3  502    0  0.47078355474E+03 -0.48589448742E+03  0.18617061504E+04  0.19808282103E+04  0.25500000920E-02 0. -1.
       -2    1    3    3    0  502 -0.47078355474E+03  0.48589448742E+03 -0.64705064413E+03  0.93616512667E+03  0.25500000920E-02 0.  1.
</event>
<event>
 5   0  0.4439357E-06  0.2701503E+04  0.7818609E-02  0.8334517E-01
       -2   -1    0    0    0  501  0.00000000000E+00  0.00000000000E+00  0.70949817058E+03  0.70949817059E+03  0.25500000920E-02 0.  1.
        2   -1    0    0  501    0  0.00000000000E+00  0.00000000000E+00 -0.25715783877E+04  0.25715783877E+04  0.25500000920E-02 0. -1.
    10030    2    1    2    0    0  0.00000000000E+00  0.00000000000E+00 -0.18620802171E+04  0.32810765583E+04  0.27015034048E+04 0.  0.
        4    1    3    3  502    0 -0.74136101285E+03  0.36052374885E+02 -0.23016994248E+04  0.24184163785E+04  0.12699999809E+01 0. -1.
       -4    1    3    3    0  502  0.74136101285E+03 -0.36052374885E+02  0.43961920764E+03  0.86266017976E+03  0.12699999809E+01 0.  1.
</event>
<event>
 5   0  0.1828511E-06  0.2857339E+04  0.7818609E-02  0.8285685E-01
       -1   -1    0    0    0  501  0.00000000000E+00  0.00000000000E+00  0.12427195680E+04  0.12427195680E+04  0.50400001928E-02 0.  1.
        1   -1    0    0  501    0  0.00000000000E+00  0.00000000000E+00 -0.16424438170E+04  0.16424438171E+04  0.50400001928E-02 0. -1.
    10030    2    1    2    0    0  0.00000000000E+00  0.00000000000E+00 -0.39972424906E+03  0.28851633850E+04  0.28573393714E+04 0.  0.
        4    1    3    3  502    0 -0.38608952591E+03  0.11387470321E+04  0.57919849266E+03  0.13346469316E+04  0.12699999809E+01 0.  1.
       -4    1    3    3    0  502  0.38608952591E+03 -0.11387470321E+04 -0.97892274172E+03  0.15505164534E+04  0.12699999809E+01 0. -1.
</event>
<event>
 5   0  0.4439357E-06  0.2696496E+04  0.7818609E-02  0.8336143E-01
        2   -1    0    0  501    0  0.00000000000E+00  0.00000000000E+00  0.28168521146E+04  0.28168521146E+04  0.25500000920E-02 0.  1.
       -2   -1    0    0    0  501  0.00000000000E+00  0.00000000000E+00 -0.64532080475E+03  0.64532080475E+03  0.25500000920E-02 0. -1.
    10030    2    1    2    0    0  0.00000000000E+00  0.00000000000E+00  0.21715313099E+04  0.34621729194E+04  0.26964964480E+04 0.  0.
        4    1    3    3  502    0  0.40918738568E+03  0.16791943704E+03 -0.54951810495E+03  0.70540982025E+03  0.12699999809E+01 0. -1.
       -4    1    3    3    0  502 -0.40918738568E+03 -0.16791943704E+03  0.27210494148E+04  0.27567630991E+04  0.12699999809E+01 0.  1.
</event>
<event>
 5   0  0.4655882E-06  0.2699138E+04  0.7818609E-02  0.8335285E-01
       -2   -1    0    0    0  501  0.00000000000E+00  0.00000000000E+00  0.72642111801E+03  0.72642111801E+03  0.25500000920E-02 0. -1.
        2   -1    0    0  501    0  0.00000000000E+00  0.00000000000E+00 -0.25072742996E+04  0.25072742996E+04  0.25500000920E-02 0.  1.
    10030    2    1    2    0    0  0.00000000000E+00  0.00000000000E+00 -0.17808531816E+04  0.32336954176E+04  0.26991383809E+04 0.  0.
        1    1    3    3  502    0  0.11169680193E+04  0.25686436102E+03 -0.36747368478E+02  0.11467114830E+04  0.50400001928E-02 0. -1.
       -1    1    3    3    0  502 -0.11169680193E+04 -0.25686436102E+03 -0.17441058131E+04  0.20869839346E+04  0.50400001928E-02 0.  1.
</event>
<event>
 5   0  0.4448804E-06  0.2698556E+04  0.7818609E-02  0.8335474E-01
        2   -1    0    0  501    0  0.00000000000E+00  0.00000000000E+00  0.81538557115E+03  0.81538557115E+03  0.25500000920E-02 0.  1.
       -2   -1    0    0    0  501  0.00000000000E+00  0.00000000000E+00 -0.22327489385E+04  0.22327489385E+04  0.25500000920E-02 0. -1.
    10030    2    1    2    0    0  0.00000000000E+00  0.00000000000E+00 -0.14173633674E+04  0.30481345097E+04  0.26985561091E+04 0.  0.
        2    1    3    3  502    0 -0.95642517749E+03 -0.16162334617E+02  0.36619023567E+03  0.10242585757E+04  0.25500000920E-02 0.  1.
       -2    1    3    3    0  502  0.95642517749E+03  0.16162334617E+02 -0.17835536031E+04  0.20238759340E+04  0.25500000920E-02 0. -1.
</event>
<event>
 5   0  0.1753474E-06  0.2691596E+04  0.7818609E-02  0.8337737E-01
       -1   -1    0    0    0  501  0.00000000000E+00  0.00000000000E+00  0.81766446132E+03  0.81766446134E+03  0.50400001928E-02 0. -1.
        1   -1    0    0  501    0  0.00000000000E+00  0.00000000000E+00 -0.22150552638E+04  0.22150552638E+04  0.50400001928E-02 0.  1.
    10030    2    1    2    0    0  0.00000000000E+00  0.00000000000E+00 -0.13973908025E+04  0.30327197252E+04  0.26915957862E+04 0.  0.
        3    1    3    3  502    0  0.54763856378E+03  0.60362418341E+03 -0.19053571752E+04  0.20723552124E+04  0.10100000352E+00 0.  1.
       -3    1    3    3    0  502 -0.54763856378E+03 -0.60362418341E+03  0.50796637267E+03  0.96036451273E+03  0.10100000352E+00 0. -1.
</event>
<event>
 5   0  0.1723605E-06  0.2652790E+04  0.7818609E-02  0.8350488E-01
       -1   -1    0    0    0  501  0.00000000000E+00  0.00000000000E+00  0.12748111166E+04  0.12748111166E+04  0.50400001928E-02 0. -1.
        1   -1    0    0  501    0  0.00000000000E+00  0.00000000000E+00 -0.13800657383E+04  0.13800657383E+04  0.50400001928E-02 0.  1.
    10030    2    1    2    0    0  0.00000000000E+00  0.00000000000E+00 -0.10525462169E+03  0.26548768550E+04  0.26527895845E+04 0.  0.
        1    1    3    3  502    0 -0.59161235361E+03  0.62999586081E+03 -0.10596114228E+04  0.13673610821E+04  0.50400001928E-02 0.  1.
       -1    1    3    3    0  502  0.59161235361E+03 -0.62999586081E+03  0.95435680106E+03  0.12875157729E+04  0.50400001928E-02 0. -1.
</event>
<event>
 5   0  0.1771016E-06  0.2699621E+04  0.7818609E-02  0.8335128E-01
       -1   -1    0    0    0  501  0.00000000000E+00  0.00000000000E+00  0.11969978289E+04  0.11969978289E+04  0.50400001928E-02 0.  1.
        1   -1    0    0  501    0  0.00000000000E+00  0.00000000000E+00 -0.15221321875E+04  0.15221321875E+04  0.50400001928E-02 0. -1.
    10030    2    1    2    0    0  0.00000000000E+00  0.00000000000E+00 -0.32513435865E+03  0.27191300164E+04  0.26996213984E+04 0.  0.
        2    1    3    3  502    0  0.12493612164E+04 -0.48462379875E+03  0.54519800115E+00  0.13400611824E+04  0.25500000920E-02 0. -1.
       -2    1    3    3    0  502 -0.12493612164E+04  0.48462379875E+03 -0.32567955665E+03  0.13790688340E+04  0.25500000920E-02 0.  1.
</event>
<event>
 5   0  0.4448804E-06  0.2700985E+04  0.7818609E-02  0.8334685E-01
       -2   -1    0    0    0  501  0.00000000000E+00  0.00000000000E+00  0.95536898756E+03  0.95536898756E+03  0.25500000920E-02 0. -1.
        2   -1    0    0  501    0  0.00000000000E+00  0.00000000000E+00 -0.19090319065E+04  0.19090319065E+04  0.25500000920E-02 0.  1.
    10030    2    1    2    0    0  0.00000000000E+00  0.00000000000E+00 -0.95366291891E+03  0.28644008940E+04  0.27009849164E+04 0.  0.
        2    1    3    3  502    0 -0.11827432272E+04 -0.50972979276E+03 -0.45891685228E+02  0.12887249706E+04  0.25500000920E-02 0. -1.
       -2    1    3    3    0  502  0.11827432272E+04  0.50972979276E+03 -0.90777123368E+03  0.15756759234E+04  0.25500000920E-02 0.  1.
</event>
<event>
 5   0  0.4401659E-06  0.2693323E+04  0.7818609E-02  0.8337175E-01
        2   -1    0    0  501    0  0.00000000000E+00  0.00000000000E+00  0.22024959242E+04  0.22024959242E+04  0.25500000920E-02 0. -1.
       -2   -1    0    0    0  501  0.00000000000E+00  0.00000000000E+00 -0.82338259760E+03  0.82338259760E+03  0.25500000920E-02 0.  1.
    10030    2    1    2    0    0  0.00000000000E+00  0.00000000000E+00  0.13791133266E+04  0.30258785218E+04  0.26933227176E+04 0.  0.
        5    1    3    3  502    0  0.11170368944E+04 -0.70841670419E+03  0.40567300092E+03  0.13835527904E+04  0.46999998093E+01 0.  1.
       -5    1    3    3    0  502 -0.11170368944E+04  0.70841670419E+03  0.97344032564E+03  0.16423257313E+04  0.46999998093E+01 0. -1.
</event>
<event>
 5   0  0.1723605E-06  0.2714333E+04  0.7818609E-02  0.8330369E-01
        1   -1    0    0  501    0  0.00000000000E+00  0.00000000000E+00  0.13277037695E+04  0.13277037695E+04  0.50400001928E-02 0. -1.
       -1   -1    0    0    0  501  0.00000000000E+00  0.00000000000E+00 -0.13872828823E+04  0.13872828823E+04  0.50400001928E-02 0.  1.
    10030    2    1    2    0    0  0.00000000000E+00  0.00000000000E+00 -0.59579112777E+02  0.27149866518E+04  0.27143328552E+04 0.  0.
        1    1    3    3  502    0  0.53743251211E+02  0.67321441772E+03  0.11476918197E+04  0.13316540476E+04  0.50400001928E-02 0. -1.
       -1    1    3    3    0  502 -0.53743251211E+02 -0.67321441772E+03 -0.12072709325E+04  0.13833326042E+04  0.50400001928E-02 0.  1.
</event>
<event>
 5   0  0.4655882E-06  0.2703102E+04  0.7818609E-02  0.8333999E-01
       -2   -1    0    0    0  501  0.00000000000E+00  0.00000000000E+00  0.13689822791E+04  0.13689822791E+04  0.25500000920E-02 0.  1.
        2   -1    0    0  501    0  0.00000000000E+00  0.00000000000E+00 -0.13343420906E+04  0.13343420906E+04  0.25500000920E-02 0. -1.
    10030    2    1    2    0    0  0.00000000000E+00  0.00000000000E+00  0.34640188580E+02  0.27033243697E+04  0.27031024223E+04 0.  0.
        1    1    3    3  502    0 -0.12360624244E+04 -0.54582942854E+03  0.47498624651E+02  0.13520488902E+04  0.50400001928E-02 0. -1.
       -1    1    3    3    0  502  0.12360624244E+04  0.54582942854E+03 -0.12858436072E+02  0.13512754795E+04  0.50400001928E-02 0.  1.
</event>
<event>
 5   0  0.1723605E-06  0.2699118E+04  0.7818609E-02  0.8335291E-01
       -1   -1    0    0    0  501  0.00000000000E+00  0.00000000000E+00  0.15258577371E+04  0.15258577371E+04  0.50400001928E-02 0. -1.
        1   -1    0    0  501    0  0.00000000000E+00  0.00000000000E+00 -0.11936298203E+04  0.11936298203E+04  0.50400001928E-02 0.  1.
    10030    2    1    2    0    0  0.00000000000E+00  0.00000000000E+00  0.33222791677E+03  0.27194875574E+04  0.26991178533E+04 0.  0.
        1    1    3    3  502    0 -0.57291212179E+02 -0.13354962056E+04  0.35319480312E+03  0.13825986284E+04  0.50400001928E-02 0.  1.
       -1    1    3    3    0  502  0.57291212179E+02  0.13354962056E+04 -0.20966886342E+02  0.13368889290E+04  0.50400001928E-02 0. -1.
</event>
<event>
 5   0  0.4401659E-06  0.2692976E+04  0.7818609E-02  0.8337288E-01
       -2   -1    0    0    0  501  0.00000000000E+00  0.00000000000E+00  0.12395237515E+04  0.12395237515E+04  0.25500000920E-02 0.  1.
        2   -1    0    0  501    0  0.00000000000E+00  0.00000000000E+00 -0.14626821657E+04  0.14626821657E+04  0.25500000920E-02 0. -1.
    10030    2    1    2    0    0  0.00000000000E+00  0.00000000000E+00 -0.22315841419E+03  0.27022059172E+04  0.26929755181E+04 0.  0.
        5    1    3    3  502    0 -0.29205161268E+03 -0.35786812818E+03 -0.13806844315E+04  0.14559104818E+04  0.46999998093E+01 0. -1.
       -5    1    3    3    0  502  0.29205161268E+03  0.35786812818E+03  0.11575260173E+04  0.12462954354E+04  0.46999998093E+01 0.  1.
</event>
<event>
 5   0  0.4655882E-06  0.2697022E+04  0.7818609E-02  0.8335972E-01
       -2   -1    0    0    0  501  0.00000000000E+00  0.00000000000E+00  0.11609157236E+04  0.11609157236E+04  0.25500000920E-02 0. -1.
        2   -1    0    0  501    0  0.00000000000E+00  0.00000000000E+00 -0.15664203947E+04  0.15664203947E+04  0.25500000920E-02 0.  1.
    10030    2    1    2    0    0  0.00000000000E+00  0.00000000000E+00 -0.40550467114E+03  0.27273361183E+04  0.26970221103E+04 0.  0.
        1    1    3    3  502    0  0.11617502671E+04  0.59192021542E+03 -0.55078464690E+03  0.14154140566E+04  0.50400001928E-02 0.  1.
       -1    1    3    3    0  502 -0.11617502671E+04 -0.59192021542E+03  0.14527997576E+03  0.13119220616E+04  0.50400001928E-02 0. -1.
</event>
<event>
 5   0  0.4401659E-06  0.2694225E+04  0.7818609E-02  0.8336881E-01
        2   -1    0    0  501    0  0.00000000000E+00  0.00000000000E+00  0.19351914584E+04  0.19351914584E+04  0.25500000920E-02 0.  1.
       -2   -1    0    0    0  501  0.00000000000E+00  0.00000000000E+00 -0.93774300252E+03  0.93774300253E+03  0.25500000920E-02 0. -1.
    10030    2    1    2    0    0  0.00000000000E+00  0.00000000000E+00  0.99744845585E+03  0.28729344609E+04  0.26942251195E+04 0.  0.
        5    1    3    3  502    0 -0.29649303881E+03  0.38051930273E+03  0.18399234913E+04  0.19021155606E+04  0.46999998093E+01 0.  1.
       -5    1    3    3    0  502  0.29649303881E+03 -0.38051930273E+03 -0.84247503549E+03  0.97081890033E+03  0.46999998093E+01 0. -1.
</event>
<event>
 5   0  0.4401659E-06  0.2700160E+04  0.7818609E-02  0.8334953E-01
       -2   -1    0    0    0  501  0.00000000000E+00  0.00000000000E+00  0.70310112779E+03  0.70310112780E+03  0.25500000920E-02 0. -1.
        2   -1    0    0  501    0  0.00000000000E+00  0.00000000000E+00 -0.25923960799E+04  0.25923960799E+04  0.25500000920E-02 0.  1.
    10030    2    1    2    0    0  0.00000000000E+00  0.00000000000E+00 -0.18892949521E+04  0.32954972077E+04  0.27001604452E+04 0.  0.
        5    1    3    3  502    0 -0.11578939108E+03 -0.10585417712E+04 -0.19575568397E+04  0.22284453628E+04  0.46999998093E+01 0.  1.
       -5    1    3    3    0  502  0.11578939108E+03  0.10585417712E+04  0.68261887609E+02  0.10670518449E+04  0.46999998093E+01 0. -1.
</event>
<event>
 5   0  0.1771016E-06  0.2695043E+04  0.7818609E-02  0.8336615E-01
       -1   -1    0    0    0  501  0.00000000000E+00  0.00000000000E+00  0.18938891659E+04  0.18938891659E+04  0.50400001928E-02 0. -1.
        1   -1    0    0  501    0  0.00000000000E+00  0.00000000000E+00 -0.95877540452E+03  0.95877540453E+03  0.50400001928E-02 0.  1.
    10030    2    1    2    0    0  0.00000000000E+00  0.00000000000E+00  0.93511376139E+03  0.28526645704E+04  0.26950431174E+04 0.  0.
        2    1    3    3  502    0 -0.77303170305E+03 -0.33756190849E+03 -0.64475410106E+03  0.10617127233E+04  0.25500000920E-02 0.  1.
       -2    1    3    3    0  502  0.77303170305E+03  0.33756190849E+03  0.15798678624E+04  0.17909518471E+04  0.25500000920E-02 0. -1.
</event>
<event>
 5   0  0.4487186E-06  0.2710506E+04  0.7818609E-02  0.8331604E-01
       -2   -1    0    0    0  501  0.00000000000E+00  0.00000000000E+00  0.83394072069E+03  0.83394072069E+03  0.25500000920E-02 0. -1.
        2   -1    0    0  501    0  0.00000000000E+00  0.00000000000E+00 -0.22024474108E+04  0.22024474108E+04  0.25500000920E-02 0.  1.
    10030    2    1    2    0    0  0.00000000000E+00  0.00000000000E+00 -0.13685066902E+04  0.30363881315E+04  0.27105059167E+04 0.  0.
        3    1    3    3  502    0  0.13316466801E+04  0.23658675581E+03 -0.58753403508E+03  0.14746024638E+04  0.10100000352E+00 0. -1.
       -3    1    3    3    0  502 -0.13316466801E+04 -0.23658675581E+03 -0.78097265508E+03  0.15617856677E+04  0.10100000352E+00 0.  1.
</event>
<event>
 5   0  0.1771016E-06  0.2697979E+04  0.7818609E-02  0.8335661E-01
        1   -1    0    0  501    0  0.00000000000E+00  0.00000000000E+00  0.21621050316E+04  0.21621050316E+04  0.50400001928E-02 0. -1.
       -1   -1    0    0    0  501  0.00000000000E+00  0.00000000000E+00 -0.84166682378E+03  0.84166682379E+03  0.50400001928E-02 0.  1.
    10030    2    1    2    0    0  0.00000000000E+00  0.00000000000E+00  0.13204382078E+04  0.30037718554E+04  0.26979785579E+04 0.  0.
        2    1    3    3  502    0  0.15515371095E+03 -0.81936092328E+03  0.18407535069E+04  0.20208410303E+04  0.25500000920E-02 0. -1.
       -2    1    3    3    0  502 -0.15515371095E+03  0.81936092328E+03 -0.52031529902E+03  0.98293082514E+03  0.25500000920E-02 0.  1.
</event>
<event>
 5   0  0.4439357E-06  0.2688337E+04  0.7818609E-02  0.8338799E-01
        2   -1    0    0  501    0  0.00000000000E+00  0.00000000000E+00  0.15271057536E+04  0.15271057536E+04  0.25500000920E-02 0.  1.
       -2   -1    0    0    0  501  0.00000000000E+00  0.00000000000E+00 -0.11831461144E+04  0.11831461144E+04  0.25500000920E-02 0. -1.
    10030    2    1    2    0    0  0.00000000000E+00  0.00000000000E+00  0.34395963919E+03  0.27102518680E+04  0.26883372100E+04 0.  0.
        4    1    3    3  502    0  0.46506189384E+03 -0.28035139350E+03  0.14115999328E+04  0.15124468428E+04  0.12699999809E+01 0.  1.
       -4    1    3    3    0  502 -0.46506189384E+03  0.28035139350E+03 -0.10676402936E+04  0.11978050252E+04  0.12699999809E+01 0. -1.
</event>
<event>
 5   0  0.1753474E-06  0.2707966E+04  0.7818609E-02  0.8332425E-01
        1   -1    0    0  501    0  0.00000000000E+00  0.00000000000E+00  0.20663382907E+04  0.20663382907E+04  0.50400001928E-02 0. -1.
       -1   -1    0    0    0  501  0.00000000000E+00  0.00000000000E+00 -0.88720728246E+03  0.88720728248E+03  0.50400001928E-02 0.  1.
    10030    2    1    2    0    0  0.00000000000E+00  0.00000000000E+00  0.11791310083E+04  0.29535455732E+04  0.27079663067E+04 0.  0.
        3    1    3    3  502    0  0.99432691561E+03 -0.43724859780E+02  0.15907862233E+04  0.18764857305E+04  0.10100000352E+00 0. -1.
       -3    1    3    3    0  502 -0.99432691561E+03  0.43724859780E+02 -0.41165521502E+03  0.10770598427E+04  0.10100000352E+00 0.  1.
</event>
<event>
 5   0  0.4487186E-06  0.2711259E+04  0.7818609E-02  0.8331361E-01
       -2   -1    0    0    0  501  0.00000000000E+00  0.00000000000E+00  0.88349310139E+03  0.88349310140E+03  0.25500000920E-02 0. -1.
        2   -1    0    0  501    0  0.00000000000E+00  0.00000000000E+00 -0.20800745348E+04  0.20800745348E+04  0.25500000920E-02 0.  1.
    10030    2    1    2    0    0  0.00000000000E+00  0.00000000000E+00 -0.11965814334E+04  0.29635676362E+04  0.27112591185E+04 0.  0.
        3    1    3    3  502    0 -0.45204714188E+03  0.25184615321E+03  0.77129080708E+03  0.92879633002E+03  0.10100000352E+00 0. -1.
       -3    1    3    3    0  502  0.45204714188E+03 -0.25184615321E+03 -0.19678722405E+04  0.20347713062E+04  0.10100000352E+00 0.  1.
</event>
<event>
 5   0  0.1828511E-06  0.2694671E+04  0.7818609E-02  0.8336736E-01
       -1   -1    0    0    0  501  0.00000000000E+00  0.00000000000E+00  0.10308987636E+04  0.10308987636E+04  0.50400001928E-02 0. -1.
        1   -1    0    0  501    0  0.00000000000E+00  0.00000000000E+00 -0.17609029174E+04  0.17609029174E+04  0.50400001928E-02 0.  1.
    10030    2    1    2    0    0  0.00000000000E+00  0.00000000000E+00 -0.73000415381E+03  0.27918016811E+04  0.26946707706E+04 0.  0.
        4    1    3    3  502    0  0.71878275803E+02 -0.58538223024E+03  0.89005591078E+03  0.10677265470E+04  0.12699999809E+01 0. -1.
       -4    1    3    3    0  502 -0.71878275803E+02  0.58538223024E+03 -0.16200600646E+04  0.17240751340E+04  0.12699999809E+01 0.  1.
</event>
<event>
 5   0  0.4655882E-06  0.2733949E+04  0.7818609E-02  0.8324073E-01
        2   -1    0    0  501    0  0.00000000000E+00  0.00000000000E+00  0.22224738689E+04  0.22224738689E+04  0.25500000920E-02 0. -1.
       -2   -1    0    0    0  501  0.00000000000E+00  0.00000000000E+00 -0.84078351903E+03  0.84078351903E+03  0.25500000920E-02 0.  1.
    10030    2    1    2    0    0  0.00000000000E+00  0.00000000000E+00  0.13816903499E+04  0.30632573879E+04  0.27339490854E+04 0.  0.
        1    1    3    3  502    0 -0.15326239912E+03 -0.74775935685E+03  0.19614520018E+04  0.21047392651E+04  0.50400001928E-02 0. -1.
       -1    1    3    3    0  502  0.15326239912E+03  0.74775935685E+03 -0.57976165191E+03  0.95851812283E+03  0.50400001928E-02 0.  1.
</event>
<event>
 5   0  0.1732312E-06  0.2696267E+04  0.7818609E-02  0.8336217E-01
       -1   -1    0    0    0  501  0.00000000000E+00  0.00000000000E+00  0.10249117567E+04  0.10249117567E+04  0.50400001928E-02 0.  1.
        1   -1    0    0  501    0  0.00000000000E+00  0.00000000000E+00 -0.17732885387E+04  0.17732885387E+04  0.50400001928E-02 0. -1.
    10030    2    1    2    0    0  0.00000000000E+00  0.00000000000E+00 -0.74837678197E+03  0.27982002954E+04  0.26962672503E+04 0.  0.
        5    1    3    3  502    0  0.45796883101E+03  0.11403291610E+04 -0.94954460118E+03  0.15529787781E+04  0.46999998093E+01 0. -1.
       -5    1    3    3    0  502 -0.45796883101E+03 -0.11403291610E+04  0.20116781920E+03  0.12452215173E+04  0.46999998093E+01 0.  1.
</event>
<event>
 5   0  0.1828511E-06  0.2699066E+04  0.7818609E-02  0.8335308E-01
        1   -1    0    0  501    0  0.00000000000E+00  0.00000000000E+00  0.12546613316E+04  0.12546613316E+04  0.50400001928E-02 0. -1.
       -1   -1    0    0    0  501  0.00000000000E+00  0.00000000000E+00 -0.14515781011E+04  0.14515781011E+04  0.50400001928E-02 0.  1.
    10030    2    1    2    0    0  0.00000000000E+00  0.00000000000E+00 -0.19691676949E+03  0.27062394327E+04  0.26990657000E+04 0.  0.
        4    1    3    3  502    0  0.91127488619E+02 -0.36976929897E+03 -0.13965823426E+04  0.14475763905E+04  0.12699999809E+01 0.  1.
       -4    1    3    3    0  502 -0.91127488619E+02  0.36976929897E+03  0.11996655731E+04  0.12586630422E+04  0.12699999809E+01 0. -1.
</event>
<event>
 5   0  0.4487186E-06  0.2701438E+04  0.7818609E-02  0.8334538E-01
        2   -1    0    0  501    0  0.00000000000E+00  0.00000000000E+00  0.14226862846E+04  0.14226862846E+04  0.25500000920E-02 0. -1.
       -2   -1    0    0    0  501  0.00000000000E+00  0.00000000000E+00 -0.12823925056E+04  0.12823925056E+04  0.25500000920E-02 0.  1.
    10030    2    1    2    0    0  0.00000000000E+00  0.00000000000E+00  0.14029377899E+03  0.27050787901E+04  0.27014383051E+04 0.  0.
        3    1    3    3  502    0  0.10688407192E+04 -0.62377913178E+03  0.61209831710E+03  0.13806466776E+04  0.10100000352E+00 0. -1.
       -3    1    3    3    0  502 -0.10688407192E+04  0.62377913178E+03 -0.47180453811E+03  0.13244321125E+04  0.10100000352E+00 0.  1.
</event>
<event>
 5   0  0.1482875E-06  0.2691412E+04  0.7818609E-02  0.8337797E-01
       -3   -1    0    0    0  501  0.00000000000E+00  0.00000000000E+00  0.85488137579E+03  0.85488138176E+03  0.10100000352E+00 0. -1.
        3   -1    0    0  501    0  0.00000000000E+00  0.00000000000E+00 -0.21183350975E+04  0.21183350999E+04  0.10100000352E+00 0.  1.
    10030    2    1    2    0    0  0.00000000000E+00  0.00000000000E+00 -0.12634537217E+04  0.29732164817E+04  0.26914124433E+04 0.  0.
        2    1    3    3  502    0  0.11493070724E+03  0.82460164736E+03  0.53620708902E+03  0.99030045270E+03  0.25500000920E-02 0. -1.
       -2    1    3    3    0  502 -0.11493070724E+03 -0.82460164736E+03 -0.17996608107E+04  0.19829160290E+04  0.25500000920E-02 0.  1.
</event>
<event>
 5   0  0.1753474E-06  0.2702699E+04  0.7818609E-02  0.8334130E-01
       -1   -1    0    0    0  501  0.00000000000E+00  0.00000000000E+00  0.91006236883E+03  0.91006236885E+03  0.50400001928E-02 0. -1.
        1   -1    0    0  501    0  0.00000000000E+00  0.00000000000E+00 -0.20066151314E+04  0.20066151315E+04  0.50400001928E-02 0.  1.
    10030    2    1    2    0    0  0.00000000000E+00  0.00000000000E+00 -0.10965527626E+04  0.29166775003E+04  0.27026985921E+04 0.  0.
        3    1    3    3  502    0  0.53748758048E+03  0.89097609373E+02  0.78628660341E+03  0.95659705000E+03  0.10100000352E+00 0. -1.
       -3    1    3    3    0  502 -0.53748758048E+03 -0.89097609373E+02 -0.18828393660E+04  0.19600804503E+04  0.10100000352E+00 0.  1.
</event>
<event>
 5   0  0.1771016E-06  0.2542242E+04  0.7818609E-02  0.8388089E-01
        1   -1    0    0  501    0  0.00000000000E+00  0.00000000000E+00  0.14555557441E+04  0.14555557441E+04  0.50400001928E-02 0.  1.
       -1   -1    0    0    0  501  0.00000000000E+00  0.00000000000E+00 -0.11100563524E+04  0.11100563524E+04  0.50400001928E-02 0. -1.
    10030    2    1    2    0    0  0.00000000000E+00  0.00000000000E+00  0.34549939166E+03  0.25656120965E+04  0.25422422386E+04 0.  0.
        2    1    3    3  502    0 -0.19196597604E+03  0.87314321023E+03  0.10846706287E+04  0.14056103209E+04  0.25500000920E-02 0.  1.
       -2    1    3    3    0  502  0.19196597604E+03 -0.87314321023E+03 -0.73917123707E+03  0.11600017755E+04  0.25500000920E-02 0. -1.
</event>
<event>
 5   0  0.4448804E-06  0.2685380E+04  0.7818609E-02  0.8339764E-01
        2   -1    0    0  501    0  0.00000000000E+00  0.00000000000E+00  0.19382524714E+04  0.19382524714E+04  0.25500000920E-02 0.  1.
       -2   -1    0    0    0  501  0.00000000000E+00  0.00000000000E+00 -0.93012447778E+03  0.93012447778E+03  0.25500000920E-02 0. -1.
    10030    2    1    2    0    0  0.00000000000E+00  0.00000000000E+00  0.10081279936E+04  0.28683769492E+04  0.26853797257E+04 0.  0.
        2    1    3    3  502    0  0.30168110717E+03 -0.48936059491E+02 -0.89247676982E+03  0.94335624926E+03  0.25500000920E-02 0. -1.
       -2    1    3    3    0  502 -0.30168110717E+03  0.48936059491E+02  0.19006047634E+04  0.19250206999E+04  0.25500000920E-02 0.  1.
</event>
<event>
 5   0  0.1828511E-06  0.2705654E+04  0.7818609E-02  0.8333173E-01
       -1   -1    0    0    0  501  0.00000000000E+00  0.00000000000E+00  0.13992788505E+04  0.13992788505E+04  0.50400001928E-02 0.  1.
        1   -1    0    0  501    0  0.00000000000E+00  0.00000000000E+00 -0.13079174614E+04  0.13079174614E+04  0.50400001928E-02 0. -1.
    10030    2    1    2    0    0  0.00000000000E+00  0.00000000000E+00  0.91361389061E+02  0.27071963119E+04  0.27056542587E+04 0.  0.
        4    1    3    3  502    0 -0.52401916196E+03  0.19625485397E+03  0.12780594079E+04  0.13951879847E+04  0.12699999809E+01 0.  1.
       -4    1    3    3    0  502  0.52401916196E+03 -0.19625485397E+03 -0.11866980188E+04  0.13120083272E+04  0.12699999809E+01 0. -1.
</event>
<event>
 5   0  0.1771016E-06  0.2710966E+04  0.7818609E-02  0.8331456E-01
        1   -1    0    0  501    0  0.00000000000E+00  0.00000000000E+00  0.11718242002E+04  0.11718242002E+04  0.50400001928E-02 0.  1.
       -1   -1    0    0    0  501  0.00000000000E+00  0.00000000000E+00 -0.15679259295E+04  0.15679259295E+04  0.50400001928E-02 0. -1.
    10030    2    1    2    0    0  0.00000000000E+00  0.00000000000E+00 -0.39610172933E+03  0.27397501297E+04  0.27109655463E+04 0.  0.
        2    1    3    3  502    0  0.58361355987E+03 -0.37805342327E+03  0.97783430718E+03  0.11998704557E+04  0.25500000920E-02 0.  1.
       -2    1    3    3    0  502 -0.58361355987E+03  0.37805342327E+03 -0.13739360365E+04  0.15398796740E+04  0.25500000920E-02 0. -1.
</event>
<event>
 5   0  0.1753474E-06  0.2723473E+04  0.7818609E-02  0.8327429E-01
        1   -1    0    0  501    0  0.00000000000E+00  0.00000000000E+00  0.19106427685E+04  0.19106427686E+04  0.50400001928E-02 0.  1.
       -1   -1    0    0    0  501  0.00000000000E+00  0.00000000000E+00 -0.97052456830E+03  0.97052456831E+03  0.50400001928E-02 0. -1.
    10030    2    1    2    0    0  0.00000000000E+00  0.00000000000E+00  0.94011820024E+03  0.28811673369E+04  0.27234725981E+04 0.  0.
        3    1    3    3  502    0  0.38238334955E+03 -0.84449054603E+03  0.15252836463E+04  0.17849009833E+04  0.10100000352E+00 0.  1.
       -3    1    3    3    0  502 -0.38238334955E+03  0.84449054603E+03 -0.58516544610E+03  0.10962663535E+04  0.10100000352E+00 0. -1.
</event>
<event>
 5   0  0.4655882E-06  0.2692379E+04  0.7818609E-02  0.8337482E-01
        2   -1    0    0  501    0  0.00000000000E+00  0.00000000000E+00  0.10747372216E+04  0.10747372216E+04  0.25500000920E-02 0.  1.
       -2   -1    0    0    0  501  0.00000000000E+00  0.00000000000E+00 -0.16862036463E+04  0.16862036463E+04  0.25500000920E-02 0. -1.
    10030    2    1    2    0    0  0.00000000000E+00  0.00000000000E+00 -0.61146642472E+03  0.27609408679E+04  0.26923787415E+04 0.  0.
        1    1    3    3  502    0  0.11359294668E+04  0.52276533360E+03  0.20556840888E+03  0.12672323063E+04  0.50400001928E-02 0.  1.
       -1    1    3    3    0  502 -0.11359294668E+04 -0.52276533360E+03 -0.81703483360E+03  0.14937085615E+04  0.50400001928E-02 0. -1.
</event>
<event>
 5   0  0.4439357E-06  0.2717275E+04  0.7818609E-02  0.8329422E-01
       -2   -1    0    0    0  501  0.00000000000E+00  0.00000000000E+00  0.92975218824E+03  0.92975218825E+03  0.25500000920E-02 0.  1.
        2   -1    0    0  501    0  0.00000000000E+00  0.00000000000E+00 -0.19853630148E+04  0.19853630148E+04  0.25500000920E-02 0. -1.
    10030    2    1    2    0    0  0.00000000000E+00  0.00000000000E+00 -0.10556108265E+04  0.29151152030E+04  0.27172748168E+04 0.  0.
        4    1    3    3  502    0  0.38530679448E+03 -0.28228160437E+03  0.83670806922E+03  0.96344498340E+03  0.12699999809E+01 0.  1.
       -4    1    3    3    0  502 -0.38530679448E+03  0.28228160437E+03 -0.18923188958E+04  0.19516702196E+04  0.12699999809E+01 0. -1.
</event>
<event>
 5   0  0.1753474E-06  0.2589218E+04  0.7818609E-02  0.8371873E-01
        1   -1    0    0  501    0  0.00000000000E+00  0.00000000000E+00  0.14844917201E+04  0.14844917201E+04  0.50400001928E-02 0.  1.
       -1   -1    0    0    0  501  0.00000000000E+00  0.00000000000E+00 -0.11290145986E+04  0.11290145986E+04  0.50400001928E-02 0. -1.
    10030    2    1    2    0    0  0.00000000000E+00  0.00000000000E+00  0.35547712153E+03  0.26135063187E+04  0.25892182786E+04 0.  0.
        3    1    3    3  502    0  0.11851658185E+03  0.85094792287E+03 -0.79977450094E+03  0.11737963240E+04  0.10100000352E+00 0. -1.
       -3    1    3    3    0  502 -0.11851658185E+03 -0.85094792287E+03  0.11552516225E+04  0.14397099948E+04  0.10100000352E+00 0.  1.
</event>
<event>
 5   0  0.4655882E-06  0.2710370E+04  0.7818609E-02  0.8331648E-01
        2   -1    0    0  501    0  0.00000000000E+00  0.00000000000E+00  0.12708695226E+04  0.12708695226E+04  0.25500000920E-02 0.  1.
       -2   -1    0    0    0  501  0.00000000000E+00  0.00000000000E+00 -0.14450941347E+04  0.14450941347E+04  0.25500000920E-02 0. -1.
    10030    2    1    2    0    0  0.00000000000E+00  0.00000000000E+00 -0.17422461218E+03  0.27159636573E+04  0.27103697851E+04 0.  0.
        1    1    3    3  502    0 -0.54338355004E+03  0.11282079085E+04 -0.60626198476E+03  0.13912844287E+04  0.50400001928E-02 0. -1.
       -1    1    3    3    0  502  0.54338355004E+03 -0.11282079085E+04  0.43203737259E+03  0.13246792286E+04  0.50400001928E-02 0.  1.
</event>
<event>
 5   0  0.4439357E-06  0.2699648E+04  0.7818609E-02  0.8335119E-01
        2   -1    0    0  501    0  0.00000000000E+00  0.00000000000E+00  0.17882897328E+04  0.17882897328E+04  0.25500000920E-02 0. -1.
       -2   -1    0    0    0  501  0.00000000000E+00  0.00000000000E+00 -0.10188645579E+04  0.10188645579E+04  0.25500000920E-02 0.  1.
    10030    2    1    2    0    0  0.00000000000E+00  0.00000000000E+00  0.76942517492E+03  0.28071542908E+04  0.26996481460E+04 0.  0.
        4    1    3    3  502    0  0.15654025660E+03 -0.61726128173E+03 -0.85285376352E+03  0.10643671813E+04  0.12699999809E+01 0.  1.
       -4    1    3    3    0  502 -0.15654025660E+03  0.61726128173E+03  0.16222789384E+04  0.17427871094E+04  0.12699999809E+01 0. -1.
</event>
<event>
 5   0  0.4401659E-06  0.2756125E+04  0.7818609E-02  0.8317021E-01
       -2   -1    0    0    0  501  0.00000000000E+00  0.00000000000E+00  0.96509559663E+03  0.96509559663E+03  0.25500000920E-02 0. -1.
        2   -1    0    0  501    0  0.00000000000E+00  0.00000000000E+00 -0.19677388864E+04  0.19677388864E+04  0.25500000920E-02 0.  1.
    10030    2    1    2    0    0  0.00000000000E+00  0.00000000000E+00 -0.10026432898E+04  0.29328344831E+04  0.27561249134E+04 0.  0.
        5    1    3    3  502    0  0.78089024919E+03  0.61225337485E+03  0.51622530006E+03  0.11185501449E+04  0.46999998093E+01 0. -1.
       -5    1    3    3    0  502 -0.78089024919E+03 -0.61225337485E+03 -0.15188685899E+04  0.18142843381E+04  0.46999998093E+01 0.  1.
</event>
<event>
 5   0  0.4655882E-06  0.2714381E+04  0.7818609E-02  0.8330354E-01
        2   -1    0    0  501    0  0.00000000000E+00  0.00000000000E+00  0.19946115268E+04  0.19946115268E+04  0.25500000920E-02 0. -1.
       -2   -1    0    0    0  501  0.00000000000E+00  0.00000000000E+00 -0.92347133474E+03  0.92347133474E+03  0.25500000920E-02 0.  1.
    10030    2    1    2    0    0  0.00000000000E+00  0.00000000000E+00  0.10711401921E+04  0.29180828616E+04  0.27143813800E+04 0.  0.
        1    1    3    3  502    0  0.58997670315E+02 -0.71750581165E+02 -0.92004981238E+03  0.92472727238E+03  0.50400001928E-02 0.  1.
       -1    1    3    3    0  502 -0.58997670315E+02  0.71750581165E+02  0.19911900045E+04  0.19933555892E+04  0.50400001928E-02 0. -1.
</event>
<event>
 5   0  0.4401659E-06  0.2694498E+04  0.7818609E-02  0.8336792E-01
        2   -1    0    0  501    0  0.00000000000E+00  0.00000000000E+00  0.19408298433E+04  0.19408298434E+04  0.25500000920E-02 0. -1.
       -2   -1    0    0    0  501  0.00000000000E+00  0.00000000000E+00 -0.93520848553E+03  0.93520848554E+03  0.25500000920E-02 0.  1.
    10030    2    1    2    0    0  0.00000000000E+00  0.00000000000E+00  0.10056213578E+04  0.28760383289E+04  0.26944984977E+04 0.  0.
        5    1    3    3  502    0  0.14154260990E+03 -0.11742149032E+04  0.11914478413E+04  0.16788046336E+04  0.46999998093E+01 0. -1.
       -5    1    3    3    0  502 -0.14154260990E+03  0.11742149032E+04 -0.18582648346E+03  0.11972336953E+04  0.46999998093E+01 0.  1.
</event>
<event>
 5   0  0.4655882E-06  0.2698875E+04  0.7818609E-02  0.8335370E-01
        2   -1    0    0  501    0  0.00000000000E+00  0.00000000000E+00  0.12781160972E+04  0.12781160972E+04  0.25500000920E-02 0. -1.
       -2   -1    0    0    0  501  0.00000000000E+00  0.00000000000E+00 -0.14247384176E+04  0.14247384176E+04  0.25500000920E-02 0.  1.
    10030    2    1    2    0    0  0.00000000000E+00  0.00000000000E+00 -0.14662232044E+03  0.27028545147E+04  0.26988746586E+04 0.  0.
        1    1    3    3  502    0  0.10798928400E+04  0.78043778340E+03 -0.28747089941E+03  0.13630448260E+04  0.50400001928E-02 0.  1.
       -1    1    3    3    0  502 -0.10798928400E+04 -0.78043778340E+03  0.14084857897E+03  0.13398096887E+04  0.50400001928E-02 0. -1.
</event>
<event>
 5   0  0.1828511E-06  0.2741303E+04  0.7818609E-02  0.8321727E-01
        1   -1    0    0  501    0  0.00000000000E+00  0.00000000000E+00  0.14312740040E+04  0.14312740040E+04  0.50400001928E-02 0. -1.
       -1   -1    0    0    0  501  0.00000000000E+00  0.00000000000E+00 -0.13125962692E+04  0.13125962693E+04  0.50400001928E-02 0.  1.
    10030    2    1    2    0    0  0.00000000000E+00  0.00000000000E+00  0.11867773479E+03  0.27438702733E+04  0.27413025502E+04 0.  0.
        4    1    3    3  502    0 -0.58218754677E+03 -0.37490364863E+03  0.12433197078E+04  0.14231446146E+04  0.12699999809E+01 0. -1.
       -4    1    3    3    0  502  0.58218754677E+03  0.37490364863E+03 -0.11246419730E+04  0.13207256587E+04  0.12699999809E+01 0.  1.
</event>
<event>
 5   0  0.1753474E-06  0.2696317E+04  0.7818609E-02  0.8336201E-01
        1   -1    0    0  501    0  0.00000000000E+00  0.00000000000E+00  0.96657215490E+03  0.96657215491E+03  0.50400001928E-02 0. -1.
       -1   -1    0    0    0  501  0.00000000000E+00  0.00000000000E+00 -0.18803884168E+04  0.18803884168E+04  0.50400001928E-02 0.  1.
    10030    2    1    2    0    0  0.00000000000E+00  0.00000000000E+00 -0.91381626192E+03  0.28469605717E+04  0.26963168094E+04 0.  0.
        3    1    3    3  502    0  0.90567717393E+03  0.30330364260E+03 -0.14615323292E+04  0.17459441579E+04  0.10100000352E+00 0.  1.
       -3    1    3    3    0  502 -0.90567717393E+03 -0.30330364260E+03  0.54771606728E+03  0.11010164138E+04  0.10100000352E+00 0. -1.
</event>
<event>
 5   0  0.4655882E-06  0.2691663E+04  0.7818609E-02  0.8337715E-01
       -2   -1    0    0    0  501  0.00000000000E+00  0.00000000000E+00  0.11099375222E+04  0.11099375222E+04  0.25500000920E-02 0.  1.
        2   -1    0    0  501    0  0.00000000000E+00  0.00000000000E+00 -0.16318598748E+04  0.16318598748E+04  0.25500000920E-02 0. -1.
    10030    2    1    2    0    0  0.00000000000E+00  0.00000000000E+00 -0.52192235259E+03  0.27417973970E+04  0.26916630592E+04 0.  0.
        1    1    3    3  502    0 -0.99092327309E+02  0.37642112087E+03 -0.15732700058E+04  0.16207068398E+04  0.50400001928E-02 0. -1.
       -1    1    3    3    0  502  0.99092327309E+02 -0.37642112087E+03  0.10513476532E+04  0.11210905572E+04  0.50400001928E-02 0.  1.
</event>
<event>
 5   0  0.1771016E-06  0.2709990E+04  0.7818609E-02  0.8331771E-01
        1   -1    0    0  501    0  0.00000000000E+00  0.00000000000E+00  0.15856176881E+04  0.15856176881E+04  0.50400001928E-02 0.  1.
       -1   -1    0    0    0  501  0.00000000000E+00  0.00000000000E+00 -0.11579158075E+04  0.11579158075E+04  0.50400001928E-02 0. -1.
    10030    2    1    2    0    0  0.00000000000E+00  0.00000000000E+00  0.42770188062E+03  0.27435334956E+04  0.27099902477E+04 0.  0.
        2    1    3    3  502    0 -0.45551403342E+03 -0.12729087543E+04  0.12205304890E+03  0.13574559581E+04  0.25500000920E-02 0. -1.
       -2    1    3    3    0  502  0.45551403342E+03  0.12729087543E+04  0.30564883173E+03  0.13860775375E+04  0.25500000920E-02 0.  1.
</event>
<event>
 5   0  0.4448804E-06  0.2701906E+04  0.7818609E-02  0.8334387E-01
       -2   -1    0    0    0  501  0.00000000000E+00  0.00000000000E+00  0.12147165102E+04  0.12147165102E+04  0.25500000920E-02 0.  1.
        2   -1    0    0  501    0  0.00000000000E+00  0.00000000000E+00 -0.15024689945E+04  0.15024689945E+04  0.25500000920E-02 0. -1.
    10030    2    1    2    0    0  0.00000000000E+00  0.00000000000E+00 -0.28775248428E+03  0.27171855047E+04  0.27019059153E+04 0.  0.
        2    1    3    3  502    0  0.70180922016E+03  0.69718881578E+02  0.10148885236E+04  0.12358784808E+04  0.25500000920E-02 0.  1.
       -2    1    3    3    0  502 -0.70180922016E+03 -0.69718881578E+02 -0.13026410078E+04  0.14813070240E+04  0.25500000920E-02 0. -1.
</event>
<event>
 5   0  0.1828511E-06  0.2718705E+04  0.7818609E-02  0.8328961E-01
        1   -1    0    0  501    0  0.00000000000E+00  0.00000000000E+00  0.19651705578E+04  0.19651705578E+04  0.50400001928E-02 0. -1.
       -1   -1    0    0    0  501  0.00000000000E+00  0.00000000000E+00 -0.94029426256E+03  0.94029426257E+03  0.50400001928E-02 0.  1.
    10030    2    1    2    0    0  0.00000000000E+00  0.00000000000E+00  0.10248762952E+04  0.29054648203E+04  0.27187045448E+04 0.  0.
        4    1    3    3  502    0 -0.76541389527E+03 -0.95094499971E+03  0.11515873485E+04  0.16781864788E+04  0.12699999809E+01 0. -1.
       -4    1    3    3    0  502  0.76541389527E+03  0.95094499971E+03 -0.12671105335E+03  0.12272783415E+04  0.12699999809E+01 0.  1.
</event>
<event>
 5   0  0.4401659E-06  0.2697718E+04  0.7818609E-02  0.8335746E-01
        2   -1    0    0  501    0  0.00000000000E+00  0.00000000000E+00  0.18580402236E+04  0.18580402236E+04  0.25500000920E-02 0. -1.
       -2   -1    0    0    0  501  0.00000000000E+00  0.00000000000E+00 -0.97921453333E+03  0.97921453334E+03  0.25500000920E-02 0.  1.
    10030    2    1    2    0    0  0.00000000000E+00  0.00000000000E+00  0.87882569025E+03  0.28372547569E+04  0.26977175467E+04 0.  0.
        5    1    3    3  502    0 -0.72842037392E+03 -0.89113845545E+03 -0.30029693358E+03  0.11895059169E+04  0.46999998093E+01 0.  1.
       -5    1    3    3    0  502  0.72842037392E+03  0.89113845545E+03  0.11791226238E+04  0.16477488401E+04  0.46999998093E+01 0. -1.
</event>
<event>
 5   0  0.1723605E-06  0.2683100E+04  0.7818609E-02  0.8340509E-01
       -1   -1    0    0    0  501  0.00000000000E+00  0.00000000000E+00  0.15054346634E+04  0.15054346634E+04  0.50400001928E-02 0. -1.
        1   -1    0    0  501    0  0.00000000000E+00  0.00000000000E+00 -0.11955059039E+04  0.11955059039E+04  0.50400001928E-02 0.  1.
    10030    2    1    2    0    0  0.00000000000E+00  0.00000000000E+00  0.30992875958E+03  0.27009405673E+04  0.26830997209E+04 0.  0.
        1    1    3    3  502    0  0.13314014668E+04  0.16379223231E+03  0.13757914069E+03  0.13484753543E+04  0.50400001928E-02 0. -1.
       -1    1    3    3    0  502 -0.13314014668E+04 -0.16379223231E+03  0.17234961889E+03  0.13524652130E+04  0.50400001928E-02 0.  1.
</event>
<event>
 5   0  0.4655882E-06  0.2728113E+04  0.7818609E-02  0.8325941E-01
        2   -1    0    0  501    0  0.00000000000E+00  0.00000000000E+00  0.24451579705E+04  0.24451579705E+04  0.25500000920E-02 0. -1.
       -2   -1    0    0    0  501  0.00000000000E+00  0.00000000000E+00 -0.76095289283E+03  0.76095289283E+03  0.25500000920E-02 0.  1.
    10030    2    1    2    0    0  0.00000000000E+00  0.00000000000E+00  0.16842050777E+04  0.32061108634E+04  0.27281129237E+04 0.  0.
        1    1    3    3  502    0  0.75371529401E+03 -0.10187314132E+04  0.24894105443E+03  0.12914612210E+04  0.50400001928E-02 0.  1.
       -1    1    3    3    0  502 -0.75371529401E+03  0.10187314132E+04  0.14352640233E+04  0.19146496424E+04  0.50400001928E-02 0. -1.
</event>
<event>
 5   0  0.1771016E-06  0.2704171E+04  0.7818609E-02  0.8333653E-01
        1   -1    0    0  501    0  0.00000000000E+00  0.00000000000E+00  0.99834564232E+03  0.99834564234E+03  0.50400001928E-02 0. -1.
       -1   -1    0    0    0  501  0.00000000000E+00  0.00000000000E+00 -0.18311641354E+04  0.18311641354E+04  0.50400001928E-02 0.  1.
    10030    2    1    2    0    0  0.00000000000E+00  0.00000000000E+00 -0.83281849311E+03  0.28295097778E+04  0.27041706566E+04 0.  0.
        2    1    3    3  502    0 -0.57266129276E+03  0.68630509298E+03 -0.14779155608E+04  0.17271913738E+04  0.25500000920E-02 0.  1.
       -2    1    3    3    0  502  0.57266129276E+03 -0.68630509298E+03  0.64509706773E+03  0.11023184039E+04  0.25500000920E-02 0. -1.
</event>
<event>
 5   0  0.1771016E-06  0.2692383E+04  0.7818609E-02  0.8337481E-01
        1   -1    0    0  501    0  0.00000000000E+00  0.00000000000E+00  0.77060717202E+03  0.77060717204E+03  0.50400001928E-02 0. -1.
       -1   -1    0    0    0  501  0.00000000000E+00  0.00000000000E+00 -0.23516935747E+04  0.23516935747E+04  0.50400001928E-02 0.  1.
    10030    2    1    2    0    0  0.00000000000E+00  0.00000000000E+00 -0.15810864026E+04  0.31223007467E+04  0.26923832826E+04 0.  0.
        2    1    3    3  502    0 -0.86776538180E+03 -0.69393948031E+03  0.90861147632E+02  0.11148203929E+04  0.25500000920E-02 0. -1.
       -2    1    3    3    0  502  0.86776538180E+03  0.69393948031E+03 -0.16719475503E+04  0.20074803538E+04  0.25500000920E-02 0.  1.
</event>
<event>
 5   0  0.1732312E-06  0.2692976E+04  0.7818609E-02  0.8337288E-01
        1   -1    0    0  501    0  0.00000000000E+00  0.00000000000E+00  0.22163403502E+04  0.22163403502E+04  0.50400001928E-02 0. -1.
       -1   -1    0    0    0  501  0.00000000000E+00  0.00000000000E+00 -0.81802853662E+03  0.81802853663E+03  0.50400001928E-02 0.  1.
    10030    2    1    2    0    0  0.00000000000E+00  0.00000000000E+00  0.13983118136E+04  0.30343688869E+04  0.26929757915E+04 0.  0.
        5    1    3    3  502    0  0.79057502955E+03 -0.94586090668E+03  0.88880473530E+02  0.12359545140E+04  0.46999998093E+01 0.  1.
       -5    1    3    3    0  502 -0.79057502955E+03  0.94586090668E+03  0.13094313401E+04  0.17984143729E+04  0.46999998093E+01 0. -1.
</event>
<event>
 5   0  0.1732312E-06  0.2693973E+04  0.7818609E-02  0.8336963E-01
       -1   -1    0    0    0  501  0.00000000000E+00  0.00000000000E+00  0.11135031549E+04  0.11135031549E+04  0.50400001928E-02 0.  1.
        1   -1    0    0  501    0  0.00000000000E+00  0.00000000000E+00 -0.16294280769E+04  0.16294280769E+04  0.50400001928E-02 0. -1.
    10030    2    1    2    0    0  0.00000000000E+00  0.00000000000E+00 -0.51592492202E+03  0.27429312318E+04  0.26939734998E+04 0.  0.
        5    1    3    3  502    0  0.25435273491E+03  0.10151215641E+04  0.60549638284E+03  0.12090554426E+04  0.46999998093E+01 0.  1.
       -5    1    3    3    0  502 -0.25435273491E+03 -0.10151215641E+04 -0.11214213049E+04  0.15338757892E+04  0.46999998093E+01 0. -1.
</event>
<event>
 5   0  0.1828511E-06  0.2697791E+04  0.7818609E-02  0.8335722E-01
        1   -1    0    0  501    0  0.00000000000E+00  0.00000000000E+00  0.17559640535E+04  0.17559640535E+04  0.50400001928E-02 0. -1.
       -1   -1    0    0    0  501  0.00000000000E+00  0.00000000000E+00 -0.10361940782E+04  0.10361940783E+04  0.50400001928E-02 0.  1.
    10030    2    1    2    0    0  0.00000000000E+00  0.00000000000E+00  0.71976997522E+03  0.27921581317E+04  0.26977913587E+04 0.  0.
        4    1    3    3  502    0  0.78167330368E+03 -0.63394323310E+03  0.12894212785E+04  0.16356974118E+04  0.12699999809E+01 0. -1.
       -4    1    3    3    0  502 -0.78167330368E+03  0.63394323310E+03 -0.56965130332E+03  0.11564607199E+04  0.12699999809E+01 0.  1.
</event>
<event>
 5   0  0.4439357E-06  0.2697251E+04  0.7818609E-02  0.8335898E-01
       -2   -1    0    0    0  501  0.00000000000E+00  0.00000000000E+00  0.90496387086E+03  0.90496387086E+03  0.25500000920E-02 0. -1.
        2   -1    0    0  501    0  0.00000000000E+00  0.00000000000E+00 -0.20097932880E+04  0.20097932880E+04  0.25500000920E-02 0.  1.
    10030    2    1    2    0    0  0.00000000000E+00  0.00000000000E+00 -0.11048294172E+04  0.29147571589E+04  0.26972506844E+04 0.  0.
        4    1    3    3  502    0 -0.81938585921E+03  0.35332354750E+03  0.54034591656E+03  0.10431711451E+04  0.12699999809E+01 0. -1.
       -4    1    3    3    0  502  0.81938585921E+03 -0.35332354750E+03 -0.16451753337E+04  0.18715860138E+04  0.12699999809E+01 0.  1.
</event>
<event>
 5   0  0.4655882E-06  0.2697514E+04  0.7818609E-02  0.8335812E-01
       -2   -1    0    0    0  501  0.00000000000E+00  0.00000000000E+00  0.10956957460E+04  0.10956957460E+04  0.25500000920E-02 0.  1.
        2   -1    0    0  501    0  0.00000000000E+00  0.00000000000E+00 -0.16602649813E+04  0.16602649813E+04  0.25500000920E-02 0. -1.
    10030    2    1    2    0    0  0.00000000000E+00  0.00000000000E+00 -0.56456923525E+03  0.27559607273E+04  0.26975138756E+04 0.  0.
        1    1    3    3  502    0  0.94355224652E+03 -0.55007118196E+03  0.52623817411E+03  0.12123513365E+04  0.50400001928E-02 0.  1.
       -1    1    3    3    0  502 -0.94355224652E+03  0.55007118196E+03 -0.10908074094E+04  0.15436093908E+04  0.50400001928E-02 0. -1.
</event>
<event>
 5   0  0.4401659E-06  0.2700134E+04  0.7818609E-02  0.8334962E-01
        2   -1    0    0  501    0  0.00000000000E+00  0.00000000000E+00  0.23908440250E+04  0.23908440250E+04  0.25500000920E-02 0. -1.
       -2   -1    0    0    0  501  0.00000000000E+00  0.00000000000E+00 -0.76235851023E+03  0.76235851023E+03  0.25500000920E-02 0.  1.
    10030    2    1    2    0    0  0.00000000000E+00  0.00000000000E+00  0.16284855148E+04  0.31532025353E+04  0.27001335442E+04 0.  0.
        5    1    3    3  502    0  0.25492159854E+03  0.20263630300E+03  0.23442823101E+04  0.23667970197E+04  0.46999998093E+01 0. -1.
       -5    1    3    3    0  502 -0.25492159854E+03 -0.20263630300E+03 -0.71579679535E+03  0.78640551558E+03  0.46999998093E+01 0.  1.
</event>
<event>
 5   0  0.4448804E-06  0.2690774E+04  0.7818609E-02  0.8338005E-01
       -2   -1    0    0    0  501  0.00000000000E+00  0.00000000000E+00  0.11861068792E+04  0.11861068792E+04  0.25500000920E-02 0. -1.
        2   -1    0    0  501    0  0.00000000000E+00  0.00000000000E+00 -0.15260570247E+04  0.15260570247E+04  0.25500000920E-02 0.  1.
    10030    2    1    2    0    0  0.00000000000E+00  0.00000000000E+00 -0.33995014554E+03  0.27121639039E+04  0.26907744128E+04 0.  0.
        2    1    3    3  502    0  0.47131348470E+03 -0.34859761752E+03  0.10506052223E+04  0.12030910327E+04  0.25500000920E-02 0. -1.
       -2    1    3    3    0  502 -0.47131348470E+03  0.34859761752E+03 -0.13905553678E+04  0.15090728713E+04  0.25500000920E-02 0.  1.
</event>
<event>
 5   0  0.1771016E-06  0.2704878E+04  0.7818609E-02  0.8333424E-01
       -1   -1    0    0    0  501  0.00000000000E+00  0.00000000000E+00  0.91723882835E+03  0.91723882836E+03  0.50400001928E-02 0.  1.
        1   -1    0    0  501    0  0.00000000000E+00  0.00000000000E+00 -0.19941268649E+04  0.19941268649E+04  0.50400001928E-02 0. -1.
    10030    2    1    2    0    0  0.00000000000E+00  0.00000000000E+00 -0.10768880365E+04  0.29113656933E+04  0.27048775123E+04 0.  0.
        2    1    3    3  502    0 -0.35669242084E+03  0.10119979995E+04  0.34763953974E+03  0.11279284923E+04  0.25500000920E-02 0.  1.
       -2    1    3    3    0  502  0.35669242084E+03 -0.10119979995E+04 -0.14245275763E+04  0.17834372010E+04  0.25500000920E-02 0. -1.
</event>
<event>
 5   0  0.1723605E-06  0.2698066E+04  0.7818609E-02  0.8335633E-01
       -1   -1    0    0    0  501  0.00000000000E+00  0.00000000000E+00  0.10766104628E+04  0.10766104628E+04  0.50400001928E-02 0. -1.
        1   -1    0    0  501    0  0.00000000000E+00  0.00000000000E+00 -0.16903891233E+04  0.16903891233E+04  0.50400001928E-02 0.  1.
    10030    2    1    2    0    0  0.00000000000E+00  0.00000000000E+00 -0.61377866047E+03  0.27669995861E+04  0.26980664309E+04 0.  0.
        1    1    3    3  502    0 -0.44682502403E+02  0.10972825308E+04  0.49662373093E+03  0.12052637092E+04  0.50400001928E-02 0.  1.
       -1    1    3    3    0  502  0.44682502403E+02 -0.10972825308E+04 -0.11104023914E+04  0.15617358770E+04  0.50400001928E-02 0. -1.
</event>
<event>
 5   0  0.4401659E-06  0.2704537E+04  0.7818609E-02  0.8333534E-01
       -2   -1    0    0    0  501  0.00000000000E+00  0.00000000000E+00  0.83947092773E+03  0.83947092773E+03  0.25500000920E-02 0. -1.
        2   -1    0    0  501    0  0.00000000000E+00  0.00000000000E+00 -0.21783128532E+04  0.21783128532E+04  0.25500000920E-02 0.  1.
    10030    2    1    2    0    0  0.00000000000E+00  0.00000000000E+00 -0.13388419255E+04  0.30177837809E+04  0.27045371595E+04 0.  0.
        5    1    3    3  502    0 -0.10322937335E+04 -0.72429356645E+03 -0.12463354584E+03  0.12671965646E+04  0.46999998093E+01 0. -1.
       -5    1    3    3    0  502  0.10322937335E+04  0.72429356645E+03 -0.12142083796E+04  0.17505872163E+04  0.46999998093E+01 0.  1.
</event>
<event>
 5   0  0.4655882E-06  0.2707141E+04  0.7818609E-02  0.8332692E-01
       -2   -1    0    0    0  501  0.00000000000E+00  0.00000000000E+00  0.12341617977E+04  0.12341617977E+04  0.25500000920E-02 0. -1.
        2   -1    0    0  501    0  0.00000000000E+00  0.00000000000E+00 -0.14845320593E+04  0.14845320593E+04  0.25500000920E-02 0.  1.
    10030    2    1    2    0    0  0.00000000000E+00  0.00000000000E+00 -0.25037026159E+03  0.27186938569E+04  0.27071407462E+04 0.  0.
        1    1    3    3  502    0  0.44674544903E+03 -0.89782903632E+03 -0.10381711807E+04  0.14434257428E+04  0.50400001928E-02 0.  1.
       -1    1    3    3    0  502 -0.44674544903E+03  0.89782903632E+03  0.78780091907E+03  0.12752681141E+04  0.50400001928E-02 0. -1.
</event>
<event>
 5   0  0.1482875E-06  0.2685795E+04  0.7818609E-02  0.8339629E-01
       -3   -1    0    0    0  501  0.00000000000E+00  0.00000000000E+00  0.26708579283E+04  0.26708579303E+04  0.10100000352E+00 0.  1.
        3   -1    0    0  501    0  0.00000000000E+00  0.00000000000E+00 -0.67520413650E+03  0.67520414405E+03  0.10100000352E+00 0. -1.
    10030    2    1    2    0    0  0.00000000000E+00  0.00000000000E+00  0.19956537918E+04  0.33460620743E+04  0.26857954777E+04 0.  0.
        4    1    3    3  502    0  0.13227484540E+04  0.19166653136E+03  0.83551781427E+03  0.15762268754E+04  0.12699999809E+01 0. -1.
       -4    1    3    3    0  502 -0.13227484540E+04 -0.19166653136E+03  0.11601359776E+04  0.17698351989E+04  0.12699999809E+01 0.  1.
</event>
<event>
 5   0  0.1753474E-06  0.2705929E+04  0.7818609E-02  0.8333084E-01
       -1   -1    0    0    0  501  0.00000000000E+00  0.00000000000E+00  0.67479551381E+03  0.67479551383E+03  0.50400001928E-02 0. -1.
        1   -1    0    0  501    0  0.00000000000E+00  0.00000000000E+00 -0.27126928371E+04  0.27126928371E+04  0.50400001928E-02 0.  1.
    10030    2    1    2    0    0  0.00000000000E+00  0.00000000000E+00 -0.20378973233E+04  0.33874883510E+04  0.27059290138E+04 0.  0.
        3    1    3    3  502    0 -0.65819967666E+03 -0.75243397527E+03 -0.21602378240E+04  0.23803384566E+04  0.10100000352E+00 0.  1.
       -3    1    3    3    0  502  0.65819967666E+03  0.75243397527E+03  0.12234050066E+03  0.10071498944E+04  0.10100000352E+00 0. -1.
</event>
<event>
 5   0  0.4401659E-06  0.2737820E+04  0.7818609E-02  0.8322837E-01
        2   -1    0    0  501    0  0.00000000000E+00  0.00000000000E+00  0.13950897661E+04  0.13950897661E+04  0.25500000920E-02 0.  1.
       -2   -1    0    0    0  501  0.00000000000E+00  0.00000000000E+00 -0.13432215157E+04  0.13432215157E+04  0.25500000920E-02 0. -1.
    10030    2    1    2    0    0  0.00000000000E+00  0.00000000000E+00  0.51868250320E+02  0.27383112818E+04  0.27378200015E+04 0.  0.
        5    1    3    3  502    0 -0.38214890426E+03 -0.11698745318E+04 -0.57354667952E+03  0.13578004598E+04  0.46999998093E+01 0. -1.
       -5    1    3    3    0  502  0.38214890426E+03  0.11698745318E+04  0.62541492984E+03  0.13805108220E+04  0.46999998093E+01 0.  1.
</event>
<event>
 5   0  0.1753474E-06  0.2701671E+04  0.7818609E-02  0.8334463E-01
       -1   -1    0    0    0  501  0.00000000000E+00  0.00000000000E+00  0.10528280305E+04  0.10528280306E+04  0.50400001928E-02 0. -1.
        1   -1    0    0  501    0  0.00000000000E+00  0.00000000000E+00 -0.17331953731E+04  0.17331953731E+04  0.50400001928E-02 0.  1.
    10030    2    1    2    0    0  0.00000000000E+00  0.00000000000E+00 -0.68036734257E+03  0.27860234037E+04  0.27016710912E+04 0.  0.
        3    1    3    3  502    0 -0.76448977371E+03 -0.43290873866E+03 -0.13983313281E+04  0.16514191181E+04  0.10100000352E+00 0.  1.
       -3    1    3    3    0  502  0.76448977371E+03  0.43290873866E+03  0.71796398556E+03  0.11346042856E+04  0.10100000352E+00 0. -1.
</event>
<event>
 5   0  0.4401659E-06  0.2689238E+04  0.7818609E-02  0.8338505E-01
       -2   -1    0    0    0  501  0.00000000000E+00  0.00000000000E+00  0.16899108966E+04  0.16899108966E+04  0.25500000920E-02 0.  1.
        2   -1    0    0  501    0  0.00000000000E+00  0.00000000000E+00 -0.10698791189E+04  0.10698791189E+04  0.25500000920E-02 0. -1.
    10030    2    1    2    0    0  0.00000000000E+00  0.00000000000E+00  0.62003177774E+03  0.27597900155E+04  0.26892380936E+04 0.  0.
        5    1    3    3  502    0 -0.30785374931E+03  0.62612905189E+03 -0.86955923623E+03  0.11148842433E+04  0.46999998093E+01 0. -1.
       -5    1    3    3    0  502  0.30785374931E+03 -0.62612905189E+03  0.14895910140E+04  0.16449057722E+04  0.46999998093E+01 0.  1.
</event>
<event>
 5   0  0.1771016E-06  0.2704456E+04  0.7818609E-02  0.8333560E-01
        1   -1    0    0  501    0  0.00000000000E+00  0.00000000000E+00  0.21778272614E+04  0.21778272614E+04  0.50400001928E-02 0.  1.
       -1   -1    0    0    0  501  0.00000000000E+00  0.00000000000E+00 -0.83960796827E+03  0.83960796829E+03  0.50400001928E-02 0. -1.
    10030    2    1    2    0    0  0.00000000000E+00  0.00000000000E+00  0.13382192931E+04  0.30174352297E+04  0.27044564128E+04 0.  0.
        2    1    3    3  502    0 -0.65063219142E+03 -0.42544946338E+03  0.19035857082E+04  0.20562023351E+04  0.25500000920E-02 0.  1.
       -2    1    3    3    0  502  0.65063219142E+03  0.42544946338E+03 -0.56536641505E+03  0.96123289461E+03  0.25500000920E-02 0. -1.
</event>
<event>
 5   0  0.4655882E-06  0.2700061E+04  0.7818609E-02  0.8334985E-01
        2   -1    0    0  501    0  0.00000000000E+00  0.00000000000E+00  0.12132294312E+04  0.12132294312E+04  0.25500000920E-02 0.  1.
       -2   -1    0    0    0  501  0.00000000000E+00  0.00000000000E+00 -0.15022571265E+04  0.15022571265E+04  0.25500000920E-02 0. -1.
    10030    2    1    2    0    0  0.00000000000E+00  0.00000000000E+00 -0.28902769527E+03  0.27154865578E+04  0.27000611543E+04 0.  0.
        1    1    3    3  502    0  0.14368126827E+03  0.64580684297E+02  0.12039547262E+04  0.12142166011E+04  0.50400001928E-02 0.  1.
       -1    1    3    3    0  502 -0.14368126827E+03 -0.64580684297E+02 -0.14929824215E+04  0.15012699566E+04  0.50400001928E-02 0. -1.
</event>
<event>
 5   0  0.1771016E-06  0.2713882E+04  0.7818609E-02  0.8330515E-01
        1   -1    0    0  501    0  0.00000000000E+00  0.00000000000E+00  0.19547382034E+04  0.19547382034E+04  0.50400001928E-02 0. -1.
       -1   -1    0    0    0  501  0.00000000000E+00  0.00000000000E+00 -0.94196187244E+03  0.94196187246E+03  0.50400001928E-02 0.  1.
    10030    2    1    2    0    0  0.00000000000E+00  0.00000000000E+00  0.10127763309E+04  0.28967000758E+04  0.27138819858E+04 0.  0.
        2    1    3    3  502    0  0.13469326678E+04 -0.16385402651E+03  0.49080667404E+03  0.14429022645E+04  0.25500000920E-02 0. -1.
       -2    1    3    3    0  502 -0.13469326678E+04  0.16385402651E+03  0.52196965688E+03  0.14537978113E+04  0.25500000920E-02 0.  1.
</event>
<event>
 5   0  0.4439357E-06  0.2703700E+04  0.7818609E-02  0.8333805E-01
        2   -1    0    0  501    0  0.00000000000E+00  0.00000000000E+00  0.17634531011E+04  0.17634531011E+04  0.25500000920E-02 0.  1.
       -2   -1    0    0    0  501  0.00000000000E+00  0.00000000000E+00 -0.10363184091E+04  0.10363184091E+04  0.25500000920E-02 0. -1.
    10030    2    1    2    0    0  0.00000000000E+00  0.00000000000E+00  0.72713469201E+03  0.27997715102E+04  0.27037003622E+04 0.  0.
        4    1    3    3  502    0  0.69026143499E+03  0.70119333766E+03  0.13235263764E+04  0.16491987834E+04  0.12699999809E+01 0.  1.
       -4    1    3    3    0  502 -0.69026143499E+03 -0.70119333766E+03 -0.59639168437E+03  0.11505727267E+04  0.12699999809E+01 0. -1.
</event>
<event>
 5   0  0.1828511E-06  0.2696805E+04  0.7818609E-02  0.8336042E-01
       -1   -1    0    0    0  501  0.00000000000E+00  0.00000000000E+00  0.12011874769E+04  0.12011874770E+04  0.50400001928E-02 0.  1.
        1   -1    0    0  501    0  0.00000000000E+00  0.00000000000E+00 -0.15136603242E+04  0.15136603242E+04  0.50400001928E-02 0. -1.
    10030    2    1    2    0    0  0.00000000000E+00  0.00000000000E+00 -0.31247284725E+03  0.27148478012E+04  0.26968053885E+04 0.  0.
        4    1    3    3  502    0 -0.77892391991E+03 -0.15368884423E+03  0.94093845338E+03  0.12311415515E+04  0.12699999809E+01 0.  1.
       -4    1    3    3    0  502  0.77892391991E+03  0.15368884423E+03 -0.12534113006E+04  0.14837062497E+04  0.12699999809E+01 0. -1.
</event>
<event>
 5   0  0.1771016E-06  0.2674538E+04  0.7818609E-02  0.8343314E-01
        1   -1    0    0  501    0  0.00000000000E+00  0.00000000000E+00  0.14519855032E+04  0.14519855032E+04  0.50400001928E-02 0. -1.
       -1   -1    0    0    0  501  0.00000000000E+00  0.00000000000E+00 -0.12316157490E+04  0.12316157490E+04  0.50400001928E-02 0.  1.
    10030    2    1    2    0    0  0.00000000000E+00  0.00000000000E+00  0.22036975427E+03  0.26836012522E+04  0.26745378764E+04 0.  0.
        2    1    3    3  502    0  0.65124049137E+03  0.11226015935E+04 -0.21330445084E+03  0.13152365963E+04  0.25500000920E-02 0.  1.
       -2    1    3    3    0  502 -0.65124049137E+03 -0.11226015935E+04  0.43367420511E+03  0.13683646559E+04  0.25500000920E-02 0. -1.
</event>
<event>
 5   0  0.1732312E-06  0.2701848E+04  0.7818609E-02  0.8334405E-01
       -1   -1    0    0    0  501  0.00000000000E+00  0.00000000000E+00  0.85026994306E+03  0.85026994307E+03  0.50400001928E-02 0.  1.
        1   -1    0    0  501    0  0.00000000000E+00  0.00000000000E+00 -0.21463728236E+04  0.21463728236E+04  0.50400001928E-02 0. -1.
    10030    2    1    2    0    0  0.00000000000E+00  0.00000000000E+00 -0.12961028806E+04  0.29966427667E+04  0.27018484773E+04 0.  0.
        5    1    3    3  502    0 -0.80300687069E+03 -0.39687959054E+03  0.47354218944E+03  0.10132115963E+04  0.46999998093E+01 0.  1.
       -5    1    3    3    0  502  0.80300687069E+03  0.39687959054E+03 -0.17696450700E+04  0.19834311704E+04  0.46999998093E+01 0. -1.
</event>
<event>
 5   0  0.1771016E-06  0.2677705E+04  0.7818609E-02  0.8342275E-01
        1   -1    0    0  501    0  0.00000000000E+00  0.00000000000E+00  0.12870240244E+04  0.12870240244E+04  0.50400001928E-02 0. -1.
       -1   -1    0    0    0  501  0.00000000000E+00  0.00000000000E+00 -0.13927677343E+04  0.13927677343E+04  0.50400001928E-02 0.  1.
    10030    2    1    2    0    0  0.00000000000E+00  0.00000000000E+00 -0.10574370985E+03  0.26797917587E+04  0.26777046397E+04 0.  0.
        2    1    3    3  502    0 -0.79896426770E+03  0.11815575321E+03 -0.11215153965E+04  0.13820642054E+04  0.25500000920E-02 0.  1.
       -2    1    3    3    0  502  0.79896426770E+03 -0.11815575321E+03  0.10157716867E+04  0.12977275533E+04  0.25500000920E-02 0. -1.
</event>
<event>
 5   0  0.1753474E-06  0.2740883E+04  0.7818609E-02  0.8321860E-01
        1   -1    0    0  501    0  0.00000000000E+00  0.00000000000E+00  0.18526393101E+04  0.18526393101E+04  0.50400001928E-02 0.  1.
       -1   -1    0    0    0  501  0.00000000000E+00  0.00000000000E+00 -0.10137483265E+04  0.10137483265E+04  0.50400001928E-02 0. -1.
    10030    2    1    2    0    0  0.00000000000E+00  0.00000000000E+00  0.83889098362E+03  0.28663876367E+04  0.27408830696E+04 0.  0.
        3    1    3    3  502    0  0.16615512810E+03  0.69820198429E+03  0.16403872928E+04  0.17905205997E+04  0.10100000352E+00 0.  1.
       -3    1    3    3    0  502 -0.16615512810E+03 -0.69820198429E+03 -0.80149630916E+03  0.10758670370E+04  0.10100000352E+00 0. -1.
</event>
<event>
 5   0  0.1732312E-06  0.2701623E+04  0.7818609E-02  0.8334478E-01
       -1   -1    0    0    0  501  0.00000000000E+00  0.00000000000E+00  0.94204003386E+03  0.94204003387E+03  0.50400001928E-02 0. -1.
        1   -1    0    0  501    0  0.00000000000E+00  0.00000000000E+00 -0.19369583381E+04  0.19369583381E+04  0.50400001928E-02 0.  1.
    10030    2    1    2    0    0  0.00000000000E+00  0.00000000000E+00 -0.99491830421E+03  0.28789983720E+04  0.27016234367E+04 0.  0.
        5    1    3    3  502    0  0.11499974571E+04 -0.66077464301E+03 -0.77030204925E+03  0.15337876702E+04  0.46999998093E+01 0.  1.
       -5    1    3    3    0  502 -0.11499974571E+04  0.66077464301E+03 -0.22461625496E+03  0.13452107018E+04  0.46999998093E+01 0. -1.
</event>
<event>
 5   0  0.1732312E-06  0.2700130E+04  0.7818609E-02  0.8334963E-01
       -1   -1    0    0    0  501  0.00000000000E+00  0.00000000000E+00  0.11395877401E+04  0.11395877401E+04  0.50400001928E-02 0.  1.
        1   -1    0    0  501    0  0.00000000000E+00  0.00000000000E+00 -0.15994166412E+04  0.15994166412E+04  0.50400001928E-02 0. -1.
    10030    2    1    2    0    0  0.00000000000E+00  0.00000000000E+00 -0.45982890108E+03  0.27390043813E+04  0.27001300677E+04 0.  0.
        5    1    3    3  502    0 -0.13194845199E+04  0.25893835037E+03 -0.35233768667E+03  0.13900548201E+04  0.46999998093E+01 0. -1.
       -5    1    3    3    0  502  0.13194845199E+04 -0.25893835037E+03 -0.10749121440E+03  0.13489495612E+04  0.46999998093E+01 0.  1.
</event>
<event>
 5   0  0.1732312E-06  0.2701885E+04  0.7818609E-02  0.8334393E-01
       -1   -1    0    0    0  501  0.00000000000E+00  0.00000000000E+00  0.72552425515E+03  0.72552425517E+03  0.50400001928E-02 0. -1.
        1   -1    0    0  501    0  0.00000000000E+00  0.00000000000E+00 -0.25154861770E+04  0.25154861770E+04  0.50400001928E-02 0.  1.
    10030    2    1    2    0    0  0.00000000000E+00  0.00000000000E+00 -0.17899619219E+04  0.32410104322E+04  0.27018854417E+04 0.  0.
        5    1    3    3  502    0  0.13066721637E+04 -0.33209943425E+03 -0.99776359083E+03  0.16772705359E+04  0.46999998093E+01 0. -1.
       -5    1    3    3    0  502 -0.13066721637E+04  0.33209943425E+03 -0.79219833106E+03  0.15637398963E+04  0.46999998093E+01 0.  1.
</event>
<event>
 5   0  0.4439357E-06  0.2711726E+04  0.7818609E-02  0.8331210E-01
       -2   -1    0    0    0  501  0.00000000000E+00  0.00000000000E+00  0.82008860277E+03  0.82008860278E+03  0.25500000920E-02 0.  1.
        2   -1    0    0  501    0  0.00000000000E+00  0.00000000000E+00 -0.22416654947E+04  0.22416654947E+04  0.25500000920E-02 0. -1.
    10030    2    1    2    0    0  0.00000000000E+00  0.00000000000E+00 -0.14215768919E+04  0.30617540975E+04  0.27117258884E+04 0.  0.
        4    1    3    3  502    0 -0.83798399435E+03  0.44419152451E+03 -0.18047956452E+04  0.20388261866E+04  0.12699999809E+01 0. -1.
       -4    1    3    3    0  502  0.83798399435E+03 -0.44419152451E+03  0.38321875323E+03  0.10229279109E+04  0.12699999809E+01 0.  1.
</event>
<event>
 5   0  0.1828511E-06  0.2700563E+04  0.7818609E-02  0.8334822E-01
        1   -1    0    0  501    0  0.00000000000E+00  0.00000000000E+00  0.10344864833E+04  0.10344864833E+04  0.50400001928E-02 0. -1.
       -1   -1    0    0    0  501  0.00000000000E+00  0.00000000000E+00 -0.17624787606E+04  0.17624787606E+04  0.50400001928E-02 0.  1.
    10030    2    1    2    0    0  0.00000000000E+00  0.00000000000E+00 -0.72799227737E+03  0.27969652439E+04  0.27005632412E+04 0.  0.
        4    1    3    3  502    0  0.70598893013E+03  0.53247259352E+03  0.69287741656E+03  0.11234002669E+04  0.12699999809E+01 0. -1.
       -4    1    3    3    0  502 -0.70598893013E+03 -0.53247259352E+03 -0.14208696939E+04  0.16735649770E+04  0.12699999809E+01 0.  1.
</event>
<event>
 5   0  0.4487186E-06  0.2690728E+04  0.7818609E-02  0.8338020E-01
        2   -1    0    0  501    0  0.00000000000E+00  0.00000000000E+00  0.17617760474E+04  0.17617760474E+04  0.25500000920E-02 0.  1.
       -2   -1    0    0    0  501  0.00000000000E+00  0.00000000000E+00 -0.10273747035E+04  0.10273747035E+04  0.25500000920E-02 0. -1.
    10030    2    1    2    0    0  0.00000000000E+00  0.00000000000E+00  0.73440134395E+03  0.27891507509E+04  0.26907278899E+04 0.  0.
        3    1    3    3  502    0  0.38915059256E+03 -0.78689047550E+03 -0.68958558419E+03  0.11163167526E+04  0.10100000352E+00 0. -1.
       -3    1    3    3    0  502 -0.38915059256E+03  0.78689047550E+03  0.14239869281E+04  0.16728339983E+04  0.10100000352E+00 0.  1.
</event>
<event>
 5   0  0.4655882E-06  0.2797472E+04  0.7818609E-02  0.8304054E-01
       -2   -1    0    0    0  501  0.00000000000E+00  0.00000000000E+00  0.13459997296E+04  0.13459997296E+04  0.25500000920E-02 0.  1.
        2   -1    0    0  501    0  0.00000000000E+00  0.00000000000E+00 -0.14535389035E+04  0.14535389035E+04  0.25500000920E-02 0. -1.
    10030    2    1    2    0    0  0.00000000000E+00  0.00000000000E+00 -0.10753917394E+03  0.27995386331E+04  0.27974724099E+04 0.  0.
        1    1    3    3  502    0 -0.13891427811E+04 -0.15639676767E+03 -0.59288831572E+01  0.13979316031E+04  0.50400001928E-02 0.  1.
       -1    1    3    3    0  502  0.13891427811E+04  0.15639676767E+03 -0.10161029078E+03  0.14016070300E+04  0.50400001928E-02 0. -1.
</event>
<event>
 5   0  0.1828511E-06  0.2712003E+04  0.7818609E-02  0.8331121E-01
       -1   -1    0    0    0  501  0.00000000000E+00  0.00000000000E+00  0.10257947287E+04  0.10257947287E+04  0.50400001928E-02 0. -1.
        1   -1    0    0  501    0  0.00000000000E+00  0.00000000000E+00 -0.17925029983E+04  0.17925029983E+04  0.50400001928E-02 0.  1.
    10030    2    1    2    0    0  0.00000000000E+00  0.00000000000E+00 -0.76670826958E+03  0.28182977270E+04  0.27120030434E+04 0.  0.
        4    1    3    3  502    0 -0.10975055349E+04  0.38612834554E+03 -0.11071623911E+04  0.16060584271E+04  0.12699999809E+01 0. -1.
       -4    1    3    3    0  502  0.10975055349E+04 -0.38612834554E+03  0.34045412151E+03  0.12122392998E+04  0.12699999809E+01 0.  1.
</event>
<event>
 5   0  0.4655882E-06  0.2699582E+04  0.7818609E-02  0.8335141E-01
        2   -1    0    0  501    0  0.00000000000E+00  0.00000000000E+00  0.99499765716E+03  0.99499765716E+03  0.25500000920E-02 0. -1.
       -2   -1    0    0    0  501  0.00000000000E+00  0.00000000000E+00 -0.18310955363E+04  0.18310955363E+04  0.25500000920E-02 0.  1.
    10030    2    1    2    0    0  0.00000000000E+00  0.00000000000E+00 -0.83609787911E+03  0.28260931934E+04  0.26995820185E+04 0.  0.
        1    1    3    3  502    0 -0.92926658532E+03 -0.95704385753E+03 -0.63378009203E+03  0.14768705214E+04  0.50400001928E-02 0.  1.
       -1    1    3    3    0  502  0.92926658532E+03  0.95704385753E+03 -0.20231778707E+03  0.13492226721E+04  0.50400001928E-02 0. -1.
</event>
<event>
 5   0  0.4487186E-06  0.2678178E+04  0.7818609E-02  0.8342120E-01
        2   -1    0    0  501    0  0.00000000000E+00  0.00000000000E+00  0.22068472359E+04  0.22068472359E+04  0.25500000920E-02 0. -1.
       -2   -1    0    0    0  501  0.00000000000E+00  0.00000000000E+00 -0.81254343198E+03  0.81254343198E+03  0.25500000920E-02 0.  1.
    10030    2    1    2    0    0  0.00000000000E+00  0.00000000000E+00  0.13943038039E+04  0.30193906678E+04  0.26781779081E+04 0.  0.
        3    1    3    3  502    0 -0.12232710985E+03 -0.10337016253E+04 -0.25258628304E+03  0.10711222211E+04  0.10100000352E+00 0.  1.
       -3    1    3    3    0  502  0.12232710985E+03  0.10337016253E+04  0.16468900869E+04  0.19482684467E+04  0.10100000352E+00 0. -1.
</event>
<event>
 5   0  0.1771016E-06  0.2705377E+04  0.7818609E-02  0.8333263E-01
        1   -1    0    0  501    0  0.00000000000E+00  0.00000000000E+00  0.17163757415E+04  0.17163757415E+04  0.50400001928E-02 0. -1.
       -1   -1    0    0    0  501  0.00000000000E+00  0.00000000000E+00 -0.10660635477E+04  0.10660635477E+04  0.50400001928E-02 0.  1.
    10030    2    1    2    0    0  0.00000000000E+00  0.00000000000E+00  0.65031219381E+03  0.27824392892E+04  0.27053765817E+04 0.  0.
        2    1    3    3  502    0 -0.20202845561E+02 -0.83769956053E+03  0.14172972183E+04  0.16464750571E+04  0.25500000920E-02 0. -1.
       -2    1    3    3    0  502  0.20202845561E+02  0.83769956053E+03 -0.76698502453E+03  0.11359642321E+04  0.25500000920E-02 0.  1.
</event>
<event>
 5   0  0.4487186E-06  0.2702892E+04  0.7818609E-02  0.8334067E-01
       -2   -1    0    0    0  501  0.00000000000E+00  0.00000000000E+00  0.21223078918E+04  0.21223078918E+04  0.25500000920E-02 0. -1.
        2   -1    0    0  501    0  0.00000000000E+00  0.00000000000E+00 -0.86057586210E+03  0.86057586210E+03  0.25500000920E-02 0.  1.
    10030    2    1    2    0    0  0.00000000000E+00  0.00000000000E+00  0.12617320297E+04  0.29828837539E+04  0.27028924830E+04 0.  0.
        3    1    3    3  502    0  0.74399979570E+03 -0.10839988151E+04  0.97602288130E+03  0.16374400148E+04  0.10100000352E+00 0. -1.
       -3    1    3    3    0  502 -0.74399979570E+03  0.10839988151E+04  0.28570914837E+03  0.13454437390E+04  0.10100000352E+00 0.  1.
</event>
<event>
 5   0  0.1723605E-06  0.2697437E+04  0.7818609E-02  0.8335837E-01
       -1   -1    0    0    0  501  0.00000000000E+00  0.00000000000E+00  0.17671435206E+04  0.17671435206E+04  0.50400001928E-02 0.  1.
        1   -1    0    0  501    0  0.00000000000E+00  0.00000000000E+00 -0.10293683619E+04  0.10293683620E+04  0.50400001928E-02 0. -1.
    10030    2    1    2    0    0  0.00000000000E+00  0.00000000000E+00  0.73777515864E+03  0.27965118826E+04  0.26974370288E+04 0.  0.
        1    1    3    3  502    0 -0.10932015015E+04  0.20272285470E+03  0.11603782917E+04  0.16070668495E+04  0.50400001928E-02 0.  1.
       -1    1    3    3    0  502  0.10932015015E+04 -0.20272285470E+03 -0.42260313309E+03  0.11894450331E+04  0.50400001928E-02 0. -1.
</event>
<event>
 5   0  0.1771016E-06  0.2700253E+04  0.7818609E-02  0.8334923E-01
        1   -1    0    0  501    0  0.00000000000E+00  0.00000000000E+00  0.85798912348E+03  0.85798912349E+03  0.50400001928E-02 0.  1.
       -1   -1    0    0    0  501  0.00000000000E+00  0.00000000000E+00 -0.21245503768E+04  0.21245503768E+04  0.50400001928E-02 0. -1.
    10030    2    1    2    0    0  0.00000000000E+00  0.00000000000E+00 -0.12665612533E+04  0.29825395003E+04  0.27002526664E+04 0.  0.
        2    1    3    3  502    0  0.10421235147E+04  0.64843961397E+03 -0.12545254908E+04  0.17550867670E+04  0.25500000920E-02 0. -1.
       -2    1    3    3    0  502 -0.10421235147E+04 -0.64843961397E+03 -0.12035762519E+02  0.12274527333E+04  0.25500000920E-02 0.  1.
</event>
<event>
 5   0  0.1723605E-06  0.2694084E+04  0.7818609E-02  0.8336927E-01
       -1   -1    0    0    0  501  0.00000000000E+00  0.00000000000E+00  0.52865326455E+03  0.52865326457E+03  0.50400001928E-02 0. -1.
        1   -1    0    0  501    0  0.00000000000E+00  0.00000000000E+00 -0.34323495508E+04  0.34323495508E+04  0.50400001928E-02 0.  1.
    10030    2    1    2    0    0  0.00000000000E+00  0.00000000000E+00 -0.29036962863E+04  0.39610028154E+04  0.26940844791E+04 0.  0.
        1    1    3    3  502    0  0.10148182835E+04  0.64435303405E+03 -0.55815803975E+03  0.13253631119E+04  0.50400001928E-02 0. -1.
       -1    1    3    3    0  502 -0.10148182835E+04 -0.64435303405E+03 -0.23455382465E+04  0.26356397035E+04  0.50400001928E-02 0.  1.
</event>
<event>
 5   0  0.4655882E-06  0.2708157E+04  0.7818609E-02  0.8332363E-01
        2   -1    0    0  501    0  0.00000000000E+00  0.00000000000E+00  0.16163636097E+04  0.16163636097E+04  0.25500000920E-02 0. -1.
       -2   -1    0    0    0  501  0.00000000000E+00  0.00000000000E+00 -0.11343542825E+04  0.11343542825E+04  0.25500000920E-02 0.  1.
    10030    2    1    2    0    0  0.00000000000E+00  0.00000000000E+00  0.48200932722E+03  0.27507178921E+04  0.27081572943E+04 0.  0.
        1    1    3    3  502    0 -0.93958147159E+03  0.16563326997E+03 -0.73497142496E+03  0.12043382903E+04  0.50400001928E-02 0.  1.
       -1    1    3    3    0  502  0.93958147159E+03 -0.16563326997E+03  0.12169807522E+04  0.15463796019E+04  0.50400001928E-02 0. -1.
</event>
<event>
 5   0  0.1723605E-06  0.2714527E+04  0.7818609E-02  0.8330307E-01
       -1   -1    0    0    0  501  0.00000000000E+00  0.00000000000E+00  0.82718377394E+03  0.82718377395E+03  0.50400001928E-02 0. -1.
        1   -1    0    0  501    0  0.00000000000E+00  0.00000000000E+00 -0.22270316428E+04  0.22270316428E+04  0.50400001928E-02 0.  1.
    10030    2    1    2    0    0  0.00000000000E+00  0.00000000000E+00 -0.13998478688E+04  0.30542154167E+04  0.27145271699E+04 0.  0.
        1    1    3    3  502    0 -0.43863320829E+03  0.62579816004E+02  0.74352186545E+03  0.86552879168E+03  0.50400001928E-02 0. -1.
       -1    1    3    3    0  502  0.43863320829E+03 -0.62579816004E+02 -0.21433697343E+04  0.21886866251E+04  0.50400001928E-02 0.  1.
</event>
<event>
 5   0  0.1828511E-06  0.2701201E+04  0.7818609E-02  0.8334615E-01
        1   -1    0    0  501    0  0.00000000000E+00  0.00000000000E+00  0.17964694177E+04  0.17964694177E+04  0.50400001928E-02 0.  1.
       -1   -1    0    0    0  501  0.00000000000E+00  0.00000000000E+00 -0.10153923662E+04  0.10153923662E+04  0.50400001928E-02 0. -1.
    10030    2    1    2    0    0  0.00000000000E+00  0.00000000000E+00  0.78107705149E+03  0.28118617839E+04  0.27012007203E+04 0.  0.
        4    1    3    3  502    0  0.51701850366E+02 -0.24096853704E+03 -0.99178648745E+03  0.10219495911E+04  0.12699999809E+01 0. -1.
       -4    1    3    3    0  502 -0.51701850366E+02  0.24096853704E+03  0.17728635389E+04  0.17899121928E+04  0.12699999809E+01 0.  1.
</event>
<event>
 5   0  0.4448804E-06  0.2695551E+04  0.7818609E-02  0.8336450E-01
       -2   -1    0    0    0  501  0.00000000000E+00  0.00000000000E+00  0.69347051052E+03  0.69347051053E+03  0.25500000920E-02 0. -1.
        2   -1    0    0  501    0  0.00000000000E+00  0.00000000000E+00 -0.26194310496E+04  0.26194310496E+04  0.25500000920E-02 0.  1.
    10030    2    1    2    0    0  0.00000000000E+00  0.00000000000E+00 -0.19259605391E+04  0.33129015601E+04  0.26955505465E+04 0.  0.
        2    1    3    3  502    0  0.51761161961E+03 -0.12171823823E+04 -0.64475166259E+03  0.14714480783E+04  0.25500000920E-02 0. -1.
       -2    1    3    3    0  502 -0.51761161961E+03  0.12171823823E+04 -0.12812088765E+04  0.18414534818E+04  0.25500000920E-02 0.  1.
</event>
<event>
 5   0  0.4448804E-06  0.2692205E+04  0.7818609E-02  0.8337539E-01
       -2   -1    0    0    0  501  0.00000000000E+00  0.00000000000E+00  0.86800139183E+03  0.86800139183E+03  0.25500000920E-02 0. -1.
        2   -1    0    0  501    0  0.00000000000E+00  0.00000000000E+00 -0.20875446559E+04  0.20875446559E+04  0.25500000920E-02 0.  1.
    10030    2    1    2    0    0  0.00000000000E+00  0.00000000000E+00 -0.12195432640E+04  0.29555460477E+04  0.26922047967E+04 0.  0.
        2    1    3    3  502    0  0.66890872548E+03  0.94053355266E+03 -0.13703209339E+04  0.17915975298E+04  0.25500000920E-02 0. -1.
       -2    1    3    3    0  502 -0.66890872548E+03 -0.94053355266E+03  0.15077766987E+03  0.11639485180E+04  0.25500000920E-02 0.  1.
</event>
<event>
 5   0  0.1771016E-06  0.2672137E+04  0.7818609E-02  0.8344103E-01
       -1   -1    0    0    0  501  0.00000000000E+00  0.00000000000E+00  0.97773151912E+03  0.97773151914E+03  0.50400001928E-02 0.  1.
        1   -1    0    0  501    0  0.00000000000E+00  0.00000000000E+00 -0.18257352853E+04  0.18257352853E+04  0.50400001928E-02 0. -1.
    10030    2    1    2    0    0  0.00000000000E+00  0.00000000000E+00 -0.84800376619E+03  0.28034668045E+04  0.26721369232E+04 0.  0.
        2    1    3    3  502    0  0.10905643004E+04 -0.62395034232E+03  0.52679023019E+02  0.12575450698E+04  0.25500000920E-02 0.  1.
       -2    1    3    3    0  502 -0.10905643004E+04  0.62395034232E+03 -0.90068278921E+03  0.15459217347E+04  0.25500000920E-02 0. -1.
</event>
<event>
 5   0  0.4655882E-06  0.2697654E+04  0.7818609E-02  0.8335767E-01
        2   -1    0    0  501    0  0.00000000000E+00  0.00000000000E+00  0.16008903047E+04  0.16008903047E+04  0.25500000920E-02 0.  1.
       -2   -1    0    0    0  501  0.00000000000E+00  0.00000000000E+00 -0.11364511378E+04  0.11364511378E+04  0.25500000920E-02 0. -1.
    10030    2    1    2    0    0  0.00000000000E+00  0.00000000000E+00  0.46443916688E+03  0.27373414424E+04  0.26976535049E+04 0.  0.
        1    1    3    3  502    0 -0.18454670313E+03 -0.12877619486E+04  0.59375520602E+03  0.14300117365E+04  0.50400001928E-02 0.  1.
       -1    1    3    3    0  502  0.18454670313E+03  0.12877619486E+04 -0.12931603914E+03  0.13073297059E+04  0.50400001928E-02 0. -1.
</event>
<event>
 5   0  0.1753474E-06  0.2705955E+04  0.7818609E-02  0.8333075E-01
        1   -1    0    0  501    0  0.00000000000E+00  0.00000000000E+00  0.71516506854E+03  0.71516506856E+03  0.50400001928E-02 0. -1.
       -1   -1    0    0    0  501  0.00000000000E+00  0.00000000000E+00 -0.25596157169E+04  0.25596157169E+04  0.50400001928E-02 0.  1.
    10030    2    1    2    0    0  0.00000000000E+00  0.00000000000E+00 -0.18444506484E+04  0.32747807855E+04  0.27059547296E+04 0.  0.
        3    1    3    3  502    0  0.63839312683E+03  0.10021575659E+04 -0.17053013701E+04  0.20784413257E+04  0.10100000352E+00 0.  1.
       -3    1    3    3    0  502 -0.63839312683E+03 -0.10021575659E+04 -0.13914927829E+03  0.11963394598E+04  0.10100000352E+00 0. -1.
</event>
<event>
 5   0  0.4439357E-06  0.2708545E+04  0.7818609E-02  0.8332238E-01
        2   -1    0    0  501    0  0.00000000000E+00  0.00000000000E+00  0.19011736892E+04  0.19011736892E+04  0.25500000920E-02 0.  1.
       -2   -1    0    0    0  501  0.00000000000E+00  0.00000000000E+00 -0.96469569716E+03  0.96469569717E+03  0.25500000920E-02 0. -1.
    10030    2    1    2    0    0  0.00000000000E+00  0.00000000000E+00  0.93647799200E+03  0.28658693863E+04  0.27085450541E+04 0.  0.
        4    1    3    3  502    0  0.11537123655E+04 -0.39693887542E+03  0.10901188646E+04  0.16361459119E+04  0.12699999809E+01 0.  1.
       -4    1    3    3    0  502 -0.11537123655E+04  0.39693887542E+03 -0.15364087257E+03  0.12297234745E+04  0.12699999809E+01 0. -1.
</event>
<event>
 5   0  0.4401659E-06  0.2678571E+04  0.7818609E-02  0.8341991E-01
       -2   -1    0    0    0  501  0.00000000000E+00  0.00000000000E+00  0.10926049899E+04  0.10926049899E+04  0.25500000920E-02 0.  1.
        2   -1    0    0  501    0  0.00000000000E+00  0.00000000000E+00 -0.16416600291E+04  0.16416600291E+04  0.25500000920E-02 0. -1.
    10030    2    1    2    0    0  0.00000000000E+00  0.00000000000E+00 -0.54905503926E+03  0.27342650190E+04  0.26785712158E+04 0.  0.
        5    1    3    3  502    0  0.16441409981E+03  0.50544197200E+02 -0.16303292833E+04  0.16393847548E+04  0.46999998093E+01 0. -1.
       -5    1    3    3    0  502 -0.16441409981E+03 -0.50544197200E+02  0.10812742441E+04  0.10948802642E+04  0.46999998093E+01 0.  1.
</event>
<event>
 5   0  0.4487186E-06  0.2701910E+04  0.7818609E-02  0.8334385E-01
       -2   -1    0    0    0  501  0.00000000000E+00  0.00000000000E+00  0.98725880076E+03  0.98725880076E+03  0.25500000920E-02 0. -1.
        2   -1    0    0  501    0  0.00000000000E+00  0.00000000000E+00 -0.18486338305E+04  0.18486338305E+04  0.25500000920E-02 0.  1.
    10030    2    1    2    0    0  0.00000000000E+00  0.00000000000E+00 -0.86137502969E+03  0.28358926312E+04  0.27019104489E+04 0.  0.
        3    1    3    3  502    0 -0.31689457299E+03 -0.11478173479E+04 -0.11004308675E+04  0.16213743982E+04  0.10100000352E+00 0.  1.
       -3    1    3    3    0  502  0.31689457299E+03  0.11478173479E+04  0.23905583784E+03  0.12145182331E+04  0.10100000352E+00 0. -1.
</event>
<event>
 5   0  0.1723605E-06  0.2701913E+04  0.7818609E-02  0.8334385E-01
        1   -1    0    0  501    0  0.00000000000E+00  0.00000000000E+00  0.13575293277E+04  0.13575293277E+04  0.50400001928E-02 0.  1.
       -1   -1    0    0    0  501  0.00000000000E+00  0.00000000000E+00 -0.13444155737E+04  0.13444155738E+04  0.50400001928E-02 0. -1.
    10030    2    1    2    0    0  0.00000000000E+00  0.00000000000E+00  0.13113753936E+02  0.27019449014E+04  0.27019130778E+04 0.  0.
        1    1    3    3  502    0 -0.13393286414E+04 -0.17427501190E+03 -0.23619303788E+02  0.13508259921E+04  0.50400001928E-02 0. -1.
       -1    1    3    3    0  502  0.13393286414E+04  0.17427501190E+03  0.36733057723E+02  0.13511189093E+04  0.50400001928E-02 0.  1.
</event>
<event>
 5   0  0.1771016E-06  0.2699310E+04  0.7818609E-02  0.8335229E-01
        1   -1    0    0  501    0  0.00000000000E+00  0.00000000000E+00  0.13396896327E+04  0.13396896327E+04  0.50400001928E-02 0. -1.
       -1   -1    0    0    0  501  0.00000000000E+00  0.00000000000E+00 -0.13596946875E+04  0.13596946875E+04  0.50400001928E-02 0.  1.
    10030    2    1    2    0    0  0.00000000000E+00  0.00000000000E+00 -0.20005054821E+02  0.26993843202E+04  0.26993101907E+04 0.  0.
        2    1    3    3  502    0 -0.37475028518E+03 -0.34660848314E+03 -0.12594341574E+04  0.13589516598E+04  0.25500000920E-02 0.  1.
       -2    1    3    3    0  502  0.37475028518E+03  0.34660848314E+03  0.12394291025E+04  0.13404326604E+04  0.25500000920E-02 0. -1.
</event>
<event>
 5   0  0.1771016E-06  0.2707947E+04  0.7818609E-02  0.8332431E-01
       -1   -1    0    0    0  501  0.00000000000E+00  0.00000000000E+00  0.77047120479E+03  0.77047120481E+03  0.50400001928E-02 0.  1.
        1   -1    0    0  501    0  0.00000000000E+00  0.00000000000E+00 -0.23793806004E+04  0.23793806004E+04  0.50400001928E-02 0. -1.
    10030    2    1    2    0    0  0.00000000000E+00  0.00000000000E+00 -0.16089093956E+04  0.31498518052E+04  0.27079469994E+04 0.  0.
        2    1    3    3  502    0  0.36406745634E+03  0.12963206185E+03  0.70495598913E+03  0.80393565093E+03  0.25500000920E-02 0.  1.
       -2    1    3    3    0  502 -0.36406745634E+03 -0.12963206185E+03 -0.23138653848E+04  0.23459161543E+04  0.25500000920E-02 0. -1.
</event>
<event>
 5   0  0.4448804E-06  0.2709598E+04  0.7818609E-02  0.8331897E-01
       -2   -1    0    0    0  501  0.00000000000E+00  0.00000000000E+00  0.72618514085E+03  0.72618514086E+03  0.25500000920E-02 0.  1.
        2   -1    0    0  501    0  0.00000000000E+00  0.00000000000E+00 -0.25275652598E+04  0.25275652598E+04  0.25500000920E-02 0. -1.
    10030    2    1    2    0    0  0.00000000000E+00  0.00000000000E+00 -0.18013801190E+04  0.32537504007E+04  0.27095980028E+04 0.  0.
        2    1    3    3  502    0 -0.12412549103E+04 -0.53487699684E+03 -0.10125226938E+04  0.16887893177E+04  0.25500000920E-02 0.  1.
       -2    1    3    3    0  502  0.12412549103E+04  0.53487699684E+03 -0.78885742515E+03  0.15649610830E+04  0.25500000920E-02 0. -1.
</event>
<event>
 5   0  0.4439357E-06  0.2707347E+04  0.7818609E-02  0.8332625E-01
       -2   -1    0    0    0  501  0.00000000000E+00  0.00000000000E+00  0.89572717731E+03  0.89572717731E+03  0.25500000920E-02 0.  1.
        2   -1    0    0  501    0  0.00000000000E+00  0.00000000000E+00 -0.20457472547E+04  0.20457472547E+04  0.25500000920E-02 0. -1.
    10030    2    1    2    0    0  0.00000000000E+00  0.00000000000E+00 -0.11500200774E+04  0.29414744320E+04  0.27073466080E+04 0.  0.
        4    1    3    3  502    0  0.58020698212E+03  0.17365148634E+03 -0.18903381592E+04  0.19849873929E+04  0.12699999809E+01 0. -1.
       -4    1    3    3    0  502 -0.58020698212E+03 -0.17365148634E+03  0.74031808184E+03  0.95648703912E+03  0.12699999809E+01 0.  1.
</event>
<event>
 5   0  0.4401659E-06  0.2705286E+04  0.7818609E-02  0.8333292E-01
       -2   -1    0    0    0  501  0.00000000000E+00  0.00000000000E+00  0.11181743242E+04  0.11181743242E+04  0.25500000920E-02 0. -1.
        2   -1    0    0  501    0  0.00000000000E+00  0.00000000000E+00 -0.16362770874E+04  0.16362770874E+04  0.25500000920E-02 0.  1.
    10030    2    1    2    0    0  0.00000000000E+00  0.00000000000E+00 -0.51810276316E+03  0.27544514116E+04  0.27052859564E+04 0.  0.
        5    1    3    3  502    0 -0.34592638066E+02 -0.48356122366E+03  0.10266699255E+04  0.11353859844E+04  0.46999998093E+01 0. -1.
       -5    1    3    3    0  502  0.34592638066E+02  0.48356122366E+03 -0.15447726887E+04  0.16190654272E+04  0.46999998093E+01 0.  1.
</event>
<event>
 5   0  0.1723605E-06  0.2697761E+04  0.7818609E-02  0.8335732E-01
        1   -1    0    0  501    0  0.00000000000E+00  0.00000000000E+00  0.15345708293E+04  0.15345708293E+04  0.50400001928E-02 0. -1.
       -1   -1    0    0    0  501  0.00000000000E+00  0.00000000000E+00 -0.11856599057E+04  0.11856599057E+04  0.50400001928E-02 0.  1.
    10030    2    1    2    0    0  0.00000000000E+00  0.00000000000E+00  0.34891092355E+03  0.27202307350E+04  0.26977613718E+04 0.  0.
        1    1    3    3  502    0  0.92907051254E+03  0.96958951463E+03  0.46103231499E+02  0.13436522437E+04  0.50400001928E-02 0.  1.
       -1    1    3    3    0  502 -0.92907051254E+03 -0.96958951463E+03  0.30280769205E+03  0.13765784912E+04  0.50400001928E-02 0. -1.
</event>
<event>
 5   0  0.1828511E-06  0.2659957E+04  0.7818609E-02  0.8348116E-01
       -1   -1    0    0    0  501  0.00000000000E+00  0.00000000000E+00  0.11230265153E+04  0.11230265153E+04  0.50400001928E-02 0.  1.
        1   -1    0    0  501    0  0.00000000000E+00  0.00000000000E+00 -0.15750672016E+04  0.15750672016E+04  0.50400001928E-02 0. -1.
    10030    2    1    2    0    0  0.00000000000E+00  0.00000000000E+00 -0.45204068625E+03  0.26980937169E+04  0.26599565641E+04 0.  0.
        4    1    3    3  502    0  0.30991923173E+03  0.14225321849E+03  0.10779280660E+04  0.11305823440E+04  0.12699999809E+01 0.  1.
       -4    1    3    3    0  502 -0.30991923173E+03 -0.14225321849E+03 -0.15299687522E+04  0.15675113729E+04  0.12699999809E+01 0. -1.
</event>
<event>
 5   0  0.4448804E-06  0.2699123E+04  0.7818609E-02  0.8335289E-01
        2   -1    0    0  501    0  0.00000000000E+00  0.00000000000E+00  0.18711695000E+04  0.18711695000E+04  0.25500000920E-02 0. -1.
       -2   -1    0    0    0  501  0.00000000000E+00  0.00000000000E+00 -0.97335738020E+03  0.97335738020E+03  0.25500000920E-02 0.  1.
    10030    2    1    2    0    0  0.00000000000E+00  0.00000000000E+00  0.89781211980E+03  0.28445268802E+04  0.26991232965E+04 0.  0.
        2    1    3    3  502    0 -0.92936765853E+03 -0.32666805642E+03 -0.52321773346E+03  0.11154340233E+04  0.25500000920E-02 0.  1.
       -2    1    3    3    0  502  0.92936765853E+03  0.32666805642E+03  0.14210298533E+04  0.17290928569E+04  0.25500000920E-02 0. -1.
</event>
<event>
 5   0  0.4655882E-06  0.2697526E+04  0.7818609E-02  0.8335808E-01
       -2   -1    0    0    0  501  0.00000000000E+00  0.00000000000E+00  0.11905650241E+04  0.11905650241E+04  0.25500000920E-02 0.  1.
        2   -1    0    0  501    0  0.00000000000E+00  0.00000000000E+00 -0.15279821006E+04  0.15279821006E+04  0.25500000920E-02 0. -1.
    10030    2    1    2    0    0  0.00000000000E+00  0.00000000000E+00 -0.33741707650E+03  0.27185471247E+04  0.26975263086E+04 0.  0.
        1    1    3    3  502    0  0.59179475362E+03 -0.44106272461E+03 -0.13064009385E+04  0.15004801797E+04  0.50400001928E-02 0. -1.
       -1    1    3    3    0  502 -0.59179475362E+03  0.44106272461E+03  0.96898386205E+03  0.12180669450E+04  0.50400001928E-02 0.  1.
</event>
<event>
 5   0  0.4655882E-06  0.2695613E+04  0.7818609E-02  0.8336430E-01
       -2   -1    0    0    0  501  0.00000000000E+00  0.00000000000E+00  0.13413941412E+04  0.13413941412E+04  0.25500000920E-02 0. -1.
        2   -1    0    0  501    0  0.00000000000E+00  0.00000000000E+00 -0.13542499180E+04  0.13542499180E+04  0.25500000920E-02 0.  1.
    10030    2    1    2    0    0  0.00000000000E+00  0.00000000000E+00 -0.12855776857E+02  0.26956440592E+04  0.26956134038E+04 0.  0.
        1    1    3    3  502    0  0.26691165951E+03 -0.20045237514E+03 -0.13122604583E+04  0.13540496664E+04  0.50400001928E-02 0.  1.
       -1    1    3    3    0  502 -0.26691165951E+03  0.20045237514E+03  0.12994046814E+04  0.13415943928E+04  0.50400001928E-02 0. -1.
</event>
<event>
 5   0  0.1771016E-06  0.2706942E+04  0.7818609E-02  0.8332756E-01
        1   -1    0    0  501    0  0.00000000000E+00  0.00000000000E+00  0.16336853373E+04  0.16336853373E+04  0.50400001928E-02 0.  1.
       -1   -1    0    0    0  501  0.00000000000E+00  0.00000000000E+00 -0.11213199008E+04  0.11213199008E+04  0.50400001928E-02 0. -1.
    10030    2    1    2    0    0  0.00000000000E+00  0.00000000000E+00  0.51236543653E+03  0.27550052381E+04  0.27069420979E+04 0.  0.
        2    1    3    3  502    0 -0.24868303466E+03 -0.61588373462E+03  0.14564128878E+04  0.16007168788E+04  0.25500000920E-02 0.  1.
       -2    1    3    3    0  502  0.24868303466E+03  0.61588373462E+03 -0.94404745122E+03  0.11542883593E+04  0.25500000920E-02 0. -1.
</event>
<event>
 5   0  0.4401659E-06  0.2689600E+04  0.7818609E-02  0.8338387E-01
       -2   -1    0    0    0  501  0.00000000000E+00  0.00000000000E+00  0.11162992210E+04  0.11162992210E+04  0.25500000920E-02 0. -1.
        2   -1    0    0  501    0  0.00000000000E+00  0.00000000000E+00 -0.16200739095E+04  0.16200739095E+04  0.25500000920E-02 0.  1.
    10030    2    1    2    0    0  0.00000000000E+00  0.00000000000E+00 -0.50377468854E+03  0.27363731305E+04  0.26896001510E+04 0.  0.
        5    1    3    3  502    0 -0.10329817292E+02  0.11121079637E+04  0.51728551741E+03  0.12265794816E+04  0.46999998093E+01 0. -1.
       -5    1    3    3    0  502  0.10329817292E+02 -0.11121079637E+04 -0.10210602060E+04  0.15097936489E+04  0.46999998093E+01 0.  1.
</event>
<event>
 5   0  0.1828511E-06  0.2698781E+04  0.7818609E-02  0.8335400E-01
       -1   -1    0    0    0  501  0.00000000000E+00  0.00000000000E+00  0.11259456578E+04  0.11259456578E+04  0.50400001928E-02 0. -1.
        1   -1    0    0  501    0  0.00000000000E+00  0.00000000000E+00 -0.16171785448E+04  0.16171785448E+04  0.50400001928E-02 0.  1.
    10030    2    1    2    0    0  0.00000000000E+00  0.00000000000E+00 -0.49123288702E+03  0.27431242026E+04  0.26987813252E+04 0.  0.
        4    1    3    3  502    0 -0.29045864677E+03 -0.10897777387E+04  0.50741521602E+03  0.12367107826E+04  0.12699999809E+01 0. -1.
       -4    1    3    3    0  502  0.29045864677E+03  0.10897777387E+04 -0.99864810303E+03  0.15064134200E+04  0.12699999809E+01 0.  1.
</event>
<event>
 5   0  0.1723605E-06  0.2703370E+04  0.7818609E-02  0.8333912E-01
       -1   -1    0    0    0  501  0.00000000000E+00  0.00000000000E+00  0.83919647125E+03  0.83919647127E+03  0.50400001928E-02 0. -1.
        1   -1    0    0  501    0  0.00000000000E+00  0.00000000000E+00 -0.21771456796E+04  0.21771456796E+04  0.50400001928E-02 0.  1.
    10030    2    1    2    0    0  0.00000000000E+00  0.00000000000E+00 -0.13379492084E+04  0.30163421509E+04  0.27033704680E+04 0.  0.
        1    1    3    3  502    0 -0.10145698695E+04 -0.67983468549E+03 -0.22668932604E+02  0.12214913427E+04  0.50400001928E-02 0. -1.
       -1    1    3    3    0  502  0.10145698695E+04  0.67983468549E+03 -0.13152802758E+04  0.17948508082E+04  0.50400001928E-02 0.  1.
</event>
<event>
 5   0  0.1723605E-06  0.2725581E+04  0.7818609E-02  0.8326752E-01
        1   -1    0    0  501    0  0.00000000000E+00  0.00000000000E+00  0.16905317675E+04  0.16905317675E+04  0.50400001928E-02 0.  1.
       -1   -1    0    0    0  501  0.00000000000E+00  0.00000000000E+00 -0.10985880468E+04  0.10985880468E+04  0.50400001928E-02 0. -1.
    10030    2    1    2    0    0  0.00000000000E+00  0.00000000000E+00  0.59194372066E+03  0.27891198143E+04  0.27255810335E+04 0.  0.
        1    1    3    3  502    0  0.48055948782E+03 -0.12749695233E+04  0.26864184370E+03  0.13887595713E+04  0.50400001928E-02 0.  1.
       -1    1    3    3    0  502 -0.48055948782E+03  0.12749695233E+04  0.32330187696E+03  0.14003602430E+04  0.50400001928E-02 0. -1.
</event>
<event>
 5   0  0.1771016E-06  0.2626196E+04  0.7818609E-02  0.8359357E-01
        1   -1    0    0  501    0  0.00000000000E+00  0.00000000000E+00  0.13615629818E+04  0.13615629818E+04  0.50400001928E-02 0.  1.
       -1   -1    0    0    0  501  0.00000000000E+00  0.00000000000E+00 -0.12663582037E+04  0.12663582037E+04  0.50400001928E-02 0. -1.
    10030    2    1    2    0    0  0.00000000000E+00  0.00000000000E+00  0.95204778094E+02  0.26279211855E+04  0.26261960718E+04 0.  0.
        2    1    3    3  502    0 -0.80911090187E+03  0.43493467679E+03  0.98651391349E+03  0.13479756400E+04  0.25500000920E-02 0.  1.
       -2    1    3    3    0  502  0.80911090187E+03 -0.43493467679E+03 -0.89130913540E+03  0.12799455455E+04  0.25500000920E-02 0. -1.
</event>
<event>
 5   0  0.1753474E-06  0.2699164E+04  0.7818609E-02  0.8335276E-01
        1   -1    0    0  501    0  0.00000000000E+00  0.00000000000E+00  0.21528981368E+04  0.21528981368E+04  0.50400001928E-02 0. -1.
       -1   -1    0    0    0  501  0.00000000000E+00  0.00000000000E+00 -0.84600889734E+03  0.84600889735E+03  0.50400001928E-02 0.  1.
    10030    2    1    2    0    0  0.00000000000E+00  0.00000000000E+00  0.13068892395E+04  0.29989070342E+04  0.26991635585E+04 0.  0.
        3    1    3    3  502    0 -0.19659884803E+03  0.10420454359E+04 -0.27404046487E+03  0.10952661705E+04  0.10100000352E+00 0.  1.
       -3    1    3    3    0  502  0.19659884803E+03 -0.10420454359E+04  0.15809297043E+04  0.19036408637E+04  0.10100000352E+00 0. -1.
</event>
<event>
 5   0  0.4487186E-06  0.2703289E+04  0.7818609E-02  0.8333939E-01
        2   -1    0    0  501    0  0.00000000000E+00  0.00000000000E+00  0.13111989181E+04  0.13111989181E+04  0.25500000920E-02 0. -1.
       -2   -1    0    0    0  501  0.00000000000E+00  0.00000000000E+00 -0.13933377417E+04  0.13933377417E+04  0.25500000920E-02 0.  1.
    10030    2    1    2    0    0  0.00000000000E+00  0.00000000000E+00 -0.82138823676E+02  0.27045366598E+04  0.27032890629E+04 0.  0.
        3    1    3    3  502    0  0.40552255297E+03  0.11562674036E+04 -0.61189392896E+03  0.13696047022E+04  0.10100000352E+00 0.  1.
       -3    1    3    3    0  502 -0.40552255297E+03 -0.11562674036E+04  0.52975510528E+03  0.13349319576E+04  0.10100000352E+00 0. -1.
</event>
<event>
 5   0  0.1753474E-06  0.2698416E+04  0.7818609E-02  0.8335519E-01
       -1   -1    0    0    0  501  0.00000000000E+00  0.00000000000E+00  0.27518434734E+04  0.27518434734E+04  0.50400001928E-02 0.  1.
        1   -1    0    0  501    0  0.00000000000E+00  0.00000000000E+00 -0.66150637222E+03  0.66150637224E+03  0.50400001928E-02 0. -1.
    10030    2    1    2    0    0  0.00000000000E+00  0.00000000000E+00  0.20903371011E+04  0.34133498456E+04  0.26984158264E+04 0.  0.
        3    1    3    3  502    0 -0.46814301428E+03  0.78424492810E+03  0.23013330002E+04  0.24759506411E+04  0.10100000352E+00 0.  1.
       -3    1    3    3    0  502  0.46814301428E+03 -0.78424492810E+03 -0.21099589904E+03  0.93739920454E+03  0.10100000352E+00 0. -1.
</event>
<event>
 5   0  0.4439357E-06  0.2711456E+04  0.7818609E-02  0.8331298E-01
       -2   -1    0    0    0  501  0.00000000000E+00  0.00000000000E+00  0.10684410260E+04  0.10684410260E+04  0.25500000920E-02 0.  1.
        2   -1    0    0  501    0  0.00000000000E+00  0.00000000000E+00 -0.17202617047E+04  0.17202617047E+04  0.25500000920E-02 0. -1.
    10030    2    1    2    0    0  0.00000000000E+00  0.00000000000E+00 -0.65182067868E+03  0.27887027307E+04  0.27114558309E+04 0.  0.
        4    1    3    3  502    0  0.95757635189E+03 -0.52847648380E+03  0.49800937551E+03  0.12017715318E+04  0.12699999809E+01 0. -1.
       -4    1    3    3    0  502 -0.95757635189E+03  0.52847648380E+03 -0.11498300542E+04  0.15869311989E+04  0.12699999809E+01 0.  1.
</event>
<event>
 5   0  0.4487186E-06  0.2696283E+04  0.7818609E-02  0.8336212E-01
        2   -1    0    0  501    0  0.00000000000E+00  0.00000000000E+00  0.10874003614E+04  0.10874003614E+04  0.25500000920E-02 0. -1.
       -2   -1    0    0    0  501  0.00000000000E+00  0.00000000000E+00 -0.16714045966E+04  0.16714045966E+04  0.25500000920E-02 0.  1.
    10030    2    1    2    0    0  0.00000000000E+00  0.00000000000E+00 -0.58400423526E+03  0.27588049580E+04  0.26962833400E+04 0.  0.
        3    1    3    3  502    0  0.11652525290E+04 -0.56811332851E+03 -0.67060900082E+03  0.14595487839E+04  0.10100000352E+00 0. -1.
       -3    1    3    3    0  502 -0.11652525290E+04  0.56811332851E+03  0.86604765560E+02  0.12992561741E+04  0.10100000352E+00 0.  1.
</event>
<event>
 5   0  0.4448804E-06  0.2693319E+04  0.7818609E-02  0.8337176E-01
        2   -1    0    0  501    0  0.00000000000E+00  0.00000000000E+00  0.11804379406E+04  0.11804379406E+04  0.25500000920E-02 0.  1.
       -2   -1    0    0    0  501  0.00000000000E+00  0.00000000000E+00 -0.15362875014E+04  0.15362875014E+04  0.25500000920E-02 0. -1.
    10030    2    1    2    0    0  0.00000000000E+00  0.00000000000E+00 -0.35584956081E+03  0.27167254419E+04  0.26933191822E+04 0.  0.
        2    1    3    3  502    0  0.31164988541E+02 -0.10121325348E+04 -0.10733945720E+04  0.14756555939E+04  0.25500000920E-02 0. -1.
       -2    1    3    3    0  502 -0.31164988541E+02  0.10121325348E+04  0.71754501119E+03  0.12410698480E+04  0.25500000920E-02 0.  1.
</event>
<event>
 5   0  0.1732312E-06  0.2607217E+04  0.7818609E-02  0.8365754E-01
        1   -1    0    0  501    0  0.00000000000E+00  0.00000000000E+00  0.75047221776E+03  0.75047221778E+03  0.50400001928E-02 0.  1.
       -1   -1    0    0    0  501  0.00000000000E+00  0.00000000000E+00 -0.22644348307E+04  0.22644348307E+04  0.50400001928E-02 0. -1.
    10030    2    1    2    0    0  0.00000000000E+00  0.00000000000E+00 -0.15139626129E+04  0.30149070485E+04  0.26072172364E+04 0.  0.
        5    1    3    3  502    0 -0.28142750402E+03  0.44380540568E+03  0.62254821144E+03  0.81471040481E+03  0.46999998093E+01 0.  1.
       -5    1    3    3    0  502  0.28142750402E+03 -0.44380540568E+03 -0.21365108244E+04  0.22001966437E+04  0.46999998093E+01 0. -1.
</event>
<event>
 5   0  0.1723605E-06  0.2718914E+04  0.7818609E-02  0.8328894E-01
       -1   -1    0    0    0  501  0.00000000000E+00  0.00000000000E+00  0.20989978568E+04  0.20989978569E+04  0.50400001928E-02 0.  1.
        1   -1    0    0  501    0  0.00000000000E+00  0.00000000000E+00 -0.88047878089E+03  0.88047878090E+03  0.50400001928E-02 0. -1.
    10030    2    1    2    0    0  0.00000000000E+00  0.00000000000E+00  0.12185190760E+04  0.29794766378E+04  0.27189138082E+04 0.  0.
        1    1    3    3  502    0 -0.12277548951E+04  0.30581199613E+03  0.11541213346E+04  0.17125709079E+04  0.50400001928E-02 0.  1.
       -1    1    3    3    0  502  0.12277548951E+04 -0.30581199613E+03  0.64397741317E+02  0.12669057299E+04  0.50400001928E-02 0. -1.
</event>
<event>
 5   0  0.4655882E-06  0.2687067E+04  0.7818609E-02  0.8339213E-01
        2   -1    0    0  501    0  0.00000000000E+00  0.00000000000E+00  0.13773087396E+04  0.13773087396E+04  0.25500000920E-02 0. -1.
       -2   -1    0    0    0  501  0.00000000000E+00  0.00000000000E+00 -0.13105867626E+04  0.13105867626E+04  0.25500000920E-02 0.  1.
    10030    2    1    2    0    0  0.00000000000E+00  0.00000000000E+00  0.66721976959E+02  0.26878955022E+04  0.26870672505E+04 0.  0.
        1    1    3    3  502    0  0.27462357970E+03 -0.11680278554E+04  0.63801022512E+03  0.13589570372E+04  0.50400001928E-02 0. -1.
       -1    1    3    3    0  502 -0.27462357970E+03  0.11680278554E+04 -0.57128824816E+03  0.13289384651E+04  0.50400001928E-02 0.  1.
</event>
<event>
 5   0  0.4439357E-06  0.2744387E+04  0.7818609E-02  0.8320745E-01
        2   -1    0    0  501    0  0.00000000000E+00  0.00000000000E+00  0.14594611714E+04  0.14594611714E+04  0.25500000920E-02 0. -1.
       -2   -1    0    0    0  501  0.00000000000E+00  0.00000000000E+00 -0.12901438238E+04  0.12901438238E+04  0.25500000920E-02 0.  1.
    10030    2    1    2    0    0  0.00000000000E+00  0.00000000000E+00  0.16931734759E+03  0.27496049952E+04  0.27443868651E+04 0.  0.
        4    1    3    3  502    0 -0.14415366887E+03  0.87495389566E+02  0.14490399723E+04  0.14588194465E+04  0.12699999809E+01 0. -1.
       -4    1    3    3    0  502  0.14415366887E+03 -0.87495389566E+02 -0.12797226247E+04  0.12907855486E+04  0.12699999809E+01 0.  1.
</event>
<event>
 5   0  0.1482875E-06  0.2696200E+04  0.7818609E-02  0.8336239E-01
       -4   -1    0    0    0  501  0.00000000000E+00  0.00000000000E+00  0.12754787038E+04  0.12754793361E+04  0.12699999809E+01 0.  1.
        4   -1    0    0  501    0  0.00000000000E+00  0.00000000000E+00 -0.14248551509E+04  0.14248557169E+04  0.12699999809E+01 0. -1.
    10030    2    1    2    0    0  0.00000000000E+00  0.00000000000E+00 -0.14937644709E+03  0.27003350530E+04  0.26962003033E+04 0.  0.
        1    1    3    3  502    0 -0.34056135186E+03  0.25381065733E+03 -0.13560924266E+04  0.14210519180E+04  0.50400001928E-02 0. -1.
       -1    1    3    3    0  502  0.34056135186E+03 -0.25381065733E+03  0.12067159795E+04  0.12792831350E+04  0.50400001928E-02 0.  1.
</event>
<event>
 5   0  0.4487186E-06  0.2692053E+04  0.7818609E-02  0.8337588E-01
       -2   -1    0    0    0  501  0.00000000000E+00  0.00000000000E+00  0.83322665526E+03  0.83322665526E+03  0.25500000920E-02 0.  1.
        2   -1    0    0  501    0  0.00000000000E+00  0.00000000000E+00 -0.21744225023E+04  0.21744225023E+04  0.25500000920E-02 0. -1.
    10030    2    1    2    0    0  0.00000000000E+00  0.00000000000E+00 -0.13411958470E+04  0.30076491576E+04  0.26920525914E+04 0.  0.
        3    1    3    3  502    0  0.96472726073E+03  0.41805718615E+03  0.26835375518E+03  0.10851194619E+04  0.10100000352E+00 0.  1.
       -3    1    3    3    0  502 -0.96472726073E+03 -0.41805718615E+03 -0.16095496022E+04  0.19225296957E+04  0.10100000352E+00 0. -1.
</event>
<event>
 5   0  0.4439357E-06  0.2695143E+04  0.7818609E-02  0.8336582E-01
        2   -1    0    0  501    0  0.00000000000E+00  0.00000000000E+00  0.15341179812E+04  0.15341179812E+04  0.25500000920E-02 0. -1.
       -2   -1    0    0    0  501  0.00000000000E+00  0.00000000000E+00 -0.11837091988E+04  0.11837091988E+04  0.25500000920E-02 0.  1.
    10030    2    1    2    0    0  0.00000000000E+00  0.00000000000E+00  0.35040878239E+03  0.27178271800E+04  0.26951434592E+04 0.  0.
        4    1    3    3  502    0  0.10477024231E+03  0.10922598087E+04  0.96405406620E+03  0.14606197824E+04  0.12699999809E+01 0. -1.
       -4    1    3    3    0  502 -0.10477024231E+03 -0.10922598087E+04 -0.61364528381E+03  0.12572073976E+04  0.12699999809E+01 0.  1.
</event>
<event>
 5   0  0.1732312E-06  0.2700461E+04  0.7818609E-02  0.8334856E-01
       -1   -1    0    0    0  501  0.00000000000E+00  0.00000000000E+00  0.14135878378E+04  0.14135878378E+04  0.50400001928E-02 0. -1.
        1   -1    0    0  501    0  0.00000000000E+00  0.00000000000E+00 -0.12897123845E+04  0.12897123845E+04  0.50400001928E-02 0.  1.
    10030    2    1    2    0    0  0.00000000000E+00  0.00000000000E+00  0.12387545328E+03  0.27033002223E+04  0.27004605097E+04 0.  0.
        5    1    3    3  502    0 -0.11019553692E+04 -0.44017147370E+02 -0.71789140623E+03  0.13159153872E+04  0.46999998093E+01 0.  1.
       -5    1    3    3    0  502  0.11019553692E+04  0.44017147370E+02  0.84176685952E+03  0.13873848352E+04  0.46999998093E+01 0. -1.
</event>
<event>
 5   0  0.1771016E-06  0.2709521E+04  0.7818609E-02  0.8331922E-01
       -1   -1    0    0    0  501  0.00000000000E+00  0.00000000000E+00  0.89492861147E+03  0.89492861149E+03  0.50400001928E-02 0. -1.
        1   -1    0    0  501    0  0.00000000000E+00  0.00000000000E+00 -0.20508625271E+04  0.20508625271E+04  0.50400001928E-02 0.  1.
    10030    2    1    2    0    0  0.00000000000E+00  0.00000000000E+00 -0.11559339156E+04  0.29457911386E+04  0.27095206614E+04 0.  0.
        2    1    3    3  502    0  0.22082761487E+03 -0.13010739425E+04 -0.24496178277E+03  0.13422237199E+04  0.25500000920E-02 0. -1.
       -2    1    3    3    0  502 -0.22082761487E+03  0.13010739425E+04 -0.91097213284E+03  0.16035674186E+04  0.25500000920E-02 0.  1.
</event>
<event>
 5   0  0.4439357E-06  0.2718944E+04  0.7818609E-02  0.8328884E-01
        2   -1    0    0  501    0  0.00000000000E+00  0.00000000000E+00  0.26362051687E+04  0.26362051687E+04  0.25500000920E-02 0.  1.
       -2   -1    0    0    0  501  0.00000000000E+00  0.00000000000E+00 -0.70106971002E+03  0.70106971002E+03  0.25500000920E-02 0. -1.
    10030    2    1    2    0    0  0.00000000000E+00  0.00000000000E+00  0.19351354587E+04  0.33372748787E+04  0.27189436134E+04 0.  0.
        4    1    3    3  502    0 -0.73122778943E+03  0.35816899529E+03 -0.36867224978E+03  0.89381203274E+03  0.12699999809E+01 0. -1.
       -4    1    3    3    0  502  0.73122778943E+03 -0.35816899529E+03  0.23038077084E+04  0.24434628460E+04  0.12699999809E+01 0.  1.
</event>
<event>
 5   0  0.4487186E-06  0.2695788E+04  0.7818609E-02  0.8336373E-01
        2   -1    0    0  501    0  0.00000000000E+00  0.00000000000E+00  0.26581439274E+04  0.26581439274E+04  0.25500000920E-02 0. -1.
       -2   -1    0    0    0  501  0.00000000000E+00  0.00000000000E+00 -0.68349125019E+03  0.68349125020E+03  0.25500000920E-02 0.  1.
    10030    2    1    2    0    0  0.00000000000E+00  0.00000000000E+00  0.19746526772E+04  0.33416351776E+04  0.26957879116E+04 0.  0.
        3    1    3    3  502    0  0.27231572897E+03 -0.10560337704E+04  0.19692202771E+04  0.22510423564E+04  0.10100000352E+00 0. -1.
       -3    1    3    3    0  502 -0.27231572897E+03  0.10560337704E+04  0.54324000674E+01  0.10905928212E+04  0.10100000352E+00 0.  1.
</event>
<event>
 5   0  0.4448804E-06  0.2677675E+04  0.7818609E-02  0.8342285E-01
        2   -1    0    0  501    0  0.00000000000E+00  0.00000000000E+00  0.13307651066E+04  0.13307651066E+04  0.25500000920E-02 0. -1.
       -2   -1    0    0    0  501  0.00000000000E+00  0.00000000000E+00 -0.13469587118E+04  0.13469587118E+04  0.25500000920E-02 0.  1.
    10030    2    1    2    0    0  0.00000000000E+00  0.00000000000E+00 -0.16193605207E+02  0.26777238184E+04  0.26776748523E+04 0.  0.
        2    1    3    3  502    0  0.12951550609E+04 -0.33886531603E+03  0.70467733975E+01  0.13387703280E+04  0.25500000920E-02 0. -1.
       -2    1    3    3    0  502 -0.12951550609E+04  0.33886531603E+03 -0.23240378604E+02  0.13389534904E+04  0.25500000920E-02 0.  1.
</event>
<event>
 5   0  0.4439357E-06  0.2718043E+04  0.7818609E-02  0.8329174E-01
        2   -1    0    0  501    0  0.00000000000E+00  0.00000000000E+00  0.20045460951E+04  0.20045460951E+04  0.25500000920E-02 0. -1.
       -2   -1    0    0    0  501  0.00000000000E+00  0.00000000000E+00 -0.92137546232E+03  0.92137546232E+03  0.25500000920E-02 0.  1.
    10030    2    1    2    0    0  0.00000000000E+00  0.00000000000E+00  0.10831706327E+04  0.29259215574E+04  0.27180431086E+04 0.  0.
        4    1    3    3  502    0 -0.98333539453E+03 -0.93649797693E+03  0.60016223376E+03  0.14846458428E+04  0.12699999809E+01 0.  1.
       -4    1    3    3    0  502  0.98333539453E+03  0.93649797693E+03  0.48300839899E+03  0.14412757145E+04  0.12699999809E+01 0. -1.
</event>
<event>
 5   0  0.1723605E-06  0.2700685E+04  0.7818609E-02  0.8334783E-01
        1   -1    0    0  501    0  0.00000000000E+00  0.00000000000E+00  0.19968765758E+04  0.19968765758E+04  0.50400001928E-02 0.  1.
       -1   -1    0    0    0  501  0.00000000000E+00  0.00000000000E+00 -0.91313863358E+03  0.91313863359E+03  0.50400001928E-02 0. -1.
    10030    2    1    2    0    0  0.00000000000E+00  0.00000000000E+00  0.10837379423E+04  0.29100152094E+04  0.27006852078E+04 0.  0.
        1    1    3    3  502    0 -0.68595091096E+03 -0.11599019325E+04  0.44840466990E+03  0.14201999483E+04  0.50400001928E-02 0.  1.
       -1    1    3    3    0  502  0.68595091096E+03  0.11599019325E+04  0.63533327235E+03  0.14898152611E+04  0.50400001928E-02 0. -1.
</event>
<event>
 5   0  0.4448804E-06  0.2719125E+04  0.7818609E-02  0.8328826E-01
       -2   -1    0    0    0  501  0.00000000000E+00  0.00000000000E+00  0.13918130829E+04  0.13918130829E+04  0.25500000920E-02 0.  1.
        2   -1    0    0  501    0  0.00000000000E+00  0.00000000000E+00 -0.13280594906E+04  0.13280594906E+04  0.25500000920E-02 0. -1.
    10030    2    1    2    0    0  0.00000000000E+00  0.00000000000E+00  0.63753592339E+02  0.27198725735E+04  0.27191252813E+04 0.  0.
        2    1    3    3  502    0 -0.25636580544E+02  0.13500596091E+04 -0.12657251891E+03  0.13562222477E+04  0.25500000920E-02 0.  1.
       -2    1    3    3    0  502  0.25636580544E+02 -0.13500596091E+04  0.19032611125E+03  0.13636503258E+04  0.25500000920E-02 0. -1.
</event>
<event>
 5   0  0.1732312E-06  0.2671774E+04  0.7818609E-02  0.8344222E-01
        1   -1    0    0  501    0  0.00000000000E+00  0.00000000000E+00  0.10054697084E+04  0.10054697084E+04  0.50400001928E-02 0.  1.
       -1   -1    0    0    0  501  0.00000000000E+00  0.00000000000E+00 -0.17748853674E+04  0.17748853674E+04  0.50400001928E-02 0. -1.
    10030    2    1    2    0    0  0.00000000000E+00  0.00000000000E+00 -0.76941565899E+03  0.27803550759E+04  0.26717735480E+04 0.  0.
        5    1    3    3  502    0  0.53997218762E+03 -0.10748096255E+04 -0.98952099936E+03  0.15575492264E+04  0.46999998093E+01 0. -1.
       -5    1    3    3    0  502 -0.53997218762E+03  0.10748096255E+04  0.22010534037E+03  0.12228058494E+04  0.46999998093E+01 0.  1.
</event>
<event>
 5   0  0.1753474E-06  0.2706396E+04  0.7818609E-02  0.8332933E-01
       -1   -1    0    0    0  501  0.00000000000E+00  0.00000000000E+00  0.10256434579E+04  0.10256434579E+04  0.50400001928E-02 0.  1.
        1   -1    0    0  501    0  0.00000000000E+00  0.00000000000E+00 -0.17853615187E+04  0.17853615187E+04  0.50400001928E-02 0. -1.
    10030    2    1    2    0    0  0.00000000000E+00  0.00000000000E+00 -0.75971806081E+03  0.28110049765E+04  0.27063956559E+04 0.  0.
        3    1    3    3  502    0 -0.12204110087E+04  0.57465642061E+03 -0.26842114073E+03  0.13753846556E+04  0.10100000352E+00 0. -1.
       -3    1    3    3    0  502  0.12204110087E+04 -0.57465642061E+03 -0.49129692007E+03  0.14356203209E+04  0.10100000352E+00 0.  1.
</event>
<event>
 5   0  0.4401659E-06  0.2701006E+04  0.7818609E-02  0.8334679E-01
        2   -1    0    0  501    0  0.00000000000E+00  0.00000000000E+00  0.19750644568E+04  0.19750644568E+04  0.25500000920E-02 0.  1.
       -2   -1    0    0    0  501  0.00000000000E+00  0.00000000000E+00 -0.92344210871E+03  0.92344210871E+03  0.25500000920E-02 0. -1.
    10030    2    1    2    0    0  0.00000000000E+00  0.00000000000E+00  0.10516223481E+04  0.28985065655E+04  0.27010055067E+04 0.  0.
        5    1    3    3  502    0  0.40857243666E+03  0.49660974972E+03 -0.74857761277E+03  0.98688561235E+03  0.46999998093E+01 0. -1.
       -5    1    3    3    0  502 -0.40857243666E+03 -0.49660974972E+03  0.18001999609E+04  0.19116209532E+04  0.46999998093E+01 0.  1.
</event>
<event>
 5   0  0.1732312E-06  0.2714467E+04  0.7818609E-02  0.8330326E-01
       -1   -1    0    0    0  501  0.00000000000E+00  0.00000000000E+00  0.15450003263E+04  0.15450003263E+04  0.50400001928E-02 0.  1.
        1   -1    0    0  501    0  0.00000000000E+00  0.00000000000E+00 -0.11922859395E+04  0.11922859395E+04  0.50400001928E-02 0. -1.
    10030    2    1    2    0    0  0.00000000000E+00  0.00000000000E+00  0.35271438684E+03  0.27372862658E+04  0.27144665520E+04 0.  0.
        5    1    3    3  502    0 -0.48589227228E+03  0.10862046755E+04  0.83462990274E+03  0.14534651911E+04  0.46999998093E+01 0.  1.
       -5    1    3    3    0  502  0.48589227228E+03 -0.10862046755E+04 -0.48191551591E+03  0.12838210747E+04  0.46999998093E+01 0. -1.
</event>
<event>
 5   0  0.4487186E-06  0.2698436E+04  0.7818609E-02  0.8335513E-01
        2   -1    0    0  501    0  0.00000000000E+00  0.00000000000E+00  0.14492836622E+04  0.14492836622E+04  0.25500000920E-02 0.  1.
       -2   -1    0    0    0  501  0.00000000000E+00  0.00000000000E+00 -0.12560612472E+04  0.12560612472E+04  0.25500000920E-02 0. -1.
    10030    2    1    2    0    0  0.00000000000E+00  0.00000000000E+00  0.19322241500E+03  0.27053449094E+04  0.26984358761E+04 0.  0.
        3    1    3    3  502    0 -0.81296041625E+03  0.18264423293E+03 -0.96729644390E+03  0.12766855426E+04  0.10100000352E+00 0. -1.
       -3    1    3    3    0  502  0.81296041625E+03 -0.18264423293E+03  0.11605188589E+04  0.14286593668E+04  0.10100000352E+00 0.  1.
</event>
<event>
 5   0  0.1723605E-06  0.2697236E+04  0.7818609E-02  0.8335902E-01
       -1   -1    0    0    0  501  0.00000000000E+00  0.00000000000E+00  0.12611762639E+04  0.12611762639E+04  0.50400001928E-02 0.  1.
        1   -1    0    0  501    0  0.00000000000E+00  0.00000000000E+00 -0.14421223651E+04  0.14421223651E+04  0.50400001928E-02 0. -1.
    10030    2    1    2    0    0  0.00000000000E+00  0.00000000000E+00 -0.18094610121E+03  0.27032986289E+04  0.26972359900E+04 0.  0.
        1    1    3    3  502    0 -0.19339221140E+02 -0.11587691978E+04 -0.78169739986E+03  0.13979166228E+04  0.50400001928E-02 0. -1.
       -1    1    3    3    0  502  0.19339221140E+02  0.11587691978E+04  0.60075129865E+03  0.13053820062E+04  0.50400001928E-02 0.  1.
</event>
<event>
 5   0  0.1732312E-06  0.2699208E+04  0.7818609E-02  0.8335262E-01
       -1   -1    0    0    0  501  0.00000000000E+00  0.00000000000E+00  0.51527253848E+03  0.51527253850E+03  0.50400001928E-02 0. -1.
        1   -1    0    0  501    0  0.00000000000E+00  0.00000000000E+00 -0.35348893517E+04  0.35348893517E+04  0.50400001928E-02 0.  1.
    10030    2    1    2    0    0  0.00000000000E+00  0.00000000000E+00 -0.30196168132E+04  0.40501618902E+04  0.26992083355E+04 0.  0.
        5    1    3    3  502    0 -0.12569821033E+04  0.23830383648E+03 -0.86508810983E+03  0.15444067645E+04  0.46999998093E+01 0. -1.
       -5    1    3    3    0  502  0.12569821033E+04 -0.23830383648E+03 -0.21545287034E+04  0.25057551257E+04  0.46999998093E+01 0.  1.
</event>
<event>
 5   0  0.4487186E-06  0.2693166E+04  0.7818609E-02  0.8337226E-01
       -2   -1    0    0    0  501  0.00000000000E+00  0.00000000000E+00  0.77964654109E+03  0.77964654110E+03  0.25500000920E-02 0. -1.
        2   -1    0    0  501    0  0.00000000000E+00  0.00000000000E+00 -0.23257798930E+04  0.23257798930E+04  0.25500000920E-02 0.  1.
    10030    2    1    2    0    0  0.00000000000E+00  0.00000000000E+00 -0.15461333519E+04  0.31054264341E+04  0.26931663513E+04 0.  0.
        3    1    3    3  502    0  0.10765718457E+04  0.78921721380E+03 -0.97744271561E+03  0.16544681991E+04  0.10100000352E+00 0. -1.
       -3    1    3    3    0  502 -0.10765718457E+04 -0.78921721380E+03 -0.56869063626E+03  0.14509582349E+04  0.10100000352E+00 0.  1.
</event>
<event>
 5   0  0.4401659E-06  0.2686817E+04  0.7818609E-02  0.8339295E-01
       -2   -1    0    0    0  501  0.00000000000E+00  0.00000000000E+00  0.10499050811E+04  0.10499050811E+04  0.25500000920E-02 0.  1.
        2   -1    0    0  501    0  0.00000000000E+00  0.00000000000E+00 -0.17189620539E+04  0.17189620539E+04  0.25500000920E-02 0. -1.
    10030    2    1    2    0    0  0.00000000000E+00  0.00000000000E+00 -0.66905697283E+03  0.27688671350E+04  0.26868174442E+04 0.  0.
        5    1    3    3  502    0  0.11893597104E+04  0.23156458263E+03  0.26329560992E+03  0.12399779614E+04  0.46999998093E+01 0.  1.
       -5    1    3    3    0  502 -0.11893597104E+04 -0.23156458263E+03 -0.93235258274E+03  0.15288891736E+04  0.46999998093E+01 0. -1.
</event>
<event>
 5   0  0.4401659E-06  0.2711305E+04  0.7818609E-02  0.8331346E-01
        2   -1    0    0  501    0  0.00000000000E+00  0.00000000000E+00  0.19618063136E+04  0.19618063136E+04  0.25500000920E-02 0.  1.
       -2   -1    0    0    0  501  0.00000000000E+00  0.00000000000E+00 -0.93678636100E+03  0.93678636101E+03  0.25500000920E-02 0. -1.
    10030    2    1    2    0    0  0.00000000000E+00  0.00000000000E+00  0.10250199526E+04  0.28985926746E+04  0.27113047763E+04 0.  0.
        5    1    3    3  502    0 -0.73695355295E+03 -0.81833099736E+03  0.13576927721E+04  0.17481755958E+04  0.46999998093E+01 0.  1.
       -5    1    3    3    0  502  0.73695355295E+03  0.81833099736E+03 -0.33267281944E+03  0.11504170788E+04  0.46999998093E+01 0. -1.
</event>
<event>
 5   0  0.1828511E-06  0.2695985E+04  0.7818609E-02  0.8336309E-01
       -1   -1    0    0    0  501  0.00000000000E+00  0.00000000000E+00  0.13127132726E+04  0.13127132726E+04  0.50400001928E-02 0. -1.
        1   -1    0    0  501    0  0.00000000000E+00  0.00000000000E+00 -0.13842199635E+04  0.13842199635E+04  0.50400001928E-02 0.  1.
    10030    2    1    2    0    0  0.00000000000E+00  0.00000000000E+00 -0.71506690888E+02  0.26969332361E+04  0.26959851026E+04 0.  0.
        4    1    3    3  502    0  0.29536137790E+03  0.11434829419E+04  0.61431419042E+03  0.13312306785E+04  0.12699999809E+01 0. -1.
       -4    1    3    3    0  502 -0.29536137790E+03 -0.11434829419E+04 -0.68582088131E+03  0.13657025577E+04  0.12699999809E+01 0.  1.
</event>
<event>
 5   0  0.1482875E-06  0.2527646E+04  0.7818609E-02  0.8393202E-01
       -3   -1    0    0    0  501  0.00000000000E+00  0.00000000000E+00  0.16041750118E+04  0.16041750150E+04  0.10100000352E+00 0. -1.
        3   -1    0    0  501    0  0.00000000000E+00  0.00000000000E+00 -0.99568186248E+03  0.99568186760E+03  0.10100000352E+00 0.  1.
    10030    2    1    2    0    0  0.00000000000E+00  0.00000000000E+00  0.60849314929E+03  0.25998568826E+04  0.25276455244E+04 0.  0.
        5    1    3    3  502    0  0.83825497801E+03 -0.37339384276E+03 -0.58956211068E+03  0.10907336716E+04  0.46999998093E+01 0.  1.
       -5    1    3    3    0  502 -0.83825497801E+03  0.37339384276E+03  0.11980552600E+04  0.15091232110E+04  0.46999998093E+01 0. -1.
</event>
<event>
 5   0  0.1828511E-06  0.2714280E+04  0.7818609E-02  0.8330386E-01
       -1   -1    0    0    0  501  0.00000000000E+00  0.00000000000E+00  0.15859540189E+04  0.15859540189E+04  0.50400001928E-02 0.  1.
        1   -1    0    0  501    0  0.00000000000E+00  0.00000000000E+00 -0.11613385208E+04  0.11613385209E+04  0.50400001928E-02 0. -1.
    10030    2    1    2    0    0  0.00000000000E+00  0.00000000000E+00  0.42461549807E+03  0.27472925398E+04  0.27142803794E+04 0.  0.
        4    1    3    3  502    0  0.15334759687E+03 -0.23153551561E+03  0.15568860485E+04  0.15814613373E+04  0.12699999809E+01 0.  1.
       -4    1    3    3    0  502 -0.15334759687E+03  0.23153551561E+03 -0.11322705504E+04  0.11658312025E+04  0.12699999809E+01 0. -1.
</event>
<event>
 5   0  0.1753474E-06  0.2703509E+04  0.7818609E-02  0.8333867E-01
       -1   -1    0    0    0  501  0.00000000000E+00  0.00000000000E+00  0.91434866132E+03  0.91434866133E+03  0.50400001928E-02 0. -1.
        1   -1    0    0  501    0  0.00000000000E+00  0.00000000000E+00 -0.19984066143E+04  0.19984066143E+04  0.50400001928E-02 0.  1.
    10030    2    1    2    0    0  0.00000000000E+00  0.00000000000E+00 -0.10840579530E+04  0.29127552756E+04  0.27035091363E+04 0.  0.
        3    1    3    3  502    0 -0.50575783611E+03  0.84131228566E+03 -0.15432807482E+04  0.18290196360E+04  0.10100000352E+00 0.  1.
       -3    1    3    3    0  502  0.50575783611E+03 -0.84131228566E+03  0.45922279524E+03  0.10837356397E+04  0.10100000352E+00 0. -1.
</event>
<event>
 5   0  0.1723605E-06  0.2678654E+04  0.7818609E-02  0.8341964E-01
        1   -1    0    0  501    0  0.00000000000E+00  0.00000000000E+00  0.14218722904E+04  0.14218722904E+04  0.50400001928E-02 0. -1.
       -1   -1    0    0    0  501  0.00000000000E+00  0.00000000000E+00 -0.12615740009E+04  0.12615740009E+04  0.50400001928E-02 0.  1.
    10030    2    1    2    0    0  0.00000000000E+00  0.00000000000E+00  0.16029828946E+03  0.26834462913E+04  0.26786542249E+04 0.  0.
        1    1    3    3  502    0 -0.91078355459E+03 -0.97029190491E+03 -0.71131109153E+02  0.13326862717E+04  0.50400001928E-02 0.  1.
       -1    1    3    3    0  502  0.91078355459E+03  0.97029190491E+03  0.23142939861E+03  0.13507600196E+04  0.50400001928E-02 0. -1.
</event>
<event>
 5   0  0.4401659E-06  0.2775658E+04  0.7818609E-02  0.8310865E-01
        2   -1    0    0  501    0  0.00000000000E+00  0.00000000000E+00  0.20337753145E+04  0.20337753145E+04  0.25500000920E-02 0. -1.
       -2   -1    0    0    0  501  0.00000000000E+00  0.00000000000E+00 -0.94704168972E+03  0.94704168972E+03  0.25500000920E-02 0.  1.
    10030    2    1    2    0    0  0.00000000000E+00  0.00000000000E+00  0.10867336248E+04  0.29808170043E+04  0.27756584879E+04 0.  0.
        5    1    3    3  502    0  0.12178011454E+04  0.10752381205E+03 -0.16202915324E+03  0.12332382318E+04  0.46999998093E+01 0.  1.
       -5    1    3    3    0  502 -0.12178011454E+04 -0.10752381205E+03  0.12487627781E+04  0.17475787724E+04  0.46999998093E+01 0. -1.
</event>
<event>
 5   0  0.4401659E-06  0.2699895E+04  0.7818609E-02  0.8335039E-01
        2   -1    0    0  501    0  0.00000000000E+00  0.00000000000E+00  0.15407599921E+04  0.15407599921E+04  0.25500000920E-02 0. -1.
       -2   -1    0    0    0  501  0.00000000000E+00  0.00000000000E+00 -0.11827655727E+04  0.11827655727E+04  0.25500000920E-02 0.  1.
    10030    2    1    2    0    0  0.00000000000E+00  0.00000000000E+00  0.35799441936E+03  0.27235255648E+04  0.26998947198E+04 0.  0.
        5    1    3    3  502    0  0.33438666015E+03 -0.73587552497E+03 -0.91167305226E+03  0.12183993889E+04  0.46999998093E+01 0.  1.
       -5    1    3    3    0  502 -0.33438666015E+03  0.73587552497E+03  0.12696674716E+04  0.15051261759E+04  0.46999998093E+01 0. -1.
</event>
<event>
 5   0  0.4401659E-06  0.2700140E+04  0.7818609E-02  0.8334960E-01
       -2   -1    0    0    0  501  0.00000000000E+00  0.00000000000E+00  0.16529659278E+04  0.16529659278E+04  0.25500000920E-02 0. -1.
        2   -1    0    0  501    0  0.00000000000E+00  0.00000000000E+00 -0.11026779189E+04  0.11026779189E+04  0.25500000920E-02 0.  1.
    10030    2    1    2    0    0  0.00000000000E+00  0.00000000000E+00  0.55028800891E+03  0.27556438467E+04  0.27001400180E+04 0.  0.
        5    1    3    3  502    0  0.88487511179E+03 -0.98179779315E+03  0.55600289847E+03  0.14339080107E+04  0.46999998093E+01 0. -1.
       -5    1    3    3    0  502 -0.88487511179E+03  0.98179779315E+03 -0.57148895665E+01  0.13217358360E+04  0.46999998093E+01 0.  1.
</event>
<event>
 5   0  0.1723605E-06  0.2687223E+04  0.7818609E-02  0.8339163E-01
       -1   -1    0    0    0  501  0.00000000000E+00  0.00000000000E+00  0.15688750942E+04  0.15688750942E+04  0.50400001928E-02 0.  1.
        1   -1    0    0  501    0  0.00000000000E+00  0.00000000000E+00 -0.11506915822E+04  0.11506915822E+04  0.50400001928E-02 0. -1.
    10030    2    1    2    0    0  0.00000000000E+00  0.00000000000E+00  0.41818351198E+03  0.27195666764E+04  0.26872226290E+04 0.  0.
        1    1    3    3  502    0 -0.80995576982E+03  0.18233570985E+03  0.12782239578E+04  0.15241821238E+04  0.50400001928E-02 0.  1.
       -1    1    3    3    0  502  0.80995576982E+03 -0.18233570985E+03 -0.86004044585E+03  0.11953845526E+04  0.50400001928E-02 0. -1.
</event>
<event>
 5   0  0.4655882E-06  0.2730350E+04  0.7818609E-02  0.8325224E-01
       -2   -1    0    0    0  501  0.00000000000E+00  0.00000000000E+00  0.11016870735E+04  0.11016870735E+04  0.25500000920E-02 0.  1.
        2   -1    0    0  501    0  0.00000000000E+00  0.00000000000E+00 -0.16916805235E+04  0.16916805235E+04  0.25500000920E-02 0. -1.
    10030    2    1    2    0    0  0.00000000000E+00  0.00000000000E+00 -0.58999345002E+03  0.27933675970E+04  0.27303498422E+04 0.  0.
        1    1    3    3  502    0 -0.55620488502E+03  0.79419968467E+03  0.68821796603E+03  0.11890168132E+04  0.50400001928E-02 0.  1.
       -1    1    3    3    0  502  0.55620488502E+03 -0.79419968467E+03 -0.12782114160E+04  0.16043507838E+04  0.50400001928E-02 0. -1.
</event>
<event>
 5   0  0.4655882E-06  0.2678330E+04  0.7818609E-02  0.8342071E-01
        2   -1    0    0  501    0  0.00000000000E+00  0.00000000000E+00  0.19600506599E+04  0.19600506599E+04  0.25500000920E-02 0. -1.
       -2   -1    0    0    0  501  0.00000000000E+00  0.00000000000E+00 -0.91495711091E+03  0.91495711091E+03  0.25500000920E-02 0.  1.
    10030    2    1    2    0    0  0.00000000000E+00  0.00000000000E+00  0.10450935490E+04  0.28750077708E+04  0.26783295458E+04 0.  0.
        1    1    3    3  502    0 -0.80833420050E+03  0.61819572112E+03 -0.41189030730E+03  0.10978268327E+04  0.50400001928E-02 0.  1.
       -1    1    3    3    0  502  0.80833420050E+03 -0.61819572112E+03  0.14569838563E+04  0.17771809381E+04  0.50400001928E-02 0. -1.
</event>
<event>
 5   0  0.1753474E-06  0.2732378E+04  0.7818609E-02  0.8324575E-01
       -1   -1    0    0    0  501  0.00000000000E+00  0.00000000000E+00  0.21870227405E+04  0.21870227405E+04  0.50400001928E-02 0. -1.
        1   -1    0    0  501    0  0.00000000000E+00  0.00000000000E+00 -0.85343079163E+03  0.85343079164E+03  0.50400001928E-02 0.  1.
    10030    2    1    2    0    0  0.00000000000E+00  0.00000000000E+00  0.13335919488E+04  0.30404535321E+04  0.27323781208E+04 0.  0.
        3    1    3    3  502    0 -0.10386826015E+04  0.48263288982E+03 -0.16194239942E+03  0.11567287512E+04  0.10100000352E+00 0.  1.
       -3    1    3    3    0  502  0.10386826015E+04 -0.48263288982E+03  0.14955343482E+04  0.18837247809E+04  0.10100000352E+00 0. -1.
</event>
<event>
 5   0  0.4439357E-06  0.2698203E+04  0.7818609E-02  0.8335588E-01
        2   -1    0    0  501    0  0.00000000000E+00  0.00000000000E+00  0.12814279438E+04  0.12814279438E+04  0.25500000920E-02 0.  1.
       -2   -1    0    0    0  501  0.00000000000E+00  0.00000000000E+00 -0.14203486314E+04  0.14203486314E+04  0.25500000920E-02 0. -1.
    10030    2    1    2    0    0  0.00000000000E+00  0.00000000000E+00 -0.13892068760E+03  0.27017765752E+04  0.26982026804E+04 0.  0.
        4    1    3    3  502    0 -0.24312614316E+02 -0.94237692852E+03  0.89691248981E+03  0.13011990647E+04  0.12699999809E+01 0.  1.
       -4    1    3    3    0  502  0.24312614316E+02  0.94237692852E+03 -0.10358331774E+04  0.14005775105E+04  0.12699999809E+01 0. -1.
</event>
<event>
 5   0  0.1771016E-06  0.2672882E+04  0.7818609E-02  0.8343858E-01
        1   -1    0    0  501    0  0.00000000000E+00  0.00000000000E+00  0.21336647530E+04  0.21336647530E+04  0.50400001928E-02 0. -1.
       -1   -1    0    0    0  501  0.00000000000E+00  0.00000000000E+00 -0.83709229556E+03  0.83709229558E+03  0.50400001928E-02 0.  1.
    10030    2    1    2    0    0  0.00000000000E+00  0.00000000000E+00  0.12965724574E+04  0.29707570486E+04  0.26728818351E+04 0.  0.
        2    1    3    3  502    0  0.12774984189E+04  0.23133018387E+03  0.29583690010E+03  0.13315537299E+04  0.25500000920E-02 0.  1.
       -2    1    3    3    0  502 -0.12774984189E+04 -0.23133018387E+03  0.10007355573E+04  0.16392033187E+04  0.25500000920E-02 0. -1.
</event>
<event>
 5   0  0.4448804E-06  0.2561070E+04  0.7818609E-02  0.8381546E-01
       -2   -1    0    0    0  501  0.00000000000E+00  0.00000000000E+00  0.10588857452E+04  0.10588857452E+04  0.25500000920E-02 0.  1.
        2   -1    0    0  501    0  0.00000000000E+00  0.00000000000E+00 -0.15485804784E+04  0.15485804784E+04  0.25500000920E-02 0. -1.
    10030    2    1    2    0    0  0.00000000000E+00  0.00000000000E+00 -0.48969473319E+03  0.26074662236E+04  0.25610699279E+04 0.  0.
        2    1    3    3  502    0 -0.37948655309E+03  0.48120602193E+03 -0.13895830904E+04  0.15187200021E+04  0.25500000920E-02 0. -1.
       -2    1    3    3    0  502  0.37948655309E+03 -0.48120602193E+03  0.89988835721E+03  0.10887462216E+04  0.25500000920E-02 0.  1.
</event>
<event>
 5   0  0.1753474E-06  0.2687227E+04  0.7818609E-02  0.8339161E-01
        1   -1    0    0  501    0  0.00000000000E+00  0.00000000000E+00  0.21889973934E+04  0.21889973935E+04  0.50400001928E-02 0.  1.
       -1   -1    0    0    0  501  0.00000000000E+00  0.00000000000E+00 -0.82471406026E+03  0.82471406028E+03  0.50400001928E-02 0. -1.
    10030    2    1    2    0    0  0.00000000000E+00  0.00000000000E+00  0.13642833332E+04  0.30137114537E+04  0.26872267699E+04 0.  0.
        3    1    3    3  502    0 -0.13248315386E+03  0.10907606913E+04 -0.18510561871E+03  0.11142597417E+04  0.10100000352E+00 0. -1.
       -3    1    3    3    0  502  0.13248315386E+03 -0.10907606913E+04  0.15493889519E+04  0.18994517120E+04  0.10100000352E+00 0.  1.
</event>
<event>
 5   0  0.4448804E-06  0.2697139E+04  0.7818609E-02  0.8335934E-01
        2   -1    0    0  501    0  0.00000000000E+00  0.00000000000E+00  0.12272700495E+04  0.12272700495E+04  0.25500000920E-02 0.  1.
       -2   -1    0    0    0  501  0.00000000000E+00  0.00000000000E+00 -0.14818573483E+04  0.14818573483E+04  0.25500000920E-02 0. -1.
    10030    2    1    2    0    0  0.00000000000E+00  0.00000000000E+00 -0.25458729879E+03  0.27091273979E+04  0.26971385884E+04 0.  0.
        2    1    3    3  502    0 -0.58593700749E+02 -0.11548608994E+04  0.56969437141E+03  0.12890650082E+04  0.25500000920E-02 0.  1.
       -2    1    3    3    0  502  0.58593700749E+02  0.11548608994E+04 -0.82428167020E+03  0.14200623896E+04  0.25500000920E-02 0. -1.
</event>
<event>
 5   0  0.4401659E-06  0.2697537E+04  0.7818609E-02  0.8335805E-01
        2   -1    0    0  501    0  0.00000000000E+00  0.00000000000E+00  0.15364603305E+04  0.15364603305E+04  0.25500000920E-02 0. -1.
       -2   -1    0    0    0  501  0.00000000000E+00  0.00000000000E+00 -0.11840046940E+04  0.11840046940E+04  0.25500000920E-02 0.  1.
    10030    2    1    2    0    0  0.00000000000E+00  0.00000000000E+00  0.35245563652E+03  0.27204650245E+04  0.26975368346E+04 0.  0.
        5    1    3    3  502    0  0.39583497245E+03  0.62803965597E+03  0.13118696639E+04  0.15073630087E+04  0.46999998093E+01 0. -1.
       -5    1    3    3    0  502 -0.39583497245E+03 -0.62803965597E+03 -0.95941402736E+03  0.12131020158E+04  0.46999998093E+01 0.  1.
</event>
<event>
 5   0  0.4401659E-06  0.2679136E+04  0.7818609E-02  0.8341806E-01
        2   -1    0    0  501    0  0.00000000000E+00  0.00000000000E+00  0.24111116335E+04  0.24111116335E+04  0.25500000920E-02 0. -1.
       -2   -1    0    0    0  501  0.00000000000E+00  0.00000000000E+00 -0.74423886802E+03  0.74423886802E+03  0.25500000920E-02 0.  1.
    10030    2    1    2    0    0  0.00000000000E+00  0.00000000000E+00  0.16668727655E+04  0.31553505015E+04  0.26791364226E+04 0.  0.
        5    1    3    3  502    0  0.97003779212E+03 -0.91679329006E+03  0.96739801929E+03  0.16484429843E+04  0.46999998093E+01 0.  1.
       -5    1    3    3    0  502 -0.97003779212E+03  0.91679329006E+03  0.69947474619E+03  0.15069075172E+04  0.46999998093E+01 0. -1.
</event>
<event>
 5   0  0.1482875E-06  0.2674768E+04  0.7818609E-02  0.8343239E-01
        4   -1    0    0  501    0  0.00000000000E+00  0.00000000000E+00  0.10593535081E+04  0.10593542694E+04  0.12699999809E+01 0. -1.
       -4   -1    0    0    0  501  0.00000000000E+00  0.00000000000E+00 -0.16883828986E+04  0.16883833762E+04  0.12699999809E+01 0.  1.
    10030    2    1    2    0    0  0.00000000000E+00  0.00000000000E+00 -0.62902939050E+03  0.27477376456E+04  0.26747680638E+04 0.  0.
        5    1    3    3  502    0  0.39517646272E+03 -0.12776546034E+04 -0.31156648494E+03  0.13731938999E+04  0.46999998093E+01 0.  1.
       -5    1    3    3    0  502 -0.39517646272E+03  0.12776546034E+04 -0.31746290556E+03  0.13745437457E+04  0.46999998093E+01 0. -1.
</event>
<event>
 5   0  0.1753474E-06  0.2695147E+04  0.7818609E-02  0.8336581E-01
       -1   -1    0    0    0  501  0.00000000000E+00  0.00000000000E+00  0.78817982317E+03  0.78817982318E+03  0.50400001928E-02 0. -1.
        1   -1    0    0  501    0  0.00000000000E+00  0.00000000000E+00 -0.23039855464E+04  0.23039855464E+04  0.50400001928E-02 0.  1.
    10030    2    1    2    0    0  0.00000000000E+00  0.00000000000E+00 -0.15158057233E+04  0.30921653696E+04  0.26951474324E+04 0.  0.
        3    1    3    3  502    0  0.51088934223E+03  0.12093784140E+04 -0.11065616484E+04  0.17169981830E+04  0.10100000352E+00 0.  1.
       -3    1    3    3    0  502 -0.51088934223E+03 -0.12093784140E+04 -0.40924407486E+03  0.13751671867E+04  0.10100000352E+00 0. -1.
</event>
<event>
 5   0  0.1753474E-06  0.2725966E+04  0.7818609E-02  0.8326629E-01
       -1   -1    0    0    0  501  0.00000000000E+00  0.00000000000E+00  0.11033912679E+04  0.11033912679E+04  0.50400001928E-02 0.  1.
        1   -1    0    0  501    0  0.00000000000E+00  0.00000000000E+00 -0.16836483542E+04  0.16836483542E+04  0.50400001928E-02 0. -1.
    10030    2    1    2    0    0  0.00000000000E+00  0.00000000000E+00 -0.58025708637E+03  0.27870396221E+04  0.27259661716E+04 0.  0.
        3    1    3    3  502    0 -0.28437737179E+02  0.11415787978E+04  0.47066121708E+03  0.12351246285E+04  0.10100000352E+00 0.  1.
       -3    1    3    3    0  502  0.28437737179E+02 -0.11415787978E+04 -0.10509183035E+04  0.15519149936E+04  0.10100000352E+00 0. -1.
</event>
<event>
 5   0  0.1732312E-06  0.2714431E+04  0.7818609E-02  0.8330338E-01
        1   -1    0    0  501    0  0.00000000000E+00  0.00000000000E+00  0.11115479340E+04  0.11115479340E+04  0.50400001928E-02 0. -1.
       -1   -1    0    0    0  501  0.00000000000E+00  0.00000000000E+00 -0.16571790447E+04  0.16571790447E+04  0.50400001928E-02 0.  1.
    10030    2    1    2    0    0  0.00000000000E+00  0.00000000000E+00 -0.54563111072E+03  0.27687269788E+04  0.27144310221E+04 0.  0.
        5    1    3    3  502    0  0.11954642772E+03 -0.78537535760E+03 -0.13952385298E+04  0.16055586086E+04  0.46999998093E+01 0.  1.
       -5    1    3    3    0  502 -0.11954642772E+03  0.78537535760E+03  0.84960741909E+03  0.11631683701E+04  0.46999998093E+01 0. -1.
</event>
<event>
 5   0  0.4655882E-06  0.2710675E+04  0.7818609E-02  0.8331550E-01
        2   -1    0    0  501    0  0.00000000000E+00  0.00000000000E+00  0.16679561837E+04  0.16679561837E+04  0.25500000920E-02 0. -1.
       -2   -1    0    0    0  501  0.00000000000E+00  0.00000000000E+00 -0.11013113951E+04  0.11013113951E+04  0.25500000920E-02 0.  1.
    10030    2    1    2    0    0  0.00000000000E+00  0.00000000000E+00  0.56664478859E+03  0.27692675788E+04  0.27106745667E+04 0.  0.
        1    1    3    3  502    0  0.12176230043E+04 -0.18070158592E+03 -0.29610600619E+03  0.12660717241E+04  0.50400001928E-02 0.  1.
       -1    1    3    3    0  502 -0.12176230043E+04  0.18070158592E+03  0.86275079478E+03  0.15031958547E+04  0.50400001928E-02 0. -1.
</event>
<event>
 5   0  0.1732312E-06  0.2699882E+04  0.7818609E-02  0.8335043E-01
       -1   -1    0    0    0  501  0.00000000000E+00  0.00000000000E+00  0.12249727540E+04  0.12249727540E+04  0.50400001928E-02 0. -1.
        1   -1    0    0  501    0  0.00000000000E+00  0.00000000000E+00 -0.14876583258E+04  0.14876583259E+04  0.50400001928E-02 0.  1.
    10030    2    1    2    0    0  0.00000000000E+00  0.00000000000E+00 -0.26268557184E+03  0.27126310799E+04  0.26998821578E+04 0.  0.
        5    1    3    3  502    0  0.51333148940E+03 -0.64725196577E+02  0.11213889674E+04  0.12350035932E+04  0.46999998093E+01 0. -1.
       -5    1    3    3    0  502 -0.51333148940E+03  0.64725196577E+02 -0.13840745392E+04  0.14776274866E+04  0.46999998093E+01 0.  1.
</event>
<event>
 5   0  0.4655882E-06  0.2695477E+04  0.7818609E-02  0.8336474E-01
       -2   -1    0    0    0  501  0.00000000000E+00  0.00000000000E+00  0.69897482429E+03  0.69897482429E+03  0.25500000920E-02 0. -1.
        2   -1    0    0  501    0  0.00000000000E+00  0.00000000000E+00 -0.25986610496E+04  0.25986610496E+04  0.25500000920E-02 0.  1.
    10030    2    1    2    0    0  0.00000000000E+00  0.00000000000E+00 -0.18996862253E+04  0.32976358739E+04  0.26954766929E+04 0.  0.
        1    1    3    3  502    0  0.86348449548E+03 -0.10149049028E+04 -0.70284668167E+03  0.15065294201E+04  0.50400001928E-02 0. -1.
       -1    1    3    3    0  502 -0.86348449548E+03  0.10149049028E+04 -0.11968395436E+04  0.17911064538E+04  0.50400001928E-02 0.  1.
</event>
<event>
 5   0  0.4487186E-06  0.2697736E+04  0.7818609E-02  0.8335740E-01
       -2   -1    0    0    0  501  0.00000000000E+00  0.00000000000E+00  0.17261834203E+04  0.17261834203E+04  0.25500000920E-02 0. -1.
        2   -1    0    0  501    0  0.00000000000E+00  0.00000000000E+00 -0.10540276837E+04  0.10540276837E+04  0.25500000920E-02 0.  1.
    10030    2    1    2    0    0  0.00000000000E+00  0.00000000000E+00  0.67215573659E+03  0.27802111041E+04  0.26977361711E+04 0.  0.
        3    1    3    3  502    0 -0.10423474402E+04 -0.29028882976E+03 -0.49395763610E+03  0.11894326157E+04  0.10100000352E+00 0.  1.
       -3    1    3    3    0  502  0.10423474402E+04  0.29028882976E+03  0.11661133727E+04  0.15907784884E+04  0.10100000352E+00 0. -1.
</event>
<event>
 5   0  0.4448804E-06  0.2733563E+04  0.7818609E-02  0.8324197E-01
        2   -1    0    0  501    0  0.00000000000E+00  0.00000000000E+00  0.18461454843E+04  0.18461454843E+04  0.25500000920E-02 0.  1.
       -2   -1    0    0    0  501  0.00000000000E+00  0.00000000000E+00 -0.10118872859E+04  0.10118872859E+04  0.25500000920E-02 0. -1.
    10030    2    1    2    0    0  0.00000000000E+00  0.00000000000E+00  0.83425819840E+03  0.28580327703E+04  0.27335626158E+04 0.  0.
        2    1    3    3  502    0 -0.93320320417E+03  0.75989360732E+03 -0.26028065168E+03  0.12312808503E+04  0.25500000920E-02 0.  1.
       -2    1    3    3    0  502  0.93320320417E+03 -0.75989360732E+03  0.10945388501E+04  0.16267519200E+04  0.25500000920E-02 0. -1.
</event>
<event>
 5   0  0.1828511E-06  0.2709641E+04  0.7818609E-02  0.8331884E-01
        1   -1    0    0  501    0  0.00000000000E+00  0.00000000000E+00  0.21977619234E+04  0.21977619234E+04  0.50400001928E-02 0.  1.
       -1   -1    0    0    0  501  0.00000000000E+00  0.00000000000E+00 -0.83518516993E+03  0.83518516994E+03  0.50400001928E-02 0. -1.
    10030    2    1    2    0    0  0.00000000000E+00  0.00000000000E+00  0.13625767534E+04  0.30329470933E+04  0.27096406887E+04 0.  0.
        4    1    3    3  502    0 -0.88118718401E+03 -0.99691893573E+03  0.96709440287E+03  0.16448742854E+04  0.12699999809E+01 0. -1.
       -4    1    3    3    0  502  0.88118718401E+03  0.99691893573E+03  0.39548235057E+03  0.13880728080E+04  0.12699999809E+01 0.  1.
</event>
<event>
 5   0  0.4401659E-06  0.2671559E+04  0.7818609E-02  0.8344292E-01
       -2   -1    0    0    0  501  0.00000000000E+00  0.00000000000E+00  0.17363559766E+04  0.17363559766E+04  0.25500000920E-02 0.  1.
        2   -1    0    0  501    0  0.00000000000E+00  0.00000000000E+00 -0.10276158647E+04  0.10276158647E+04  0.25500000920E-02 0. -1.
    10030    2    1    2    0    0  0.00000000000E+00  0.00000000000E+00  0.70874011191E+03  0.27639718413E+04  0.26715590567E+04 0.  0.
        5    1    3    3  502    0 -0.43022879169E+03  0.12545939248E+04  0.51854809223E+03  0.14240845984E+04  0.46999998093E+01 0. -1.
       -5    1    3    3    0  502  0.43022879169E+03 -0.12545939248E+04  0.19019201968E+03  0.13398872429E+04  0.46999998093E+01 0.  1.
</event>
<event>
 5   0  0.4401659E-06  0.2678786E+04  0.7818609E-02  0.8341921E-01
       -2   -1    0    0    0  501  0.00000000000E+00  0.00000000000E+00  0.23081174131E+04  0.23081174131E+04  0.25500000920E-02 0. -1.
        2   -1    0    0  501    0  0.00000000000E+00  0.00000000000E+00 -0.77724535962E+03  0.77724535962E+03  0.25500000920E-02 0.  1.
    10030    2    1    2    0    0  0.00000000000E+00  0.00000000000E+00  0.15308720535E+04  0.30853627727E+04  0.26787859555E+04 0.  0.
        5    1    3    3  502    0  0.11931341645E+04  0.11838175249E+02  0.14662635835E+04  0.18904127230E+04  0.46999998093E+01 0. -1.
       -5    1    3    3    0  502 -0.11931341645E+04 -0.11838175249E+02  0.64608469963E+02  0.11949500497E+04  0.46999998093E+01 0.  1.
</event>
<event>
 5   0  0.4655882E-06  0.2708493E+04  0.7818609E-02  0.8332255E-01
       -2   -1    0    0    0  501  0.00000000000E+00  0.00000000000E+00  0.22511108330E+04  0.22511108330E+04  0.25500000920E-02 0. -1.
        2   -1    0    0  501    0  0.00000000000E+00  0.00000000000E+00 -0.81470141607E+03  0.81470141607E+03  0.25500000920E-02 0.  1.
    10030    2    1    2    0    0  0.00000000000E+00  0.00000000000E+00  0.14364094170E+04  0.30658122491E+04  0.27084927051E+04 0.  0.
        1    1    3    3  502    0 -0.98111801571E+03  0.88891803596E+03  0.10407843385E+04  0.16840427176E+04  0.50400001928E-02 0. -1.
       -1    1    3    3    0  502  0.98111801571E+03 -0.88891803596E+03  0.39562507841E+03  0.13817695315E+04  0.50400001928E-02 0.  1.
</event>
<event>
 5   0  0.4439357E-06  0.2701272E+04  0.7818609E-02  0.8334592E-01
        2   -1    0    0  501    0  0.00000000000E+00  0.00000000000E+00  0.65242974186E+03  0.65242974186E+03  0.25500000920E-02 0.  1.
       -2   -1    0    0    0  501  0.00000000000E+00  0.00000000000E+00 -0.27960370398E+04  0.27960370398E+04  0.25500000920E-02 0. -1.
    10030    2    1    2    0    0  0.00000000000E+00  0.00000000000E+00 -0.21436072979E+04  0.34484667817E+04  0.27012720886E+04 0.  0.
        4    1    3    3  502    0 -0.78971925240E+03 -0.10757660250E+04 -0.80619829452E+03  0.15591299950E+04  0.12699999809E+01 0.  1.
       -4    1    3    3    0  502  0.78971925240E+03  0.10757660250E+04 -0.13374090034E+04  0.18893367867E+04  0.12699999809E+01 0. -1.
</event>
<event>
 5   0  0.1771016E-06  0.2700601E+04  0.7818609E-02  0.8334810E-01
        1   -1    0    0  501    0  0.00000000000E+00  0.00000000000E+00  0.16305391056E+04  0.16305391056E+04  0.50400001928E-02 0.  1.
       -1   -1    0    0    0  501  0.00000000000E+00  0.00000000000E+00 -0.11182259527E+04  0.11182259527E+04  0.50400001928E-02 0. -1.
    10030    2    1    2    0    0  0.00000000000E+00  0.00000000000E+00  0.51231315294E+03  0.27487650583E+04  0.27006007811E+04 0.  0.
        2    1    3    3  502    0  0.68146263606E+03 -0.79961764423E+03  0.11195368491E+04  0.15352988171E+04  0.25500000920E-02 0.  1.
       -2    1    3    3    0  502 -0.68146263606E+03  0.79961764423E+03 -0.60722369615E+03  0.12134662412E+04  0.25500000920E-02 0. -1.
</event>
<event>
 5   0  0.1771016E-06  0.2699140E+04  0.7818609E-02  0.8335284E-01
        1   -1    0    0  501    0  0.00000000000E+00  0.00000000000E+00  0.13902336956E+04  0.13902336957E+04  0.50400001928E-02 0. -1.
       -1   -1    0    0    0  501  0.00000000000E+00  0.00000000000E+00 -0.13100954072E+04  0.13100954072E+04  0.50400001928E-02 0.  1.
    10030    2    1    2    0    0  0.00000000000E+00  0.00000000000E+00  0.80138288406E+02  0.27003291029E+04  0.26991396997E+04 0.  0.
        2    1    3    3  502    0 -0.11887293315E+04 -0.60932523599E+03  0.23246642841E+03  0.13558743699E+04  0.25500000920E-02 0.  1.
       -2    1    3    3    0  502  0.11887293315E+04  0.60932523599E+03 -0.15232814000E+03  0.13444547330E+04  0.25500000920E-02 0. -1.
</event>
<event>
 5   0  0.4401659E-06  0.2667604E+04  0.7818609E-02  0.8345593E-01
        2   -1    0    0  501    0  0.00000000000E+00  0.00000000000E+00  0.16045042074E+04  0.16045042074E+04  0.25500000920E-02 0. -1.
       -2   -1    0    0    0  501  0.00000000000E+00  0.00000000000E+00 -0.11087714266E+04  0.11087714266E+04  0.25500000920E-02 0.  1.
    10030    2    1    2    0    0  0.00000000000E+00  0.00000000000E+00  0.49573278075E+03  0.27132756340E+04  0.26676044827E+04 0.  0.
        5    1    3    3  502    0  0.47933961379E+03 -0.24150418674E+03 -0.99406900416E+03  0.11297282915E+04  0.46999998093E+01 0.  1.
       -5    1    3    3    0  502 -0.47933961379E+03  0.24150418674E+03  0.14898017849E+04  0.15835473425E+04  0.46999998093E+01 0. -1.
</event>
<event>
 5   0  0.4487186E-06  0.2708170E+04  0.7818609E-02  0.8332359E-01
        2   -1    0    0  501    0  0.00000000000E+00  0.00000000000E+00  0.13404293521E+04  0.13404293521E+04  0.25500000920E-02 0.  1.
       -2   -1    0    0    0  501  0.00000000000E+00  0.00000000000E+00 -0.13678794815E+04  0.13678794815E+04  0.25500000920E-02 0. -1.
    10030    2    1    2    0    0  0.00000000000E+00  0.00000000000E+00 -0.27450129482E+02  0.27083088336E+04  0.27081697193E+04 0.  0.
        3    1    3    3  502    0  0.10557646011E+04  0.13333340717E+03  0.82365247259E+03  0.13456671566E+04  0.10100000352E+00 0.  1.
       -3    1    3    3    0  502 -0.10557646011E+04 -0.13333340717E+03 -0.85110260207E+03  0.13626416770E+04  0.10100000352E+00 0. -1.
</event>
<event>
 5   0  0.1771016E-06  0.2726274E+04  0.7818609E-02  0.8326530E-01
        1   -1    0    0  501    0  0.00000000000E+00  0.00000000000E+00  0.18358124655E+04  0.18358124655E+04  0.50400001928E-02 0. -1.
       -1   -1    0    0    0  501  0.00000000000E+00  0.00000000000E+00 -0.10121636130E+04  0.10121636130E+04  0.50400001928E-02 0.  1.
    10030    2    1    2    0    0  0.00000000000E+00  0.00000000000E+00  0.82364885250E+03  0.28479760784E+04  0.27262740712E+04 0.  0.
        2    1    3    3  502    0 -0.58654213772E+03 -0.18034637507E+02 -0.87345932169E+03  0.10522775842E+04  0.25500000920E-02 0.  1.
       -2    1    3    3    0  502  0.58654213772E+03  0.18034637507E+02  0.16971081742E+04  0.17956984943E+04  0.25500000920E-02 0. -1.
</event>
<event>
 5   0  0.4439357E-06  0.2703408E+04  0.7818609E-02  0.8333900E-01
        2   -1    0    0  501    0  0.00000000000E+00  0.00000000000E+00  0.22975153914E+04  0.22975153914E+04  0.25500000920E-02 0.  1.
       -2   -1    0    0    0  501  0.00000000000E+00  0.00000000000E+00 -0.79525177548E+03  0.79525177549E+03  0.25500000920E-02 0. -1.
    10030    2    1    2    0    0  0.00000000000E+00  0.00000000000E+00  0.15022636160E+04  0.30927671669E+04  0.27034076232E+04 0.  0.
        4    1    3    3  502    0  0.12326562372E+04 -0.46114664871E+03  0.39851214622E+03  0.13751040595E+04  0.12699999809E+01 0.  1.
       -4    1    3    3    0  502 -0.12326562372E+04  0.46114664871E+03  0.11037514697E+04  0.17176631074E+04  0.12699999809E+01 0. -1.
</event>
<event>
 5   0  0.1828511E-06  0.2709855E+04  0.7818609E-02  0.8331814E-01
       -1   -1    0    0    0  501  0.00000000000E+00  0.00000000000E+00  0.11621807850E+04  0.11621807850E+04  0.50400001928E-02 0. -1.
        1   -1    0    0  501    0  0.00000000000E+00  0.00000000000E+00 -0.15796413248E+04  0.15796413248E+04  0.50400001928E-02 0.  1.
    10030    2    1    2    0    0  0.00000000000E+00  0.00000000000E+00 -0.41746053980E+03  0.27418221099E+04  0.27098551954E+04 0.  0.
        4    1    3    3  502    0 -0.21633167478E+03 -0.12278189909E+04 -0.74554370275E+03  0.14526444485E+04  0.12699999809E+01 0.  1.
       -4    1    3    3    0  502  0.21633167478E+03  0.12278189909E+04  0.32808316295E+03  0.12891776614E+04  0.12699999809E+01 0. -1.
</event>
<event>
 5   0  0.1753474E-06  0.2703186E+04  0.7818609E-02  0.8333972E-01
       -1   -1    0    0    0  501  0.00000000000E+00  0.00000000000E+00  0.13687022987E+04  0.13687022987E+04  0.50400001928E-02 0.  1.
        1   -1    0    0  501    0  0.00000000000E+00  0.00000000000E+00 -0.13346977324E+04  0.13346977324E+04  0.50400001928E-02 0. -1.
    10030    2    1    2    0    0  0.00000000000E+00  0.00000000000E+00  0.34004566288E+02  0.27034000311E+04  0.27031861603E+04 0.  0.
        3    1    3    3  502    0 -0.29013368328E+02 -0.12709721296E+04 -0.44193697088E+03  0.13459272738E+04  0.10100000352E+00 0. -1.
       -3    1    3    3    0  502  0.29013368328E+02  0.12709721296E+04  0.47594153717E+03  0.13574727573E+04  0.10100000352E+00 0.  1.
</event>
<event>
 5   0  0.4487186E-06  0.2709580E+04  0.7818609E-02  0.8331903E-01
       -2   -1    0    0    0  501  0.00000000000E+00  0.00000000000E+00  0.18704357389E+04  0.18704357389E+04  0.25500000920E-02 0.  1.
        2   -1    0    0  501    0  0.00000000000E+00  0.00000000000E+00 -0.98129834382E+03  0.98129834383E+03  0.25500000920E-02 0. -1.
    10030    2    1    2    0    0  0.00000000000E+00  0.00000000000E+00  0.88913739504E+03  0.28517340827E+04  0.27095796669E+04 0.  0.
        3    1    3    3  502    0 -0.11832730049E+04 -0.65885945544E+03  0.40773703423E+03  0.14143833587E+04  0.10100000352E+00 0.  1.
       -3    1    3    3    0  502  0.11832730049E+04  0.65885945544E+03  0.48140036082E+03  0.14373507240E+04  0.10100000352E+00 0. -1.
</event>
<event>
 5   0  0.1771016E-06  0.2703394E+04  0.7818609E-02  0.8333905E-01
        1   -1    0    0  501    0  0.00000000000E+00  0.00000000000E+00  0.22672118662E+04  0.22672118662E+04  0.50400001928E-02 0. -1.
       -1   -1    0    0    0  501  0.00000000000E+00  0.00000000000E+00 -0.80587291259E+03  0.80587291261E+03  0.50400001928E-02 0.  1.
    10030    2    1    2    0    0  0.00000000000E+00  0.00000000000E+00  0.14613389536E+04  0.30730847788E+04  0.27033938892E+04 0.  0.
        2    1    3    3  502    0 -0.34447580379E+03  0.84896521284E+03 -0.39905659021E+03  0.99932560970E+03  0.25500000920E-02 0.  1.
       -2    1    3    3    0  502  0.34447580379E+03 -0.84896521284E+03  0.18603955438E+04  0.20737591691E+04  0.25500000920E-02 0. -1.
</event>
<event>
 5   0  0.4655882E-06  0.2700908E+04  0.7818609E-02  0.8334711E-01
        2   -1    0    0  501    0  0.00000000000E+00  0.00000000000E+00  0.15916421814E+04  0.15916421814E+04  0.25500000920E-02 0.  1.
       -2   -1    0    0    0  501  0.00000000000E+00  0.00000000000E+00 -0.11458137951E+04  0.11458137951E+04  0.25500000920E-02 0. -1.
    10030    2    1    2    0    0  0.00000000000E+00  0.00000000000E+00  0.44582838626E+03  0.27374559765E+04  0.27009076758E+04 0.  0.
        1    1    3    3  502    0 -0.22173151286E+03 -0.51799516517E+03 -0.10209837218E+04  0.11661439084E+04  0.50400001928E-02 0. -1.
       -1    1    3    3    0  502  0.22173151286E+03  0.51799516517E+03  0.14668121081E+04  0.15713120681E+04  0.50400001928E-02 0.  1.
</event>
<event>
 5   0  0.4487186E-06  0.2678532E+04  0.7818609E-02  0.8342004E-01
       -2   -1    0    0    0  501  0.00000000000E+00  0.00000000000E+00  0.26351455405E+04  0.26351455405E+04  0.25500000920E-02 0.  1.
        2   -1    0    0  501    0  0.00000000000E+00  0.00000000000E+00 -0.68065805657E+03  0.68065805658E+03  0.25500000920E-02 0. -1.
    10030    2    1    2    0    0  0.00000000000E+00  0.00000000000E+00  0.19544874840E+04  0.33158035971E+04  0.26785317190E+04 0.  0.
        3    1    3    3  502    0 -0.34411106541E+02 -0.84077298898E+03  0.22670273655E+04  0.24181597195E+04  0.10100000352E+00 0.  1.
       -3    1    3    3    0  502  0.34411106541E+02  0.84077298898E+03 -0.31253988149E+03  0.89764387759E+03  0.10100000352E+00 0. -1.
</event>
<event>
 5   0  0.1753474E-06  0.2708988E+04  0.7818609E-02  0.8332094E-01
       -1   -1    0    0    0  501  0.00000000000E+00  0.00000000000E+00  0.89121478433E+03  0.89121478435E+03  0.50400001928E-02 0.  1.
        1   -1    0    0  501    0  0.00000000000E+00  0.00000000000E+00 -0.20585998522E+04  0.20585998522E+04  0.50400001928E-02 0. -1.
    10030    2    1    2    0    0  0.00000000000E+00  0.00000000000E+00 -0.11673850679E+04  0.29498146366E+04  0.27089884631E+04 0.  0.
        3    1    3    3  502    0 -0.40555055953E+03 -0.12821739102E+04 -0.40739370800E+03  0.14051373014E+04  0.10100000352E+00 0.  1.
       -3    1    3    3    0  502  0.40555055953E+03  0.12821739102E+04 -0.75999135987E+03  0.15446773351E+04  0.10100000352E+00 0. -1.
</event>
<event>
 5   0  0.1723605E-06  0.2705792E+04  0.7818609E-02  0.8333128E-01
       -1   -1    0    0    0  501  0.00000000000E+00  0.00000000000E+00  0.11589121418E+04  0.11589121418E+04  0.50400001928E-02 0. -1.
        1   -1    0    0  501    0  0.00000000000E+00  0.00000000000E+00 -0.15793493757E+04  0.15793493757E+04  0.50400001928E-02 0.  1.
    10030    2    1    2    0    0  0.00000000000E+00  0.00000000000E+00 -0.42043723391E+03  0.27382615175E+04  0.27057916902E+04 0.  0.
        1    1    3    3  502    0 -0.58322720923E+03  0.12209289812E+03  0.10189622932E+04  0.11804002746E+04  0.50400001928E-02 0. -1.
       -1    1    3    3    0  502  0.58322720923E+03 -0.12209289812E+03 -0.14393995271E+04  0.15578612429E+04  0.50400001928E-02 0.  1.
</event>
<event>
 5   0  0.4655882E-06  0.2678211E+04  0.7818609E-02  0.8342109E-01
        2   -1    0    0  501    0  0.00000000000E+00  0.00000000000E+00  0.15554949503E+04  0.15554949503E+04  0.25500000920E-02 0. -1.
       -2   -1    0    0    0  501  0.00000000000E+00  0.00000000000E+00 -0.11528188518E+04  0.11528188518E+04  0.25500000920E-02 0.  1.
    10030    2    1    2    0    0  0.00000000000E+00  0.00000000000E+00  0.40267609851E+03  0.27083138021E+04  0.26782112707E+04 0.  0.
        1    1    3    3  502    0  0.11050445210E+04  0.43122786261E+03  0.82971031417E+03  0.14475842180E+04  0.50400001928E-02 0. -1.
       -1    1    3    3    0  502 -0.11050445210E+04 -0.43122786261E+03 -0.42703421566E+03  0.12607295841E+04  0.50400001928E-02 0.  1.
</event>
<event>
 5   0  0.1771016E-06  0.2690650E+04  0.7818609E-02  0.8338045E-01
       -1   -1    0    0    0  501  0.00000000000E+00  0.00000000000E+00  0.90497372699E+03  0.90497372701E+03  0.50400001928E-02 0. -1.
        1   -1    0    0  501    0  0.00000000000E+00  0.00000000000E+00 -0.19999473852E+04  0.19999473852E+04  0.50400001928E-02 0.  1.
    10030    2    1    2    0    0  0.00000000000E+00  0.00000000000E+00 -0.10949736582E+04  0.29049211122E+04  0.26906503593E+04 0.  0.
        2    1    3    3  502    0 -0.31884860583E+03  0.16242703674E+03  0.85265192343E+03  0.92469577605E+03  0.25500000920E-02 0. -1.
       -2    1    3    3    0  502  0.31884860583E+03 -0.16242703674E+03 -0.19476255816E+04  0.19802253361E+04  0.25500000920E-02 0.  1.
</event>
<event>
 5   0  0.1723605E-06  0.2695358E+04  0.7818609E-02  0.8336513E-01
        1   -1    0    0  501    0  0.00000000000E+00  0.00000000000E+00  0.70450820950E+03  0.70450820952E+03  0.50400001928E-02 0.  1.
       -1   -1    0    0    0  501  0.00000000000E+00  0.00000000000E+00 -0.25780234716E+04  0.25780234716E+04  0.50400001928E-02 0. -1.
    10030    2    1    2    0    0  0.00000000000E+00  0.00000000000E+00 -0.18735152621E+04  0.32825316811E+04  0.26953580096E+04 0.  0.
        1    1    3    3  502    0 -0.53216621802E+03 -0.12758097185E+03 -0.24366186984E+04  0.24973162533E+04  0.50400001928E-02 0. -1.
       -1    1    3    3    0  502  0.53216621802E+03  0.12758097185E+03  0.56310343630E+03  0.78521542775E+03  0.50400001928E-02 0.  1.
</event>
<event>
 5   0  0.4487186E-06  0.2708827E+04  0.7818609E-02  0.8332147E-01
        2   -1    0    0  501    0  0.00000000000E+00  0.00000000000E+00  0.15209297172E+04  0.15209297172E+04  0.25500000920E-02 0.  1.
       -2   -1    0    0    0  501  0.00000000000E+00  0.00000000000E+00 -0.12061277926E+04  0.12061277926E+04  0.25500000920E-02 0. -1.
    10030    2    1    2    0    0  0.00000000000E+00  0.00000000000E+00  0.31480192457E+03  0.27270575097E+04  0.27088267589E+04 0.  0.
        3    1    3    3  502    0 -0.89799409926E+03  0.35720704580E+03 -0.79790334849E+03  0.12532517862E+04  0.10100000352E+00 0. -1.
       -3    1    3    3    0  502  0.89799409926E+03 -0.35720704580E+03  0.11127052731E+04  0.14738057236E+04  0.10100000352E+00 0.  1.
</event>
<event>
 5   0  0.1828511E-06  0.2702816E+04  0.7818609E-02  0.8334092E-01
       -1   -1    0    0    0  501  0.00000000000E+00  0.00000000000E+00  0.12905881248E+04  0.12905881248E+04  0.50400001928E-02 0.  1.
        1   -1    0    0  501    0  0.00000000000E+00  0.00000000000E+00 -0.14150942104E+04  0.14150942104E+04  0.50400001928E-02 0. -1.
    10030    2    1    2    0    0  0.00000000000E+00  0.00000000000E+00 -0.12450608560E+03  0.27056823353E+04  0.27028161488E+04 0.  0.
        4    1    3    3  502    0 -0.36921440781E+02  0.11751742302E+04 -0.72922116639E+03  0.13835327197E+04  0.12699999809E+01 0. -1.
       -4    1    3    3    0  502  0.36921440781E+02 -0.11751742302E+04  0.60471508079E+03  0.13221496156E+04  0.12699999809E+01 0.  1.
</event>
<event>
 5   0  0.1723605E-06  0.2678631E+04  0.7818609E-02  0.8341972E-01
       -1   -1    0    0    0  501  0.00000000000E+00  0.00000000000E+00  0.13622143236E+04  0.13622143236E+04  0.50400001928E-02 0. -1.
        1   -1    0    0  501    0  0.00000000000E+00  0.00000000000E+00 -0.13168019552E+04  0.13168019552E+04  0.50400001928E-02 0.  1.
    10030    2    1    2    0    0  0.00000000000E+00  0.00000000000E+00  0.45412368348E+02  0.26790162788E+04  0.26786313555E+04 0.  0.
        1    1    3    3  502    0 -0.39761405929E+03 -0.20968522054E+03  0.12845140719E+04  0.13608972161E+04  0.50400001928E-02 0. -1.
       -1    1    3    3    0  502  0.39761405929E+03  0.20968522054E+03 -0.12391017035E+04  0.13181190627E+04  0.50400001928E-02 0.  1.
</event>
<event>
 5   0  0.1723605E-06  0.2821412E+04  0.7818609E-02  0.8296652E-01
       -1   -1    0    0    0  501  0.00000000000E+00  0.00000000000E+00  0.13349193922E+04  0.13349193922E+04  0.50400001928E-02 0.  1.
        1   -1    0    0  501    0  0.00000000000E+00  0.00000000000E+00 -0.14907948783E+04  0.14907948783E+04  0.50400001928E-02 0. -1.
    10030    2    1    2    0    0  0.00000000000E+00  0.00000000000E+00 -0.15587548604E+03  0.28257142705E+04  0.28214116983E+04 0.  0.
        1    1    3    3  502    0  0.75414779548E+03 -0.11839520242E+04 -0.21818592977E+03  0.14205936762E+04  0.50400001928E-02 0.  1.
       -1    1    3    3    0  502 -0.75414779548E+03  0.11839520242E+04  0.62310443733E+02  0.14051205943E+04  0.50400001928E-02 0. -1.
</event>
<event>
 5   0  0.4448804E-06  0.2709074E+04  0.7818609E-02  0.8332067E-01
        2   -1    0    0  501    0  0.00000000000E+00  0.00000000000E+00  0.11576475105E+04  0.11576475105E+04  0.25500000920E-02 0. -1.
       -2   -1    0    0    0  501  0.00000000000E+00  0.00000000000E+00 -0.15849125757E+04  0.15849125757E+04  0.25500000920E-02 0.  1.
    10030    2    1    2    0    0  0.00000000000E+00  0.00000000000E+00 -0.42726506525E+03  0.27425600862E+04  0.27090737145E+04 0.  0.
        2    1    3    3  502    0  0.25424716435E+03  0.66039079132E+03  0.95563872713E+03  0.11891185789E+04  0.25500000920E-02 0. -1.
       -2    1    3    3    0  502 -0.25424716435E+03 -0.66039079132E+03 -0.13829037924E+04  0.15534415074E+04  0.25500000920E-02 0.  1.
</event>
<event>
 5   0  0.4439357E-06  0.2697718E+04  0.7818609E-02  0.8335746E-01
       -2   -1    0    0    0  501  0.00000000000E+00  0.00000000000E+00  0.14422313315E+04  0.14422313315E+04  0.25500000920E-02 0.  1.
        2   -1    0    0  501    0  0.00000000000E+00  0.00000000000E+00 -0.12615318192E+04  0.12615318192E+04  0.25500000920E-02 0. -1.
    10030    2    1    2    0    0  0.00000000000E+00  0.00000000000E+00  0.18069951231E+03  0.27037631507E+04  0.26977180841E+04 0.  0.
        4    1    3    3  502    0  0.89132765155E+02 -0.88636251329E+03 -0.92475541084E+03  0.12840394611E+04  0.12699999809E+01 0. -1.
       -4    1    3    3    0  502 -0.89132765155E+02  0.88636251329E+03  0.11054549231E+04  0.14197236896E+04  0.12699999809E+01 0.  1.
</event>
<event>
 5   0  0.4487186E-06  0.2671822E+04  0.7818609E-02  0.8344206E-01
        2   -1    0    0  501    0  0.00000000000E+00  0.00000000000E+00  0.21045876997E+04  0.21045876997E+04  0.25500000920E-02 0.  1.
       -2   -1    0    0    0  501  0.00000000000E+00  0.00000000000E+00 -0.84798474852E+03  0.84798474852E+03  0.25500000920E-02 0. -1.
    10030    2    1    2    0    0  0.00000000000E+00  0.00000000000E+00  0.12566029512E+04  0.29525724483E+04  0.26718220534E+04 0.  0.
        3    1    3    3  502    0 -0.71484581201E+03  0.70036425064E+03  0.16062449340E+04  0.18924950243E+04  0.10100000352E+00 0.  1.
       -3    1    3    3    0  502  0.71484581201E+03 -0.70036425064E+03 -0.34964198283E+03  0.10600774240E+04  0.10100000352E+00 0. -1.
</event>
<event>
 5   0  0.1753474E-06  0.2736108E+04  0.7818609E-02  0.8323383E-01
       -1   -1    0    0    0  501  0.00000000000E+00  0.00000000000E+00  0.12870078300E+04  0.12870078300E+04  0.50400001928E-02 0. -1.
        1   -1    0    0  501    0  0.00000000000E+00  0.00000000000E+00 -0.14542039580E+04  0.14542039580E+04  0.50400001928E-02 0.  1.
    10030    2    1    2    0    0  0.00000000000E+00  0.00000000000E+00 -0.16719612802E+03  0.27412117880E+04  0.27361080975E+04 0.  0.
        3    1    3    3  502    0 -0.86144745285E+03  0.13710850417E+03  0.97225647594E+03  0.13062056198E+04  0.10100000352E+00 0. -1.
       -3    1    3    3    0  502  0.86144745285E+03 -0.13710850417E+03 -0.11394526040E+04  0.14350061682E+04  0.10100000352E+00 0.  1.
</event>
<event>
 5   0  0.4401659E-06  0.2705325E+04  0.7818609E-02  0.8333279E-01
       -2   -1    0    0    0  501  0.00000000000E+00  0.00000000000E+00  0.17976895073E+04  0.17976895073E+04  0.25500000920E-02 0.  1.
        2   -1    0    0  501    0  0.00000000000E+00  0.00000000000E+00 -0.10178040998E+04  0.10178040998E+04  0.25500000920E-02 0. -1.
    10030    2    1    2    0    0  0.00000000000E+00  0.00000000000E+00  0.77988540747E+03  0.28154936072E+04  0.27053249349E+04 0.  0.
        5    1    3    3  502    0  0.31173291763E+03  0.13012611606E+04  0.18384897907E+03  0.13506593046E+04  0.46999998093E+01 0.  1.
       -5    1    3    3    0  502 -0.31173291763E+03 -0.13012611606E+04  0.59603642840E+03  0.14648343026E+04  0.46999998093E+01 0. -1.
</event>
<event>
 5   0  0.4448804E-06  0.2692361E+04  0.7818609E-02  0.8337488E-01
       -2   -1    0    0    0  501  0.00000000000E+00  0.00000000000E+00  0.82340577116E+03  0.82340577116E+03  0.25500000920E-02 0.  1.
        2   -1    0    0  501    0  0.00000000000E+00  0.00000000000E+00 -0.22008610343E+04  0.22008610343E+04  0.25500000920E-02 0. -1.
    10030    2    1    2    0    0  0.00000000000E+00  0.00000000000E+00 -0.13774552631E+04  0.30242668055E+04  0.26923608058E+04 0.  0.
        2    1    3    3  502    0 -0.10834785576E+04 -0.61493314050E+03 -0.12616353486E+04  0.17730742525E+04  0.25500000920E-02 0. -1.
       -2    1    3    3    0  502  0.10834785576E+04  0.61493314050E+03 -0.11581991452E+03  0.12511925530E+04  0.25500000920E-02 0.  1.
</event>
<event>
 5   0  0.1753474E-06  0.2676810E+04  0.7818609E-02  0.8342569E-01
        1   -1    0    0  501    0  0.00000000000E+00  0.00000000000E+00  0.91353279717E+03  0.91353279718E+03  0.50400001928E-02 0. -1.
       -1   -1    0    0    0  501  0.00000000000E+00  0.00000000000E+00 -0.19608792971E+04  0.19608792971E+04  0.50400001928E-02 0.  1.
    10030    2    1    2    0    0  0.00000000000E+00  0.00000000000E+00 -0.10473464999E+04  0.28744120943E+04  0.26768097050E+04 0.  0.
        3    1    3    3  502    0  0.28281404523E+03  0.97764420355E+02 -0.19244985937E+04  0.19476232986E+04  0.10100000352E+00 0.  1.
       -3    1    3    3    0  502 -0.28281404523E+03 -0.97764420355E+02  0.87715209373E+03  0.92678879568E+03  0.10100000352E+00 0. -1.
</event>
<event>
 5   0  0.4401659E-06  0.2691380E+04  0.7818609E-02  0.8337807E-01
       -2   -1    0    0    0  501  0.00000000000E+00  0.00000000000E+00  0.10378309692E+04  0.10378309692E+04  0.25500000920E-02 0. -1.
        2   -1    0    0  501    0  0.00000000000E+00  0.00000000000E+00 -0.17448708076E+04  0.17448708076E+04  0.25500000920E-02 0.  1.
    10030    2    1    2    0    0  0.00000000000E+00  0.00000000000E+00 -0.70703983842E+03  0.27827017769E+04  0.26913795433E+04 0.  0.
        5    1    3    3  502    0  0.18386898917E+03 -0.43655111956E+03 -0.16558114712E+04  0.17222422603E+04  0.46999998093E+01 0.  1.
       -5    1    3    3    0  502 -0.18386898917E+03  0.43655111956E+03  0.94877163274E+03  0.10604595166E+04  0.46999998093E+01 0. -1.
</event>
<event>
 5   0  0.4401659E-06  0.2696716E+04  0.7818609E-02  0.8336071E-01
       -2   -1    0    0    0  501  0.00000000000E+00  0.00000000000E+00  0.65509362200E+03  0.65509362200E+03  0.25500000920E-02 0.  1.
        2   -1    0    0  501    0  0.00000000000E+00  0.00000000000E+00 -0.27752823427E+04  0.27752823427E+04  0.25500000920E-02 0. -1.
    10030    2    1    2    0    0  0.00000000000E+00  0.00000000000E+00 -0.21201887207E+04  0.34303759647E+04  0.26967163455E+04 0.  0.
        5    1    3    3  502    0  0.86635549755E+03 -0.29803043843E+03 -0.23185009110E+04  0.24929626060E+04  0.46999998093E+01 0. -1.
       -5    1    3    3    0  502 -0.86635549755E+03  0.29803043843E+03  0.19831219030E+03  0.93741335876E+03  0.46999998093E+01 0.  1.
</event>
<event>
 5   0  0.4655882E-06  0.2699492E+04  0.7818609E-02  0.8335170E-01
       -2   -1    0    0    0  501  0.00000000000E+00  0.00000000000E+00  0.85271223547E+03  0.85271223547E+03  0.25500000920E-02 0.  1.
        2   -1    0    0  501    0  0.00000000000E+00  0.00000000000E+00 -0.21364937875E+04  0.21364937875E+04  0.25500000920E-02 0. -1.
    10030    2    1    2    0    0  0.00000000000E+00  0.00000000000E+00 -0.12837815521E+04  0.29892060230E+04  0.26994920957E+04 0.  0.
        1    1    3    3  502    0 -0.44075192461E+03 -0.22135658987E+03 -0.20331351681E+04  0.20921041109E+04  0.50400001928E-02 0. -1.
       -1    1    3    3    0  502  0.44075192461E+03  0.22135658987E+03  0.74935361602E+03  0.89710191216E+03  0.50400001928E-02 0.  1.
</event>
<event>
 5   0  0.4439357E-06  0.2710630E+04  0.7818609E-02  0.8331564E-01
        2   -1    0    0  501    0  0.00000000000E+00  0.00000000000E+00  0.20077404242E+04  0.20077404243E+04  0.25500000920E-02 0.  1.
       -2   -1    0    0    0  501  0.00000000000E+00  0.00000000000E+00 -0.91489826600E+03  0.91489826600E+03  0.25500000920E-02 0. -1.
    10030    2    1    2    0    0  0.00000000000E+00  0.00000000000E+00  0.10928421582E+04  0.29226386903E+04  0.27106296189E+04 0.  0.
        4    1    3    3  502    0 -0.47857242456E+03  0.92067641594E+03  0.14865098818E+04  0.18128402771E+04  0.12699999809E+01 0.  1.
       -4    1    3    3    0  502  0.47857242456E+03 -0.92067641594E+03 -0.39366772360E+03  0.11097984132E+04  0.12699999809E+01 0. -1.
</event>
<event>
 5   0  0.1753474E-06  0.2696847E+04  0.7818609E-02  0.8336029E-01
        1   -1    0    0  501    0  0.00000000000E+00  0.00000000000E+00  0.14356540852E+04  0.14356540852E+04  0.50400001928E-02 0.  1.
       -1   -1    0    0    0  501  0.00000000000E+00  0.00000000000E+00 -0.12664928545E+04  0.12664928545E+04  0.50400001928E-02 0. -1.
    10030    2    1    2    0    0  0.00000000000E+00  0.00000000000E+00  0.16916123063E+03  0.27021469397E+04  0.26968467813E+04 0.  0.
        3    1    3    3  502    0  0.70211865167E+03  0.87803854954E+03  0.83057278536E+03  0.13977744659E+04  0.10100000352E+00 0.  1.
       -3    1    3    3    0  502 -0.70211865167E+03 -0.87803854954E+03 -0.66141155474E+03  0.13043724738E+04  0.10100000352E+00 0. -1.
</event>
<event>
 5   0  0.1828511E-06  0.2702901E+04  0.7818609E-02  0.8334064E-01
        1   -1    0    0  501    0  0.00000000000E+00  0.00000000000E+00  0.13241305506E+04  0.13241305506E+04  0.50400001928E-02 0. -1.
       -1   -1    0    0    0  501  0.00000000000E+00  0.00000000000E+00 -0.13793341470E+04  0.13793341470E+04  0.50400001928E-02 0.  1.
    10030    2    1    2    0    0  0.00000000000E+00  0.00000000000E+00 -0.55203596475E+02  0.27034646976E+04  0.27029010219E+04 0.  0.
        4    1    3    3  502    0  0.29017072269E+03  0.24117288461E+03 -0.13255832835E+04  0.13782365773E+04  0.12699999809E+01 0.  1.
       -4    1    3    3    0  502 -0.29017072269E+03 -0.24117288461E+03  0.12703796871E+04  0.13252281203E+04  0.12699999809E+01 0. -1.
</event>
<event>
 5   0  0.4655882E-06  0.2719461E+04  0.7818609E-02  0.8328718E-01
        2   -1    0    0  501    0  0.00000000000E+00  0.00000000000E+00  0.22246265474E+04  0.22246265474E+04  0.25500000920E-02 0.  1.
       -2   -1    0    0    0  501  0.00000000000E+00  0.00000000000E+00 -0.83109119962E+03  0.83109119962E+03  0.25500000920E-02 0. -1.
    10030    2    1    2    0    0  0.00000000000E+00  0.00000000000E+00  0.13935353478E+04  0.30557177471E+04  0.27194613776E+04 0.  0.
        1    1    3    3  502    0  0.91444235780E+03  0.52911737238E+03  0.16585852388E+04  0.19664879897E+04  0.50400001928E-02 0.  1.
       -1    1    3    3    0  502 -0.91444235780E+03 -0.52911737238E+03 -0.26504989096E+03  0.10892297573E+04  0.50400001928E-02 0. -1.
</event>
<event>
 5   0  0.1723605E-06  0.2691126E+04  0.7818609E-02  0.8337890E-01
       -1   -1    0    0    0  501  0.00000000000E+00  0.00000000000E+00  0.86543372457E+03  0.86543372458E+03  0.50400001928E-02 0.  1.
        1   -1    0    0  501    0  0.00000000000E+00  0.00000000000E+00 -0.20920601282E+04  0.20920601282E+04  0.50400001928E-02 0. -1.
    10030    2    1    2    0    0  0.00000000000E+00  0.00000000000E+00 -0.12266264036E+04  0.29574938528E+04  0.26911257041E+04 0.  0.
        1    1    3    3  502    0 -0.92882738105E+02  0.12962221396E+04 -0.22989611486E+03  0.13197239340E+04  0.50400001928E-02 0.  1.
       -1    1    3    3    0  502  0.92882738105E+02 -0.12962221396E+04 -0.99673028878E+03  0.16377699188E+04  0.50400001928E-02 0. -1.
</event>
<event>
 5   0  0.4439357E-06  0.2700803E+04  0.7818609E-02  0.8334744E-01
       -2   -1    0    0    0  501  0.00000000000E+00  0.00000000000E+00  0.10747975761E+04  0.10747975761E+04  0.25500000920E-02 0.  1.
        2   -1    0    0  501    0  0.00000000000E+00  0.00000000000E+00 -0.16966768146E+04  0.16966768146E+04  0.25500000920E-02 0. -1.
    10030    2    1    2    0    0  0.00000000000E+00  0.00000000000E+00 -0.62187923850E+03  0.27714743908E+04  0.27008029383E+04 0.  0.
        4    1    3    3  502    0  0.47924308549E+03  0.57783840926E+03  0.84093498033E+03  0.11272729999E+04  0.12699999809E+01 0.  1.
       -4    1    3    3    0  502 -0.47924308549E+03 -0.57783840926E+03 -0.14628142188E+04  0.16442013909E+04  0.12699999809E+01 0. -1.
</event>
<event>
 5   0  0.4401659E-06  0.2698612E+04  0.7818609E-02  0.8335456E-01
       -2   -1    0    0    0  501  0.00000000000E+00  0.00000000000E+00  0.12729913957E+04  0.12729913957E+04  0.25500000920E-02 0. -1.
        2   -1    0    0  501    0  0.00000000000E+00  0.00000000000E+00 -0.14301953559E+04  0.14301953559E+04  0.25500000920E-02 0.  1.
    10030    2    1    2    0    0  0.00000000000E+00  0.00000000000E+00 -0.15720396025E+03  0.27031867516E+04  0.26986117781E+04 0.  0.
        5    1    3    3  502    0 -0.35544529142E+03 -0.17872997515E+03 -0.13700970783E+04  0.14267003376E+04  0.46999998093E+01 0.  1.
       -5    1    3    3    0  502  0.35544529142E+03  0.17872997515E+03  0.12128931181E+04  0.12764864140E+04  0.46999998093E+01 0. -1.
</event>
<event>
 5   0  0.4401659E-06  0.2702724E+04  0.7818609E-02  0.8334122E-01
       -2   -1    0    0    0  501  0.00000000000E+00  0.00000000000E+00  0.96941743773E+03  0.96941743773E+03  0.25500000920E-02 0. -1.
        2   -1    0    0  501    0  0.00000000000E+00  0.00000000000E+00 -0.18837899162E+04  0.18837899162E+04  0.25500000920E-02 0.  1.
    10030    2    1    2    0    0  0.00000000000E+00  0.00000000000E+00 -0.91437247846E+03  0.28532073539E+04  0.27027236587E+04 0.  0.
        5    1    3    3  502    0 -0.63361363435E+03 -0.36281184287E+03  0.74325442836E+03  0.10418963030E+04  0.46999998093E+01 0. -1.
       -5    1    3    3    0  502  0.63361363435E+03  0.36281184287E+03 -0.16576269068E+04  0.18113110509E+04  0.46999998093E+01 0.  1.
</event>
<event>
 5   0  0.1828511E-06  0.2691858E+04  0.7818609E-02  0.8337652E-01
        1   -1    0    0  501    0  0.00000000000E+00  0.00000000000E+00  0.23737083386E+04  0.23737083386E+04  0.50400001928E-02 0. -1.
       -1   -1    0    0    0  501  0.00000000000E+00  0.00000000000E+00 -0.76316243223E+03  0.76316243225E+03  0.50400001928E-02 0.  1.
    10030    2    1    2    0    0  0.00000000000E+00  0.00000000000E+00  0.16105459064E+04  0.31368707709E+04  0.26918581160E+04 0.  0.
        4    1    3    3  502    0 -0.71912289413E+03 -0.49800753538E+03 -0.38675919588E+03  0.95641702758E+03  0.12699999809E+01 0.  1.
       -4    1    3    3    0  502  0.71912289413E+03  0.49800753538E+03  0.19973051023E+04  0.21804537433E+04  0.12699999809E+01 0. -1.
</event>
<event>
 5   0  0.1828511E-06  0.2678189E+04  0.7818609E-02  0.8342117E-01
       -1   -1    0    0    0  501  0.00000000000E+00  0.00000000000E+00  0.11286174599E+04  0.11286174600E+04  0.50400001928E-02 0. -1.
        1   -1    0    0  501    0  0.00000000000E+00  0.00000000000E+00 -0.15888240339E+04  0.15888240339E+04  0.50400001928E-02 0.  1.
    10030    2    1    2    0    0  0.00000000000E+00  0.00000000000E+00 -0.46020657395E+03  0.27174414939E+04  0.26781893477E+04 0.  0.
        4    1    3    3  502    0  0.59878063805E+03 -0.49770641847E+03 -0.13355306159E+04  0.15459280612E+04  0.12699999809E+01 0.  1.
       -4    1    3    3    0  502 -0.59878063805E+03  0.49770641847E+03  0.87532404198E+03  0.11715134326E+04  0.12699999809E+01 0. -1.
</event>
<event>
 5   0  0.1723605E-06  0.2695723E+04  0.7818609E-02  0.8336394E-01
       -1   -1    0    0    0  501  0.00000000000E+00  0.00000000000E+00  0.14152956300E+04  0.14152956301E+04  0.50400001928E-02 0. -1.
        1   -1    0    0  501    0  0.00000000000E+00  0.00000000000E+00 -0.12836403170E+04  0.12836403170E+04  0.50400001928E-02 0.  1.
    10030    2    1    2    0    0  0.00000000000E+00  0.00000000000E+00  0.13165531305E+03  0.26989359471E+04  0.26957229318E+04 0.  0.
        1    1    3    3  502    0 -0.16357659382E+03 -0.13262314617E+04  0.24234247027E+03  0.13580784458E+04  0.50400001928E-02 0.  1.
       -1    1    3    3    0  502  0.16357659382E+03  0.13262314617E+04 -0.11068715722E+03  0.13408575013E+04  0.50400001928E-02 0. -1.
</event>
<event>
 5   0  0.4401659E-06  0.2689094E+04  0.7818609E-02  0.8338552E-01
       -2   -1    0    0    0  501  0.00000000000E+00  0.00000000000E+00  0.13716032363E+04  0.13716032363E+04  0.25500000920E-02 0. -1.
        2   -1    0    0  501    0  0.00000000000E+00  0.00000000000E+00 -0.13180243298E+04  0.13180243298E+04  0.25500000920E-02 0.  1.
    10030    2    1    2    0    0  0.00000000000E+00  0.00000000000E+00  0.53578906436E+02  0.26896275661E+04  0.26890938521E+04 0.  0.
        5    1    3    3  502    0 -0.10393553165E+04 -0.28242263198E+03 -0.77820711956E+03  0.13287777948E+04  0.46999998093E+01 0.  1.
       -5    1    3    3    0  502  0.10393553165E+04  0.28242263198E+03  0.83178602599E+03  0.13608497713E+04  0.46999998093E+01 0. -1.
</event>
<event>
 5   0  0.4655882E-06  0.2722979E+04  0.7818609E-02  0.8327587E-01
        2   -1    0    0  501    0  0.00000000000E+00  0.00000000000E+00  0.25940291643E+04  0.25940291643E+04  0.25500000920E-02 0. -1.
       -2   -1    0    0    0  501  0.00000000000E+00  0.00000000000E+00 -0.71458486976E+03  0.71458486977E+03  0.25500000920E-02 0.  1.
    10030    2    1    2    0    0  0.00000000000E+00  0.00000000000E+00  0.18794442945E+04  0.33086140340E+04  0.27229792453E+04 0.  0.
        1    1    3    3  502    0 -0.53437311974E+03 -0.11443387922E+04  0.32183944719E+03  0.13033213465E+04  0.50400001928E-02 0.  1.
       -1    1    3    3    0  502  0.53437311974E+03  0.11443387922E+04  0.15576048473E+04  0.20052926876E+04  0.50400001928E-02 0. -1.
</event>
<event>
 5   0  0.4655882E-06  0.2702480E+04  0.7818609E-02  0.8334201E-01
        2   -1    0    0  501    0  0.00000000000E+00  0.00000000000E+00  0.17327530903E+04  0.17327530903E+04  0.25500000920E-02 0. -1.
       -2   -1    0    0    0  501  0.00000000000E+00  0.00000000000E+00 -0.10537275711E+04  0.10537275711E+04  0.25500000920E-02 0.  1.
    10030    2    1    2    0    0  0.00000000000E+00  0.00000000000E+00  0.67902551922E+03  0.27864806614E+04  0.27024801240E+04 0.  0.
        1    1    3    3  502    0  0.11322456220E+04 -0.35482669503E+03  0.10061120079E+04  0.15556810420E+04  0.50400001928E-02 0. -1.
       -1    1    3    3    0  502 -0.11322456220E+04  0.35482669503E+03 -0.32708648865E+03  0.12307996194E+04  0.50400001928E-02 0.  1.
</event>
<event>
 5   0  0.4655882E-06  0.2704378E+04  0.7818609E-02  0.8333586E-01
        2   -1    0    0  501    0  0.00000000000E+00  0.00000000000E+00  0.22254163615E+04  0.22254163615E+04  0.25500000920E-02 0.  1.
       -2   -1    0    0    0  501  0.00000000000E+00  0.00000000000E+00 -0.82160610640E+03  0.82160610640E+03  0.25500000920E-02 0. -1.
    10030    2    1    2    0    0  0.00000000000E+00  0.00000000000E+00  0.14038102551E+04  0.30470224679E+04  0.27043784291E+04 0.  0.
        1    1    3    3  502    0  0.39693429841E+03 -0.12036461092E+04  0.12328842744E+04  0.17681415179E+04  0.50400001928E-02 0. -1.
       -1    1    3    3    0  502 -0.39693429841E+03  0.12036461092E+04  0.17092598072E+03  0.12788809500E+04  0.50400001928E-02 0.  1.
</event>
<event>
 5   0  0.1771016E-06  0.2707105E+04  0.7818609E-02  0.8332703E-01
       -1   -1    0    0    0  501  0.00000000000E+00  0.00000000000E+00  0.14900584610E+04  0.14900584610E+04  0.50400001928E-02 0.  1.
        1   -1    0    0  501    0  0.00000000000E+00  0.00000000000E+00 -0.12295516978E+04  0.12295516978E+04  0.50400001928E-02 0. -1.
    10030    2    1    2    0    0  0.00000000000E+00  0.00000000000E+00  0.26050676326E+03  0.27196101588E+04  0.27071046603E+04 0.  0.
        2    1    3    3  502    0  0.10714186440E+04  0.52513184227E+03  0.77226934950E+03  0.14213026809E+04  0.25500000920E-02 0.  1.
       -2    1    3    3    0  502 -0.10714186440E+04 -0.52513184227E+03 -0.51176258624E+03  0.12983074779E+04  0.25500000920E-02 0. -1.
</event>
<event>
 5   0  0.1732312E-06  0.2698186E+04  0.7818609E-02  0.8335594E-01
       -1   -1    0    0    0  501  0.00000000000E+00  0.00000000000E+00  0.12657338553E+04  0.12657338553E+04  0.50400001928E-02 0.  1.
        1   -1    0    0  501    0  0.00000000000E+00  0.00000000000E+00 -0.14379423484E+04  0.14379423484E+04  0.50400001928E-02 0. -1.
    10030    2    1    2    0    0  0.00000000000E+00  0.00000000000E+00 -0.17220849315E+03  0.27036762037E+04  0.26981862889E+04 0.  0.
        5    1    3    3  502    0  0.32599533719E+03  0.23602610727E+03 -0.13763766843E+04  0.14340209727E+04  0.46999998093E+01 0. -1.
       -5    1    3    3    0  502 -0.32599533719E+03 -0.23602610727E+03  0.12041681911E+04  0.12696552310E+04  0.46999998093E+01 0.  1.
</event>
<event>
 5   0  0.4401659E-06  0.2698534E+04  0.7818609E-02  0.8335481E-01
       -2   -1    0    0    0  501  0.00000000000E+00  0.00000000000E+00  0.12659347249E+04  0.12659347249E+04  0.25500000920E-02 0. -1.
        2   -1    0    0  501    0  0.00000000000E+00  0.00000000000E+00 -0.14380844355E+04  0.14380844355E+04  0.25500000920E-02 0.  1.
    10030    2    1    2    0    0  0.00000000000E+00  0.00000000000E+00 -0.17214971064E+03  0.27040191604E+04  0.26985336939E+04 0.  0.
        5    1    3    3  502    0  0.64130037650E+03  0.69694696046E+03 -0.10490161862E+04  0.14133146456E+04  0.46999998093E+01 0.  1.
       -5    1    3    3    0  502 -0.64130037650E+03 -0.69694696046E+03  0.87686647555E+03  0.12907045148E+04  0.46999998093E+01 0. -1.
</event>
<event>
 5   0  0.1828511E-06  0.2743183E+04  0.7818609E-02  0.8321128E-01
        1   -1    0    0  501    0  0.00000000000E+00  0.00000000000E+00  0.14094070713E+04  0.14094070713E+04  0.50400001928E-02 0.  1.
       -1   -1    0    0    0  501  0.00000000000E+00  0.00000000000E+00 -0.13347902879E+04  0.13347902879E+04  0.50400001928E-02 0. -1.
    10030    2    1    2    0    0  0.00000000000E+00  0.00000000000E+00  0.74616783407E+02  0.27441973592E+04  0.27431827285E+04 0.  0.
        4    1    3    3  502    0 -0.90101351241E+03  0.90465705216E+03 -0.46390739041E+03  0.13584702468E+04  0.12699999809E+01 0.  1.
       -4    1    3    3    0  502  0.90101351241E+03 -0.90465705216E+03  0.53852417381E+03  0.13857271125E+04  0.12699999809E+01 0. -1.
</event>
<event>
 5   0  0.4448804E-06  0.2700513E+04  0.7818609E-02  0.8334838E-01
       -2   -1    0    0    0  501  0.00000000000E+00  0.00000000000E+00  0.10752478665E+04  0.10752478666E+04  0.25500000920E-02 0.  1.
        2   -1    0    0  501    0  0.00000000000E+00  0.00000000000E+00 -0.16956027704E+04  0.16956027704E+04  0.25500000920E-02 0. -1.
    10030    2    1    2    0    0  0.00000000000E+00  0.00000000000E+00 -0.62035490385E+03  0.27708506370E+04  0.27005134781E+04 0.  0.
        2    1    3    3  502    0  0.87538671526E+03 -0.19019858705E+02 -0.13648256186E+04  0.16215463686E+04  0.25500000920E-02 0. -1.
       -2    1    3    3    0  502 -0.87538671526E+03  0.19019858705E+02  0.74447071471E+03  0.11493042684E+04  0.25500000920E-02 0.  1.
</event>
<event>
 5   0  0.1723605E-06  0.2551499E+04  0.7818609E-02  0.8384865E-01
       -1   -1    0    0    0  501  0.00000000000E+00  0.00000000000E+00  0.69429886907E+03  0.69429886909E+03  0.50400001928E-02 0. -1.
        1   -1    0    0  501    0  0.00000000000E+00  0.00000000000E+00 -0.23441442195E+04  0.23441442195E+04  0.50400001928E-02 0.  1.
    10030    2    1    2    0    0  0.00000000000E+00  0.00000000000E+00 -0.16498453505E+04  0.30384430886E+04  0.25514989168E+04 0.  0.
        1    1    3    3  502    0  0.12238118958E+04 -0.19055239381E+03 -0.46076718786E+03  0.13214886199E+04  0.50400001928E-02 0. -1.
       -1    1    3    3    0  502 -0.12238118958E+04  0.19055239381E+03 -0.11890781626E+04  0.17169544688E+04  0.50400001928E-02 0.  1.
</event>
<event>
 5   0  0.4487186E-06  0.2679408E+04  0.7818609E-02  0.8341718E-01
       -2   -1    0    0    0  501  0.00000000000E+00  0.00000000000E+00  0.10778372072E+04  0.10778372072E+04  0.25500000920E-02 0.  1.
        2   -1    0    0  501    0  0.00000000000E+00  0.00000000000E+00 -0.16651923785E+04  0.16651923785E+04  0.25500000920E-02 0. -1.
    10030    2    1    2    0    0  0.00000000000E+00  0.00000000000E+00 -0.58735517133E+03  0.27430295857E+04  0.26794076232E+04 0.  0.
        3    1    3    3  502    0 -0.56143089520E+01  0.16376611164E+03 -0.16548945712E+04  0.16629873457E+04  0.10100000352E+00 0. -1.
       -3    1    3    3    0  502  0.56143089520E+01 -0.16376611164E+03  0.10675393999E+04  0.10800422401E+04  0.10100000352E+00 0.  1.
</event>
<event>
 5   0  0.4401659E-06  0.2725772E+04  0.7818609E-02  0.8326691E-01
       -2   -1    0    0    0  501  0.00000000000E+00  0.00000000000E+00  0.92214688992E+03  0.92214688993E+03  0.25500000920E-02 0.  1.
        2   -1    0    0  501    0  0.00000000000E+00  0.00000000000E+00 -0.20142759065E+04  0.20142759065E+04  0.25500000920E-02 0. -1.
    10030    2    1    2    0    0  0.00000000000E+00  0.00000000000E+00 -0.10921290166E+04  0.29364227964E+04  0.27257720100E+04 0.  0.
        5    1    3    3  502    0 -0.17822211465E+03  0.81272289340E+03 -0.17089068230E+04  0.19007015134E+04  0.46999998093E+01 0. -1.
       -5    1    3    3    0  502  0.17822211465E+03 -0.81272289340E+03  0.61677780638E+03  0.10357212830E+04  0.46999998093E+01 0.  1.
</event>
<event>
 5   0  0.1723605E-06  0.2694598E+04  0.7818609E-02  0.8336760E-01
        1   -1    0    0  501    0  0.00000000000E+00  0.00000000000E+00  0.22379629494E+04  0.22379629494E+04  0.50400001928E-02 0. -1.
       -1   -1    0    0    0  501  0.00000000000E+00  0.00000000000E+00 -0.81110151184E+03  0.81110151185E+03  0.50400001928E-02 0.  1.
    10030    2    1    2    0    0  0.00000000000E+00  0.00000000000E+00  0.14268614376E+04  0.30490644613E+04  0.26945983981E+04 0.  0.
        1    1    3    3  502    0 -0.34761419624E+03 -0.27747005599E+03  0.21524940868E+04  0.21979663453E+04  0.50400001928E-02 0. -1.
       -1    1    3    3    0  502  0.34761419624E+03  0.27747005599E+03 -0.72563264921E+03  0.85109811598E+03  0.50400001928E-02 0.  1.
</event>
<event>
 5   0  0.1828511E-06  0.2687368E+04  0.7818609E-02  0.8339115E-01
        1   -1    0    0  501    0  0.00000000000E+00  0.00000000000E+00  0.17463781390E+04  0.17463781390E+04  0.50400001928E-02 0.  1.
       -1   -1    0    0    0  501  0.00000000000E+00  0.00000000000E+00 -0.10338466113E+04  0.10338466113E+04  0.50400001928E-02 0. -1.
    10030    2    1    2    0    0  0.00000000000E+00  0.00000000000E+00  0.71253152770E+03  0.27802247503E+04  0.26873683194E+04 0.  0.
        4    1    3    3  502    0 -0.12280693506E+04  0.54060980234E+03  0.28258540229E+03  0.13712291605E+04  0.12699999809E+01 0.  1.
       -4    1    3    3    0  502  0.12280693506E+04 -0.54060980234E+03  0.42994612542E+03  0.14089955897E+04  0.12699999809E+01 0. -1.
</event>
<event>
 5   0  0.1482875E-06  0.2657929E+04  0.7818609E-02  0.8348786E-01
        3   -1    0    0  501    0  0.00000000000E+00  0.00000000000E+00  0.17021912967E+04  0.17021912997E+04  0.10100000352E+00 0. -1.
       -3   -1    0    0    0  501  0.00000000000E+00  0.00000000000E+00 -0.10375726547E+04  0.10375726597E+04  0.10100000352E+00 0.  1.
    10030    2    1    2    0    0  0.00000000000E+00  0.00000000000E+00  0.66461864197E+03  0.27397639594E+04  0.26579293847E+04 0.  0.
        5    1    3    3  502    0  0.93495589079E+03  0.49440584859E+03  0.11617872259E+04  0.15710987585E+04  0.46999998093E+01 0. -1.
       -5    1    3    3    0  502 -0.93495589079E+03 -0.49440584859E+03 -0.49716858391E+03  0.11686652008E+04  0.46999998093E+01 0.  1.
</event>
<event>
 5   0  0.1732312E-06  0.2706755E+04  0.7818609E-02  0.8332816E-01
        1   -1    0    0  501    0  0.00000000000E+00  0.00000000000E+00  0.15485153987E+04  0.15485153988E+04  0.50400001928E-02 0. -1.
       -1   -1    0    0    0  501  0.00000000000E+00  0.00000000000E+00 -0.11828305078E+04  0.11828305078E+04  0.50400001928E-02 0.  1.
    10030    2    1    2    0    0  0.00000000000E+00  0.00000000000E+00  0.36568489099E+03  0.27313459065E+04  0.27067554418E+04 0.  0.
        5    1    3    3  502    0  0.34398316801E+03 -0.12760262112E+04 -0.11142623727E+03  0.13262749367E+04  0.46999998093E+01 0.  1.
       -5    1    3    3    0  502 -0.34398316801E+03  0.12760262112E+04  0.47711112826E+03  0.14050709698E+04  0.46999998093E+01 0. -1.
</event>
<event>
 5   0  0.4401659E-06  0.2707364E+04  0.7818609E-02  0.8332619E-01
        2   -1    0    0  501    0  0.00000000000E+00  0.00000000000E+00  0.13339618787E+04  0.13339618787E+04  0.25500000920E-02 0. -1.
       -2   -1    0    0    0  501  0.00000000000E+00  0.00000000000E+00 -0.13736939883E+04  0.13736939883E+04  0.25500000920E-02 0.  1.
    10030    2    1    2    0    0  0.00000000000E+00  0.00000000000E+00 -0.39732109623E+02  0.27076558670E+04  0.27073643371E+04 0.  0.
        5    1    3    3  502    0  0.83565291463E+03 -0.40406254704E+02 -0.10841633677E+04  0.13694454195E+04  0.46999998093E+01 0.  1.
       -5    1    3    3    0  502 -0.83565291463E+03  0.40406254704E+02  0.10444312580E+04  0.13382104475E+04  0.46999998093E+01 0. -1.
</event>
<event>
 5   0  0.4401659E-06  0.2700024E+04  0.7818609E-02  0.8334997E-01
        2   -1    0    0  501    0  0.00000000000E+00  0.00000000000E+00  0.16247615684E+04  0.16247615684E+04  0.25500000920E-02 0.  1.
       -2   -1    0    0    0  501  0.00000000000E+00  0.00000000000E+00 -0.11217232937E+04  0.11217232937E+04  0.25500000920E-02 0. -1.
    10030    2    1    2    0    0  0.00000000000E+00  0.00000000000E+00  0.50303827466E+03  0.27464848621E+04  0.27000243688E+04 0.  0.
        5    1    3    3  502    0 -0.10441935147E+04  0.82864295082E+03  0.34489946312E+02  0.13334919881E+04  0.46999998093E+01 0.  1.
       -5    1    3    3    0  502  0.10441935147E+04 -0.82864295082E+03  0.46854832835E+03  0.14129928740E+04  0.46999998093E+01 0. -1.
</event>
<event>
 5   0  0.4401659E-06  0.2728180E+04  0.7818609E-02  0.8325919E-01
       -2   -1    0    0    0  501  0.00000000000E+00  0.00000000000E+00  0.99617119178E+03  0.99617119178E+03  0.25500000920E-02 0. -1.
        2   -1    0    0  501    0  0.00000000000E+00  0.00000000000E+00 -0.18678929674E+04  0.18678929674E+04  0.25500000920E-02 0.  1.
    10030    2    1    2    0    0  0.00000000000E+00  0.00000000000E+00 -0.87172177565E+03  0.28640641592E+04  0.27281797327E+04 0.  0.
        5    1    3    3  502    0 -0.47961834964E+02 -0.42344099690E+02  0.99458668358E+03  0.99665346111E+03  0.46999998093E+01 0. -1.
       -5    1    3    3    0  502  0.47961834964E+02  0.42344099690E+02 -0.18663084592E+04  0.18674106981E+04  0.46999998093E+01 0.  1.
</event>
<event>
 5   0  0.4401659E-06  0.2700196E+04  0.7818609E-02  0.8334941E-01
        2   -1    0    0  501    0  0.00000000000E+00  0.00000000000E+00  0.13898131159E+04  0.13898131159E+04  0.25500000920E-02 0. -1.
       -2   -1    0    0    0  501  0.00000000000E+00  0.00000000000E+00 -0.13115174673E+04  0.13115174673E+04  0.25500000920E-02 0.  1.
    10030    2    1    2    0    0  0.00000000000E+00  0.00000000000E+00  0.78295648667E+02  0.27013305832E+04  0.27001956802E+04 0.  0.
        5    1    3    3  502    0  0.74091127264E+03 -0.10922125291E+04  0.32363394823E+03  0.13589108672E+04  0.46999998093E+01 0. -1.
       -5    1    3    3    0  502 -0.74091127264E+03  0.10922125291E+04 -0.24533829957E+03  0.13424197160E+04  0.46999998093E+01 0.  1.
</event>
<event>
 5   0  0.1771016E-06  0.2710763E+04  0.7818609E-02  0.8331521E-01
        1   -1    0    0  501    0  0.00000000000E+00  0.00000000000E+00  0.14135590093E+04  0.14135590093E+04  0.50400001928E-02 0.  1.
       -1   -1    0    0    0  501  0.00000000000E+00  0.00000000000E+00 -0.12995983846E+04  0.12995983846E+04  0.50400001928E-02 0. -1.
    10030    2    1    2    0    0  0.00000000000E+00  0.00000000000E+00  0.11396062469E+03  0.27131573939E+04  0.27107629959E+04 0.  0.
        2    1    3    3  502    0 -0.86349541032E+03  0.92264346027E+03 -0.43351758143E+03  0.13359763366E+04  0.25500000920E-02 0. -1.
       -2    1    3    3    0  502  0.86349541032E+03 -0.92264346027E+03  0.54747820612E+03  0.13771810573E+04  0.25500000920E-02 0.  1.
</event>
<event>
 5   0  0.4487186E-06  0.2704462E+04  0.7818609E-02  0.8333559E-01
        2   -1    0    0  501    0  0.00000000000E+00  0.00000000000E+00  0.19103176949E+04  0.19103176950E+04  0.25500000920E-02 0.  1.
       -2   -1    0    0    0  501  0.00000000000E+00  0.00000000000E+00 -0.95718595817E+03  0.95718595817E+03  0.25500000920E-02 0. -1.
    10030    2    1    2    0    0  0.00000000000E+00  0.00000000000E+00  0.95313173678E+03  0.28675036531E+04  0.27044624407E+04 0.  0.
        3    1    3    3  502    0 -0.91547215860E+03  0.97610509021E+03  0.27080797233E+03  0.13653598018E+04  0.10100000352E+00 0. -1.
       -3    1    3    3    0  502  0.91547215860E+03 -0.97610509021E+03  0.68232376445E+03  0.15021438513E+04  0.10100000352E+00 0.  1.
</event>
<event>
 5   0  0.4439357E-06  0.2709472E+04  0.7818609E-02  0.8331938E-01
       -2   -1    0    0    0  501  0.00000000000E+00  0.00000000000E+00  0.72980889764E+03  0.72980889764E+03  0.25500000920E-02 0.  1.
        2   -1    0    0  501    0  0.00000000000E+00  0.00000000000E+00 -0.25147802778E+04  0.25147802778E+04  0.25500000920E-02 0. -1.
    10030    2    1    2    0    0  0.00000000000E+00  0.00000000000E+00 -0.17849713802E+04  0.32445891755E+04  0.27094715517E+04 0.  0.
        4    1    3    3  502    0 -0.73017117451E+03  0.48665102064E+03  0.34350967227E+03  0.94232673093E+03  0.12699999809E+01 0.  1.
       -4    1    3    3    0  502  0.73017117451E+03 -0.48665102064E+03 -0.21284810524E+04  0.23022624445E+04  0.12699999809E+01 0. -1.
</event>
<event>
 5   0  0.4487186E-06  0.2695715E+04  0.7818609E-02  0.8336396E-01
       -2   -1    0    0    0  501  0.00000000000E+00  0.00000000000E+00  0.13296046307E+04  0.13296046307E+04  0.25500000920E-02 0. -1.
        2   -1    0    0  501    0  0.00000000000E+00  0.00000000000E+00 -0.13663613801E+04  0.13663613801E+04  0.25500000920E-02 0.  1.
    10030    2    1    2    0    0  0.00000000000E+00  0.00000000000E+00 -0.36756749366E+02  0.26959660108E+04  0.26957154287E+04 0.  0.
        3    1    3    3  502    0  0.55848289702E+03  0.10625546236E+04 -0.63145651107E+03  0.13563417010E+04  0.10100000352E+00 0.  1.
       -3    1    3    3    0  502 -0.55848289702E+03 -0.10625546236E+04  0.59469976170E+03  0.13396243097E+04  0.10100000352E+00 0. -1.
</event>
<event>
 5   0  0.1771016E-06  0.2674014E+04  0.7818609E-02  0.8343486E-01
       -1   -1    0    0    0  501  0.00000000000E+00  0.00000000000E+00  0.11485153818E+04  0.11485153818E+04  0.50400001928E-02 0.  1.
        1   -1    0    0  501    0  0.00000000000E+00  0.00000000000E+00 -0.15564328553E+04  0.15564328553E+04  0.50400001928E-02 0. -1.
    10030    2    1    2    0    0  0.00000000000E+00  0.00000000000E+00 -0.40791747347E+03  0.27049482371E+04  0.26740135191E+04 0.  0.
        2    1    3    3  502    0  0.25162420486E+03  0.12992821854E+04 -0.11659198169E+02  0.13234745463E+04  0.25500000920E-02 0.  1.
       -2    1    3    3    0  502 -0.25162420486E+03 -0.12992821854E+04 -0.39625827530E+03  0.13814736909E+04  0.25500000920E-02 0. -1.
</event>
<event>
 5   0  0.4448804E-06  0.2699282E+04  0.7818609E-02  0.8335238E-01
       -2   -1    0    0    0  501  0.00000000000E+00  0.00000000000E+00  0.10149844415E+04  0.10149844415E+04  0.25500000920E-02 0.  1.
        2   -1    0    0  501    0  0.00000000000E+00  0.00000000000E+00 -0.17946394783E+04  0.17946394783E+04  0.25500000920E-02 0. -1.
    10030    2    1    2    0    0  0.00000000000E+00  0.00000000000E+00 -0.77965503681E+03  0.28096239197E+04  0.26992822368E+04 0.  0.
        2    1    3    3  502    0 -0.22821630395E+03  0.40434165465E+03 -0.17088942155E+04  0.17708456440E+04  0.25500000920E-02 0. -1.
       -2    1    3    3    0  502  0.22821630395E+03 -0.40434165465E+03  0.92923917866E+03  0.10387782758E+04  0.25500000920E-02 0.  1.
</event>
<event>
 5   0  0.1828511E-06  0.2702974E+04  0.7818609E-02  0.8334041E-01
       -1   -1    0    0    0  501  0.00000000000E+00  0.00000000000E+00  0.10445115179E+04  0.10445115179E+04  0.50400001928E-02 0.  1.
        1   -1    0    0  501    0  0.00000000000E+00  0.00000000000E+00 -0.17486812710E+04  0.17486812710E+04  0.50400001928E-02 0. -1.
    10030    2    1    2    0    0  0.00000000000E+00  0.00000000000E+00 -0.70416975307E+03  0.27931927889E+04  0.27029744570E+04 0.  0.
        4    1    3    3  502    0 -0.55075728423E+03  0.10040924499E+04  0.38948917296E+03  0.12096440232E+04  0.12699999809E+01 0.  1.
       -4    1    3    3    0  502  0.55075728423E+03 -0.10040924499E+04 -0.10936589260E+04  0.15835487657E+04  0.12699999809E+01 0. -1.
</event>
<event>
 5   0  0.1828511E-06  0.2726073E+04  0.7818609E-02  0.8326594E-01
        1   -1    0    0  501    0  0.00000000000E+00  0.00000000000E+00  0.10931483687E+04  0.10931483687E+04  0.50400001928E-02 0. -1.
       -1   -1    0    0    0  501  0.00000000000E+00  0.00000000000E+00 -0.16995576122E+04  0.16995576122E+04  0.50400001928E-02 0.  1.
    10030    2    1    2    0    0  0.00000000000E+00  0.00000000000E+00 -0.60640924351E+03  0.27927059810E+04  0.27260730961E+04 0.  0.
        4    1    3    3  502    0 -0.66879010313E+03 -0.10937276082E+04  0.17108776686E+03  0.12933649600E+04  0.12699999809E+01 0. -1.
       -4    1    3    3    0  502  0.66879010313E+03  0.10937276082E+04 -0.77749701037E+03  0.14993410209E+04  0.12699999809E+01 0.  1.
</event>
<event>
 5   0  0.4439357E-06  0.2703403E+04  0.7818609E-02  0.8333902E-01
        2   -1    0    0  501    0  0.00000000000E+00  0.00000000000E+00  0.19243499273E+04  0.19243499273E+04  0.25500000920E-02 0.  1.
       -2   -1    0    0    0  501  0.00000000000E+00  0.00000000000E+00 -0.94946191563E+03  0.94946191563E+03  0.25500000920E-02 0. -1.
    10030    2    1    2    0    0  0.00000000000E+00  0.00000000000E+00  0.97488801172E+03  0.28738118430E+04  0.27034030172E+04 0.  0.
        4    1    3    3  502    0 -0.10888636026E+04 -0.56069009753E+03  0.10954200916E+04  0.16431506688E+04  0.12699999809E+01 0. -1.
       -4    1    3    3    0  502  0.10888636026E+04  0.56069009753E+03 -0.12053207984E+03  0.12306611742E+04  0.12699999809E+01 0.  1.
</event>
<event>
 5   0  0.1732312E-06  0.2701245E+04  0.7818609E-02  0.8334601E-01
        1   -1    0    0  501    0  0.00000000000E+00  0.00000000000E+00  0.83232014598E+03  0.83232014600E+03  0.50400001928E-02 0.  1.
       -1   -1    0    0    0  501  0.00000000000E+00  0.00000000000E+00 -0.21916816440E+04  0.21916816440E+04  0.50400001928E-02 0. -1.
    10030    2    1    2    0    0  0.00000000000E+00  0.00000000000E+00 -0.13593614980E+04  0.30240017900E+04  0.27012447397E+04 0.  0.
        5    1    3    3  502    0  0.99639934414E+03  0.57501219504E+03  0.11247464341E+03  0.11559080036E+04  0.46999998093E+01 0.  1.
       -5    1    3    3    0  502 -0.99639934414E+03 -0.57501219504E+03 -0.14718361414E+04  0.18680937864E+04  0.46999998093E+01 0. -1.
</event>
<event>
 5   0  0.1771016E-06  0.2745489E+04  0.7818609E-02  0.8320395E-01
        1   -1    0    0  501    0  0.00000000000E+00  0.00000000000E+00  0.15109888538E+04  0.15109888538E+04  0.50400001928E-02 0.  1.
       -1   -1    0    0    0  501  0.00000000000E+00  0.00000000000E+00 -0.12471484040E+04  0.12471484040E+04  0.50400001928E-02 0. -1.
    10030    2    1    2    0    0  0.00000000000E+00  0.00000000000E+00  0.26384044980E+03  0.27581372578E+04  0.27454889091E+04 0.  0.
        2    1    3    3  502    0  0.17087725876E+03 -0.97415350299E+03  0.10882792715E+04  0.14705529089E+04  0.25500000920E-02 0.  1.
       -2    1    3    3    0  502 -0.17087725876E+03  0.97415350299E+03 -0.82443882172E+03  0.12875843490E+04  0.25500000920E-02 0. -1.
</event>
<event>
 5   0  0.4487186E-06  0.2742894E+04  0.7818609E-02  0.8321220E-01
       -2   -1    0    0    0  501  0.00000000000E+00  0.00000000000E+00  0.18896300674E+04  0.18896300675E+04  0.25500000920E-02 0. -1.
        2   -1    0    0  501    0  0.00000000000E+00  0.00000000000E+00 -0.99536241613E+03  0.99536241613E+03  0.25500000920E-02 0.  1.
    10030    2    1    2    0    0  0.00000000000E+00  0.00000000000E+00  0.89426765132E+03  0.28849924836E+04  0.27428939094E+04 0.  0.
        3    1    3    3  502    0  0.92961385351E+03 -0.68418376309E+03  0.12261646324E+04  0.16839741846E+04  0.10100000352E+00 0. -1.
       -3    1    3    3    0  502 -0.92961385351E+03  0.68418376309E+03 -0.33189698109E+03  0.12010182990E+04  0.10100000352E+00 0.  1.
</event>
<event>
 5   0  0.4487186E-06  0.2688046E+04  0.7818609E-02  0.8338894E-01
       -2   -1    0    0    0  501  0.00000000000E+00  0.00000000000E+00  0.14950032668E+04  0.14950032668E+04  0.25500000920E-02 0.  1.
        2   -1    0    0  501    0  0.00000000000E+00  0.00000000000E+00 -0.12082898096E+04  0.12082898096E+04  0.25500000920E-02 0. -1.
    10030    2    1    2    0    0  0.00000000000E+00  0.00000000000E+00  0.28671345718E+03  0.27032930764E+04  0.26880455446E+04 0.  0.
        3    1    3    3  502    0  0.21876341317E+03 -0.81056268318E+03 -0.91213360823E+03  0.12397003766E+04  0.10100000352E+00 0. -1.
       -3    1    3    3    0  502 -0.21876341317E+03  0.81056268318E+03  0.11988470654E+04  0.14635926997E+04  0.10100000352E+00 0.  1.
</event>
<event>
 5   0  0.4439357E-06  0.2733761E+04  0.7818609E-02  0.8324133E-01
        2   -1    0    0  501    0  0.00000000000E+00  0.00000000000E+00  0.11769733868E+04  0.11769733868E+04  0.25500000920E-02 0. -1.
       -2   -1    0    0    0  501  0.00000000000E+00  0.00000000000E+00 -0.15874295516E+04  0.15874295517E+04  0.25500000920E-02 0.  1.
    10030    2    1    2    0    0  0.00000000000E+00  0.00000000000E+00 -0.41045616482E+03  0.27644029385E+04  0.27337610252E+04 0.  0.
        4    1    3    3  502    0 -0.54348024156E+03  0.71665426968E+03  0.83557863699E+03  0.12276633849E+04  0.12699999809E+01 0. -1.
       -4    1    3    3    0  502  0.54348024156E+03 -0.71665426968E+03 -0.12460348018E+04  0.15367395535E+04  0.12699999809E+01 0.  1.
</event>
<event>
 5   0  0.1723605E-06  0.2691544E+04  0.7818609E-02  0.8337754E-01
       -1   -1    0    0    0  501  0.00000000000E+00  0.00000000000E+00  0.77514316491E+03  0.77514316493E+03  0.50400001928E-02 0. -1.
        1   -1    0    0  501    0  0.00000000000E+00  0.00000000000E+00 -0.23364738398E+04  0.23364738398E+04  0.50400001928E-02 0.  1.
    10030    2    1    2    0    0  0.00000000000E+00  0.00000000000E+00 -0.15613306748E+04  0.31116170047E+04  0.26915435920E+04 0.  0.
        1    1    3    3  502    0  0.44813435026E+03 -0.10657041134E+04  0.15726235702E+02  0.11561993633E+04  0.50400001928E-02 0.  1.
       -1    1    3    3    0  502 -0.44813435026E+03  0.10657041134E+04 -0.15770569105E+04  0.19554176414E+04  0.50400001928E-02 0. -1.
</event>
<event>
 5   0  0.4439357E-06  0.2701318E+04  0.7818609E-02  0.8334577E-01
        2   -1    0    0  501    0  0.00000000000E+00  0.00000000000E+00  0.18040655334E+04  0.18040655334E+04  0.25500000920E-02 0. -1.
       -2   -1    0    0    0  501  0.00000000000E+00  0.00000000000E+00 -0.10112051406E+04  0.10112051406E+04  0.25500000920E-02 0.  1.
    10030    2    1    2    0    0  0.00000000000E+00  0.00000000000E+00  0.79286039273E+03  0.28152706740E+04  0.27013184495E+04 0.  0.
        4    1    3    3  502    0  0.44340982844E+03  0.87296091654E+03  0.13660565776E+04  0.16807097382E+04  0.12699999809E+01 0. -1.
       -4    1    3    3    0  502 -0.44340982844E+03 -0.87296091654E+03 -0.57319618491E+03  0.11345609358E+04  0.12699999809E+01 0.  1.
</event>
<event>
 5   0  0.1753474E-06  0.2709831E+04  0.7818609E-02  0.8331822E-01
       -1   -1    0    0    0  501  0.00000000000E+00  0.00000000000E+00  0.90587120149E+03  0.90587120151E+03  0.50400001928E-02 0.  1.
        1   -1    0    0  501    0  0.00000000000E+00  0.00000000000E+00 -0.20265528349E+04  0.20265528349E+04  0.50400001928E-02 0. -1.
    10030    2    1    2    0    0  0.00000000000E+00  0.00000000000E+00 -0.11206816334E+04  0.29324240364E+04  0.27098308814E+04 0.  0.
        3    1    3    3  502    0  0.10952240948E+04 -0.40200043905E+03  0.18521998936E+03  0.11812817722E+04  0.10100000352E+00 0.  1.
       -3    1    3    3    0  502 -0.10952240948E+04  0.40200043905E+03 -0.13059016227E+04  0.17511422641E+04  0.10100000352E+00 0. -1.
</event>
<event>
 5   0  0.4487186E-06  0.2660968E+04  0.7818609E-02  0.8347782E-01
       -2   -1    0    0    0  501  0.00000000000E+00  0.00000000000E+00  0.72022368007E+03  0.72022368007E+03  0.25500000920E-02 0. -1.
        2   -1    0    0  501    0  0.00000000000E+00  0.00000000000E+00 -0.24578309594E+04  0.24578309594E+04  0.25500000920E-02 0.  1.
    10030    2    1    2    0    0  0.00000000000E+00  0.00000000000E+00 -0.17376072793E+04  0.31780546394E+04  0.26609682888E+04 0.  0.
        3    1    3    3  502    0 -0.29602583239E+03  0.12947903240E+04 -0.96189012775E+03  0.16399225301E+04  0.10100000352E+00 0. -1.
       -3    1    3    3    0  502  0.29602583239E+03 -0.12947903240E+04 -0.77571715153E+03  0.15381321094E+04  0.10100000352E+00 0.  1.
</event>
<event>
 5   0  0.4401659E-06  0.2711989E+04  0.7818609E-02  0.8331125E-01
       -2   -1    0    0    0  501  0.00000000000E+00  0.00000000000E+00  0.55319395887E+03  0.55319395888E+03  0.25500000920E-02 0. -1.
        2   -1    0    0  501    0  0.00000000000E+00  0.00000000000E+00 -0.33238269079E+04  0.33238269079E+04  0.25500000920E-02 0.  1.
    10030    2    1    2    0    0  0.00000000000E+00  0.00000000000E+00 -0.27706329490E+04  0.38770208668E+04  0.27119889128E+04 0.  0.
        5    1    3    3  502    0  0.68385544140E+03  0.19249679651E+03  0.26583074904E+03  0.75855214622E+03  0.46999998093E+01 0. -1.
       -5    1    3    3    0  502 -0.68385544140E+03 -0.19249679651E+03 -0.30364636981E+04  0.31184687206E+04  0.46999998093E+01 0.  1.
</event>
<event>
 5   0  0.1723605E-06  0.2830716E+04  0.7818609E-02  0.8293795E-01
       -1   -1    0    0    0  501  0.00000000000E+00  0.00000000000E+00  0.14976260959E+04  0.14976260960E+04  0.50400001928E-02 0. -1.
        1   -1    0    0  501    0  0.00000000000E+00  0.00000000000E+00 -0.13376086872E+04  0.13376086872E+04  0.50400001928E-02 0.  1.
    10030    2    1    2    0    0  0.00000000000E+00  0.00000000000E+00  0.16001740874E+03  0.28352347832E+04  0.28307155817E+04 0.  0.
        1    1    3    3  502    0  0.11416252393E+04 -0.42735355031E+03 -0.64037416009E+03  0.13769598066E+04  0.50400001928E-02 0.  1.
       -1    1    3    3    0  502 -0.11416252393E+04  0.42735355031E+03  0.80039156882E+03  0.14582749766E+04  0.50400001928E-02 0. -1.
</event>
<event>
 5   0  0.1723605E-06  0.2703929E+04  0.7818609E-02  0.8333731E-01
        1   -1    0    0  501    0  0.00000000000E+00  0.00000000000E+00  0.19294636530E+04  0.19294636530E+04  0.50400001928E-02 0. -1.
       -1   -1    0    0    0  501  0.00000000000E+00  0.00000000000E+00 -0.94731432934E+03  0.94731432936E+03  0.50400001928E-02 0.  1.
    10030    2    1    2    0    0  0.00000000000E+00  0.00000000000E+00  0.98214932361E+03  0.28767779823E+04  0.27039294121E+04 0.  0.
        1    1    3    3  502    0  0.89430500728E+03 -0.68116344366E+03 -0.30796307263E+03  0.11655926978E+04  0.50400001928E-02 0.  1.
       -1    1    3    3    0  502 -0.89430500728E+03  0.68116344366E+03  0.12901123962E+04  0.17111852845E+04  0.50400001928E-02 0. -1.
</event>
<event>
 5   0  0.4655882E-06  0.2720643E+04  0.7818609E-02  0.8328338E-01
        2   -1    0    0  501    0  0.00000000000E+00  0.00000000000E+00  0.12919899048E+04  0.12919899048E+04  0.25500000920E-02 0. -1.
       -2   -1    0    0    0  501  0.00000000000E+00  0.00000000000E+00 -0.14322668528E+04  0.14322668528E+04  0.25500000920E-02 0.  1.
    10030    2    1    2    0    0  0.00000000000E+00  0.00000000000E+00 -0.14027694797E+03  0.27242567576E+04  0.27206428025E+04 0.  0.
        1    1    3    3  502    0 -0.32826322111E+03  0.12228077923E+04  0.42797449887E+03  0.13364796335E+04  0.50400001928E-02 0. -1.
       -1    1    3    3    0  502  0.32826322111E+03 -0.12228077923E+04 -0.56825144684E+03  0.13877771240E+04  0.50400001928E-02 0.  1.
</event>
<event>
 5   0  0.1828511E-06  0.2664688E+04  0.7818609E-02  0.8346554E-01
        1   -1    0    0  501    0  0.00000000000E+00  0.00000000000E+00  0.84065812299E+03  0.84065812301E+03  0.50400001928E-02 0. -1.
       -1   -1    0    0    0  501  0.00000000000E+00  0.00000000000E+00 -0.21116074369E+04  0.21116074369E+04  0.50400001928E-02 0.  1.
    10030    2    1    2    0    0  0.00000000000E+00  0.00000000000E+00 -0.12709493139E+04  0.29522655599E+04  0.26646875573E+04 0.  0.
        4    1    3    3  502    0 -0.99236789309E+03 -0.88412274963E+03 -0.73864389608E+03  0.15205471021E+04  0.12699999809E+01 0. -1.
       -4    1    3    3    0  502  0.99236789309E+03  0.88412274963E+03 -0.53230541785E+03  0.14317184578E+04  0.12699999809E+01 0.  1.
</event>
<event>
 5   0  0.4401659E-06  0.2697469E+04  0.7818609E-02  0.8335827E-01
        2   -1    0    0  501    0  0.00000000000E+00  0.00000000000E+00  0.60309218242E+03  0.60309218242E+03  0.25500000920E-02 0.  1.
       -2   -1    0    0    0  501  0.00000000000E+00  0.00000000000E+00 -0.30162639211E+04  0.30162639211E+04  0.25500000920E-02 0. -1.
    10030    2    1    2    0    0  0.00000000000E+00  0.00000000000E+00 -0.24131717386E+04  0.36193561035E+04  0.26974693258E+04 0.  0.
        5    1    3    3  502    0 -0.48912905020E+03 -0.82929944891E+03 -0.24738766835E+04  0.26546323171E+04  0.46999998093E+01 0. -1.
       -5    1    3    3    0  502  0.48912905020E+03  0.82929944891E+03  0.60704944876E+02  0.96472378639E+03  0.46999998093E+01 0.  1.
</event>
<event>
 5   0  0.1771016E-06  0.2687569E+04  0.7818609E-02  0.8339050E-01
        1   -1    0    0  501    0  0.00000000000E+00  0.00000000000E+00  0.19880493390E+04  0.19880493390E+04  0.50400001928E-02 0. -1.
       -1   -1    0    0    0  501  0.00000000000E+00  0.00000000000E+00 -0.90830570786E+03  0.90830570788E+03  0.50400001928E-02 0.  1.
    10030    2    1    2    0    0  0.00000000000E+00  0.00000000000E+00  0.10797436311E+04  0.28963550469E+04  0.26875688361E+04 0.  0.
        2    1    3    3  502    0 -0.10201812250E+04 -0.86696244383E+03  0.41529323073E+03  0.14017353810E+04  0.25500000920E-02 0. -1.
       -2    1    3    3    0  502  0.10201812250E+04  0.86696244383E+03  0.66445040039E+03  0.14946196658E+04  0.25500000920E-02 0.  1.
</event>
<event>
 5   0  0.1732312E-06  0.2704703E+04  0.7818609E-02  0.8333481E-01
       -1   -1    0    0    0  501  0.00000000000E+00  0.00000000000E+00  0.87554901587E+03  0.87554901589E+03  0.50400001928E-02 0.  1.
        1   -1    0    0  501    0  0.00000000000E+00  0.00000000000E+00 -0.20888093474E+04  0.20888093474E+04  0.50400001928E-02 0. -1.
    10030    2    1    2    0    0  0.00000000000E+00  0.00000000000E+00 -0.12132603315E+04  0.29643583633E+04  0.27047032876E+04 0.  0.
        5    1    3    3  502    0 -0.58118855187E+02  0.67038772740E+03 -0.18922894035E+04  0.20083771516E+04  0.46999998093E+01 0. -1.
       -5    1    3    3    0  502  0.58118855187E+02 -0.67038772740E+03  0.67902907203E+03  0.95598121166E+03  0.46999998093E+01 0.  1.
</event>
<event>
 5   0  0.1753474E-06  0.2701472E+04  0.7818609E-02  0.8334528E-01
        1   -1    0    0  501    0  0.00000000000E+00  0.00000000000E+00  0.20711770560E+04  0.20711770560E+04  0.50400001928E-02 0. -1.
       -1   -1    0    0    0  501  0.00000000000E+00  0.00000000000E+00 -0.88089385288E+03  0.88089385290E+03  0.50400001928E-02 0.  1.
    10030    2    1    2    0    0  0.00000000000E+00  0.00000000000E+00  0.11902832031E+04  0.29520709089E+04  0.27014715522E+04 0.  0.
        3    1    3    3  502    0  0.35327293279E+03 -0.92443066023E+03  0.15997200546E+04  0.18810842815E+04  0.10100000352E+00 0. -1.
       -3    1    3    3    0  502 -0.35327293279E+03  0.92443066023E+03 -0.40943685150E+03  0.10709866274E+04  0.10100000352E+00 0.  1.
</event>
<event>
 5   0  0.4401659E-06  0.2707189E+04  0.7818609E-02  0.8332676E-01
       -2   -1    0    0    0  501  0.00000000000E+00  0.00000000000E+00  0.30487678729E+04  0.30487678729E+04  0.25500000920E-02 0.  1.
        2   -1    0    0  501    0  0.00000000000E+00  0.00000000000E+00 -0.60096998769E+03  0.60096998769E+03  0.25500000920E-02 0. -1.
    10030    2    1    2    0    0  0.00000000000E+00  0.00000000000E+00  0.24477978852E+04  0.36497378605E+04  0.27071889413E+04 0.  0.
        5    1    3    3  502    0 -0.28422618864E+03 -0.29678093914E+03 -0.51483301085E+03  0.65874013936E+03  0.46999998093E+01 0. -1.
       -5    1    3    3    0  502  0.28422618864E+03  0.29678093914E+03  0.29626308960E+04  0.29909977212E+04  0.46999998093E+01 0.  1.
</event>
<event>
 5   0  0.1771016E-06  0.2736128E+04  0.7818609E-02  0.8323377E-01
       -1   -1    0    0    0  501  0.00000000000E+00  0.00000000000E+00  0.94618573860E+03  0.94618573861E+03  0.50400001928E-02 0. -1.
        1   -1    0    0  501    0  0.00000000000E+00  0.00000000000E+00 -0.19780457843E+04  0.19780457843E+04  0.50400001928E-02 0.  1.
    10030    2    1    2    0    0  0.00000000000E+00  0.00000000000E+00 -0.10318600457E+04  0.29242315229E+04  0.27361277101E+04 0.  0.
        2    1    3    3  502    0  0.73973560020E+03  0.11573782937E+03 -0.17396325568E+04  0.18939180120E+04  0.25500000920E-02 0.  1.
       -2    1    3    3    0  502 -0.73973560020E+03 -0.11573782937E+03  0.70777251111E+03  0.10303135109E+04  0.25500000920E-02 0. -1.
</event>
<event>
 5   0  0.1753474E-06  0.2704138E+04  0.7818609E-02  0.8333664E-01
       -1   -1    0    0    0  501  0.00000000000E+00  0.00000000000E+00  0.80351909384E+03  0.80351909386E+03  0.50400001928E-02 0. -1.
        1   -1    0    0  501    0  0.00000000000E+00  0.00000000000E+00 -0.22751051217E+04  0.22751051217E+04  0.50400001928E-02 0.  1.
    10030    2    1    2    0    0  0.00000000000E+00  0.00000000000E+00 -0.14715860278E+04  0.30786242155E+04  0.27041378706E+04 0.  0.
        3    1    3    3  502    0 -0.25690811173E+03  0.56192867657E+02  0.77412111751E+03  0.81757136142E+03  0.10100000352E+00 0. -1.
       -3    1    3    3    0  502  0.25690811173E+03 -0.56192867657E+02 -0.22457071453E+04  0.22610528541E+04  0.10100000352E+00 0.  1.
</event>
<event>
 5   0  0.4487186E-06  0.2699145E+04  0.7818609E-02  0.8335282E-01
       -2   -1    0    0    0  501  0.00000000000E+00  0.00000000000E+00  0.73878598505E+03  0.73878598505E+03  0.25500000920E-02 0. -1.
        2   -1    0    0  501    0  0.00000000000E+00  0.00000000000E+00 -0.24653231875E+04  0.24653231875E+04  0.25500000920E-02 0.  1.
    10030    2    1    2    0    0  0.00000000000E+00  0.00000000000E+00 -0.17265372025E+04  0.32041091726E+04  0.26991452125E+04 0.  0.
        3    1    3    3  502    0  0.41375120255E+02  0.12949784576E+04 -0.41489510548E+03  0.13604481118E+04  0.10100000352E+00 0.  1.
       -3    1    3    3    0  502 -0.41375120255E+02 -0.12949784576E+04 -0.13116420970E+04  0.18436610608E+04  0.10100000352E+00 0. -1.
</event>
<event>
 5   0  0.4401659E-06  0.2705011E+04  0.7818609E-02  0.8333381E-01
       -2   -1    0    0    0  501  0.00000000000E+00  0.00000000000E+00  0.22067999024E+04  0.22067999024E+04  0.25500000920E-02 0. -1.
        2   -1    0    0  501    0  0.00000000000E+00  0.00000000000E+00 -0.82892452676E+03  0.82892452676E+03  0.25500000920E-02 0.  1.
    10030    2    1    2    0    0  0.00000000000E+00  0.00000000000E+00  0.13778753756E+04  0.30357244291E+04  0.27050105839E+04 0.  0.
        5    1    3    3  502    0  0.80941858079E+03 -0.97932006751E+02 -0.52211490411E+03  0.96818137761E+03  0.46999998093E+01 0.  1.
       -5    1    3    3    0  502 -0.80941858079E+03  0.97932006751E+02  0.18999902797E+04  0.20675430515E+04  0.46999998093E+01 0. -1.
</event>
<event>
 5   0  0.4655882E-06  0.2697162E+04  0.7818609E-02  0.8335926E-01
        2   -1    0    0  501    0  0.00000000000E+00  0.00000000000E+00  0.13566582270E+04  0.13566582270E+04  0.25500000920E-02 0. -1.
       -2   -1    0    0    0  501  0.00000000000E+00  0.00000000000E+00 -0.13405517517E+04  0.13405517517E+04  0.25500000920E-02 0.  1.
    10030    2    1    2    0    0  0.00000000000E+00  0.00000000000E+00  0.16106475229E+02  0.26972099787E+04  0.26971618881E+04 0.  0.
        1    1    3    3  502    0 -0.19699140264E+03 -0.82190318548E+03  0.10589478493E+04  0.13548804400E+04  0.50400001928E-02 0. -1.
       -1    1    3    3    0  502  0.19699140264E+03  0.82190318548E+03 -0.10428413741E+04  0.13423295387E+04  0.50400001928E-02 0.  1.
</event>
<event>
 5   0  0.1828511E-06  0.2695318E+04  0.7818609E-02  0.8336526E-01
        1   -1    0    0  501    0  0.00000000000E+00  0.00000000000E+00  0.28980273589E+04  0.28980273589E+04  0.50400001928E-02 0. -1.
       -1   -1    0    0    0  501  0.00000000000E+00  0.00000000000E+00 -0.62669702803E+03  0.62669702805E+03  0.50400001928E-02 0.  1.
    10030    2    1    2    0    0  0.00000000000E+00  0.00000000000E+00  0.22713303309E+04  0.35247243870E+04  0.26953182617E+04 0.  0.
        4    1    3    3  502    0 -0.63562544756E+03 -0.34153596346E+03 -0.35279311697E+03  0.80320054794E+03  0.12699999809E+01 0.  1.
       -4    1    3    3    0  502  0.63562544756E+03  0.34153596346E+03  0.26241234479E+04  0.27215238390E+04  0.12699999809E+01 0. -1.
</event>
<event>
 5   0  0.1732312E-06  0.2695834E+04  0.7818609E-02  0.8336358E-01
        1   -1    0    0  501    0  0.00000000000E+00  0.00000000000E+00  0.16996117990E+04  0.16996117990E+04  0.50400001928E-02 0. -1.
       -1   -1    0    0    0  501  0.00000000000E+00  0.00000000000E+00 -0.10689971306E+04  0.10689971307E+04  0.50400001928E-02 0.  1.
    10030    2    1    2    0    0  0.00000000000E+00  0.00000000000E+00  0.63061466832E+03  0.27686089296E+04  0.26958339239E+04 0.  0.
        5    1    3    3  502    0 -0.10349410331E+04 -0.28510464074E+03 -0.52184851613E+03  0.11936228726E+04  0.46999998093E+01 0.  1.
       -5    1    3    3    0  502  0.10349410331E+04  0.28510464074E+03  0.11524631844E+04  0.15749860570E+04  0.46999998093E+01 0. -1.
</event>
<event>
 5   0  0.1753474E-06  0.2688582E+04  0.7818609E-02  0.8338719E-01
       -1   -1    0    0    0  501  0.00000000000E+00  0.00000000000E+00  0.13246005976E+04  0.13246005976E+04  0.50400001928E-02 0. -1.
        1   -1    0    0  501    0  0.00000000000E+00  0.00000000000E+00 -0.13642745859E+04  0.13642745859E+04  0.50400001928E-02 0.  1.
    10030    2    1    2    0    0  0.00000000000E+00  0.00000000000E+00 -0.39673988258E+02  0.26888751835E+04  0.26885824754E+04 0.  0.
        3    1    3    3  502    0  0.99527377999E+03 -0.76974233513E+03  0.45354926326E+03  0.13374528418E+04  0.10100000352E+00 0. -1.
       -3    1    3    3    0  502 -0.99527377999E+03  0.76974233513E+03 -0.49322325152E+03  0.13514223417E+04  0.10100000352E+00 0.  1.
</event>
<event>
 5   0  0.4448804E-06  0.2714049E+04  0.7818609E-02  0.8330461E-01
       -2   -1    0    0    0  501  0.00000000000E+00  0.00000000000E+00  0.16374377027E+04  0.16374377027E+04  0.25500000920E-02 0. -1.
        2   -1    0    0  501    0  0.00000000000E+00  0.00000000000E+00 -0.11246325446E+04  0.11246325446E+04  0.25500000920E-02 0.  1.
    10030    2    1    2    0    0  0.00000000000E+00  0.00000000000E+00  0.51280515812E+03  0.27620702473E+04  0.27140491744E+04 0.  0.
        2    1    3    3  502    0 -0.48995214418E+03 -0.86650734327E+03  0.11950159909E+04  0.15552978165E+04  0.25500000920E-02 0. -1.
       -2    1    3    3    0  502  0.48995214418E+03  0.86650734327E+03 -0.68221083276E+03  0.12067724309E+04  0.25500000920E-02 0.  1.
</event>
<event>
 5   0  0.1753474E-06  0.2742969E+04  0.7818609E-02  0.8321196E-01
        1   -1    0    0  501    0  0.00000000000E+00  0.00000000000E+00  0.14525375674E+04  0.14525375674E+04  0.50400001928E-02 0.  1.
       -1   -1    0    0    0  501  0.00000000000E+00  0.00000000000E+00 -0.12949545650E+04  0.12949545650E+04  0.50400001928E-02 0. -1.
    10030    2    1    2    0    0  0.00000000000E+00  0.00000000000E+00  0.15758300236E+03  0.27474921325E+04  0.27429693063E+04 0.  0.
        3    1    3    3  502    0  0.76430441184E+03  0.27074080585E+03 -0.10291554687E+04  0.13101995294E+04  0.10100000352E+00 0. -1.
       -3    1    3    3    0  502 -0.76430441184E+03 -0.27074080585E+03  0.11867384710E+04  0.14372926030E+04  0.10100000352E+00 0.  1.
</event>
<event>
 5   0  0.1771016E-06  0.2817761E+04  0.7818609E-02  0.8297775E-01
        1   -1    0    0  501    0  0.00000000000E+00  0.00000000000E+00  0.16960861658E+04  0.16960861658E+04  0.50400001928E-02 0. -1.
       -1   -1    0    0    0  501  0.00000000000E+00  0.00000000000E+00 -0.11703089578E+04  0.11703089578E+04  0.50400001928E-02 0.  1.
    10030    2    1    2    0    0  0.00000000000E+00  0.00000000000E+00  0.52577720801E+03  0.28663951237E+04  0.28177614045E+04 0.  0.
        2    1    3    3  502    0  0.74553565106E+03 -0.87760617350E+03  0.10886433815E+04  0.15846641331E+04  0.25500000920E-02 0. -1.
       -2    1    3    3    0  502 -0.74553565106E+03  0.87760617350E+03 -0.56286617350E+03  0.12817309905E+04  0.25500000920E-02 0.  1.
</event>
<event>
 5   0  0.1828511E-06  0.2793496E+04  0.7818609E-02  0.8305291E-01
        1   -1    0    0  501    0  0.00000000000E+00  0.00000000000E+00  0.15497085105E+04  0.15497085105E+04  0.50400001928E-02 0.  1.
       -1   -1    0    0    0  501  0.00000000000E+00  0.00000000000E+00 -0.12588848315E+04  0.12588848315E+04  0.50400001928E-02 0. -1.
    10030    2    1    2    0    0  0.00000000000E+00  0.00000000000E+00  0.29082367895E+03  0.28085933420E+04  0.27934956862E+04 0.  0.
        4    1    3    3  502    0  0.11505855867E+02 -0.10012561254E+04 -0.83363578815E+03  0.13029184371E+04  0.12699999809E+01 0. -1.
       -4    1    3    3    0  502 -0.11505855867E+02  0.10012561254E+04  0.11244594671E+04  0.15056749050E+04  0.12699999809E+01 0.  1.
</event>
<event>
 5   0  0.4487186E-06  0.2700694E+04  0.7818609E-02  0.8334780E-01
        2   -1    0    0  501    0  0.00000000000E+00  0.00000000000E+00  0.20954835276E+04  0.20954835276E+04  0.25500000920E-02 0. -1.
       -2   -1    0    0    0  501  0.00000000000E+00  0.00000000000E+00 -0.87017466377E+03  0.87017466377E+03  0.25500000920E-02 0.  1.
    10030    2    1    2    0    0  0.00000000000E+00  0.00000000000E+00  0.12253088638E+04  0.29656581914E+04  0.27006937435E+04 0.  0.
        3    1    3    3  502    0 -0.50063627199E+03  0.10946083973E+04  0.12847769549E+04  0.17605272092E+04  0.10100000352E+00 0.  1.
       -3    1    3    3    0  502  0.50063627199E+03 -0.10946083973E+04 -0.59468091044E+02  0.12051309822E+04  0.10100000352E+00 0. -1.
</event>
<event>
 5   0  0.4487186E-06  0.2694140E+04  0.7818609E-02  0.8336909E-01
       -2   -1    0    0    0  501  0.00000000000E+00  0.00000000000E+00  0.13596453864E+04  0.13596453864E+04  0.25500000920E-02 0. -1.
        2   -1    0    0  501    0  0.00000000000E+00  0.00000000000E+00 -0.13346108638E+04  0.13346108638E+04  0.25500000920E-02 0.  1.
    10030    2    1    2    0    0  0.00000000000E+00  0.00000000000E+00  0.25034522567E+02  0.26942562502E+04  0.26941399396E+04 0.  0.
        3    1    3    3  502    0 -0.94376665159E+02 -0.11816752270E+04  0.65233718949E+03  0.13530732116E+04  0.10100000352E+00 0.  1.
       -3    1    3    3    0  502  0.94376665159E+02  0.11816752270E+04 -0.62730266692E+03  0.13411830386E+04  0.10100000352E+00 0. -1.
</event>
<event>
 5   0  0.1771016E-06  0.2697913E+04  0.7818609E-02  0.8335683E-01
        1   -1    0    0  501    0  0.00000000000E+00  0.00000000000E+00  0.16719390061E+04  0.16719390061E+04  0.50400001928E-02 0.  1.
       -1   -1    0    0    0  501  0.00000000000E+00  0.00000000000E+00 -0.10883669848E+04  0.10883669848E+04  0.50400001928E-02 0. -1.
    10030    2    1    2    0    0  0.00000000000E+00  0.00000000000E+00  0.58357202125E+03  0.27603059909E+04  0.26979126857E+04 0.  0.
        2    1    3    3  502    0 -0.35631606655E+03  0.10303311304E+04 -0.52102978461E+03  0.12083109757E+04  0.25500000920E-02 0. -1.
       -2    1    3    3    0  502  0.35631606655E+03 -0.10303311304E+04  0.11046018059E+04  0.15519950152E+04  0.25500000920E-02 0.  1.
</event>
<event>
 5   0  0.1732312E-06  0.2713312E+04  0.7818609E-02  0.8330699E-01
       -1   -1    0    0    0  501  0.00000000000E+00  0.00000000000E+00  0.60739289475E+03  0.60739289478E+03  0.50400001928E-02 0. -1.
        1   -1    0    0  501    0  0.00000000000E+00  0.00000000000E+00 -0.30301884825E+04  0.30301884825E+04  0.50400001928E-02 0.  1.
    10030    2    1    2    0    0  0.00000000000E+00  0.00000000000E+00 -0.24227955877E+04  0.36375813772E+04  0.27133115959E+04 0.  0.
        5    1    3    3  502    0 -0.52331060718E+03 -0.52156361367E+03  0.31399809225E+03  0.80280725372E+03  0.46999998093E+01 0. -1.
       -5    1    3    3    0  502  0.52331060718E+03  0.52156361367E+03 -0.27367936800E+04  0.28347741235E+04  0.46999998093E+01 0.  1.
</event>
<event>
 5   0  0.4401659E-06  0.2687091E+04  0.7818609E-02  0.8339206E-01
        2   -1    0    0  501    0  0.00000000000E+00  0.00000000000E+00  0.14492062914E+04  0.14492062914E+04  0.25500000920E-02 0. -1.
       -2   -1    0    0    0  501  0.00000000000E+00  0.00000000000E+00 -0.12455887483E+04  0.12455887483E+04  0.25500000920E-02 0.  1.
    10030    2    1    2    0    0  0.00000000000E+00  0.00000000000E+00  0.20361754310E+03  0.26947950398E+04  0.26870914020E+04 0.  0.
        5    1    3    3  502    0 -0.89020797575E+03 -0.99130268445E+03 -0.71724033884E+02  0.13342854565E+04  0.46999998093E+01 0.  1.
       -5    1    3    3    0  502  0.89020797575E+03  0.99130268445E+03  0.27534157699E+03  0.13605095833E+04  0.46999998093E+01 0. -1.
</event>
<event>
 5   0  0.4655882E-06  0.2705370E+04  0.7818609E-02  0.8333265E-01
       -2   -1    0    0    0  501  0.00000000000E+00  0.00000000000E+00  0.64487245356E+03  0.64487245357E+03  0.25500000920E-02 0.  1.
        2   -1    0    0  501    0  0.00000000000E+00  0.00000000000E+00 -0.28373935948E+04  0.28373935948E+04  0.25500000920E-02 0. -1.
    10030    2    1    2    0    0  0.00000000000E+00  0.00000000000E+00 -0.21925211412E+04  0.34822660484E+04  0.27053701922E+04 0.  0.
        1    1    3    3  502    0  0.11677484980E+04  0.64984754447E+02 -0.19710590208E+04  0.22919278428E+04  0.50400001928E-02 0. -1.
       -1    1    3    3    0  502 -0.11677484980E+04 -0.64984754447E+02 -0.22146212039E+03  0.11903382056E+04  0.50400001928E-02 0.  1.
</event>
<event>
 5   0  0.1482875E-06  0.2697311E+04  0.7818609E-02  0.8335878E-01
        3   -1    0    0  501    0  0.00000000000E+00  0.00000000000E+00  0.23622057607E+04  0.23622057628E+04  0.10100000352E+00 0.  1.
       -3   -1    0    0    0  501  0.00000000000E+00  0.00000000000E+00 -0.76998889335E+03  0.76998889997E+03  0.10100000352E+00 0. -1.
    10030    2    1    2    0    0  0.00000000000E+00  0.00000000000E+00  0.15922168673E+04  0.31321946628E+04  0.26973114120E+04 0.  0.
        5    1    3    3  502    0  0.87163179612E+03  0.10068892656E+04  0.10432132082E+04  0.16917103384E+04  0.46999998093E+01 0. -1.
       -5    1    3    3    0  502 -0.87163179612E+03 -0.10068892656E+04  0.54900365915E+03  0.14404843244E+04  0.46999998093E+01 0.  1.
</event>
<event>
 5   0  0.1828511E-06  0.2701494E+04  0.7818609E-02  0.8334520E-01
       -1   -1    0    0    0  501  0.00000000000E+00  0.00000000000E+00  0.13390779547E+04  0.13390779547E+04  0.50400001928E-02 0.  1.
        1   -1    0    0  501    0  0.00000000000E+00  0.00000000000E+00 -0.13625174632E+04  0.13625174632E+04  0.50400001928E-02 0. -1.
    10030    2    1    2    0    0  0.00000000000E+00  0.00000000000E+00 -0.23439508448E+02  0.27015954179E+04  0.27014937334E+04 0.  0.
        4    1    3    3  502    0 -0.70081184482E+03  0.32773883206E+03  0.10955551862E+04  0.13411908003E+04  0.12699999809E+01 0.  1.
       -4    1    3    3    0  502  0.70081184482E+03 -0.32773883206E+03 -0.11189946947E+04  0.13604046176E+04  0.12699999809E+01 0. -1.
</event>
<event>
 5   0  0.4439357E-06  0.2703632E+04  0.7818609E-02  0.8333828E-01
        2   -1    0    0  501    0  0.00000000000E+00  0.00000000000E+00  0.15349768171E+04  0.15349768171E+04  0.25500000920E-02 0.  1.
       -2   -1    0    0    0  501  0.00000000000E+00  0.00000000000E+00 -0.11905103838E+04  0.11905103838E+04  0.25500000920E-02 0. -1.
    10030    2    1    2    0    0  0.00000000000E+00  0.00000000000E+00  0.34446643331E+03  0.27254872010E+04  0.27036315132E+04 0.  0.
        4    1    3    3  502    0  0.81343018107E+03 -0.76645192249E+03 -0.59436599521E+03  0.12658553464E+04  0.12699999809E+01 0. -1.
       -4    1    3    3    0  502 -0.81343018107E+03  0.76645192249E+03  0.93883242852E+03  0.14596318545E+04  0.12699999809E+01 0.  1.
</event>
<event>
 5   0  0.4487186E-06  0.2703392E+04  0.7818609E-02  0.8333905E-01
        2   -1    0    0  501    0  0.00000000000E+00  0.00000000000E+00  0.20099609658E+04  0.20099609658E+04  0.25500000920E-02 0.  1.
       -2   -1    0    0    0  501  0.00000000000E+00  0.00000000000E+00 -0.90901403775E+03  0.90901403775E+03  0.25500000920E-02 0. -1.
    10030    2    1    2    0    0  0.00000000000E+00  0.00000000000E+00  0.11009469281E+04  0.29189750036E+04  0.27033924860E+04 0.  0.
        3    1    3    3  502    0  0.11270238255E+03  0.84593390859E+03 -0.58134297610E+03  0.10326014094E+04  0.10100000352E+00 0. -1.
       -3    1    3    3    0  502 -0.11270238255E+03 -0.84593390859E+03  0.16822899042E+04  0.18863735941E+04  0.10100000352E+00 0.  1.
</event>
<event>
 5   0  0.4401659E-06  0.2696816E+04  0.7818609E-02  0.8336039E-01
        2   -1    0    0  501    0  0.00000000000E+00  0.00000000000E+00  0.20183427331E+04  0.20183427331E+04  0.25500000920E-02 0.  1.
       -2   -1    0    0    0  501  0.00000000000E+00  0.00000000000E+00 -0.90084045827E+03  0.90084045827E+03  0.25500000920E-02 0. -1.
    10030    2    1    2    0    0  0.00000000000E+00  0.00000000000E+00  0.11175022748E+04  0.29191831913E+04  0.26968164881E+04 0.  0.
        5    1    3    3  502    0  0.36155097124E+03 -0.10664720305E+04  0.13615951531E+04  0.17669309968E+04  0.46999998093E+01 0.  1.
       -5    1    3    3    0  502 -0.36155097124E+03  0.10664720305E+04 -0.24409287827E+03  0.11522521945E+04  0.46999998093E+01 0. -1.
</event>
<event>
 5   0  0.4401659E-06  0.2789824E+04  0.7818609E-02  0.8306434E-01
       -2   -1    0    0    0  501  0.00000000000E+00  0.00000000000E+00  0.16009144705E+04  0.16009144705E+04  0.25500000920E-02 0.  1.
        2   -1    0    0  501    0  0.00000000000E+00  0.00000000000E+00 -0.12154178627E+04  0.12154178627E+04  0.25500000920E-02 0. -1.
    10030    2    1    2    0    0  0.00000000000E+00  0.00000000000E+00  0.38549660777E+03  0.28163323332E+04  0.27898243988E+04 0.  0.
        5    1    3    3  502    0  0.37486474513E+03 -0.12087840667E+04 -0.39940462355E+03  0.13271128967E+04  0.46999998093E+01 0. -1.
       -5    1    3    3    0  502 -0.37486474513E+03  0.12087840667E+04  0.78490123132E+03  0.14892194365E+04  0.46999998093E+01 0.  1.
</event>
<event>
 5   0  0.4401659E-06  0.2688105E+04  0.7818609E-02  0.8338875E-01
        2   -1    0    0  501    0  0.00000000000E+00  0.00000000000E+00  0.12372083644E+04  0.12372083644E+04  0.25500000920E-02 0.  1.
       -2   -1    0    0    0  501  0.00000000000E+00  0.00000000000E+00 -0.14601241288E+04  0.14601241288E+04  0.25500000920E-02 0. -1.
    10030    2    1    2    0    0  0.00000000000E+00  0.00000000000E+00 -0.22291576440E+03  0.26973324932E+04  0.26881054929E+04 0.  0.
        5    1    3    3  502    0 -0.61662847746E+03 -0.54457528502E+03 -0.11779621183E+04  0.14368054017E+04  0.46999998093E+01 0. -1.
       -5    1    3    3    0  502  0.61662847746E+03  0.54457528502E+03  0.95504635392E+03  0.12605270915E+04  0.46999998093E+01 0.  1.
</event>
<event>
 5   0  0.1732312E-06  0.2703177E+04  0.7818609E-02  0.8333975E-01
        1   -1    0    0  501    0  0.00000000000E+00  0.00000000000E+00  0.13023499449E+04  0.13023499450E+04  0.50400001928E-02 0. -1.
       -1   -1    0    0    0  501  0.00000000000E+00  0.00000000000E+00 -0.14026882175E+04  0.14026882175E+04  0.50400001928E-02 0.  1.
    10030    2    1    2    0    0  0.00000000000E+00  0.00000000000E+00 -0.10033827259E+03  0.27050381625E+04  0.27031765928E+04 0.  0.
        5    1    3    3  502    0 -0.12447496991E+04 -0.32988191751E+03  0.36065583902E+03  0.13372803061E+04  0.46999998093E+01 0. -1.
       -5    1    3    3    0  502  0.12447496991E+04  0.32988191751E+03 -0.46099411161E+03  0.13677578564E+04  0.46999998093E+01 0.  1.
</event>
<event>
 5   0  0.4655882E-06  0.2709449E+04  0.7818609E-02  0.8331945E-01
        2   -1    0    0  501    0  0.00000000000E+00  0.00000000000E+00  0.19386788810E+04  0.19386788810E+04  0.25500000920E-02 0.  1.
       -2   -1    0    0    0  501  0.00000000000E+00  0.00000000000E+00 -0.94666480268E+03  0.94666480268E+03  0.25500000920E-02 0. -1.
    10030    2    1    2    0    0  0.00000000000E+00  0.00000000000E+00  0.99201407830E+03  0.28853436837E+04  0.27094494351E+04 0.  0.
        1    1    3    3  502    0 -0.12897996192E+04  0.34399985548E+03  0.74200121550E+03  0.15272474463E+04  0.50400001928E-02 0.  1.
       -1    1    3    3    0  502  0.12897996192E+04 -0.34399985548E+03  0.25001286280E+03  0.13580962374E+04  0.50400001928E-02 0. -1.
</event>
<event>
 5   0  0.1771016E-06  0.2701486E+04  0.7818609E-02  0.8334523E-01
       -1   -1    0    0    0  501  0.00000000000E+00  0.00000000000E+00  0.11447259817E+04  0.11447259818E+04  0.50400001928E-02 0.  1.
        1   -1    0    0  501    0  0.00000000000E+00  0.00000000000E+00 -0.15938374453E+04  0.15938374453E+04  0.50400001928E-02 0. -1.
    10030    2    1    2    0    0  0.00000000000E+00  0.00000000000E+00 -0.44911146357E+03  0.27385634271E+04  0.27014863571E+04 0.  0.
        2    1    3    3  502    0  0.31827769602E+03  0.77554638809E+03  0.84909991874E+03  0.11932072594E+04  0.25500000920E-02 0.  1.
       -2    1    3    3    0  502 -0.31827769602E+03 -0.77554638809E+03 -0.12982113823E+04  0.15453561677E+04  0.25500000920E-02 0. -1.
</event>
<event>
 5   0  0.1828511E-06  0.2678066E+04  0.7818609E-02  0.8342157E-01
        1   -1    0    0  501    0  0.00000000000E+00  0.00000000000E+00  0.14823502595E+04  0.14823502595E+04  0.50400001928E-02 0.  1.
       -1   -1    0    0    0  501  0.00000000000E+00  0.00000000000E+00 -0.12095715761E+04  0.12095715761E+04  0.50400001928E-02 0. -1.
    10030    2    1    2    0    0  0.00000000000E+00  0.00000000000E+00  0.27277868339E+03  0.26919218356E+04  0.26780655255E+04 0.  0.
        4    1    3    3  502    0  0.12495236853E+03 -0.34844287382E+03 -0.11571183017E+04  0.12148867881E+04  0.12699999809E+01 0. -1.
       -4    1    3    3    0  502 -0.12495236853E+03  0.34844287382E+03  0.14298969851E+04  0.14770350476E+04  0.12699999809E+01 0.  1.
</event>
<event>
 5   0  0.1753474E-06  0.2715966E+04  0.7818609E-02  0.8329843E-01
       -1   -1    0    0    0  501  0.00000000000E+00  0.00000000000E+00  0.20146520834E+04  0.20146520834E+04  0.50400001928E-02 0.  1.
        1   -1    0    0  501    0  0.00000000000E+00  0.00000000000E+00 -0.91535282601E+03  0.91535282603E+03  0.50400001928E-02 0. -1.
    10030    2    1    2    0    0  0.00000000000E+00  0.00000000000E+00  0.10992992574E+04  0.29300049095E+04  0.27159657421E+04 0.  0.
        3    1    3    3  502    0  0.16648929121E+03  0.70832372648E+03  0.17866034153E+04  0.19290912263E+04  0.10100000352E+00 0.  1.
       -3    1    3    3    0  502 -0.16648929121E+03 -0.70832372648E+03 -0.68730415786E+03  0.10009136832E+04  0.10100000352E+00 0. -1.
</event>
<event>
 5   0  0.4655882E-06  0.2684481E+04  0.7818609E-02  0.8340058E-01
        2   -1    0    0  501    0  0.00000000000E+00  0.00000000000E+00  0.20974458762E+04  0.20974458762E+04  0.25500000920E-02 0. -1.
       -2   -1    0    0    0  501  0.00000000000E+00  0.00000000000E+00 -0.85895401918E+03  0.85895401918E+03  0.25500000920E-02 0.  1.
    10030    2    1    2    0    0  0.00000000000E+00  0.00000000000E+00  0.12384918570E+04  0.29563998954E+04  0.26844810041E+04 0.  0.
        1    1    3    3  502    0  0.74288694153E+03  0.32301102322E+03 -0.55939087634E+03  0.98444668803E+03  0.50400001928E-02 0.  1.
       -1    1    3    3    0  502 -0.74288694153E+03 -0.32301102322E+03  0.17978827334E+04  0.19719532074E+04  0.50400001928E-02 0. -1.
</event>
<event>
 5   0  0.1828511E-06  0.2699472E+04  0.7818609E-02  0.8335176E-01
       -1   -1    0    0    0  501  0.00000000000E+00  0.00000000000E+00  0.14656025907E+04  0.14656025907E+04  0.50400001928E-02 0. -1.
        1   -1    0    0  501    0  0.00000000000E+00  0.00000000000E+00 -0.12430291854E+04  0.12430291854E+04  0.50400001928E-02 0.  1.
    10030    2    1    2    0    0  0.00000000000E+00  0.00000000000E+00  0.22257340533E+03  0.27086317761E+04  0.26994716479E+04 0.  0.
        4    1    3    3  502    0 -0.11718952140E+04  0.56437727506E+03  0.47296104088E+03  0.13840353537E+04  0.12699999809E+01 0. -1.
       -4    1    3    3    0  502  0.11718952140E+04 -0.56437727506E+03 -0.25038763555E+03  0.13245964224E+04  0.12699999809E+01 0.  1.
</event>
<event>
 5   0  0.1828511E-06  0.2695330E+04  0.7818609E-02  0.8336522E-01
        1   -1    0    0  501    0  0.00000000000E+00  0.00000000000E+00  0.22117549608E+04  0.22117549608E+04  0.50400001928E-02 0.  1.
       -1   -1    0    0    0  501  0.00000000000E+00  0.00000000000E+00 -0.82115812967E+03  0.82115812968E+03  0.50400001928E-02 0. -1.
    10030    2    1    2    0    0  0.00000000000E+00  0.00000000000E+00  0.13905968311E+04  0.30329130905E+04  0.26953297141E+04 0.  0.
        4    1    3    3  502    0  0.32176713994E+03 -0.12690694142E+03  0.21609563143E+04  0.21884636779E+04  0.12699999809E+01 0.  1.
       -4    1    3    3    0  502 -0.32176713994E+03  0.12690694142E+03 -0.77035948321E+03  0.84444941258E+03  0.12699999809E+01 0. -1.
</event>
<event>
 5   0  0.1732312E-06  0.2691867E+04  0.7818609E-02  0.8337649E-01
        1   -1    0    0  501    0  0.00000000000E+00  0.00000000000E+00  0.11280224199E+04  0.11280224200E+04  0.50400001928E-02 0. -1.
       -1   -1    0    0    0  501  0.00000000000E+00  0.00000000000E+00 -0.16059402616E+04  0.16059402616E+04  0.50400001928E-02 0.  1.
    10030    2    1    2    0    0  0.00000000000E+00  0.00000000000E+00 -0.47791784163E+03  0.27339626815E+04  0.26918667279E+04 0.  0.
        5    1    3    3  502    0 -0.41086169817E+03  0.12637166653E+04 -0.45614261206E+03  0.14049467313E+04  0.46999998093E+01 0.  1.
       -5    1    3    3    0  502  0.41086169817E+03 -0.12637166653E+04 -0.21775229570E+02  0.13290159502E+04  0.46999998093E+01 0. -1.
</event>
<event>
 5   0  0.4448804E-06  0.2684926E+04  0.7818609E-02  0.8339913E-01
        2   -1    0    0  501    0  0.00000000000E+00  0.00000000000E+00  0.17863631461E+04  0.17863631461E+04  0.25500000920E-02 0.  1.
       -2   -1    0    0    0  501  0.00000000000E+00  0.00000000000E+00 -0.10088691073E+04  0.10088691073E+04  0.25500000920E-02 0. -1.
    10030    2    1    2    0    0  0.00000000000E+00  0.00000000000E+00  0.77749403883E+03  0.27952322534E+04  0.26849257662E+04 0.  0.
        2    1    3    3  502    0 -0.13352553535E+04  0.10976021105E+03  0.30008709101E+03  0.13729553617E+04  0.25500000920E-02 0. -1.
       -2    1    3    3    0  502  0.13352553535E+04 -0.10976021105E+03  0.47740694782E+03  0.14222768918E+04  0.25500000920E-02 0.  1.
</event>
<event>
 5   0  0.4439357E-06  0.2713132E+04  0.7818609E-02  0.8330757E-01
        2   -1    0    0  501    0  0.00000000000E+00  0.00000000000E+00  0.15706202731E+04  0.15706202731E+04  0.25500000920E-02 0.  1.
       -2   -1    0    0    0  501  0.00000000000E+00  0.00000000000E+00 -0.11716844341E+04  0.11716844341E+04  0.25500000920E-02 0. -1.
    10030    2    1    2    0    0  0.00000000000E+00  0.00000000000E+00  0.39893583902E+03  0.27423047072E+04  0.27131320099E+04 0.  0.
        4    1    3    3  502    0 -0.89584057973E+03  0.88627263528E+03 -0.30818763041E+03  0.12973013361E+04  0.12699999809E+01 0. -1.
       -4    1    3    3    0  502  0.89584057973E+03 -0.88627263528E+03  0.70712346942E+03  0.14450033710E+04  0.12699999809E+01 0.  1.
</event>
<event>
 5   0  0.4401659E-06  0.2711505E+04  0.7818609E-02  0.8331282E-01
       -2   -1    0    0    0  501  0.00000000000E+00  0.00000000000E+00  0.69971230719E+03  0.69971230720E+03  0.25500000920E-02 0. -1.
        2   -1    0    0  501    0  0.00000000000E+00  0.00000000000E+00 -0.26268858614E+04  0.26268858614E+04  0.25500000920E-02 0.  1.
    10030    2    1    2    0    0  0.00000000000E+00  0.00000000000E+00 -0.19271735542E+04  0.33265981686E+04  0.27115046501E+04 0.  0.
        5    1    3    3  502    0  0.10520142420E+04  0.79416688656E+03 -0.13527256959E+04  0.18887360608E+04  0.46999998093E+01 0. -1.
       -5    1    3    3    0  502 -0.10520142420E+04 -0.79416688656E+03 -0.57444785832E+03  0.14378621078E+04  0.46999998093E+01 0.  1.
</event>
<event>
 5   0  0.4487186E-06  0.2698650E+04  0.7818609E-02  0.8335443E-01
       -2   -1    0    0    0  501  0.00000000000E+00  0.00000000000E+00  0.11525867594E+04  0.11525867594E+04  0.25500000920E-02 0.  1.
        2   -1    0    0  501    0  0.00000000000E+00  0.00000000000E+00 -0.15796449233E+04  0.15796449233E+04  0.25500000920E-02 0. -1.
    10030    2    1    2    0    0  0.00000000000E+00  0.00000000000E+00 -0.42705816387E+03  0.27322316827E+04  0.26986499018E+04 0.  0.
        3    1    3    3  502    0 -0.34641313334E+02  0.52159127201E+03 -0.14729622496E+04  0.15629700172E+04  0.10100000352E+00 0. -1.
       -3    1    3    3    0  502  0.34641313334E+02 -0.52159127201E+03  0.10459040857E+04  0.11692616655E+04  0.10100000352E+00 0.  1.
</event>
<event>
 5   0  0.4401659E-06  0.2696203E+04  0.7818609E-02  0.8336238E-01
       -2   -1    0    0    0  501  0.00000000000E+00  0.00000000000E+00  0.10733898073E+04  0.10733898074E+04  0.25500000920E-02 0.  1.
        2   -1    0    0  501    0  0.00000000000E+00  0.00000000000E+00 -0.16931197522E+04  0.16931197522E+04  0.25500000920E-02 0. -1.
    10030    2    1    2    0    0  0.00000000000E+00  0.00000000000E+00 -0.61972994485E+03  0.27665095596E+04  0.26962028741E+04 0.  0.
        5    1    3    3  502    0 -0.11132147817E+04 -0.22703433784E+03  0.43470419334E+03  0.12164627272E+04  0.46999998093E+01 0.  1.
       -5    1    3    3    0  502  0.11132147817E+04  0.22703433784E+03 -0.10544341382E+04  0.15500468324E+04  0.46999998093E+01 0. -1.
</event>
<event>
 5   0  0.4448804E-06  0.2697812E+04  0.7818609E-02  0.8335715E-01
        2   -1    0    0  501    0  0.00000000000E+00  0.00000000000E+00  0.17476896257E+04  0.17476896257E+04  0.25500000920E-02 0. -1.
       -2   -1    0    0    0  501  0.00000000000E+00  0.00000000000E+00 -0.10411162227E+04  0.10411162227E+04  0.25500000920E-02 0.  1.
    10030    2    1    2    0    0  0.00000000000E+00  0.00000000000E+00  0.70657340296E+03  0.27888058484E+04  0.26978124631E+04 0.  0.
        2    1    3    3  502    0  0.26173624192E+03  0.50733044975E+03  0.16166611962E+04  0.17144921898E+04  0.25500000920E-02 0. -1.
       -2    1    3    3    0  502 -0.26173624192E+03 -0.50733044975E+03 -0.91008779324E+03  0.10743136586E+04  0.25500000920E-02 0.  1.
</event>
<event>
 5   0  0.1723605E-06  0.2698603E+04  0.7818609E-02  0.8335458E-01
        1   -1    0    0  501    0  0.00000000000E+00  0.00000000000E+00  0.13052388499E+04  0.13052388499E+04  0.50400001928E-02 0. -1.
       -1   -1    0    0    0  501  0.00000000000E+00  0.00000000000E+00 -0.13948516284E+04  0.13948516284E+04  0.50400001928E-02 0.  1.
    10030    2    1    2    0    0  0.00000000000E+00  0.00000000000E+00 -0.89612778417E+02  0.27000904783E+04  0.26986029980E+04 0.  0.
        1    1    3    3  502    0  0.21142705440E+03  0.64583532874E+03 -0.12111289172E+04  0.13887540910E+04  0.50400001928E-02 0.  1.
       -1    1    3    3    0  502 -0.21142705440E+03 -0.64583532874E+03  0.11215161388E+04  0.13113363873E+04  0.50400001928E-02 0. -1.
</event>
<event>
 5   0  0.1828511E-06  0.2734767E+04  0.7818609E-02  0.8323812E-01
       -1   -1    0    0    0  501  0.00000000000E+00  0.00000000000E+00  0.11808841339E+04  0.11808841339E+04  0.50400001928E-02 0. -1.
        1   -1    0    0  501    0  0.00000000000E+00  0.00000000000E+00 -0.15833368126E+04  0.15833368126E+04  0.50400001928E-02 0.  1.
    10030    2    1    2    0    0  0.00000000000E+00  0.00000000000E+00 -0.40245267870E+03  0.27642209466E+04  0.27347667694E+04 0.  0.
        4    1    3    3  502    0  0.26867792677E+03 -0.85827164422E+03  0.83987570620E+03  0.12305327539E+04  0.12699999809E+01 0. -1.
       -4    1    3    3    0  502 -0.26867792677E+03  0.85827164422E+03 -0.12423283849E+04  0.15336881927E+04  0.12699999809E+01 0.  1.
</event>
<event>
 5   0  0.4439357E-06  0.2695705E+04  0.7818609E-02  0.8336400E-01
       -2   -1    0    0    0  501  0.00000000000E+00  0.00000000000E+00  0.19292166246E+04  0.19292166246E+04  0.25500000920E-02 0. -1.
        2   -1    0    0  501    0  0.00000000000E+00  0.00000000000E+00 -0.94168093953E+03  0.94168093954E+03  0.25500000920E-02 0.  1.
    10030    2    1    2    0    0  0.00000000000E+00  0.00000000000E+00  0.98753568503E+03  0.28708975641E+04  0.26957051201E+04 0.  0.
        4    1    3    3  502    0  0.35522190278E+03 -0.32561098152E+03 -0.84680805708E+03  0.97431545709E+03  0.12699999809E+01 0.  1.
       -4    1    3    3    0  502 -0.35522190278E+03  0.32561098152E+03  0.18343437421E+04  0.18965821070E+04  0.12699999809E+01 0. -1.
</event>
<event>
 5   0  0.4439357E-06  0.2690178E+04  0.7818609E-02  0.8338199E-01
       -2   -1    0    0    0  501  0.00000000000E+00  0.00000000000E+00  0.92586567929E+03  0.92586567929E+03  0.25500000920E-02 0.  1.
        2   -1    0    0  501    0  0.00000000000E+00  0.00000000000E+00 -0.19541326427E+04  0.19541326427E+04  0.25500000920E-02 0. -1.
    10030    2    1    2    0    0  0.00000000000E+00  0.00000000000E+00 -0.10282669634E+04  0.28799983220E+04  0.26901779470E+04 0.  0.
        4    1    3    3  502    0 -0.71049894338E+03 -0.10367467462E+04 -0.11459778541E+01  0.12568434630E+04  0.12699999809E+01 0.  1.
       -4    1    3    3    0  502  0.71049894338E+03  0.10367467462E+04 -0.10271209856E+04  0.16231548590E+04  0.12699999809E+01 0. -1.
</event>
<event>
 5   0  0.1771016E-06  0.2690863E+04  0.7818609E-02  0.8337976E-01
       -1   -1    0    0    0  501  0.00000000000E+00  0.00000000000E+00  0.98513630061E+03  0.98513630062E+03  0.50400001928E-02 0. -1.
        1   -1    0    0  501    0  0.00000000000E+00  0.00000000000E+00 -0.18374978018E+04  0.18374978018E+04  0.50400001928E-02 0.  1.
    10030    2    1    2    0    0  0.00000000000E+00  0.00000000000E+00 -0.85236150119E+03  0.28226341024E+04  0.26908629002E+04 0.  0.
        2    1    3    3  502    0  0.47708833847E+03 -0.30568342656E+03  0.85387634473E+03  0.10247733662E+04  0.25500000920E-02 0. -1.
       -2    1    3    3    0  502 -0.47708833847E+03  0.30568342656E+03 -0.17062378459E+04  0.17978607362E+04  0.25500000920E-02 0.  1.
</event>
<event>
 5   0  0.1771016E-06  0.2701466E+04  0.7818609E-02  0.8334529E-01
        1   -1    0    0  501    0  0.00000000000E+00  0.00000000000E+00  0.13034431081E+04  0.13034431082E+04  0.50400001928E-02 0. -1.
       -1   -1    0    0    0  501  0.00000000000E+00  0.00000000000E+00 -0.13997389059E+04  0.13997389059E+04  0.50400001928E-02 0.  1.
    10030    2    1    2    0    0  0.00000000000E+00  0.00000000000E+00 -0.96295797712E+02  0.27031820140E+04  0.27014662908E+04 0.  0.
        2    1    3    3  502    0  0.96076200613E+03  0.84832199134E+03  0.37846334380E+03  0.13363937803E+04  0.25500000920E-02 0. -1.
       -2    1    3    3    0  502 -0.96076200613E+03 -0.84832199134E+03 -0.47475914151E+03  0.13667882337E+04  0.25500000920E-02 0.  1.
</event>
<event>
 5   0  0.4448804E-06  0.2712691E+04  0.7818609E-02  0.8330899E-01
       -2   -1    0    0    0  501  0.00000000000E+00  0.00000000000E+00  0.13130832190E+04  0.13130832190E+04  0.25500000920E-02 0.  1.
        2   -1    0    0  501    0  0.00000000000E+00  0.00000000000E+00 -0.14010327537E+04  0.14010327537E+04  0.25500000920E-02 0. -1.
    10030    2    1    2    0    0  0.00000000000E+00  0.00000000000E+00 -0.87949534675E+02  0.27141159727E+04  0.27126906187E+04 0.  0.
        2    1    3    3  502    0 -0.65529786454E+03 -0.57386685758E+03 -0.10842008800E+04  0.13907659795E+04  0.25500000920E-02 0. -1.
       -2    1    3    3    0  502  0.65529786454E+03  0.57386685758E+03  0.99625134534E+03  0.13233499932E+04  0.25500000920E-02 0.  1.
</event>
<event>
 5   0  0.4487186E-06  0.2721327E+04  0.7818609E-02  0.8328118E-01
        2   -1    0    0  501    0  0.00000000000E+00  0.00000000000E+00  0.14900307644E+04  0.14900307644E+04  0.25500000920E-02 0. -1.
       -2   -1    0    0    0  501  0.00000000000E+00  0.00000000000E+00 -0.12425283515E+04  0.12425283515E+04  0.25500000920E-02 0.  1.
    10030    2    1    2    0    0  0.00000000000E+00  0.00000000000E+00  0.24750241294E+03  0.27325591159E+04  0.27213272272E+04 0.  0.
        3    1    3    3  502    0 -0.57611845079E+03 -0.56159992419E+03  0.12255944419E+04  0.14660793602E+04  0.10100000352E+00 0. -1.
       -3    1    3    3    0  502  0.57611845079E+03  0.56159992419E+03 -0.97809202901E+03  0.12664797557E+04  0.10100000352E+00 0.  1.
</event>
<event>
 5   0  0.4448804E-06  0.2689305E+04  0.7818609E-02  0.8338483E-01
       -2   -1    0    0    0  501  0.00000000000E+00  0.00000000000E+00  0.84465141722E+03  0.84465141722E+03  0.25500000920E-02 0.  1.
        2   -1    0    0  501    0  0.00000000000E+00  0.00000000000E+00 -0.21406349548E+04  0.21406349548E+04  0.25500000920E-02 0. -1.
    10030    2    1    2    0    0  0.00000000000E+00  0.00000000000E+00 -0.12959835376E+04  0.29852863720E+04  0.26893050019E+04 0.  0.
        2    1    3    3  502    0 -0.52760070234E+03  0.75080963815E+02  0.72242083661E+03  0.89771460799E+03  0.25500000920E-02 0.  1.
       -2    1    3    3    0  502  0.52760070234E+03 -0.75080963815E+02 -0.20184043742E+04  0.20875717640E+04  0.25500000920E-02 0. -1.
</event>
<event>
 5   0  0.4655882E-06  0.2689273E+04  0.7818609E-02  0.8338494E-01
       -2   -1    0    0    0  501  0.00000000000E+00  0.00000000000E+00  0.16076666062E+04  0.16076666062E+04  0.25500000920E-02 0. -1.
        2   -1    0    0  501    0  0.00000000000E+00  0.00000000000E+00 -0.11246409955E+04  0.11246409955E+04  0.25500000920E-02 0.  1.
    10030    2    1    2    0    0  0.00000000000E+00  0.00000000000E+00  0.48302561067E+03  0.27323076018E+04  0.26892733387E+04 0.  0.
        1    1    3    3  502    0 -0.26321117170E+03 -0.38905153998E+03  0.15215975685E+04  0.15924510611E+04  0.50400001928E-02 0. -1.
       -1    1    3    3    0  502  0.26321117170E+03  0.38905153998E+03 -0.10385719578E+04  0.11398565406E+04  0.50400001928E-02 0.  1.
</event>
<event>
 5   0  0.1732312E-06  0.2667932E+04  0.7818609E-02  0.8345486E-01
       -1   -1    0    0    0  501  0.00000000000E+00  0.00000000000E+00  0.11213918217E+04  0.11213918217E+04  0.50400001928E-02 0.  1.
        1   -1    0    0  501    0  0.00000000000E+00  0.00000000000E+00 -0.15868358177E+04  0.15868358177E+04  0.50400001928E-02 0. -1.
    10030    2    1    2    0    0  0.00000000000E+00  0.00000000000E+00 -0.46544399593E+03  0.27082276394E+04  0.26679315646E+04 0.  0.
        5    1    3    3  502    0  0.93924429358E+03 -0.16045171173E+03 -0.11803735262E+04  0.15169800085E+04  0.46999998093E+01 0. -1.
       -5    1    3    3    0  502 -0.93924429358E+03  0.16045171173E+03  0.71492953031E+03  0.11912476309E+04  0.46999998093E+01 0.  1.
</event>
<event>
 5   0  0.4401659E-06  0.2698790E+04  0.7818609E-02  0.8335398E-01
        2   -1    0    0  501    0  0.00000000000E+00  0.00000000000E+00  0.25936500177E+04  0.25936500177E+04  0.25500000920E-02 0.  1.
       -2   -1    0    0    0  501  0.00000000000E+00  0.00000000000E+00 -0.70204815235E+03  0.70204815235E+03  0.25500000920E-02 0. -1.
    10030    2    1    2    0    0  0.00000000000E+00  0.00000000000E+00  0.18916018653E+04  0.32956981700E+04  0.26987902495E+04 0.  0.
        5    1    3    3  502    0 -0.85025572978E+02 -0.40415240046E+02 -0.69802293789E+03  0.70435846804E+03  0.46999998093E+01 0. -1.
       -5    1    3    3    0  502  0.85025572978E+02  0.40415240046E+02  0.25896248032E+04  0.25913397020E+04  0.46999998093E+01 0.  1.
</event>
<event>
 5   0  0.4439357E-06  0.2698768E+04  0.7818609E-02  0.8335405E-01
       -2   -1    0    0    0  501  0.00000000000E+00  0.00000000000E+00  0.13420049187E+04  0.13420049187E+04  0.25500000920E-02 0. -1.
        2   -1    0    0  501    0  0.00000000000E+00  0.00000000000E+00 -0.13568034792E+04  0.13568034792E+04  0.25500000920E-02 0.  1.
    10030    2    1    2    0    0  0.00000000000E+00  0.00000000000E+00 -0.14798560435E+02  0.26988083979E+04  0.26987678246E+04 0.  0.
        4    1    3    3  502    0  0.47067837781E+03  0.83633348009E+03  0.94121579520E+03  0.13442025931E+04  0.12699999809E+01 0. -1.
       -4    1    3    3    0  502 -0.47067837781E+03 -0.83633348009E+03 -0.95601435563E+03  0.13546058048E+04  0.12699999809E+01 0.  1.
</event>
<event>
 5   0  0.4448804E-06  0.2694135E+04  0.7818609E-02  0.8336911E-01
       -2   -1    0    0    0  501  0.00000000000E+00  0.00000000000E+00  0.11259838494E+04  0.11259838494E+04  0.25500000920E-02 0. -1.
        2   -1    0    0  501    0  0.00000000000E+00  0.00000000000E+00 -0.16115597217E+04  0.16115597217E+04  0.25500000920E-02 0.  1.
    10030    2    1    2    0    0  0.00000000000E+00  0.00000000000E+00 -0.48557587228E+03  0.27375435711E+04  0.26941345319E+04 0.  0.
        2    1    3    3  502    0  0.11176620344E+04 -0.38063845833E+03  0.41614836555E+03  0.12518919767E+04  0.25500000920E-02 0.  1.
       -2    1    3    3    0  502 -0.11176620344E+04  0.38063845833E+03 -0.90172423783E+03  0.14856515945E+04  0.25500000920E-02 0. -1.
</event>
<event>
 5   0  0.1732312E-06  0.2688187E+04  0.7818609E-02  0.8338848E-01
       -1   -1    0    0    0  501  0.00000000000E+00  0.00000000000E+00  0.67929166048E+03  0.67929166050E+03  0.50400001928E-02 0.  1.
        1   -1    0    0  501    0  0.00000000000E+00  0.00000000000E+00 -0.26595169488E+04  0.26595169488E+04  0.50400001928E-02 0. -1.
    10030    2    1    2    0    0  0.00000000000E+00  0.00000000000E+00 -0.19802252883E+04  0.33388086093E+04  0.26881872585E+04 0.  0.
        5    1    3    3  502    0  0.39407574608E+03  0.60813554111E+03  0.41587441978E+03  0.83552268254E+03  0.46999998093E+01 0.  1.
       -5    1    3    3    0  502 -0.39407574608E+03 -0.60813554111E+03 -0.23960997081E+04  0.25032859267E+04  0.46999998093E+01 0. -1.
</event>
<event>
 5   0  0.1732312E-06  0.2700239E+04  0.7818609E-02  0.8334927E-01
       -1   -1    0    0    0  501  0.00000000000E+00  0.00000000000E+00  0.11361042363E+04  0.11361042363E+04  0.50400001928E-02 0. -1.
        1   -1    0    0  501    0  0.00000000000E+00  0.00000000000E+00 -0.16044506436E+04  0.16044506436E+04  0.50400001928E-02 0.  1.
    10030    2    1    2    0    0  0.00000000000E+00  0.00000000000E+00 -0.46834640733E+03  0.27405548799E+04  0.27002393769E+04 0.  0.
        5    1    3    3  502    0 -0.10684645888E+04  0.71715174089E+03 -0.64877925062E+03  0.14411314316E+04  0.46999998093E+01 0.  1.
       -5    1    3    3    0  502  0.10684645888E+04 -0.71715174089E+03  0.18043284329E+03  0.12994234483E+04  0.46999998093E+01 0. -1.
</event>
<event>
 5   0  0.4655882E-06  0.2697919E+04  0.7818609E-02  0.8335681E-01
        2   -1    0    0  501    0  0.00000000000E+00  0.00000000000E+00  0.22637457322E+04  0.22637457322E+04  0.25500000920E-02 0. -1.
       -2   -1    0    0    0  501  0.00000000000E+00  0.00000000000E+00 -0.80384082685E+03  0.80384082686E+03  0.25500000920E-02 0.  1.
    10030    2    1    2    0    0  0.00000000000E+00  0.00000000000E+00  0.14599049054E+04  0.30675865591E+04  0.26979186357E+04 0.  0.
        1    1    3    3  502    0  0.11930216054E+04 -0.16342294665E+03  0.14212787680E+04  0.18628045917E+04  0.50400001928E-02 0. -1.
       -1    1    3    3    0  502 -0.11930216054E+04  0.16342294665E+03  0.38626137370E+02  0.12047819674E+04  0.50400001928E-02 0.  1.
</event>
<event>
 5   0  0.4401659E-06  0.2693788E+04  0.7818609E-02  0.8337023E-01
        2   -1    0    0  501    0  0.00000000000E+00  0.00000000000E+00  0.14995911455E+04  0.14995911455E+04  0.25500000920E-02 0.  1.
       -2   -1    0    0    0  501  0.00000000000E+00  0.00000000000E+00 -0.12097453286E+04  0.12097453286E+04  0.25500000920E-02 0. -1.
    10030    2    1    2    0    0  0.00000000000E+00  0.00000000000E+00  0.28984581690E+03  0.27093364740E+04  0.26937879523E+04 0.  0.
        5    1    3    3  502    0  0.51107662249E+03 -0.87860096087E+03 -0.74389865134E+03  0.12595817782E+04  0.46999998093E+01 0. -1.
       -5    1    3    3    0  502 -0.51107662249E+03  0.87860096087E+03  0.10337444682E+04  0.14497546958E+04  0.46999998093E+01 0.  1.
</event>
<event>
 5   0  0.4401659E-06  0.2709119E+04  0.7818609E-02  0.8332052E-01
        2   -1    0    0  501    0  0.00000000000E+00  0.00000000000E+00  0.11439979969E+04  0.11439979969E+04  0.25500000920E-02 0. -1.
       -2   -1    0    0    0  501  0.00000000000E+00  0.00000000000E+00 -0.16038758797E+04  0.16038758797E+04  0.25500000920E-02 0.  1.
    10030    2    1    2    0    0  0.00000000000E+00  0.00000000000E+00 -0.45987788280E+03  0.27478738767E+04  0.27091185236E+04 0.  0.
        5    1    3    3  502    0  0.44232977528E+03 -0.78071740530E+03 -0.12591634089E+04  0.15461855896E+04  0.46999998093E+01 0.  1.
       -5    1    3    3    0  502 -0.44232977528E+03  0.78071740530E+03  0.79928552615E+03  0.12016882871E+04  0.46999998093E+01 0. -1.
</event>
<event>
 5   0  0.1828511E-06  0.2652073E+04  0.7818609E-02  0.8350725E-01
       -1   -1    0    0    0  501  0.00000000000E+00  0.00000000000E+00  0.14321505839E+04  0.14321505839E+04  0.50400001928E-02 0.  1.
        1   -1    0    0  501    0  0.00000000000E+00  0.00000000000E+00 -0.12277851560E+04  0.12277851560E+04  0.50400001928E-02 0. -1.
    10030    2    1    2    0    0  0.00000000000E+00  0.00000000000E+00  0.20436542788E+03  0.26599357399E+04  0.26520733234E+04 0.  0.
        4    1    3    3  502    0  0.77418647434E+03  0.88481702966E+03 -0.51291002432E+03  0.12827097018E+04  0.12699999809E+01 0. -1.
       -4    1    3    3    0  502 -0.77418647434E+03 -0.88481702966E+03  0.71727545219E+03  0.13772260382E+04  0.12699999809E+01 0.  1.
</event>
<event>
 5   0  0.1828511E-06  0.2698668E+04  0.7818609E-02  0.8335437E-01
       -1   -1    0    0    0  501  0.00000000000E+00  0.00000000000E+00  0.20118517984E+04  0.20118517985E+04  0.50400001928E-02 0.  1.
        1   -1    0    0  501    0  0.00000000000E+00  0.00000000000E+00 -0.90498832249E+03  0.90498832250E+03  0.50400001928E-02 0. -1.
    10030    2    1    2    0    0  0.00000000000E+00  0.00000000000E+00  0.11068634760E+04  0.29168401210E+04  0.26986681042E+04 0.  0.
        4    1    3    3  502    0  0.60147274861E+03  0.18775698641E+03 -0.73621014840E+03  0.96903516384E+03  0.12699999809E+01 0. -1.
       -4    1    3    3    0  502 -0.60147274861E+03 -0.18775698641E+03  0.18430736244E+04  0.19478049571E+04  0.12699999809E+01 0.  1.
</event>
<event>
 5   0  0.1771016E-06  0.2646345E+04  0.7818609E-02  0.8352627E-01
        1   -1    0    0  501    0  0.00000000000E+00  0.00000000000E+00  0.15358481480E+04  0.15358481480E+04  0.50400001928E-02 0. -1.
       -1   -1    0    0    0  501  0.00000000000E+00  0.00000000000E+00 -0.11399467662E+04  0.11399467662E+04  0.50400001928E-02 0.  1.
    10030    2    1    2    0    0  0.00000000000E+00  0.00000000000E+00  0.39590138182E+03  0.26757949143E+04  0.26463447468E+04 0.  0.
        2    1    3    3  502    0 -0.12784715617E+04 -0.24035846042E+03  0.44255899782E+03  0.13740888581E+04  0.25500000920E-02 0. -1.
       -2    1    3    3    0  502  0.12784715617E+04  0.24035846042E+03 -0.46657616000E+02  0.13017060561E+04  0.25500000920E-02 0.  1.
</event>
<event>
 5   0  0.4655882E-06  0.2687985E+04  0.7818609E-02  0.8338914E-01
        2   -1    0    0  501    0  0.00000000000E+00  0.00000000000E+00  0.13466834621E+04  0.13466834621E+04  0.25500000920E-02 0. -1.
       -2   -1    0    0    0  501  0.00000000000E+00  0.00000000000E+00 -0.13413068184E+04  0.13413068184E+04  0.25500000920E-02 0.  1.
    10030    2    1    2    0    0  0.00000000000E+00  0.00000000000E+00  0.53766437394E+01  0.26879902805E+04  0.26879849032E+04 0.  0.
        1    1    3    3  502    0  0.13430644738E+04 -0.41917399189E+02 -0.24449543764E+02  0.13439408578E+04  0.50400001928E-02 0. -1.
       -1    1    3    3    0  502 -0.13430644738E+04  0.41917399189E+02  0.29826187504E+02  0.13440494227E+04  0.50400001928E-02 0.  1.
</event>
<event>
 5   0  0.4401659E-06  0.2698880E+04  0.7818609E-02  0.8335368E-01
        2   -1    0    0  501    0  0.00000000000E+00  0.00000000000E+00  0.14059088603E+04  0.14059088603E+04  0.25500000920E-02 0. -1.
       -2   -1    0    0    0  501  0.00000000000E+00  0.00000000000E+00 -0.12952393789E+04  0.12952393789E+04  0.25500000920E-02 0.  1.
    10030    2    1    2    0    0  0.00000000000E+00  0.00000000000E+00  0.11066948140E+03  0.27011482392E+04  0.26988801522E+04 0.  0.
        5    1    3    3  502    0  0.50398707938E+03 -0.10408038114E+04 -0.64072861096E+03  0.13220555181E+04  0.46999998093E+01 0. -1.
       -5    1    3    3    0  502 -0.50398707938E+03  0.10408038114E+04  0.75139809236E+03  0.13790927211E+04  0.46999998093E+01 0.  1.
</event>
<event>
 5   0  0.4487186E-06  0.2692140E+04  0.7818609E-02  0.8337560E-01
        2   -1    0    0  501    0  0.00000000000E+00  0.00000000000E+00  0.67190461386E+03  0.67190461386E+03  0.25500000920E-02 0.  1.
       -2   -1    0    0    0  501  0.00000000000E+00  0.00000000000E+00 -0.26966683256E+04  0.26966683256E+04  0.25500000920E-02 0. -1.
    10030    2    1    2    0    0  0.00000000000E+00  0.00000000000E+00 -0.20247637118E+04  0.33685729395E+04  0.26921395878E+04 0.  0.
        3    1    3    3  502    0 -0.65270236029E+03 -0.40440596358E+03  0.37100700143E+03  0.85276653301E+03  0.10100000352E+00 0.  1.
       -3    1    3    3    0  502  0.65270236029E+03  0.40440596358E+03 -0.23957707132E+04  0.25158064065E+04  0.10100000352E+00 0. -1.
</event>
<event>
 5   0  0.1723605E-06  0.2709445E+04  0.7818609E-02  0.8331947E-01
       -1   -1    0    0    0  501  0.00000000000E+00  0.00000000000E+00  0.15816693122E+04  0.15816693122E+04  0.50400001928E-02 0.  1.
        1   -1    0    0  501    0  0.00000000000E+00  0.00000000000E+00 -0.11603397133E+04  0.11603397133E+04  0.50400001928E-02 0. -1.
    10030    2    1    2    0    0  0.00000000000E+00  0.00000000000E+00  0.42132959889E+03  0.27420090255E+04  0.27094454903E+04 0.  0.
        1    1    3    3  502    0 -0.29858287882E+03  0.91752444561E+03  0.11730251746E+04  0.15188781729E+04  0.50400001928E-02 0.  1.
       -1    1    3    3    0  502  0.29858287882E+03 -0.91752444561E+03 -0.75169557575E+03  0.12231308525E+04  0.50400001928E-02 0. -1.
</event>
<event>
 5   0  0.4655882E-06  0.2714330E+04  0.7818609E-02  0.8330370E-01
       -2   -1    0    0    0  501  0.00000000000E+00  0.00000000000E+00  0.14602002770E+04  0.14602002770E+04  0.25500000920E-02 0.  1.
        2   -1    0    0  501    0  0.00000000000E+00  0.00000000000E+00 -0.12614000663E+04  0.12614000663E+04  0.25500000920E-02 0. -1.
    10030    2    1    2    0    0  0.00000000000E+00  0.00000000000E+00  0.19880021069E+03  0.27216003433E+04  0.27143299182E+04 0.  0.
        1    1    3    3  502    0 -0.47385615213E+03 -0.80369116597E+03 -0.88885523103E+03  0.12886127288E+04  0.50400001928E-02 0. -1.
       -1    1    3    3    0  502  0.47385615213E+03  0.80369116597E+03  0.10876554417E+04  0.14329876144E+04  0.50400001928E-02 0.  1.
</event>
<event>
 5   0  0.1828511E-06  0.2678464E+04  0.7818609E-02  0.8342027E-01
       -1   -1    0    0    0  501  0.00000000000E+00  0.00000000000E+00  0.12481702102E+04  0.12481702102E+04  0.50400001928E-02 0. -1.
        1   -1    0    0  501    0  0.00000000000E+00  0.00000000000E+00 -0.14369375243E+04  0.14369375243E+04  0.50400001928E-02 0.  1.
    10030    2    1    2    0    0  0.00000000000E+00  0.00000000000E+00 -0.18876731411E+03  0.26851077344E+04  0.26784641955E+04 0.  0.
        4    1    3    3  502    0 -0.12086789043E+04 -0.25682852871E+03  0.42330346009E+03  0.13061596453E+04  0.12699999809E+01 0. -1.
       -4    1    3    3    0  502  0.12086789043E+04  0.25682852871E+03 -0.61207077420E+03  0.13789480891E+04  0.12699999809E+01 0.  1.
</event>
<event>
 5   0  0.4487186E-06  0.2702795E+04  0.7818609E-02  0.8334099E-01
        2   -1    0    0  501    0  0.00000000000E+00  0.00000000000E+00  0.19519282742E+04  0.19519282742E+04  0.25500000920E-02 0. -1.
       -2   -1    0    0    0  501  0.00000000000E+00  0.00000000000E+00 -0.93562608689E+03  0.93562608689E+03  0.25500000920E-02 0.  1.
    10030    2    1    2    0    0  0.00000000000E+00  0.00000000000E+00  0.10163021873E+04  0.28875543611E+04  0.27027948595E+04 0.  0.
        3    1    3    3  502    0 -0.11497985938E+04  0.33840695031E+03 -0.15879823069E+03  0.12090380303E+04  0.10100000352E+00 0.  1.
       -3    1    3    3    0  502  0.11497985938E+04 -0.33840695031E+03  0.11751004180E+04  0.16785163309E+04  0.10100000352E+00 0. -1.
</event>
<event>
 5   0  0.4439357E-06  0.2698214E+04  0.7818609E-02  0.8335585E-01
        2   -1    0    0  501    0  0.00000000000E+00  0.00000000000E+00  0.24860023236E+04  0.24860023236E+04  0.25500000920E-02 0.  1.
       -2   -1    0    0    0  501  0.00000000000E+00  0.00000000000E+00 -0.73213510799E+03  0.73213510800E+03  0.25500000920E-02 0. -1.
    10030    2    1    2    0    0  0.00000000000E+00  0.00000000000E+00  0.17538672156E+04  0.32181374316E+04  0.26982139127E+04 0.  0.
        4    1    3    3  502    0 -0.56343664877E+03  0.53811969502E+03 -0.43668209402E+03  0.89315537701E+03  0.12699999809E+01 0. -1.
       -4    1    3    3    0  502  0.56343664877E+03 -0.53811969502E+03  0.21905493097E+04  0.23249820546E+04  0.12699999809E+01 0.  1.
</event>
<event>
 5   0  0.1753474E-06  0.2719162E+04  0.7818609E-02  0.8328814E-01
       -1   -1    0    0    0  501  0.00000000000E+00  0.00000000000E+00  0.10738852915E+04  0.10738852915E+04  0.50400001928E-02 0.  1.
        1   -1    0    0  501    0  0.00000000000E+00  0.00000000000E+00 -0.17212832703E+04  0.17212832703E+04  0.50400001928E-02 0. -1.
    10030    2    1    2    0    0  0.00000000000E+00  0.00000000000E+00 -0.64739797876E+03  0.27951685618E+04  0.27191622140E+04 0.  0.
        3    1    3    3  502    0  0.85347923440E+03 -0.99855113483E+03 -0.68411255368E+03  0.14810608255E+04  0.10100000352E+00 0.  1.
       -3    1    3    3    0  502 -0.85347923440E+03  0.99855113483E+03  0.36714574928E+02  0.13141077363E+04  0.10100000352E+00 0. -1.
</event>
<event>
 5   0  0.4487186E-06  0.2700018E+04  0.7818609E-02  0.8334999E-01
        2   -1    0    0  501    0  0.00000000000E+00  0.00000000000E+00  0.22956940154E+04  0.22956940154E+04  0.25500000920E-02 0. -1.
       -2   -1    0    0    0  501  0.00000000000E+00  0.00000000000E+00 -0.79388792471E+03  0.79388792472E+03  0.25500000920E-02 0.  1.
    10030    2    1    2    0    0  0.00000000000E+00  0.00000000000E+00  0.15018060907E+04  0.30895819401E+04  0.27000175982E+04 0.  0.
        3    1    3    3  502    0 -0.88161028785E+03 -0.24268172945E+03 -0.38556710002E+03  0.99236743209E+03  0.10100000352E+00 0.  1.
       -3    1    3    3    0  502  0.88161028785E+03  0.24268172945E+03  0.18873731907E+04  0.20972145080E+04  0.10100000352E+00 0. -1.
</event>
<event>
 5   0  0.1732312E-06  0.2705276E+04  0.7818609E-02  0.8333295E-01
        1   -1    0    0  501    0  0.00000000000E+00  0.00000000000E+00  0.91469252854E+03  0.91469252856E+03  0.50400001928E-02 0.  1.
       -1   -1    0    0    0  501  0.00000000000E+00  0.00000000000E+00 -0.20002677233E+04  0.20002677233E+04  0.50400001928E-02 0. -1.
    10030    2    1    2    0    0  0.00000000000E+00  0.00000000000E+00 -0.10855751947E+04  0.29149602518E+04  0.27052762828E+04 0.  0.
        5    1    3    3  502    0 -0.66816804251E+03  0.87680230823E+03  0.30178793855E+03  0.11429474487E+04  0.46999998093E+01 0.  1.
       -5    1    3    3    0  502  0.66816804251E+03 -0.87680230823E+03 -0.13873631333E+04  0.17720128031E+04  0.46999998093E+01 0. -1.
</event>
<event>
 5   0  0.1732312E-06  0.2706419E+04  0.7818609E-02  0.8332925E-01
       -1   -1    0    0    0  501  0.00000000000E+00  0.00000000000E+00  0.13890817960E+04  0.13890817961E+04  0.50400001928E-02 0. -1.
        1   -1    0    0  501    0  0.00000000000E+00  0.00000000000E+00 -0.13182632304E+04  0.13182632305E+04  0.50400001928E-02 0.  1.
    10030    2    1    2    0    0  0.00000000000E+00  0.00000000000E+00  0.70818565601E+02  0.27073450265E+04  0.27064186342E+04 0.  0.
        5    1    3    3  502    0 -0.33858530807E+03  0.60190803666E+03  0.11995172303E+04  0.13841231777E+04  0.46999998093E+01 0. -1.
       -5    1    3    3    0  502  0.33858530807E+03 -0.60190803666E+03 -0.11286986647E+04  0.13232218488E+04  0.46999998093E+01 0.  1.
</event>
<event>
 5   0  0.1723605E-06  0.2694022E+04  0.7818609E-02  0.8336947E-01
        1   -1    0    0  501    0  0.00000000000E+00  0.00000000000E+00  0.10792026947E+04  0.10792026947E+04  0.50400001928E-02 0.  1.
       -1   -1    0    0    0  501  0.00000000000E+00  0.00000000000E+00 -0.16812773876E+04  0.16812773876E+04  0.50400001928E-02 0. -1.
    10030    2    1    2    0    0  0.00000000000E+00  0.00000000000E+00 -0.60207469289E+03  0.27604800822E+04  0.26940223363E+04 0.  0.
        1    1    3    3  502    0  0.12689038837E+04  0.14673913562E+02  0.16188916527E+03  0.12792734233E+04  0.50400001928E-02 0. -1.
       -1    1    3    3    0  502 -0.12689038837E+04 -0.14673913562E+02 -0.76396385816E+03  0.14812066589E+04  0.50400001928E-02 0.  1.
</event>
<event>
 5   0  0.1753474E-06  0.2693760E+04  0.7818609E-02  0.8337032E-01
       -1   -1    0    0    0  501  0.00000000000E+00  0.00000000000E+00  0.18718269312E+04  0.18718269312E+04  0.50400001928E-02 0.  1.
        1   -1    0    0  501    0  0.00000000000E+00  0.00000000000E+00 -0.96915265916E+03  0.96915265918E+03  0.50400001928E-02 0. -1.
    10030    2    1    2    0    0  0.00000000000E+00  0.00000000000E+00  0.90267427201E+03  0.28409795904E+04  0.26937602327E+04 0.  0.
        3    1    3    3  502    0 -0.25985328860E+03 -0.94271881429E+03  0.14281541600E+04  0.17308572470E+04  0.10100000352E+00 0.  1.
       -3    1    3    3    0  502  0.25985328860E+03  0.94271881429E+03 -0.52547988800E+03  0.11101223434E+04  0.10100000352E+00 0. -1.
</event>
<event>
 5   0  0.1753474E-06  0.2722669E+04  0.7818609E-02  0.8327687E-01
        1   -1    0    0  501    0  0.00000000000E+00  0.00000000000E+00  0.11889681398E+04  0.11889681398E+04  0.50400001928E-02 0.  1.
       -1   -1    0    0    0  501  0.00000000000E+00  0.00000000000E+00 -0.15586889283E+04  0.15586889283E+04  0.50400001928E-02 0. -1.
    10030    2    1    2    0    0  0.00000000000E+00  0.00000000000E+00 -0.36972078848E+03  0.27476570682E+04  0.27226688934E+04 0.  0.
        3    1    3    3  502    0  0.93339957751E+03 -0.36947798757E+03  0.74307996502E+03  0.12489662122E+04  0.10100000352E+00 0.  1.
       -3    1    3    3    0  502 -0.93339957751E+03  0.36947798757E+03 -0.11128007535E+04  0.14986908560E+04  0.10100000352E+00 0. -1.
</event>
<event>
 5   0  0.1828511E-06  0.2672201E+04  0.7818609E-02  0.8344081E-01
       -1   -1    0    0    0  501  0.00000000000E+00  0.00000000000E+00  0.80378355244E+03  0.80378355245E+03  0.50400001928E-02 0. -1.
        1   -1    0    0  501    0  0.00000000000E+00  0.00000000000E+00 -0.22209518983E+04  0.22209518983E+04  0.50400001928E-02 0.  1.
    10030    2    1    2    0    0  0.00000000000E+00  0.00000000000E+00 -0.14171683458E+04  0.30247354507E+04  0.26722010453E+04 0.  0.
        4    1    3    3  502    0 -0.18761448631E+03  0.57595294822E+03  0.63942683305E+03  0.88078901092E+03  0.12699999809E+01 0. -1.
       -4    1    3    3    0  502  0.18761448631E+03 -0.57595294822E+03 -0.20565951789E+04  0.21439464398E+04  0.12699999809E+01 0.  1.
</event>
<event>
 5   0  0.1753474E-06  0.2703123E+04  0.7818609E-02  0.8333992E-01
       -1   -1    0    0    0  501  0.00000000000E+00  0.00000000000E+00  0.63991800104E+03  0.63991800106E+03  0.50400001928E-02 0. -1.
        1   -1    0    0  501    0  0.00000000000E+00  0.00000000000E+00 -0.28546134203E+04  0.28546134203E+04  0.50400001928E-02 0.  1.
    10030    2    1    2    0    0  0.00000000000E+00  0.00000000000E+00 -0.22146954193E+04  0.34945314214E+04  0.27031230188E+04 0.  0.
        3    1    3    3  502    0 -0.47732703312E+03 -0.10961119247E+04 -0.19223256308E+04  0.22637663945E+04  0.10100000352E+00 0. -1.
       -3    1    3    3    0  502  0.47732703312E+03  0.10961119247E+04 -0.29236978851E+03  0.12307650269E+04  0.10100000352E+00 0.  1.
</event>
<event>
 5   0  0.1723605E-06  0.2779639E+04  0.7818609E-02  0.8309618E-01
       -1   -1    0    0    0  501  0.00000000000E+00  0.00000000000E+00  0.63158600912E+03  0.63158600914E+03  0.50400001928E-02 0.  1.
        1   -1    0    0  501    0  0.00000000000E+00  0.00000000000E+00 -0.30583286914E+04  0.30583286914E+04  0.50400001928E-02 0. -1.
    10030    2    1    2    0    0  0.00000000000E+00  0.00000000000E+00 -0.24267426823E+04  0.36899147006E+04  0.27796385469E+04 0.  0.
        1    1    3    3  502    0  0.39852256105E+03 -0.12930596793E+04 -0.79196375389E+03  0.15678106242E+04  0.50400001928E-02 0.  1.
       -1    1    3    3    0  502 -0.39852256105E+03  0.12930596793E+04 -0.16347789284E+04  0.21221040763E+04  0.50400001928E-02 0. -1.
</event>
<event>
 5   0  0.1732312E-06  0.2709715E+04  0.7818609E-02  0.8331860E-01
       -1   -1    0    0    0  501  0.00000000000E+00  0.00000000000E+00  0.10454304440E+04  0.10454304440E+04  0.50400001928E-02 0. -1.
        1   -1    0    0  501    0  0.00000000000E+00  0.00000000000E+00 -0.17558694755E+04  0.17558694756E+04  0.50400001928E-02 0.  1.
    10030    2    1    2    0    0  0.00000000000E+00  0.00000000000E+00 -0.71043903159E+03  0.28012999195E+04  0.27097154134E+04 0.  0.
        5    1    3    3  502    0 -0.11372120653E+04 -0.51596834170E+03  0.18803421043E+03  0.12628751187E+04  0.46999998093E+01 0.  1.
       -5    1    3    3    0  502  0.11372120653E+04  0.51596834170E+03 -0.89847324202E+03  0.15384248008E+04  0.46999998093E+01 0. -1.
</event>
<event>
 5   0  0.4487186E-06  0.2703745E+04  0.7818609E-02  0.8333791E-01
       -2   -1    0    0    0  501  0.00000000000E+00  0.00000000000E+00  0.93846079868E+03  0.93846079869E+03  0.25500000920E-02 0.  1.
        2   -1    0    0  501    0  0.00000000000E+00  0.00000000000E+00 -0.19474001895E+04  0.19474001895E+04  0.25500000920E-02 0. -1.
    10030    2    1    2    0    0  0.00000000000E+00  0.00000000000E+00 -0.10089393908E+04  0.28858609882E+04  0.27037446160E+04 0.  0.
        3    1    3    3  502    0 -0.12166973103E+04 -0.21569321028E+03 -0.10897501859E+04  0.16475531505E+04  0.10100000352E+00 0. -1.
       -3    1    3    3    0  502  0.12166973103E+04  0.21569321028E+03  0.80810795159E+02  0.12383078376E+04  0.10100000352E+00 0.  1.
</event>
<event>
 5   0  0.4448804E-06  0.2669919E+04  0.7818609E-02  0.8344832E-01
       -2   -1    0    0    0  501  0.00000000000E+00  0.00000000000E+00  0.96165122999E+03  0.96165123000E+03  0.25500000920E-02 0.  1.
        2   -1    0    0  501    0  0.00000000000E+00  0.00000000000E+00 -0.18531842484E+04  0.18531842484E+04  0.25500000920E-02 0. -1.
    10030    2    1    2    0    0  0.00000000000E+00  0.00000000000E+00 -0.89153301842E+03  0.28148354784E+04  0.26699190339E+04 0.  0.
        2    1    3    3  502    0 -0.16547734159E+03 -0.40670698350E+03 -0.17748770116E+04  0.18283822706E+04  0.25500000920E-02 0. -1.
       -2    1    3    3    0  502  0.16547734159E+03  0.40670698350E+03  0.88334399317E+03  0.98645320786E+03  0.25500000920E-02 0.  1.
</event>
<event>
 5   0  0.1732312E-06  0.2696071E+04  0.7818609E-02  0.8336281E-01
        1   -1    0    0  501    0  0.00000000000E+00  0.00000000000E+00  0.21536997161E+04  0.21536997161E+04  0.50400001928E-02 0. -1.
       -1   -1    0    0    0  501  0.00000000000E+00  0.00000000000E+00 -0.84375740899E+03  0.84375740901E+03  0.50400001928E-02 0.  1.
    10030    2    1    2    0    0  0.00000000000E+00  0.00000000000E+00  0.13099423071E+04  0.29974571251E+04  0.26960712841E+04 0.  0.
        5    1    3    3  502    0  0.52823122981E+03 -0.10665221497E+04  0.13587246899E+04  0.18062814291E+04  0.46999998093E+01 0. -1.
       -5    1    3    3    0  502 -0.52823122981E+03  0.10665221497E+04 -0.48782382798E+02  0.11911756961E+04  0.46999998093E+01 0.  1.
</event>
<event>
 5   0  0.4487186E-06  0.2697147E+04  0.7818609E-02  0.8335931E-01
       -2   -1    0    0    0  501  0.00000000000E+00  0.00000000000E+00  0.13857356161E+04  0.13857356161E+04  0.25500000920E-02 0.  1.
        2   -1    0    0  501    0  0.00000000000E+00  0.00000000000E+00 -0.13124075044E+04  0.13124075044E+04  0.25500000920E-02 0. -1.
    10030    2    1    2    0    0  0.00000000000E+00  0.00000000000E+00  0.73328111727E+02  0.26981431205E+04  0.26971465082E+04 0.  0.
        3    1    3    3  502    0 -0.11992560412E+04  0.43981730557E+03 -0.39592548886E+03  0.13373149658E+04  0.10100000352E+00 0.  1.
       -3    1    3    3    0  502  0.11992560412E+04 -0.43981730557E+03  0.46925360058E+03  0.13608281547E+04  0.10100000352E+00 0. -1.
</event>
<event>
 5   0  0.4655882E-06  0.2720862E+04  0.7818609E-02  0.8328267E-01
       -2   -1    0    0    0  501  0.00000000000E+00  0.00000000000E+00  0.96683800841E+03  0.96683800842E+03  0.25500000920E-02 0. -1.
        2   -1    0    0  501    0  0.00000000000E+00  0.00000000000E+00 -0.19142534094E+04  0.19142534094E+04  0.25500000920E-02 0.  1.
    10030    2    1    2    0    0  0.00000000000E+00  0.00000000000E+00 -0.94741540097E+03  0.28810914178E+04  0.27208623294E+04 0.  0.
        1    1    3    3  502    0 -0.97983843176E+03 -0.68323034939E+03 -0.11631135305E+04  0.16672492758E+04  0.50400001928E-02 0.  1.
       -1    1    3    3    0  502  0.97983843176E+03  0.68323034939E+03  0.21569812953E+03  0.12138421420E+04  0.50400001928E-02 0. -1.
</event>
<event>
 5   0  0.4439357E-06  0.2696690E+04  0.7818609E-02  0.8336080E-01
        2   -1    0    0  501    0  0.00000000000E+00  0.00000000000E+00  0.23990794406E+04  0.23990794406E+04  0.25500000920E-02 0. -1.
       -2   -1    0    0    0  501  0.00000000000E+00  0.00000000000E+00 -0.75780484570E+03  0.75780484571E+03  0.25500000920E-02 0.  1.
    10030    2    1    2    0    0  0.00000000000E+00  0.00000000000E+00  0.16412745949E+04  0.31568842863E+04  0.26966898415E+04 0.  0.
        4    1    3    3  502    0 -0.66756650106E+03  0.78083052880E+03  0.18429929285E+04  0.21099682214E+04  0.12699999809E+01 0. -1.
       -4    1    3    3    0  502  0.66756650106E+03 -0.78083052880E+03 -0.20171833353E+03  0.10469160649E+04  0.12699999809E+01 0.  1.
</event>
<event>
 5   0  0.4448804E-06  0.2683980E+04  0.7818609E-02  0.8340222E-01
        2   -1    0    0  501    0  0.00000000000E+00  0.00000000000E+00  0.11993672780E+04  0.11993672780E+04  0.25500000920E-02 0. -1.
       -2   -1    0    0    0  501  0.00000000000E+00  0.00000000000E+00 -0.15015731417E+04  0.15015731417E+04  0.25500000920E-02 0.  1.
    10030    2    1    2    0    0  0.00000000000E+00  0.00000000000E+00 -0.30220586368E+03  0.27009404198E+04  0.26839803962E+04 0.  0.
        2    1    3    3  502    0  0.81625140226E+03  0.20533116261E+03 -0.12029399842E+04  0.14681593387E+04  0.25500000920E-02 0.  1.
       -2    1    3    3    0  502 -0.81625140226E+03 -0.20533116261E+03  0.90073412054E+03  0.12327810811E+04  0.25500000920E-02 0. -1.
</event>
<event>
 5   0  0.1732312E-06  0.2695289E+04  0.7818609E-02  0.8336535E-01
       -1   -1    0    0    0  501  0.00000000000E+00  0.00000000000E+00  0.11296528851E+04  0.11296528851E+04  0.50400001928E-02 0. -1.
        1   -1    0    0  501    0  0.00000000000E+00  0.00000000000E+00 -0.16077018987E+04  0.16077018987E+04  0.50400001928E-02 0.  1.
    10030    2    1    2    0    0  0.00000000000E+00  0.00000000000E+00 -0.47804901364E+03  0.27373547838E+04  0.26952885472E+04 0.  0.
        5    1    3    3  502    0 -0.72998397915E+03  0.26089418095E+03  0.88053257047E+03  0.11731590178E+04  0.46999998093E+01 0. -1.
       -5    1    3    3    0  502  0.72998397915E+03 -0.26089418095E+03 -0.13585815841E+04  0.15641957659E+04  0.46999998093E+01 0.  1.
</event>
<event>
 5   0  0.4448804E-06  0.2682497E+04  0.7818609E-02  0.8340706E-01
       -2   -1    0    0    0  501  0.00000000000E+00  0.00000000000E+00  0.64843451232E+03  0.64843451232E+03  0.25500000920E-02 0. -1.
        2   -1    0    0  501    0  0.00000000000E+00  0.00000000000E+00 -0.27742941233E+04  0.27742941233E+04  0.25500000920E-02 0.  1.
    10030    2    1    2    0    0  0.00000000000E+00  0.00000000000E+00 -0.21258596110E+04  0.34227286356E+04  0.26824973863E+04 0.  0.
        2    1    3    3  502    0 -0.10687934754E+03 -0.54078700257E+03 -0.26230733052E+04  0.26803707470E+04  0.25500000920E-02 0.  1.
       -2    1    3    3    0  502  0.10687934754E+03  0.54078700257E+03  0.49721369420E+03  0.74235788861E+03  0.25500000920E-02 0. -1.
</event>
<event>
 5   0  0.1732312E-06  0.2700097E+04  0.7818609E-02  0.8334973E-01
       -1   -1    0    0    0  501  0.00000000000E+00  0.00000000000E+00  0.13831313707E+04  0.13831313707E+04  0.50400001928E-02 0. -1.
        1   -1    0    0  501    0  0.00000000000E+00  0.00000000000E+00 -0.13177571695E+04  0.13177571695E+04  0.50400001928E-02 0.  1.
    10030    2    1    2    0    0  0.00000000000E+00  0.00000000000E+00  0.65374201180E+02  0.27008885402E+04  0.27000972428E+04 0.  0.
        5    1    3    3  502    0 -0.62022961961E+03  0.90264575925E+03 -0.75694594250E+03  0.13313314379E+04  0.46999998093E+01 0.  1.
       -5    1    3    3    0  502  0.62022961961E+03 -0.90264575925E+03  0.82232014368E+03  0.13695571023E+04  0.46999998093E+01 0. -1.
</event>
<event>
 5   0  0.1828511E-06  0.2702076E+04  0.7818609E-02  0.8334332E-01
        1   -1    0    0  501    0  0.00000000000E+00  0.00000000000E+00  0.25222405414E+04  0.25222405414E+04  0.50400001928E-02 0. -1.
       -1   -1    0    0    0  501  0.00000000000E+00  0.00000000000E+00 -0.72368347052E+03  0.72368347053E+03  0.50400001928E-02 0.  1.
    10030    2    1    2    0    0  0.00000000000E+00  0.00000000000E+00  0.17985570709E+04  0.32459240119E+04  0.27020760822E+04 0.  0.
        4    1    3    3  502    0 -0.50895731235E+03  0.12470650771E+04  0.77275491493E+03  0.15528556352E+04  0.12699999809E+01 0.  1.
       -4    1    3    3    0  502  0.50895731235E+03 -0.12470650771E+04  0.10258021559E+04  0.16930683767E+04  0.12699999809E+01 0. -1.
</event>
<event>
 5   0  0.1771016E-06  0.2680293E+04  0.7818609E-02  0.8341428E-01
       -1   -1    0    0    0  501  0.00000000000E+00  0.00000000000E+00  0.10316938924E+04  0.10316938924E+04  0.50400001928E-02 0. -1.
        1   -1    0    0  501    0  0.00000000000E+00  0.00000000000E+00 -0.17408188851E+04  0.17408188851E+04  0.50400001928E-02 0.  1.
    10030    2    1    2    0    0  0.00000000000E+00  0.00000000000E+00 -0.70912499272E+03  0.27725127776E+04  0.26802926792E+04 0.  0.
        2    1    3    3  502    0 -0.47983199903E+03  0.48326083343E+03  0.83936533788E+03  0.10808857252E+04  0.25500000920E-02 0. -1.
       -2    1    3    3    0  502  0.47983199903E+03 -0.48326083343E+03 -0.15484903306E+04  0.16916270524E+04  0.25500000920E-02 0.  1.
</event>
<event>
 5   0  0.1828511E-06  0.2701800E+04  0.7818609E-02  0.8334421E-01
        1   -1    0    0  501    0  0.00000000000E+00  0.00000000000E+00  0.14366817516E+04  0.14366817516E+04  0.50400001928E-02 0. -1.
       -1   -1    0    0    0  501  0.00000000000E+00  0.00000000000E+00 -0.12702402118E+04  0.12702402118E+04  0.50400001928E-02 0.  1.
    10030    2    1    2    0    0  0.00000000000E+00  0.00000000000E+00  0.16644153977E+03  0.27069219634E+04  0.27018000906E+04 0.  0.
        4    1    3    3  502    0 -0.67374281810E+03 -0.10476821832E+04  0.60705223021E+03  0.13856700058E+04  0.12699999809E+01 0. -1.
       -4    1    3    3    0  502  0.67374281810E+03  0.10476821832E+04 -0.44061069044E+03  0.13212519576E+04  0.12699999809E+01 0.  1.
</event>
<event>
 5   0  0.4655882E-06  0.2697631E+04  0.7818609E-02  0.8335774E-01
       -2   -1    0    0    0  501  0.00000000000E+00  0.00000000000E+00  0.16850823150E+04  0.16850823150E+04  0.25500000920E-02 0.  1.
        2   -1    0    0  501    0  0.00000000000E+00  0.00000000000E+00 -0.10796525962E+04  0.10796525962E+04  0.25500000920E-02 0. -1.
    10030    2    1    2    0    0  0.00000000000E+00  0.00000000000E+00  0.60542971878E+03  0.27647349112E+04  0.26976311803E+04 0.  0.
        1    1    3    3  502    0  0.56212625861E+03  0.12258176032E+04  0.27581761240E+03  0.13764774180E+04  0.50400001928E-02 0.  1.
       -1    1    3    3    0  502 -0.56212625861E+03 -0.12258176032E+04  0.32961210638E+03  0.13882574932E+04  0.50400001928E-02 0. -1.
</event>
<event>
 5   0  0.4439357E-06  0.2695760E+04  0.7818609E-02  0.8336382E-01
       -2   -1    0    0    0  501  0.00000000000E+00  0.00000000000E+00  0.12607617414E+04  0.12607617414E+04  0.25500000920E-02 0.  1.
        2   -1    0    0  501    0  0.00000000000E+00  0.00000000000E+00 -0.14410176770E+04  0.14410176770E+04  0.25500000920E-02 0. -1.
    10030    2    1    2    0    0  0.00000000000E+00  0.00000000000E+00 -0.18025593559E+03  0.27017794184E+04  0.26957596004E+04 0.  0.
        4    1    3    3  502    0  0.79392282723E+03  0.63235196008E+03  0.79875495731E+03  0.12915856734E+04  0.12699999809E+01 0. -1.
       -4    1    3    3    0  502 -0.79392282723E+03 -0.63235196008E+03 -0.97901089290E+03  0.14101937450E+04  0.12699999809E+01 0.  1.
</event>
<event>
 5   0  0.1753474E-06  0.2646880E+04  0.7818609E-02  0.8352449E-01
        1   -1    0    0  501    0  0.00000000000E+00  0.00000000000E+00  0.15749323094E+04  0.15749323094E+04  0.50400001928E-02 0.  1.
       -1   -1    0    0    0  501  0.00000000000E+00  0.00000000000E+00 -0.11121074399E+04  0.11121074399E+04  0.50400001928E-02 0. -1.
    10030    2    1    2    0    0  0.00000000000E+00  0.00000000000E+00  0.46282486949E+03  0.26870397494E+04  0.26468803817E+04 0.  0.
        3    1    3    3  502    0  0.67408325364E+03  0.90601829150E+03  0.93198179318E+03  0.14641883248E+04  0.10100000352E+00 0.  1.
       -3    1    3    3    0  502 -0.67408325364E+03 -0.90601829150E+03 -0.46915692370E+03  0.12228514246E+04  0.10100000352E+00 0. -1.
</event>
<event>
 5   0  0.4487186E-06  0.2697329E+04  0.7818609E-02  0.8335872E-01
        2   -1    0    0  501    0  0.00000000000E+00  0.00000000000E+00  0.18544065921E+04  0.18544065921E+04  0.25500000920E-02 0. -1.
       -2   -1    0    0    0  501  0.00000000000E+00  0.00000000000E+00 -0.98085069918E+03  0.98085069918E+03  0.25500000920E-02 0.  1.
    10030    2    1    2    0    0  0.00000000000E+00  0.00000000000E+00  0.87355589294E+03  0.28352572913E+04  0.26973290511E+04 0.  0.
        3    1    3    3  502    0 -0.57479052698E+03 -0.10866790339E+04 -0.14623783967E+03  0.12379987838E+04  0.10100000352E+00 0.  1.
       -3    1    3    3    0  502  0.57479052698E+03  0.10866790339E+04  0.10197937326E+04  0.15972585075E+04  0.10100000352E+00 0. -1.
</event>
<event>
 5   0  0.1753474E-06  0.2719196E+04  0.7818609E-02  0.8328803E-01
        1   -1    0    0  501    0  0.00000000000E+00  0.00000000000E+00  0.18203031798E+04  0.18203031798E+04  0.50400001928E-02 0. -1.
       -1   -1    0    0    0  501  0.00000000000E+00  0.00000000000E+00 -0.10154938705E+04  0.10154938706E+04  0.50400001928E-02 0.  1.
    10030    2    1    2    0    0  0.00000000000E+00  0.00000000000E+00  0.80480930924E+03  0.28357970504E+04  0.27191960000E+04 0.  0.
        3    1    3    3  502    0  0.53518474234E+03 -0.82838297656E+03 -0.57360335158E+03  0.11409039747E+04  0.10100000352E+00 0.  1.
       -3    1    3    3    0  502 -0.53518474234E+03  0.82838297656E+03  0.13784126608E+04  0.16948930757E+04  0.10100000352E+00 0. -1.
</event>
<event>
 5   0  0.1771016E-06  0.2701960E+04  0.7818609E-02  0.8334369E-01
       -1   -1    0    0    0  501  0.00000000000E+00  0.00000000000E+00  0.94196953475E+03  0.94196953477E+03  0.50400001928E-02 0.  1.
        1   -1    0    0  501    0  0.00000000000E+00  0.00000000000E+00 -0.19375856121E+04  0.19375856121E+04  0.50400001928E-02 0. -1.
    10030    2    1    2    0    0  0.00000000000E+00  0.00000000000E+00 -0.99561607737E+03  0.28795551469E+04  0.27019597463E+04 0.  0.
        2    1    3    3  502    0  0.51793049937E+03 -0.10157969527E+04 -0.12700392301E+04  0.17067791589E+04  0.25500000920E-02 0. -1.
       -2    1    3    3    0  502 -0.51793049937E+03  0.10157969527E+04  0.27442315273E+03  0.11727759880E+04  0.25500000920E-02 0.  1.
</event>
<event>
 5   0  0.4448804E-06  0.2708987E+04  0.7818609E-02  0.8332095E-01
        2   -1    0    0  501    0  0.00000000000E+00  0.00000000000E+00  0.13917817878E+04  0.13917817878E+04  0.25500000920E-02 0. -1.
       -2   -1    0    0    0  501  0.00000000000E+00  0.00000000000E+00 -0.13182039375E+04  0.13182039375E+04  0.25500000920E-02 0.  1.
    10030    2    1    2    0    0  0.00000000000E+00  0.00000000000E+00  0.73577850367E+02  0.27099857253E+04  0.27089866982E+04 0.  0.
        2    1    3    3  502    0  0.67820205830E+03 -0.30289938476E+03 -0.10963009188E+04  0.13242287467E+04  0.25500000920E-02 0.  1.
       -2    1    3    3    0  502 -0.67820205830E+03  0.30289938476E+03  0.11698787691E+04  0.13857569786E+04  0.25500000920E-02 0. -1.
</event>
<event>
 5   0  0.1482875E-06  0.2698580E+04  0.7818609E-02  0.8335466E-01
        3   -1    0    0  501    0  0.00000000000E+00  0.00000000000E+00  0.20182168546E+04  0.20182168571E+04  0.10100000352E+00 0. -1.
       -3   -1    0    0    0  501  0.00000000000E+00  0.00000000000E+00 -0.90207554216E+03  0.90207554782E+03  0.10100000352E+00 0.  1.
    10030    2    1    2    0    0  0.00000000000E+00  0.00000000000E+00  0.11161413124E+04  0.29202924050E+04  0.26985804233E+04 0.  0.
        3    1    3    3  502    0  0.43265220643E+02 -0.62755826428E+03  0.18498268337E+04  0.19538578708E+04  0.10100000352E+00 0. -1.
       -3    1    3    3    0  502 -0.43265220643E+02  0.62755826428E+03 -0.73368552130E+03  0.96643453412E+03  0.10100000352E+00 0.  1.
</event>
<event>
 5   0  0.1723605E-06  0.2700530E+04  0.7818609E-02  0.8334833E-01
        1   -1    0    0  501    0  0.00000000000E+00  0.00000000000E+00  0.12392669065E+04  0.12392669066E+04  0.50400001928E-02 0. -1.
       -1   -1    0    0    0  501  0.00000000000E+00  0.00000000000E+00 -0.14712052645E+04  0.14712052645E+04  0.50400001928E-02 0.  1.
    10030    2    1    2    0    0  0.00000000000E+00  0.00000000000E+00 -0.23193835794E+03  0.27104721710E+04  0.27005303161E+04 0.  0.
        1    1    3    3  502    0 -0.10623522349E+03 -0.59187651930E+03 -0.13293915131E+04  0.14590700915E+04  0.50400001928E-02 0.  1.
       -1    1    3    3    0  502  0.10623522349E+03  0.59187651930E+03  0.10974531552E+04  0.12514020795E+04  0.50400001928E-02 0. -1.
</event>
<event>
 5   0  0.4439357E-06  0.2831971E+04  0.7818609E-02  0.8293411E-01
       -2   -1    0    0    0  501  0.00000000000E+00  0.00000000000E+00  0.98682525633E+03  0.98682525633E+03  0.25500000920E-02 0. -1.
        2   -1    0    0  501    0  0.00000000000E+00  0.00000000000E+00 -0.20317830513E+04  0.20317830513E+04  0.25500000920E-02 0.  1.
    10030    2    1    2    0    0  0.00000000000E+00  0.00000000000E+00 -0.10449577949E+04  0.30186083076E+04  0.28319709253E+04 0.  0.
        4    1    3    3  502    0 -0.10364817803E+04 -0.83354696721E+03 -0.10402033607E+04  0.16885258872E+04  0.12699999809E+01 0.  1.
       -4    1    3    3    0  502  0.10364817803E+04  0.83354696721E+03 -0.47544342464E+01  0.13300824204E+04  0.12699999809E+01 0. -1.
</event>
<event>
 5   0  0.1723605E-06  0.2698140E+04  0.7818609E-02  0.8335609E-01
       -1   -1    0    0    0  501  0.00000000000E+00  0.00000000000E+00  0.95131162068E+03  0.95131162069E+03  0.50400001928E-02 0.  1.
        1   -1    0    0  501    0  0.00000000000E+00  0.00000000000E+00 -0.19131373080E+04  0.19131373080E+04  0.50400001928E-02 0. -1.
    10030    2    1    2    0    0  0.00000000000E+00  0.00000000000E+00 -0.96182568732E+03  0.28644489287E+04  0.26981399171E+04 0.  0.
        1    1    3    3  502    0 -0.17418937091E+03  0.35110025589E+03 -0.18513627735E+04  0.18923946327E+04  0.50400001928E-02 0. -1.
       -1    1    3    3    0  502  0.17418937091E+03 -0.35110025589E+03  0.88953708620E+03  0.97205429600E+03  0.50400001928E-02 0.  1.
</event>
<event>
 5   0  0.4439357E-06  0.2701543E+04  0.7818609E-02  0.8334504E-01
        2   -1    0    0  501    0  0.00000000000E+00  0.00000000000E+00  0.17857898484E+04  0.17857898484E+04  0.25500000920E-02 0.  1.
       -2   -1    0    0    0  501  0.00000000000E+00  0.00000000000E+00 -0.10217239322E+04  0.10217239322E+04  0.25500000920E-02 0. -1.
    10030    2    1    2    0    0  0.00000000000E+00  0.00000000000E+00  0.76406591623E+03  0.28075137807E+04  0.27015434300E+04 0.  0.
        4    1    3    3  502    0 -0.10965792595E+04 -0.42624964200E+03  0.10716967663E+04  0.15914491514E+04  0.12699999809E+01 0.  1.
       -4    1    3    3    0  502  0.10965792595E+04  0.42624964200E+03 -0.30763085009E+03  0.12160646292E+04  0.12699999809E+01 0. -1.
</event>
<event>
 5   0  0.4401659E-06  0.2707225E+04  0.7818609E-02  0.8332664E-01
       -2   -1    0    0    0  501  0.00000000000E+00  0.00000000000E+00  0.16345845357E+04  0.16345845357E+04  0.25500000920E-02 0.  1.
        2   -1    0    0  501    0  0.00000000000E+00  0.00000000000E+00 -0.11209376119E+04  0.11209376119E+04  0.25500000920E-02 0. -1.
    10030    2    1    2    0    0  0.00000000000E+00  0.00000000000E+00  0.51364692375E+03  0.27555221476E+04  0.27072253588E+04 0.  0.
        5    1    3    3  502    0 -0.87135205035E+03 -0.47485949693E+03  0.11938441077E+04  0.15524277055E+04  0.46999998093E+01 0.  1.
       -5    1    3    3    0  502  0.87135205035E+03  0.47485949693E+03 -0.68019718391E+03  0.12030944420E+04  0.46999998093E+01 0. -1.
</event>
<event>
 5   0  0.1828511E-06  0.2692948E+04  0.7818609E-02  0.8337297E-01
        1   -1    0    0  501    0  0.00000000000E+00  0.00000000000E+00  0.16016206630E+04  0.16016206630E+04  0.50400001928E-02 0.  1.
       -1   -1    0    0    0  501  0.00000000000E+00  0.00000000000E+00 -0.11319735154E+04  0.11319735154E+04  0.50400001928E-02 0. -1.
    10030    2    1    2    0    0  0.00000000000E+00  0.00000000000E+00  0.46964714763E+03  0.27335941784E+04  0.26929479551E+04 0.  0.
        4    1    3    3  502    0 -0.85690408711E+03 -0.16946427268E+03 -0.80533177876E+03  0.11880924379E+04  0.12699999809E+01 0. -1.
       -4    1    3    3    0  502  0.85690408711E+03  0.16946427268E+03  0.12749789264E+04  0.15455017405E+04  0.12699999809E+01 0.  1.
</event>
<event>
 5   0  0.4401659E-06  0.2716505E+04  0.7818609E-02  0.8329670E-01
        2   -1    0    0  501    0  0.00000000000E+00  0.00000000000E+00  0.19014309169E+04  0.19014309169E+04  0.25500000920E-02 0.  1.
       -2   -1    0    0    0  501  0.00000000000E+00  0.00000000000E+00 -0.97024274019E+03  0.97024274020E+03  0.25500000920E-02 0. -1.
    10030    2    1    2    0    0  0.00000000000E+00  0.00000000000E+00  0.93118817668E+03  0.28716736571E+04  0.27165047713E+04 0.  0.
        5    1    3    3  502    0  0.74854737634E+03  0.75468269946E+03 -0.42825657897E+03  0.11459908110E+04  0.46999998093E+01 0. -1.
       -5    1    3    3    0  502 -0.74854737634E+03 -0.75468269946E+03  0.13594447557E+04  0.17256828461E+04  0.46999998093E+01 0.  1.
</event>
<event>
 5   0  0.1771016E-06  0.2690147E+04  0.7818609E-02  0.8338209E-01
       -1   -1    0    0    0  501  0.00000000000E+00  0.00000000000E+00  0.18183412275E+04  0.18183412275E+04  0.50400001928E-02 0.  1.
        1   -1    0    0  501    0  0.00000000000E+00  0.00000000000E+00 -0.99498491488E+03  0.99498491489E+03  0.50400001928E-02 0. -1.
    10030    2    1    2    0    0  0.00000000000E+00  0.00000000000E+00  0.82335631258E+03  0.28133261424E+04  0.26901465324E+04 0.  0.
        2    1    3    3  502    0 -0.89778724352E+02  0.74349481534E+03  0.15801468531E+04  0.17486305605E+04  0.25500000920E-02 0.  1.
       -2    1    3    3    0  502  0.89778724352E+02 -0.74349481534E+03 -0.75679054053E+03  0.10646955819E+04  0.25500000920E-02 0. -1.
</event>
<event>
 5   0  0.4448804E-06  0.2701092E+04  0.7818609E-02  0.8334651E-01
        2   -1    0    0  501    0  0.00000000000E+00  0.00000000000E+00  0.21244613593E+04  0.21244613593E+04  0.25500000920E-02 0.  1.
       -2   -1    0    0    0  501  0.00000000000E+00  0.00000000000E+00 -0.85855864106E+03  0.85855864107E+03  0.25500000920E-02 0. -1.
    10030    2    1    2    0    0  0.00000000000E+00  0.00000000000E+00  0.12659027183E+04  0.29830200004E+04  0.27010921181E+04 0.  0.
        2    1    3    3  502    0  0.57703445007E+03  0.90911772277E+03 -0.26730834908E+03  0.11094672343E+04  0.25500000920E-02 0. -1.
       -2    1    3    3    0  502 -0.57703445007E+03 -0.90911772277E+03  0.15332110674E+04  0.18735527661E+04  0.25500000920E-02 0.  1.
</event>
<event>
 5   0  0.1732312E-06  0.2702369E+04  0.7818609E-02  0.8334237E-01
       -1   -1    0    0    0  501  0.00000000000E+00  0.00000000000E+00  0.14916518123E+04  0.14916518124E+04  0.50400001928E-02 0. -1.
        1   -1    0    0  501    0  0.00000000000E+00  0.00000000000E+00 -0.12239451830E+04  0.12239451830E+04  0.50400001928E-02 0.  1.
    10030    2    1    2    0    0  0.00000000000E+00  0.00000000000E+00  0.26770662932E+03  0.27155969954E+04  0.27023693682E+04 0.  0.
        5    1    3    3  502    0 -0.26486944344E+03  0.30065759445E+03 -0.11628610175E+04  0.12299669293E+04  0.46999998093E+01 0.  1.
       -5    1    3    3    0  502  0.26486944344E+03 -0.30065759445E+03  0.14305676468E+04  0.14856300661E+04  0.46999998093E+01 0. -1.
</event>
</LesHouchesEvents>
